Membrane in water
40167
    1TCq1    O1    1   3.174   2.229  10.801 -0.3399 -0.0235 -0.2250
    1TCq1    C1    2   3.209   2.272  10.921  0.4063 -0.1141  0.5173
    1TCq1    O2    3   3.315   2.323  10.949 -0.5012  0.1111 -0.8225
    1TCq1    C2    4   3.099   2.257  11.014 -0.2332  0.2893 -0.0225
    1TCq1    C3    5   2.965   2.275  10.972  0.5028  0.0943 -0.0743
    1TCq1    C4    6   2.859   2.270  11.066  0.1278  0.3114 -0.1214
    1TCq1    C5    7   2.891   2.249  11.199  0.2641 -0.4655 -0.6357
    1TCq1    C6    8   3.023   2.222  11.232  0.1854  0.2229 -0.6678
    1TCq1    C7    9   3.130   2.235  11.146  0.4617 -0.5051 -0.2446
    1TCq1    C8   10   3.051   2.202  11.377  0.5747  0.0409  0.3429
    1TCq1    O4   11   2.961   2.155  11.446 -0.0075 -0.7735  0.5590
    1TCq1    C9   12   2.725   2.294  11.025 -0.1603 -0.1836 -0.1389
    1TCq1    O5   13   2.633   2.224  11.074  0.7442  0.2452  0.0345
    1TCq1    O6   14   2.705   2.372  10.926 -0.1037  1.2092 -0.0574
    1TCq1    H1   15   3.089   2.179  10.808  0.1509 -0.9541 -0.8794
    1TCq1    H2   16   2.934   2.300  10.872 -3.3697  3.4845  1.9977
    1TCq1    H3   17   2.814   2.256  11.275 -1.5790  2.2897 -2.7593
    1TCq1    H4   18   3.233   2.216  11.173  0.6763 -1.9648 -2.1442
    2MPD2     C   19   3.350   2.228  11.804 -0.3199 -0.2078  0.0462
    2MPD2    C1   20   3.229   2.162  11.785 -0.8474 -0.0796  0.3378
    2MPD2    C2   21   3.170   2.164  11.662 -0.0725 -0.6674  0.0741
    2MPD2    C3   22   3.228   2.227  11.549 -0.1644  0.1655 -0.8025
    2MPD2    C4   23   3.348   2.295  11.582 -0.1810 -0.4080 -0.4747
    2MPD2    C5   24   3.413   2.291  11.700 -0.1976  0.1090  0.5352
    2MPD2     H   25   3.071   2.120  11.657 -0.7034  0.7365  0.1610
    2MPD2    H1   26   3.400   2.346  11.501 -0.6366 -0.8586 -1.0579
    2MPD2    H2   27   3.403   2.221  11.898 -1.0977 -0.1951  0.4863
    2MPD2    H3   28   3.507   2.343  11.712 -0.0480  0.2290 -1.0999
    2MPD2     N   29   3.177   2.235  11.418 -0.5972  0.0996 -0.2576
    2MPD2    H5   30   3.233   2.288  11.351  1.4894 -1.6533  0.0972
    2MPD2    N1   31   3.161   2.102  11.893  0.4500 -0.6029  0.8508
    2MPD2    H7   32   3.062   2.083  11.881  0.4980  0.8046 -1.7975
    3TCq1    O1   33   3.191   4.144  10.275  0.0594  0.1642  0.4607
    3TCq1    C1   34   3.096   4.057  10.244  0.2059 -0.6594  0.0569
    3TCq1    O2   35   3.116   3.936  10.229  0.3515 -0.3560  0.6475
    3TCq1    C2   36   2.972   4.115  10.280 -0.4537 -0.2501  0.6948
    3TCq1    C3   37   2.945   4.243  10.231  0.1444  0.1924  0.1436
    3TCq1    C4   38   2.832   4.297  10.281 -0.2451 -0.1556  0.1503
    3TCq1    C5   39   2.756   4.231  10.378 -0.0399 -0.1954  0.2111
    3TCq1    C6   40   2.785   4.104  10.413 -0.3697 -0.9381 -0.7822
    3TCq1    C7   41   2.894   4.046  10.363  0.2353  0.5018 -0.4548
    3TCq1    C8   42   2.691   4.022  10.496 -0.3596 -0.2472  0.3691
    3TCq1    O4   43   2.707   3.905  10.505  0.3024  0.3873  0.3740
    3TCq1    C9   44   2.811   4.441  10.240  0.0756 -0.3562 -0.2057
    3TCq1    O5   45   2.715   4.497  10.296  0.5262  0.1024  0.9476
    3TCq1    O6   46   2.902   4.488  10.168 -0.4941  0.1701 -0.2409
    3TCq1    H1   47   3.159   4.224  10.321  0.3539  1.5235 -1.7397
    3TCq1    H2   48   3.013   4.286  10.159 -0.0937  1.1202  0.4667
    3TCq1    H3   49   2.669   4.285  10.412 -1.4619 -2.3905  0.0197
    3TCq1    H4   50   2.917   3.941  10.381  2.2975  1.1895  0.8440
    4MPD2     C   51   2.233   3.967  10.694  0.5944 -0.1538  0.5304
    4MPD2    C1   52   2.253   4.097  10.665  0.0289 -1.0975 -0.3815
    4MPD2    C2   53   2.376   4.135  10.606  0.0890 -0.1074  0.8333
    4MPD2    C3   54   2.471   4.047  10.585 -0.2701  0.2700 -0.3397
    4MPD2    C4   55   2.440   3.912  10.589 -0.3665 -0.5209 -0.1853
    4MPD2    C5   56   2.333   3.876  10.662  0.3603  0.2615 -0.2628
    4MPD2     H   57   2.394   4.242  10.596 -1.7484  0.1801  0.6250
    4MPD2    H1   58   2.506   3.827  10.571 -0.0715 -0.7805  2.0372
    4MPD2    H2   59   2.148   3.925  10.747  0.4823  1.0331  1.3021
    4MPD2    H3   60   2.322   3.772  10.689  1.7885 -0.0050 -0.7252
    4MPD2     N   61   2.588   4.097  10.533 -0.4312 -0.8367  0.2181
    4MPD2    H5   62   2.613   4.196  10.535  0.4009 -1.0259 -0.6109
    4MPD2    N1   63   2.151   4.197  10.687  0.3442 -0.0327 -0.5707
    4MPD2    H7   64   2.164   4.293  10.657 -0.1941  0.3813  0.4888
    5TCq1    O1   65   3.875   0.638  11.840  0.1662 -0.7394  0.5601
    5TCq1    C1   66   3.765   0.555  11.831  0.0939 -0.7602 -0.0268
    5TCq1    O2   67   3.743   0.463  11.905  0.0592 -0.3495 -0.2515
    5TCq1    C2   68   3.730   0.558  11.688 -0.1228 -0.1828 -0.0549
    5TCq1    C3   69   3.728   0.678  11.617 -0.5164  0.0197 -0.4285
    5TCq1    C4   70   3.686   0.664  11.486 -0.2125  0.3557  0.2169
    5TCq1    C5   71   3.673   0.541  11.427 -0.0123 -0.7779 -0.0018
    5TCq1    C6   72   3.697   0.424  11.492  0.1636 -0.9498 -0.9233
    5TCq1    C7   73   3.719   0.433  11.625  0.1859 -0.5376  0.1311
    5TCq1    C8   74   3.637   0.301  11.448 -0.3990  0.2893  0.4488
    5TCq1    O4   75   3.593   0.228  11.535  0.1644 -0.3676 -0.1549
    5TCq1    C9   76   3.664   0.783  11.411 -0.0779  0.5337 -0.8747
    5TCq1    O5   77   3.657   0.772  11.288 -0.0140  0.3923 -0.4367
    5TCq1    O6   78   3.637   0.891  11.473  0.1263 -0.0870  0.1602
    5TCq1    H1   79   3.906   0.682  11.758  1.2273 -1.5430  0.5260
    5TCq1    H2   80   3.728   0.776  11.664 -0.4273 -0.3238  0.2798
    5TCq1    H3   81   3.639   0.541  11.324  0.3932  1.4804 -0.1267
    5TCq1    H4   82   3.715   0.346  11.689  1.0760 -0.6521  0.0320
    6MPD2     C   83   3.534   0.203  11.115 -0.2024 -0.0560 -0.1036
    6MPD2    C1   84   3.525   0.204  11.253  0.0781 -0.5555  0.1769
    6MPD2    C2   85   3.457   0.102  11.321 -0.0703  0.2122 -0.8489
    6MPD2    C3   86   3.386   0.007  11.247 -0.2980 -0.3530  0.7708
    6MPD2    C4   87   3.404   4.714  11.112  0.5104 -0.2647  0.0479
    6MPD2    C5   88   3.475   0.093  11.054 -0.8422 -0.7601 -0.6445
    6MPD2     H   89   3.459   0.096  11.429 -1.8245  0.0488 -0.8225
    6MPD2    H1   90   3.361   4.639  11.045  1.1965 -1.6571  1.1667
    6MPD2    H2   91   3.563   0.290  11.058 -0.5529  0.0540 -0.1143
    6MPD2    H3   92   3.498   0.083  10.948  0.0970 -1.4402 -0.3700
    6MPD2     N   93   3.318   4.638  11.322  0.5302 -0.3539 -0.6679
    6MPD2    H5   94   3.339   4.617  11.419 -0.9789 -1.4062 -0.5674
    6MPD2    N1   95   3.623   0.291  11.313  0.2275  0.0243 -0.3736
    6MPD2    H7   96   3.675   0.356  11.254 -0.7409  1.7606  0.6837
    7TCq1    O1   97   1.142   0.539  13.253 -0.0577  0.0326 -0.7936
    7TCq1    C1   98   1.019   0.482  13.257 -0.4079 -0.4678  0.8853
    7TCq1    O2   99   0.919   0.507  13.189 -0.5483 -0.3253  0.2329
    7TCq1    C2  100   1.030   0.381  13.358  0.0425  0.0886  0.2716
    7TCq1    C3  101   1.090   0.405  13.483 -0.3128 -0.4612  0.0280
    7TCq1    C4  102   1.037   0.334  13.586  0.3048  0.4859  0.1045
    7TCq1    C5  103   0.951   0.232  13.568  0.6291  0.0088 -0.2017
    7TCq1    C6  104   0.897   0.210  13.444 -0.4371  0.0336  0.0664
    7TCq1    C7  105   0.948   0.279  13.339  0.0581  0.6524  0.9593
    7TCq1    C8  106   0.870   0.072  13.417  0.2338 -0.2363 -0.3710
    7TCq1    O4  107   0.890   4.717  13.511 -0.4673  0.0088 -0.0942
    7TCq1    C9  108   1.078   0.370  13.726  0.0741  0.6218 -0.6867
    7TCq1    O5  109   1.174   0.451  13.742 -0.0072  0.1594 -0.3787
    7TCq1    O6  110   0.999   0.335  13.818  0.4512 -0.6021  0.0368
    7TCq1    H1  111   1.207   0.484  13.303 -1.2185 -1.3465 -0.8115
    7TCq1    H2  112   1.157   0.489  13.502  1.1738 -1.1189 -2.3060
    7TCq1    H3  113   0.915   0.180  13.656 -0.8373  1.8755  0.2983
    7TCq1    H4  114   0.908   0.259  13.240  1.1736  3.8115 -0.1303
    8MPD2     C  115   0.614   4.413  13.179  0.0897  0.2786  0.0292
    8MPD2    C1  116   0.683   4.412  13.301 -0.8480  0.6400  1.0191
    8MPD2    C2  117   0.751   4.525  13.347  0.1609 -0.0616 -0.0811
    8MPD2    C3  118   0.721   4.644  13.275  0.1504  0.8777 -0.5240
    8MPD2    C4  119   0.641   4.640  13.159 -0.1678  0.6325 -0.4059
    8MPD2    C5  120   0.594   4.521  13.105  0.2108 -0.3383  0.0985
    8MPD2     H  121   0.806   4.516  13.440  1.8375 -1.9618 -1.2554
    8MPD2    H1  122   0.651   0.004  13.095 -1.8424  0.0536 -1.4298
    8MPD2    H2  123   0.571   4.320  13.144  1.2549  0.0170 -0.7073
    8MPD2    H3  124   0.547   4.516  13.007  1.6589  2.3328 -0.7506
    8MPD2     N  125   0.780   0.044  13.311  0.4767  0.0716 -0.1955
    8MPD2    H5  126   0.754   0.120  13.248  0.2276  0.9354  0.9486
    8MPD2    N1  127   0.690   4.286  13.362 -0.4471  0.2381  0.0783
    8MPD2    H7  128   0.642   4.212  13.313  1.3697 -1.0131  0.1610
    9TCq1    O1  129   3.946   3.060  10.735 -0.2725 -0.2631 -0.0943
    9TCq1    C1  130   3.860   3.088  10.634  0.4206  0.7926 -0.9213
    9TCq1    O2  131   3.840   3.027  10.532  0.6816 -0.6742 -0.1437
    9TCq1    C2  132   3.750   3.162  10.688  0.6501  0.3476 -0.2137
    9TCq1    C3  133   3.777   3.268  10.765 -0.5342 -0.0671  0.3158
    9TCq1    C4  134   3.677   3.330  10.836 -0.3431  0.4368 -0.0685
    9TCq1    C5  135   3.549   3.285  10.828  0.1643 -0.8445 -0.2869
    9TCq1    C6  136   3.529   3.168  10.751  0.5179  0.3187  0.1880
    9TCq1    C7  137   3.624   3.102  10.680 -0.1891 -0.0206  0.6915
    9TCq1    C8  138   3.412   3.091  10.768 -0.2487 -0.1600 -1.0876
    9TCq1    O4  139   3.370   3.030  10.672  0.0896  0.4442  0.0266
    9TCq1    C9  140   3.699   3.456  10.904 -0.0119  0.5155 -0.8076
    9TCq1    O5  141   3.817   3.479  10.946  0.4790  0.4356 -0.0451
    9TCq1    O6  142   3.595   3.515  10.935  0.3183  0.5521 -0.3632
    9TCq1    H1  143   3.917   3.099  10.820  2.0458 -0.1650  0.6455
    9TCq1    H2  144   3.879   3.303  10.773 -0.4324 -0.5136  0.9720
    9TCq1    H3  145   3.465   3.324  10.884  0.9218 -1.5541  1.3388
    9TCq1    H4  146   3.598   3.018  10.617  1.3368 -0.3743  0.5259
   10MPD2     C  147   3.164   2.950  10.867  0.4130  0.3236 -0.1807
   10MPD2    C1  148   3.245   3.033  10.950 -0.6120  0.8635  0.2785
   10MPD2    C2  149   3.198   3.048  11.082 -0.1294 -0.8787  0.1956
   10MPD2    C3  150   3.079   2.992  11.133  0.0872 -1.0256 -0.1292
   10MPD2    C4  151   3.000   2.920  11.049 -0.6616 -0.2149  0.4132
   10MPD2    C5  152   3.042   2.902  10.913  0.0169 -0.4492  0.3660
   10MPD2     H  153   3.250   3.116  11.148 -1.9100 -0.4590  1.1716
   10MPD2    H1  154   2.899   2.889  11.073  0.1656 -2.1169  1.4754
   10MPD2    H2  155   3.187   2.928  10.763  1.3506  0.1929  0.0595
   10MPD2    H3  156   2.978   2.851  10.842  1.5193  0.0940 -1.3734
   10MPD2     N  157   3.037   3.006  11.267 -0.3085  0.0745 -0.3149
   10MPD2    H5  158   2.942   2.975  11.281 -0.0255  0.2010  1.8838
   10MPD2    N1  159   3.360   3.105  10.904  0.5578 -0.3671 -0.3723
   10MPD2    H7  160   3.398   3.170  10.973 -1.2642  0.4257 -0.1127
   11TCq1    O1  161   4.447   3.082  13.718 -0.3092  0.2817  0.1000
   11TCq1    C1  162   4.342   3.020  13.782 -0.3583  0.2122  0.7497
   11TCq1    O2  163   4.293   2.907  13.769 -0.0373 -0.3821  0.0553
   11TCq1    C2  164   4.301   3.108  13.883  0.5869 -0.2943  1.5593
   11TCq1    C3  165   4.397   3.178  13.947  0.6134 -0.3211 -0.1648
   11TCq1    C4  166   4.365   3.256  14.056 -0.2213 -0.2493  0.7003
   11TCq1    C5  167   4.239   3.270  14.099  0.3264 -0.1252  0.2612
   11TCq1    C6  168   4.144   3.185  14.040  0.1114  0.2146 -0.2881
   11TCq1    C7  169   4.177   3.104  13.938 -0.7255 -0.0405 -0.4440
   11TCq1    C8  170   4.011   3.195  14.092  0.0872  0.2527  0.3712
   11TCq1    O4  171   3.981   3.295  14.159  0.3965 -0.2581  0.4635
   11TCq1    C9  172   4.468   3.339  14.113  1.0334 -0.9461  0.0198
   11TCq1    O5  173   4.574   3.359  14.049  0.6257 -0.2498 -0.2466
   11TCq1    O6  174   4.422   3.420  14.199  0.0162 -0.5307  0.0818
   11TCq1    H1  175   4.449   3.178  13.741 -1.5300  0.9800 -2.7158
   11TCq1    H2  176   4.501   3.177  13.915  0.3415 -2.7116 -0.9630
   11TCq1    H3  177   4.215   3.336  14.181 -0.0914  0.2418 -0.1576
   11TCq1    H4  178   4.114   3.025  13.899  0.9092 -1.0265 -1.0739
   12MPD2     C  179   3.725   3.148  14.176  0.0060 -0.0528  0.0239
   12MPD2    C1  180   3.797   3.069  14.094 -0.0533 -0.6728  0.1366
   12MPD2    C2  181   3.742   2.952  14.046  0.5389 -0.2967  0.4072
   12MPD2    C3  182   3.611   2.910  14.079  0.4449  0.0198  0.0806
   12MPD2    C4  183   3.540   2.991  14.165 -0.7387 -0.4252  0.0155
   12MPD2    C5  184   3.599   3.105  14.212 -0.4391 -0.2518  0.1734
   12MPD2     H  185   3.800   2.895  13.975  3.6733  0.8775  2.0055
   12MPD2    H1  186   3.440   2.968  14.202 -0.4878  0.0865  1.0150
   12MPD2    H2  187   3.760   3.242  14.218 -0.8906 -0.4302  1.6519
   12MPD2    H3  188   3.541   3.168  14.279  0.9856  1.8285 -0.5641
   12MPD2     N  189   3.561   2.787  14.030  0.1479 -0.2301 -0.6360
   12MPD2    H5  190   3.630   2.735  13.976  1.9153  0.4638  0.9677
   12MPD2    N1  191   3.935   3.085  14.059  0.1821 -0.8996 -0.0711
   12MPD2    H7  192   3.973   3.011  14.001 -1.1927 -0.8764 -0.9988
   13TCq1    O1  193   3.646   2.763  11.149 -0.0527  0.3702 -0.0213
   13TCq1    C1  194   3.619   2.842  11.045  0.2750 -0.6247  0.1909
   13TCq1    O2  195   3.703   2.902  10.986  0.4665  0.0637  0.3222
   13TCq1    C2  196   3.512   2.769  10.972 -0.1361  0.6953 -0.6266
   13TCq1    C3  197   3.538   2.723  10.849  0.7043  0.2018 -0.6342
   13TCq1    C4  198   3.439   2.645  10.798  0.0268 -0.2891  0.3856
   13TCq1    C5  199   3.330   2.620  10.856  0.3058 -0.8601 -0.6698
   13TCq1    C6  200   3.311   2.662  10.987  0.0159  0.6397  0.4883
   13TCq1    C7  201   3.401   2.738  11.048 -0.0268  0.3699 -0.2835
   13TCq1    C8  202   3.188   2.637  11.051 -0.4611  0.7861 -0.2645
   13TCq1    O4  203   3.094   2.591  10.989 -0.3754 -0.1755  0.5079
   13TCq1    C9  204   3.465   2.586  10.665 -0.4508  0.3588 -0.1494
   13TCq1    O5  205   3.358   2.562  10.600 -0.4035 -0.3071  0.2729
   13TCq1    O6  206   3.581   2.601  10.617  0.1858  0.1540  0.0115
   13TCq1    H1  207   3.563   2.720  11.177  1.7662 -2.5217  0.8653
   13TCq1    H2  208   3.628   2.750  10.795  0.4804  0.4988 -0.8602
   13TCq1    H3  209   3.268   2.542  10.814 -3.1198  1.6062 -0.1725
   13TCq1    H4  210   3.371   2.801  11.131  2.0596  0.3902  0.4716
   14MPD2     C  211   3.161   2.557  11.399  0.0481  0.5450  0.6751
   14MPD2    C1  212   3.115   2.582  11.272 -0.3953  0.4888  0.4543
   14MPD2    C2  213   2.978   2.597  11.244 -0.3485 -0.5063 -0.1679
   14MPD2    C3  214   2.878   2.572  11.348 -0.3742 -0.1820 -0.5350
   14MPD2    C4  215   2.930   2.547  11.475  0.3269  0.3661 -0.6646
   14MPD2    C5  216   3.065   2.540  11.496 -0.5640 -0.4956  0.4914
   14MPD2     H  217   2.939   2.631  11.149 -1.4956 -2.8798 -0.5439
   14MPD2    H1  218   2.866   2.515  11.556 -0.6043  0.9543 -1.1627
   14MPD2    H2  219   3.266   2.545  11.424  0.6500  0.2384 -1.9488
   14MPD2    H3  220   3.095   2.512  11.597  0.5042  1.2423  0.6587
   14MPD2     N  221   2.739   2.580  11.317 -0.1699 -0.0744 -0.2858
   14MPD2    H5  222   2.711   2.648  11.247 -2.8290 -0.1542  0.6929
   14MPD2    N1  223   3.213   2.621  11.185 -0.3436 -0.1239 -0.2811
   14MPD2    H7  224   3.311   2.631  11.210 -0.2958 -2.3436  0.4342
   15TCq1    O1  225   0.038   3.549   2.100 -0.0668  0.2013  0.0319
   15TCq1    C1  226   4.686   3.488   2.006 -0.0145 -0.4930  0.1070
   15TCq1    O2  227   4.663   3.531   1.893 -0.1307 -0.1356 -0.8115
   15TCq1    C2  228   4.670   3.349   2.038 -0.1114 -0.9338 -0.2290
   15TCq1    C3  229   4.682   3.312   2.173 -0.3821  0.5490  0.0375
   15TCq1    C4  230   4.695   3.177   2.200  0.6282  0.1191  0.2827
   15TCq1    C5  231   4.697   3.089   2.099  0.1754  0.8619 -0.3246
   15TCq1    C6  232   4.682   3.132   1.970 -0.4145  0.0408 -0.0212
   15TCq1    C7  233   4.670   3.264   1.934  0.0560  0.6882 -0.7949
   15TCq1    C8  234   4.660   3.019   1.877  0.0535  0.3599  0.1316
   15TCq1    O4  235   4.698   2.909   1.908  0.7592 -0.3977  0.0856
   15TCq1    C9  236   4.694   3.136   2.338  0.4943  0.0537 -0.5854
   15TCq1    O5  237   4.687   3.014   2.356  0.1157  0.1925  0.0593
   15TCq1    O6  238   4.721   3.226   2.423 -0.1575  0.2866 -0.5010
   15TCq1    H1  239   0.027   3.522   2.194 -0.7452  0.3386 -0.0098
   15TCq1    H2  240   4.649   3.384   2.247 -0.5755 -0.5211  0.9959
   15TCq1    H3  241   4.715   2.984   2.115  0.6362  1.4186  2.7066
   15TCq1    H4  242   4.680   3.297   1.831 -1.7225  1.8264 -0.5890
   16MPD2     C  243   4.611   3.059   1.510  0.0175  0.3828 -0.0271
   16MPD2    C1  244   4.637   2.990   1.630  0.2700  0.0854  0.7041
   16MPD2    C2  245   4.669   2.857   1.621  0.8632  0.1363 -0.4704
   16MPD2    C3  246   4.694   2.790   1.501  0.3045  0.1219  0.7306
   16MPD2    C4  247   4.660   2.859   1.386  0.1045 -0.0553 -0.0596
   16MPD2    C5  248   4.618   2.992   1.391 -0.1860  0.2775  0.0117
   16MPD2     H  249   4.695   2.797   1.707  0.1541 -0.5772 -0.7520
   16MPD2    H1  250   4.663   2.816   1.286  0.4954  2.2237 -1.0373
   16MPD2    H2  251   4.575   3.162   1.506 -0.4353  0.2057 -0.5960
   16MPD2    H3  252   4.602   3.040   1.295 -0.9660  0.0362  0.0241
   16MPD2     N  253   0.013   2.648   1.497 -0.7337 -0.0588 -0.0701
   16MPD2    H5  254   0.068   2.620   1.577  0.7369 -0.7323 -1.2957
   16MPD2    N1  255   4.629   3.067   1.750 -0.5055 -0.6518 -0.1837
   16MPD2    H7  256   4.596   3.163   1.736 -2.6321 -1.1842  1.1475
   17TCq1    O1  257   4.114   1.218   8.611  0.0997  0.1117  0.7251
   17TCq1    C1  258   4.067   1.122   8.694  0.7372 -0.1189 -0.1575
   17TCq1    O2  259   4.139   1.039   8.750  0.1242 -0.0395 -0.2854
   17TCq1    C2  260   3.928   1.147   8.725  0.9012 -0.0361 -0.6141
   17TCq1    C3  261   3.861   1.063   8.807  0.5475  0.9407 -0.0734
   17TCq1    C4  262   3.738   1.092   8.856  0.3546 -0.0124 -0.9128
   17TCq1    C5  263   3.674   1.211   8.831 -0.5490 -0.2011 -0.7642
   17TCq1    C6  264   3.742   1.298   8.754 -0.0514 -0.1214  0.0240
   17TCq1    C7  265   3.869   1.269   8.705  0.0791  0.0924 -0.6502
   17TCq1    C8  266   3.669   1.411   8.707 -0.3621  0.7660  0.0164
   17TCq1    O4  267   3.694   1.462   8.597 -0.2699  0.3381  0.2826
   17TCq1    C9  268   3.669   0.989   8.926 -0.2626 -0.0090 -0.0175
   17TCq1    O5  269   3.544   0.998   8.927 -0.5642  0.7258  0.6925
   17TCq1    O6  270   3.736   0.888   8.964  0.3571 -0.0320  0.2664
   17TCq1    H1  271   4.039   1.254   8.559  0.8382  3.0917  1.7406
   17TCq1    H2  272   3.905   0.969   8.836 -0.5961  0.1186 -0.9855
   17TCq1    H3  273   3.568   1.224   8.847 -0.6689 -0.9702 -0.9536
   17TCq1    H4  274   3.923   1.356   8.669 -0.9646  0.7176 -0.6910
   18MPD2     C  275   3.527   1.669   8.656 -0.2950 -0.3740 -0.1082
   18MPD2    C1  276   3.539   1.604   8.781  0.2690 -0.2298 -0.6431
   18MPD2    C2  277   3.493   1.668   8.894 -0.1525 -0.2464  0.3426
   18MPD2    C3  278   3.443   1.797   8.888 -0.4228 -0.3599 -0.2492
   18MPD2    C4  279   3.416   1.854   8.765  0.3700  1.0348  1.1532
   18MPD2    C5  280   3.458   1.794   8.651 -0.0211  0.1008 -0.0574
   18MPD2     H  281   3.516   1.617   8.987 -1.7062  0.6655  1.2250
   18MPD2    H1  282   3.359   1.944   8.748  0.8009  1.0448 -0.2579
   18MPD2    H2  283   3.567   1.634   8.561  0.6797  0.8450 -0.1367
   18MPD2    H3  284   3.439   1.833   8.552 -1.6618 -2.2373 -0.6521
   18MPD2     N  285   3.434   1.877   9.001  0.0844  0.7995 -0.2998
   18MPD2    H5  286   3.409   1.973   8.983  1.8786  1.0887 -1.2673
   18MPD2    N1  287   3.585   1.470   8.795 -0.0388  0.3759  0.4679
   18MPD2    H7  288   3.573   1.414   8.879  0.5616 -0.4043  0.0304
   19TMC2    C1  289   0.315   3.040  13.859 -0.1642 -0.6168  0.8498
   19TMC2    C2  290   0.263   3.136  13.771 -0.6037  1.0927 -0.0057
   19TMC2    C3  291   0.156   3.106  13.704  0.6117  0.6517 -0.7729
   19TMC2    C4  292   0.246   2.921  13.897 -0.5493  0.1129  0.2491
   19TMC2    C5  293   0.134   2.901  13.821 -0.1898  0.2911  0.0806
   19TMC2    C6  294   0.084   2.990  13.728  0.5332 -0.3688  0.1313
   19TMC2     C  295   0.456   3.063  13.904 -0.0115 -0.1851  1.3526
   19TMC2     O  296   0.520   3.147  13.838  0.1294 -0.1206  0.4707
   19TMC2     H  297   0.326   3.221  13.747  0.0990  0.9561  1.3205
   19TMC2    H1  298   0.280   2.846  13.968 -1.5474  0.7133  1.3707
   19TMC2    H2  299   4.706   2.985  13.689  0.9402 -1.2365 -0.7995
   19TMC2    C7  300   0.062   2.779  13.847 -0.1049  0.2191 -0.0532
   19TMC2    C8  301   0.098   3.212  13.643 -0.4702 -0.4819  1.0707
   19TMC2    O1  302   0.091   2.722  13.950 -0.3363  0.2909  0.7832
   19TMC2    O2  303   0.042   3.210  13.535  0.0489 -0.0213  0.6572
   19TMC2    O5  304   0.089   3.298  13.744 -0.1499 -0.0628 -0.4545
   19TMC2    H5  305   0.122   3.246  13.821 -0.5307  0.8100  0.2988
   20MPD2     C  306   0.741   3.043  14.023  0.0079 -0.0931  0.0418
   20MPD2    C1  307   0.625   2.989  14.081  0.3488  0.5577 -0.0193
   20MPD2    C2  308   0.631   2.905  14.196  0.5696  0.5105  0.5836
   20MPD2    C3  309   0.752   2.880  14.264 -0.3837 -1.1988  0.5119
   20MPD2    C4  310   0.867   2.939  14.200 -0.3377 -0.2104 -0.4099
   20MPD2    C5  311   0.860   3.011  14.086 -0.2554 -0.9716  0.5698
   20MPD2     H  312   0.537   2.876  14.242  1.1099 -2.6061 -0.3309
   20MPD2    H1  313   0.961   2.940  14.253 -0.8981 -1.5734  0.6210
   20MPD2    H2  314   0.731   3.103  13.933  1.2300  0.4441  0.2656
   20MPD2    H3  315   0.954   3.050  14.049 -0.1838 -0.4984  1.2581
   20MPD2     N  316   0.766   2.806  14.386 -1.1332  0.5117 -0.0676
   20MPD2    H5  317   0.859   2.803  14.427 -1.7864 -2.5956  1.2225
   20MPD2    N1  318   0.489   3.008  14.026  0.7214 -0.1093  0.1417
   20MPD2    H7  319   0.410   2.978  14.083 -0.6035  1.6322 -0.7861
   21MPD2     C  320   2.394   3.190  14.004  0.0113 -0.2568  0.0457
   21MPD2    C1  321   2.453   3.087  14.070 -0.1725 -0.7201 -0.4052
   21MPD2    C2  322   2.389   3.031  14.178  0.0624  0.1427 -0.1100
   21MPD2    C3  323   2.258   3.077  14.204  0.0438 -0.3225  0.5964
   21MPD2    C4  324   2.194   3.173  14.126 -0.1730 -0.3551  0.1941
   21MPD2    C5  325   2.265   3.237  14.030  0.3387  0.8147  0.3484
   21MPD2     H  326   2.448   2.965  14.241  2.0655  2.3806  0.3672
   21MPD2    H1  327   2.094   3.200  14.157 -0.4207 -1.9710  0.8410
   21MPD2    H2  328   2.436   3.226  13.911  1.1047 -0.6751  0.3778
   21MPD2    H3  329   2.212   3.309  13.969 -2.2141 -3.1880 -2.1543
   21MPD2     N  330   2.192   3.055  14.327  0.1944  0.7914  0.2222
   21MPD2    H5  331   2.110   3.103  14.362  0.0762  1.4719 -0.9913
   21MPD2    N1  332   2.582   3.039  14.046 -0.5778  0.9553  0.5149
   21MPD2    H7  333   2.609   2.948  14.084 -0.7872  0.0571 -1.5288
   22TCq2    C1  334   2.243   2.964  14.415  0.2073  0.1411  0.3841
   22TCq2    O2  335   2.317   2.864  14.393 -0.3010  0.3861 -0.2530
   22TCq2    C2  336   2.202   2.980  14.546 -0.3001 -0.4088  0.3011
   22TCq2    C3  337   2.240   2.878  14.632 -0.4763  0.2964  0.5500
   22TCq2    C4  338   2.257   2.907  14.766 -0.6270  0.4668 -0.1478
   22TCq2    C5  339   2.215   3.025  14.815  0.3926 -0.0819 -0.2147
   22TCq2    C6  340   2.169   3.120  14.729 -0.4029  0.3563  0.8698
   22TCq2    C7  341   2.160   3.099  14.592 -0.3655 -0.1069 -0.3750
   22TCq2    C8  342   2.133   3.247  14.780  0.4281 -0.2526  0.1277
   22TCq2    O4  343   2.201   3.289  14.872  0.4065 -0.1632  0.2868
   22TCq2    C9  344   2.327   2.820  14.856 -0.2684  0.1507  0.0503
   22TCq2    O5  345   2.379   2.712  14.821 -0.0110  0.0003  0.1090
   22TCq2    O6  346   2.321   2.853  14.978 -0.0133 -0.1065  0.3237
   22TCq2    H2  347   2.270   2.783  14.591 -1.4148  0.2481 -0.0305
   22TCq2    H3  348   2.208   3.037  14.922 -3.6740 -0.6658 -0.3962
   22TCq2    H4  349   2.148   3.181  14.523  0.2135  0.7767  0.5774
   23MPD2     C  350   4.286   4.242  14.433  0.0979  0.1672  0.0760
   23MPD2    C1  351   4.245   4.340  14.524  0.0190 -0.0450  0.2480
   23MPD2    C2  352   4.212   4.460  14.477  0.0870  0.6992  0.2636
   23MPD2    C3  353   4.190   4.474  14.342  0.0645 -0.0990 -0.3524
   23MPD2    C4  354   4.241   4.383  14.258  0.4081 -0.4439  0.0366
   23MPD2    C5  355   4.286   4.271  14.304 -0.4425 -0.2580  0.9053
   23MPD2     H  356   4.183   4.542  14.542 -2.1347 -0.2986  0.5246
   23MPD2    H1  357   4.241   4.390  14.150 -0.9173 -1.2000 -0.0121
   23MPD2    H2  358   4.333   4.147  14.456  1.7585  0.3663 -2.5181
   23MPD2    H3  359   4.314   4.194  14.233  1.5663  0.5215  0.8623
   23MPD2     N  360   4.113   4.584  14.293 -0.1324 -0.1010 -0.3394
   23MPD2    H5  361   4.080   4.574  14.197  0.8088  0.0492 -0.6785
   23MPD2    N1  362   4.240   4.315  14.668  0.0556 -0.3018  0.4538
   23MPD2    H7  363   4.216   4.389  14.734 -0.4180 -0.3157  0.2992
   24TCq2    C1  364   4.083   4.700  14.360  0.2230 -0.3673  0.1195
   24TCq2    O2  365   4.141   0.045  14.446  0.3675 -0.0917 -0.0487
   24TCq2    C2  366   3.986   0.047  14.286  0.8514 -0.8911  0.9393
   24TCq2    C3  367   3.969   0.182  14.317  0.0812  0.6519  0.5025
   24TCq2    C4  368   3.851   0.239  14.290 -0.4454 -0.1992 -0.1575
   24TCq2    C5  369   3.757   0.172  14.223  0.3850  0.4769  0.0588
   24TCq2    C6  370   3.765   0.037  14.203  0.0916  0.1964  0.4528
   24TCq2    C7  371   3.878   4.695  14.244  0.1650 -0.2398 -0.2705
   24TCq2    C8  372   3.667   4.678  14.133 -0.0697 -0.3358 -0.5747
   24TCq2    O4  373   3.702   4.566  14.094 -0.5012 -0.4923  0.1118
   24TCq2    C9  374   3.832   0.381  14.307  1.1348 -0.5220  0.0466
   24TCq2    O5  375   3.742   0.443  14.235 -0.2670  0.3221 -0.3121
   24TCq2    O6  376   3.901   0.434  14.393 -0.5450 -0.0583 -0.2998
   24TCq2    H2  377   4.051   0.246  14.349 -0.2798  0.9795  0.7581
   24TCq2    H3  378   3.666   0.221  14.191  0.8646  1.3637  0.0588
   24TCq2    H4  379   3.887   4.589  14.222  0.0489 -0.9888  3.4268
   25TMC2    C1  380   2.831   1.725  11.459  0.5449 -0.3313  0.0013
   25TMC2    C2  381   2.955   1.742  11.518  0.3274 -0.5958 -0.1421
   25TMC2    C3  382   2.960   1.766  11.648 -0.4129 -0.5226 -0.4551
   25TMC2    C4  383   2.714   1.744  11.533  0.5137 -0.3384 -0.4581
   25TMC2    C5  384   2.730   1.786  11.663 -0.1053 -0.0881  0.2225
   25TMC2    C6  385   2.851   1.792  11.721 -0.3189 -0.2553 -0.6108
   25TMC2     C  386   2.824   1.643  11.334  0.0918 -0.6774 -0.0665
   25TMC2     O  387   2.919   1.651  11.260 -0.3920 -0.7793  0.2277
   25TMC2     H  388   3.050   1.717  11.471 -0.0033 -1.3852 -0.3975
   25TMC2    H1  389   2.619   1.734  11.483  0.1261 -1.6423  0.5500
   25TMC2    H2  390   2.868   1.826  11.823 -2.9529 -1.2025  0.1530
   25TMC2    C7  391   2.624   1.758  11.752  0.9870 -0.5249 -0.4630
   25TMC2    C8  392   3.091   1.780  11.701 -0.6942  0.0089 -0.2049
   25TMC2    O1  393   2.647   1.717  11.865  1.0142 -0.2824  0.2815
   25TMC2    O2  394   3.190   1.807  11.636 -0.2937  0.0944  0.2575
   25TMC2    O5  395   3.094   1.774  11.836 -0.7035  0.2935  0.5055
   25TMC2    H5  396   3.018   1.719  11.866 -0.8640  1.4664  2.2561
   26MPD2     C  397   2.579   1.320  11.010 -0.1245 -0.2836 -0.7824
   26MPD2    C1  398   2.547   1.282  11.140  0.5084  0.7232 -0.3652
   26MPD2    C2  399   2.592   1.368  11.241 -0.2588  0.4141 -0.4199
   26MPD2    C3  400   2.677   1.478  11.216 -0.7082  0.2018  0.6455
   26MPD2    C4  401   2.720   1.502  11.085  0.4774 -0.3997 -0.2117
   26MPD2    C5  402   2.670   1.420  10.984  0.3085 -0.1352  0.3374
   26MPD2     H  403   2.556   1.334  11.337 -0.1985  0.5676 -0.3449
   26MPD2    H1  404   2.793   1.580  11.068  0.3888 -0.7742 -2.3711
   26MPD2    H2  405   2.547   1.257  10.927  0.3395 -0.1879 -1.0328
   26MPD2    H3  406   2.704   1.430  10.882 -1.4904 -0.5393 -0.2929
   26MPD2     N  407   2.722   1.551  11.337  0.1104  0.5222 -0.5042
   26MPD2    H5  408   2.679   1.530  11.426 -0.3248 -0.7493 -1.0223
   26MPD2    N1  409   2.449   1.181  11.154  0.3507 -0.0633  0.5895
   26MPD2    H7  410   2.417   1.141  11.066 -0.1482  0.2872  0.6128
   27TMC2    C1  411   1.536   3.771  11.962 -0.3587 -0.1816  0.6129
   27TMC2    C2  412   1.668   3.798  11.958  0.5213 -0.2711  0.4671
   27TMC2    C3  413   1.702   3.931  11.947  0.3651  0.2685  0.2560
   27TMC2    C4  414   1.439   3.871  11.960 -0.5176 -0.3400 -0.1845
   27TMC2    C5  415   1.476   3.998  11.979  0.5587  0.2268  0.4997
   27TMC2    C6  416   1.613   4.037  11.974  0.0135  1.0432 -0.8186
   27TMC2     C  417   1.499   3.652  12.026 -0.6937  0.5311 -0.1797
   27TMC2     O  418   1.571   3.553  12.006 -0.8142  0.0433 -0.0992
   27TMC2     H  419   1.740   3.718  11.964  0.7013 -0.0904  0.7448
   27TMC2    H1  420   1.334   3.844  11.950 -1.0081  1.4140  0.2072
   27TMC2    H2  421   1.644   4.139  11.993  0.1741  0.8871 -0.2078
   27TMC2    C7  422   1.423   4.033  12.105  0.6167 -0.7713 -0.0131
   27TMC2    C8  423   1.837   3.968  11.979  0.1886  0.3594 -0.5542
   27TMC2    O1  424   1.382   3.937  12.168 -0.1324 -0.6366  0.5804
   27TMC2    O2  425   1.859   4.069  12.044 -0.2513 -0.5568  0.1920
   27TMC2    O5  426   1.933   3.880  11.939 -0.1557  0.1324  0.3005
   27TMC2    H5  427   1.893   3.824  11.869 -0.4569  0.0023  0.5790
   28MPD2     C  428   1.204   3.401  12.340 -0.5186  0.1055 -0.1089
   28MPD2    C1  429   1.201   3.528  12.386  0.0936 -0.0511  0.7180
   28MPD2    C2  430   1.280   3.620  12.318 -0.3774  0.8365  0.0618
   28MPD2    C3  431   1.351   3.576  12.213 -0.2292 -0.9981 -0.2245
   28MPD2    C4  432   1.367   3.448  12.184  0.6089 -0.6168  0.1397
   28MPD2    C5  433   1.288   3.360  12.249  0.2679  0.5383 -0.5454
   28MPD2     H  434   1.274   3.725  12.344  1.6551  0.6484  1.3506
   28MPD2    H1  435   1.414   3.407  12.096 -1.6298  1.9047 -2.2200
   28MPD2    H2  436   1.162   3.319  12.397 -1.7592  0.7703 -0.0784
   28MPD2    H3  437   1.305   3.256  12.223 -0.9433  0.0691  0.6122
   28MPD2     N  438   1.402   3.673  12.118  0.0468  0.4101 -0.0817
   28MPD2    H5  439   1.374   3.770  12.122 -1.3687  0.0509 -1.1290
   28MPD2    N1  440   1.119   3.570  12.500  0.6718  0.0800 -0.6898
   28MPD2    H7  441   1.071   3.492  12.545 -0.1924 -0.3718 -2.3619
   29MPD2     C  442   0.535   1.259  14.242  0.7432  1.0313  0.0438
   29MPD2    C1  443   0.634   1.260  14.337 -0.1766 -0.2701  0.3376
   29MPD2    C2  444   0.655   1.371  14.422  0.3866  0.4152  0.1075
   29MPD2    C3  445   0.591   1.491  14.391  0.3745 -0.9661  0.1050
   29MPD2    C4  446   0.511   1.492  14.280  0.6692  0.3195 -0.0247
   29MPD2    C5  447   0.480   1.379  14.211 -0.3135  0.5476  0.0214
   29MPD2     H  448   0.727   1.362  14.503  0.7407 -2.9550 -0.5890
   29MPD2    H1  449   0.447   1.572  14.242 -0.6414 -0.6442  0.1598
   29MPD2    H2  450   0.513   1.168  14.189 -0.7819  1.3907  0.0615
   29MPD2    H3  451   0.414   1.390  14.126  0.6688  0.7190 -0.7153
   29MPD2     N  452   0.607   1.613  14.468  0.1879  0.1209 -0.9610
   29MPD2    H5  453   0.577   1.700  14.427  0.6960  0.8930  0.3017
   29MPD2    N1  454   0.710   1.147  14.371  0.0615 -0.0449  0.8935
   29MPD2    H7  455   0.762   1.156  14.458 -0.2672  1.1952  0.9624
   30TCq2    C1  456   0.680   1.623  14.584  0.3944 -0.1614 -0.6840
   30TCq2    O2  457   0.716   1.536  14.657  0.0973  0.2549  0.5868
   30TCq2    C2  458   0.695   1.761  14.623 -0.5257  0.3554  0.0257
   30TCq2    C3  459   0.713   1.787  14.756 -0.3057  0.2972 -0.4117
   30TCq2    C4  460   0.731   1.917  14.801  0.4059  0.3614 -0.0930
   30TCq2    C5  461   0.713   2.021  14.716  0.2196  0.3296 -0.2784
   30TCq2    C6  462   0.688   1.990  14.579 -0.5638  0.5156  0.0307
   30TCq2    C7  463   0.682   1.862  14.534  0.2217 -0.0968  0.3239
   30TCq2    C8  464   0.709   2.097  14.477  0.2812  0.3785 -0.0738
   30TCq2    O4  465   0.661   2.078  14.366 -0.4816 -0.6366  0.3318
   30TCq2    C9  466   0.759   1.943  14.939  0.2532  0.5981  0.4298
   30TCq2    O5  467   0.823   2.046  14.960 -0.2669 -0.1138  0.0753
   30TCq2    O6  468   0.735   1.850  15.019 -0.1373  0.4640  0.5708
   30TCq2    H2  469   0.732   1.706  14.825 -1.4963  1.2350  1.0297
   30TCq2    H3  470   0.728   2.125  14.743 -1.5170  0.6782 -0.6365
   30TCq2    H4  471   0.678   1.858  14.426  0.7411 -0.5743  0.3234
   31MPD2     C  472   3.793   1.088  14.869  0.5128  0.0710  1.2180
   31MPD2    C1  473   3.728   1.007  14.785 -0.3631 -0.7710 -0.0963
   31MPD2    C2  474   3.709   0.868  14.809  0.1782 -0.4683  0.8400
   31MPD2    C3  475   3.750   0.822  14.935 -0.2843  0.8363  0.2039
   31MPD2    C4  476   3.815   0.902  15.019  0.4824  0.1275  0.3536
   31MPD2    C5  477   3.847   1.032  14.986  0.8924 -0.0935  0.3322
   31MPD2     H  478   3.664   0.811  14.729  0.1997 -0.8980  1.1404
   31MPD2    H1  479   3.845   0.857  15.113  0.6776 -0.1763  0.1493
   31MPD2    H2  480   3.797   1.195  14.853 -2.4333  0.2594  1.7599
   31MPD2    H3  481   3.896   1.102  15.053  0.6004  1.6166 -1.2353
   31MPD2     N  482   3.727   0.687  14.980  0.4048  0.6395 -0.0882
   31MPD2    H5  483   3.757   0.656  15.072 -0.8192 -2.0112 -0.5651
   31MPD2    N1  484   3.682   1.069  14.667  0.7658 -0.2490 -0.5204
   31MPD2    H7  485   3.698   1.169  14.658 -1.7078  0.4765  3.2408
   32TCq2    C1  486   3.702   0.586  14.893 -0.1474 -0.9940  0.3373
   32TCq2    O2  487   3.683   0.586  14.768 -0.0002 -0.0229 -0.3817
   32TCq2    C2  488   3.687   0.454  14.950 -0.0505 -0.2857 -0.2234
   32TCq2    C3  489   3.710   0.359  14.854  0.4781  0.3579 -0.1309
   32TCq2    C4  490   3.687   0.226  14.882 -0.0924  0.0515 -0.3715
   32TCq2    C5  491   3.629   0.196  15.003  0.7632  0.4156  0.0828
   32TCq2    C6  492   3.585   0.295  15.085  0.6778  0.2299 -0.4093
   32TCq2    C7  493   3.627   0.422  15.065  0.5301 -0.1406  0.6379
   32TCq2    C8  494   3.563   0.244  15.213 -0.0232 -0.5919  0.4560
   32TCq2    O4  495   3.597   0.130  15.234  0.2670 -0.5666 -0.5502
   32TCq2    C9  496   3.724   0.125  14.785 -0.3791 -0.5587 -0.4273
   32TCq2    O5  497   3.752   0.164  14.666  0.6624 -0.7298  0.5200
   32TCq2    O6  498   3.700   0.006  14.825  0.2056  0.0151  0.1651
   32TCq2    H2  499   3.767   0.379  14.764  1.4723  1.4351  0.7519
   32TCq2    H3  500   3.617   0.089  15.018 -0.6746  0.3188 -1.8012
   32TCq2    H4  501   3.598   0.502  15.133 -2.3981 -0.5403 -0.1244
   33MPD2     C  502   3.387   2.491   8.943 -0.0345  0.3542 -0.4750
   33MPD2    C1  503   3.388   2.481   9.080 -0.1156 -0.6589 -0.8711
   33MPD2    C2  504   3.364   2.593   9.154 -0.3857 -1.1131 -0.2586
   33MPD2    C3  505   3.337   2.714   9.107 -0.4775  0.4114  0.2451
   33MPD2    C4  506   3.336   2.726   8.965 -0.0480  0.0682 -0.0695
   33MPD2    C5  507   3.371   2.619   8.891  0.2083 -0.5862  0.0413
   33MPD2     H  508   3.359   2.577   9.261  0.5554  1.5265  0.2051
   33MPD2    H1  509   3.298   2.817   8.921 -2.2039 -1.3160 -1.0714
   33MPD2    H2  510   3.430   2.414   8.880  1.2141 -0.5926  1.5312
   33MPD2    H3  511   3.367   2.642   8.785  0.0641  1.7942  0.5581
   33MPD2     N  512   3.310   2.829   9.182 -0.8837  0.3507  0.1907
   33MPD2    H5  513   3.278   2.910   9.130  0.8551  0.3281 -0.9018
   33MPD2    N1  514   3.405   2.347   9.136 -0.8235 -0.4293  0.8440
   33MPD2    H7  515   3.421   2.271   9.070  1.7329  0.8020  0.0348
   34TCq2    C1  516   3.328   2.840   9.324 -0.1508  0.2947  0.0486
   34TCq2    O2  517   3.339   2.746   9.404  0.7345  0.1431 -0.2273
   34TCq2    C2  518   3.331   2.985   9.369  0.5388 -0.5083  0.6880
   34TCq2    C3  519   3.306   3.011   9.496 -0.3235 -0.1238  0.1317
   34TCq2    C4  520   3.303   3.140   9.539  0.6265 -0.4309  0.2666
   34TCq2    C5  521   3.324   3.243   9.455 -0.7714  0.4353  0.2315
   34TCq2    C6  522   3.346   3.214   9.324  0.2632 -0.3446 -0.0897
   34TCq2    C7  523   3.343   3.087   9.276  0.0098  0.2382 -0.2774
   34TCq2    C8  524   3.382   3.321   9.225  0.1679  0.2927  0.2891
   34TCq2    O4  525   3.334   3.305   9.115 -0.4533 -0.3321  0.7419
   34TCq2    C9  526   3.253   3.161   9.670 -0.4759  0.2045  0.5177
   34TCq2    O5  527   3.255   3.280   9.715 -0.2382  0.7351  0.2244
   34TCq2    O6  528   3.170   3.079   9.714  1.0831 -0.0382  0.1325
   34TCq2    H2  529   3.272   2.936   9.567  0.5967 -1.4222 -0.7881
   34TCq2    H3  530   3.333   3.344   9.492 -0.8915  0.0537  1.3190
   34TCq2    H4  531   3.390   3.064   9.181  0.8286  1.2887 -0.1252
   35MPD2     C  532   0.624   4.194  12.176  0.8076 -0.2018  0.4759
   35MPD2    C1  533   0.487   4.166  12.201 -0.8137  0.9319 -0.1279
   35MPD2    C2  534   0.389   4.181  12.103 -0.0670 -0.3590  0.2753
   35MPD2    C3  535   0.428   4.239  11.986  0.7217  0.1863 -0.0577
   35MPD2    C4  536   0.561   4.268  11.961  0.6467  1.1413  0.6278
   35MPD2    C5  537   0.660   4.233  12.050  0.5507 -0.2599 -0.3183
   35MPD2     H  538   0.286   4.148  12.106 -0.4372  0.6394 -1.3252
   35MPD2    H1  539   0.606   4.312  11.873 -1.0719 -2.8185 -2.2394
   35MPD2    H2  540   0.700   4.189  12.254  0.8954  2.2829  0.5310
   35MPD2    H3  541   0.763   4.256  12.027  0.2743 -1.5070 -2.8125
   35MPD2     N  542   0.335   4.276  11.883  0.0646 -0.2137  0.2980
   35MPD2    H5  543   0.242   4.239  11.903  0.0255 -0.9196 -1.1358
   35MPD2    N1  544   0.454   4.108  12.326 -0.2135 -0.0129  0.5171
   35MPD2    H7  545   0.532   4.094  12.389 -0.0611 -0.3318  0.2574
   36TCq2    C1  546   0.352   4.353  11.769 -0.1197 -0.4786  0.6072
   36TCq2    O2  547   0.444   4.431  11.747  0.7848  0.0454  0.0555
   36TCq2    C2  548   0.236   4.354  11.686 -0.0222 -0.1571  0.5137
   36TCq2    C3  549   0.231   4.448  11.584 -0.2053 -0.0462 -0.7481
   36TCq2    C4  550   0.123   4.459  11.507  0.5734  0.2329  0.6037
   36TCq2    C5  551   0.020   4.369  11.520  0.4192  0.1152  0.9510
   36TCq2    C6  552   0.033   4.279  11.616  0.5416  1.0722 -0.0239
   36TCq2    C7  553   0.137   4.272  11.700 -0.0746 -0.0996 -0.5974
   36TCq2    C8  554   4.703   4.152  11.571 -0.2656 -0.4822 -0.5688
   36TCq2    O4  555   4.606   4.157  11.496 -0.8678  0.2685  0.5644
   36TCq2    C9  556   0.131   4.560  11.403  0.3283 -0.3847 -0.3786
   36TCq2    O5  557   0.243   4.598  11.362  0.5236 -0.4606  0.3424
   36TCq2    O6  558   0.031   4.571  11.338  0.2630  0.1164  0.5645
   36TCq2    H2  559   0.312   4.518  11.573 -0.5646  0.1948 -1.8113
   36TCq2    H3  560   4.658   4.378  11.452  0.5199 -0.4515  0.7505
   36TCq2    H4  561   0.129   4.208  11.788  1.1387  1.2055  0.4554
   37TMC2    C1  562   2.232   3.177  12.394 -0.1513 -0.3971 -0.5611
   37TMC2    C2  563   2.256   3.050  12.442  0.5554 -0.3576 -0.0538
   37TMC2    C3  564   2.304   2.958  12.349 -0.9104  0.9903  0.4028
   37TMC2    C4  565   2.271   3.218  12.264 -0.5682 -0.1749  0.2900
   37TMC2    C5  566   2.304   3.124  12.178  0.2656 -0.5349  0.7232
   37TMC2    C6  567   2.326   2.992  12.216 -0.2019  0.2395 -0.4458
   37TMC2     C  568   2.125   3.254  12.461 -0.1712  0.3185 -0.5660
   37TMC2     O  569   2.052   3.197  12.542  0.0304 -0.6782  0.3101
   37TMC2     H  570   2.199   3.013  12.526  0.5727 -2.1700 -0.8255
   37TMC2    H1  571   2.216   3.298  12.216 -0.8950 -1.2759 -1.1667
   37TMC2    H2  572   2.355   2.911  12.150  0.6584  0.0801  0.1186
   37TMC2    C7  573   2.331   3.167  12.041  0.7297 -0.0492  0.3869
   37TMC2    C8  574   2.315   2.814  12.384 -0.2977  0.5466 -0.5335
   37TMC2    O1  575   2.328   3.288  12.018 -0.1808 -0.0380 -0.2997
   37TMC2    O2  576   2.335   2.732  12.298 -0.7483  0.8372  0.1240
   37TMC2    O5  577   2.324   2.794  12.520  0.2216 -0.2782 -0.2556
   37TMC2    H5  578   2.320   2.877  12.571  1.8186 -0.5359  0.2997
   38MPD2     C  579   1.881   3.689  12.586 -0.1026  0.1307  0.2686
   38MPD2    C1  580   1.980   3.727  12.489 -0.0057 -0.0212  0.3534
   38MPD2    C2  581   2.067   3.619  12.449 -0.2161 -0.5389  0.6629
   38MPD2    C3  582   2.045   3.487  12.487  0.2432  0.2760  0.3234
   38MPD2    C4  583   1.933   3.459  12.558  0.3310 -0.2936  1.1782
   38MPD2    C5  584   1.857   3.560  12.615  0.3563 -0.6512 -0.6062
   38MPD2     H  585   2.148   3.648  12.382 -0.0925  0.8992  1.4331
   38MPD2    H1  586   1.902   3.360  12.588 -0.0430 -1.0387 -1.7149
   38MPD2    H2  587   1.812   3.758  12.632 -0.5562 -0.8092  1.0082
   38MPD2    H3  588   1.779   3.539  12.687  0.6688  1.9284  0.4908
   38MPD2     N  589   2.134   3.388  12.434 -0.0515 -0.4855 -0.0908
   38MPD2    H5  590   2.212   3.416  12.376 -0.3603 -0.3873 -0.4617
   38MPD2    N1  591   2.008   3.861  12.440 -0.1836  0.2173  0.0812
   38MPD2    H7  592   2.097   3.874  12.394 -1.1971 -0.4589 -2.0818
   39MPD2     C  593   0.730   1.675   1.501 -0.4811 -0.4432 -0.4329
   39MPD2    C1  594   0.686   1.753   1.604  0.2640  0.0341  0.3699
   39MPD2    C2  595   0.560   1.801   1.598  0.4164  0.8870 -0.1163
   39MPD2    C3  596   0.483   1.792   1.483 -0.2049 -0.1144 -0.3004
   39MPD2    C4  597   0.537   1.742   1.366 -0.9712  0.0680  0.2204
   39MPD2    C5  598   0.660   1.675   1.384  1.2906  0.7909  0.1876
   39MPD2     H  599   0.518   1.856   1.682  0.2436  2.5152 -1.2593
   39MPD2    H1  600   0.470   1.716   1.285  1.2127  1.7004 -2.0994
   39MPD2    H2  601   0.826   1.626   1.510 -0.2793  0.0933  0.3607
   39MPD2    H3  602   0.704   1.630   1.295 -0.1756  0.9711 -0.6193
   39MPD2     N  603   0.347   1.834   1.471 -0.6882 -1.1164  0.2535
   39MPD2    H5  604   0.314   1.833   1.375 -1.5304  2.4395  0.4881
   39MPD2    N1  605   0.765   1.747   1.717  0.1785  0.0016 -0.2685
   39MPD2    H7  606   0.857   1.706   1.705 -0.7267 -1.2450 -2.9628
   40TCq2    C1  607   0.735   1.803   1.835 -0.0127  0.6608 -0.5873
   40TCq2    O2  608   0.627   1.832   1.883 -0.4234  0.4527  0.1328
   40TCq2    C2  609   0.842   1.786   1.920 -0.2065  0.7236 -0.6454
   40TCq2    C3  610   0.817   1.730   2.039 -0.4361 -0.2830 -0.2552
   40TCq2    C4  611   0.921   1.688   2.119  0.0264  0.2481  0.2681
   40TCq2    C5  612   1.051   1.698   2.081  0.1927 -0.4247 -0.7255
   40TCq2    C6  613   1.077   1.765   1.961 -0.2609 -0.0908 -0.7634
   40TCq2    C7  614   0.971   1.802   1.879 -0.0062 -0.1639  0.1255
   40TCq2    C8  615   1.204   1.748   1.890 -0.0379 -0.6664  0.7519
   40TCq2    O4  616   1.304   1.699   1.942  0.3344 -0.5479 -0.1228
   40TCq2    C9  617   0.903   1.619   2.245  0.7147 -0.1909 -0.4646
   40TCq2    O5  618   0.797   1.646   2.313  0.1653  0.4353  0.0467
   40TCq2    O6  619   0.990   1.535   2.278  0.5318 -0.0486  0.0072
   40TCq2    H2  620   0.716   1.703   2.068 -0.7088  2.3021  1.2068
   40TCq2    H3  621   1.136   1.657   2.134 -2.3796 -3.2101  1.2060
   40TCq2    H4  622   0.977   1.854   1.783 -1.0536 -1.1064 -0.4465
   41TMC2    C1  623   4.679   4.478  13.635 -0.1182 -0.2499 -0.4870
   41TMC2    C2  624   4.624   4.582  13.712 -0.4137  0.4955  0.4654
   41TMC2    C3  625   4.590   4.703  13.657 -0.1097 -0.0953  0.0456
   41TMC2    C4  626   4.684   4.491  13.494  0.7392 -0.8328 -0.2367
   41TMC2    C5  627   4.641   4.614  13.436  0.0790  0.3900  0.3753
   41TMC2    C6  628   4.592   4.710  13.516 -1.2385 -0.2842 -0.1513
   41TMC2     C  629   0.053   4.397  13.704  0.1245  0.0810  0.3138
   41TMC2     O  630   0.139   4.352  13.635  0.1162 -0.6977 -0.4898
   41TMC2     H  631   4.614   4.579  13.820 -1.5737 -1.5349  0.2979
   41TMC2    H1  632   0.016   4.417  13.436 -0.3151  0.6927 -3.2237
   41TMC2    H2  633   4.576   0.084  13.469  2.2190 -0.3325 -1.4850
   41TMC2    C7  634   4.687   4.655  13.306  0.2043  0.1694 -0.4965
   41TMC2    C8  635   4.632   0.092  13.724 -0.1096  1.0942 -0.7090
   41TMC2    O1  636   4.612   0.016  13.258  1.0463  0.5960 -0.4809
   41TMC2    O2  637   0.009   0.094  13.792 -0.1578 -0.2315  0.3415
   41TMC2    O5  638   4.520   0.152  13.760  0.0488 -0.0482 -0.2822
   41TMC2    H5  639   4.453   0.136  13.690  0.8919 -3.5460 -0.2596
   42MPD2     C  640   0.224   4.226  13.874 -0.9990 -0.9832  0.6158
   42MPD2    C1  641   0.087   4.266  13.905 -0.1798 -0.1108  0.0971
   42MPD2    C2  642   0.027   4.213  14.010 -0.5294  0.4121  0.3473
   42MPD2    C3  643   0.083   4.121  14.098  0.4164  0.2415  0.7146
   42MPD2    C4  644   0.217   4.097  14.080  0.7823 -0.0904 -0.1982
   42MPD2    C5  645   0.279   4.152  13.972 -0.6685  0.0855  0.3062
   42MPD2     H  646   4.646   4.242  14.024 -0.7566  0.3791 -1.3183
   42MPD2    H1  647   0.275   4.046  14.156  0.4558  2.7837  1.9999
   42MPD2    H2  648   0.293   4.265  13.800 -2.0975 -2.7815 -1.3518
   42MPD2    H3  649   0.387   4.153  13.965 -0.7200  0.5194 -0.4680
   42MPD2     N  650   0.020   4.064  14.211  0.2634 -0.0579 -0.3577
   42MPD2    H5  651   0.074   4.010  14.277  1.4197  0.1034 -1.1702
   42MPD2    N1  652   0.018   4.364  13.835 -0.2309  0.5120  0.0595
   42MPD2    H7  653   4.655   4.403  13.873  0.3061 -0.0155  1.8188
   43MPD2     C  654   0.798   3.006   0.724  0.2451  0.7500 -0.0348
   43MPD2    C1  655   0.906   2.963   0.795  0.6952  0.4015 -0.0549
   43MPD2    C2  656   0.918   3.006   0.925 -0.2076 -0.1305 -0.5228
   43MPD2    C3  657   0.834   3.108   0.974 -0.0015 -0.3726 -0.2808
   43MPD2    C4  658   0.735   3.150   0.894  0.2125 -0.4290 -0.2659
   43MPD2    C5  659   0.722   3.102   0.772  0.1745 -0.0464  0.1011
   43MPD2     H  660   0.991   2.972   0.998 -1.0255 -0.4750  0.1259
   43MPD2    H1  661   0.670   3.229   0.930 -1.3068 -2.2412  0.9193
   43MPD2    H2  662   0.778   2.960   0.628  0.5975  1.2967 -0.3719
   43MPD2    H3  663   0.650   3.149   0.706 -1.5800 -1.8306  0.7485
   43MPD2     N  664   0.851   3.182   1.094  0.5155  0.3817  0.3574
   43MPD2    H5  665   0.795   3.266   1.102  2.4426  1.5365  1.8097
   43MPD2    N1  666   0.988   2.865   0.738  0.0915  0.3283  0.3756
   43MPD2    H7  667   1.047   2.813   0.802 -1.5824 -1.8632  0.1565
   44TCq2    C1  668   1.152   3.447   1.524  0.4812  0.5436 -1.2627
   44TCq2    O2  669   1.242   3.396   1.456  0.0671 -0.3429  0.3390
   44TCq2    C2  670   1.030   3.391   1.473 -0.6625 -0.0999 -0.0551
   44TCq2    C3  671   0.913   3.469   1.490 -0.3963 -0.8048  0.6710
   44TCq2    C4  672   0.813   3.438   1.398  0.1881  0.0547 -0.0718
   44TCq2    C5  673   0.818   3.328   1.321  0.8654  0.0765  0.4343
   44TCq2    C6  674   0.934   3.253   1.303 -0.1059  0.5302  0.9056
   44TCq2    C7  675   1.045   3.290   1.382  0.2513  0.6623 -0.1177
   44TCq2    C8  676   0.952   3.165   1.189 -0.6845 -0.3757 -0.5410
   44TCq2    O4  677   1.047   3.084   1.191  0.2682 -0.0483  0.1100
   44TCq2    C9  678   0.696   3.518   1.388  0.4938  0.7401 -0.8299
   44TCq2    O5  679   0.694   3.628   1.450  0.0565  0.5804  0.1823
   44TCq2    O6  680   0.606   3.482   1.312 -0.7017  0.4096  0.0311
   44TCq2    H2  681   0.901   3.563   1.542 -0.1141  0.7922 -2.1634
   44TCq2    H3  682   0.739   3.311   1.248  1.9959 -0.4643 -0.6546
   44TCq2    H4  683   1.133   3.227   1.377  0.8487  1.4515  0.3682
   45TMC2    C1  684   2.054   3.970   9.829 -0.4165 -0.2427  0.3560
   45TMC2    C2  685   2.189   3.937   9.811  0.5882 -0.4862 -0.6457
   45TMC2    C3  686   2.289   4.016   9.853  0.0514  0.3368  0.2496
   45TMC2    C4  687   2.022   4.093   9.881  1.0194 -0.1131 -0.0359
   45TMC2    C5  688   2.124   4.176   9.913 -0.4601 -0.4819 -0.0404
   45TMC2    C6  689   2.255   4.136   9.913  0.6899  0.2557 -0.4829
   45TMC2     C  690   1.950   3.886   9.758  0.1300 -0.3454  0.3406
   45TMC2     O  691   1.989   3.782   9.709  0.1476 -0.3657 -0.7676
   45TMC2     H  692   2.222   3.842   9.770  0.7924 -0.3399 -0.8232
   45TMC2    H1  693   1.921   4.115   9.912  0.7965 -1.2383  0.0095
   45TMC2    H2  694   2.342   4.191   9.948 -0.0613  0.1214  1.5775
   45TMC2    C7  695   2.086   4.301   9.972  0.5364  0.0395 -0.1512
   45TMC2    C8  696   2.427   3.990   9.839  0.4160  0.7230 -0.2122
   45TMC2    O1  697   1.977   4.311  10.021  0.7977 -0.0025 -0.4850
   45TMC2    O2  698   2.507   4.079   9.822  0.5113  0.4398  0.4374
   45TMC2    O5  699   2.450   3.859   9.848  0.3366  0.1310 -1.1599
   45TMC2    H5  700   2.373   3.803   9.875 -0.3367  1.7099  0.2043
   46MPD2     C  701   1.702   3.758   9.681 -0.4259 -0.4078 -0.4480
   46MPD2    C1  702   1.712   3.895   9.689 -0.6478 -0.0262 -0.3189
   46MPD2    C2  703   1.602   3.969   9.645  0.0000 -0.0146  0.1630
   46MPD2    C3  704   1.486   3.908   9.605  0.6277  0.6142  0.8222
   46MPD2    C4  705   1.476   3.774   9.611 -0.1429  0.0608 -0.0393
   46MPD2    C5  706   1.585   3.702   9.647  0.0071  0.3969 -0.2157
   46MPD2     H  707   1.619   4.076   9.636 -1.4735  0.3989  2.2915
   46MPD2    H1  708   1.386   3.715   9.596 -1.3248  1.8117  0.0848
   46MPD2    H2  709   1.776   3.682   9.701 -2.9209 -3.0591 -1.3262
   46MPD2    H3  710   1.571   3.595   9.664 -0.9925 -0.1278 -4.3920
   46MPD2     N  711   1.382   3.996   9.570  0.3141  0.1715 -0.3233
   46MPD2    H5  712   1.401   4.094   9.551 -1.7395  1.0429  2.0800
   46MPD2    N1  713   1.833   3.956   9.736  0.7772  0.1443 -0.0362
   46MPD2    H7  714   1.828   4.055   9.757  0.8632  0.8637 -3.3840
   47TMC2    C1  715   3.555   0.045   9.479  0.2413 -0.4453 -0.4591
   47TMC2    C2  716   3.550   4.637   9.521 -0.3905 -0.2588 -0.1919
   47TMC2    C3  717   3.472   4.551   9.447  0.2967 -0.2206  0.5222
   47TMC2    C4  718   3.474   0.090   9.378  0.1900 -0.5210 -0.0774
   47TMC2    C5  719   3.393   4.716   9.320 -0.3177 -0.4483  0.1947
   47TMC2    C6  720   3.396   4.583   9.344  0.7267 -0.5458 -0.5239
   47TMC2     C  721   3.623   0.147   9.554  0.0688 -0.8393 -0.7495
   47TMC2     O  722   3.576   0.257   9.564 -0.3900 -0.5678 -0.2835
   47TMC2     H  723   3.613   4.612   9.606 -0.3127  0.9784  0.1039
   47TMC2    H1  724   3.491   0.189   9.337 -0.1337 -0.6883 -0.6048
   47TMC2    H2  725   3.337   4.510   9.290 -0.7869  0.1992  0.1152
   47TMC2    C7  726   3.273   0.045   9.259 -0.1479 -0.8003 -0.7063
   47TMC2    C8  727   3.465   4.421   9.499 -0.3083  0.1499  0.6959
   47TMC2    O1  728   3.210   4.689   9.197 -0.0708 -0.0417 -0.2644
   47TMC2    O2  729   3.547   4.362   9.562  0.3473  0.3660  0.0912
   47TMC2    O5  730   3.335   4.398   9.520  0.3620 -0.1691  0.2661
   47TMC2    H5  731   3.277   4.470   9.486 -0.0241  0.4142  2.1670
   48MPD2     C  732   3.814   0.283   9.732 -0.1963 -0.4972 -0.5596
   48MPD2    C1  733   3.851   0.172   9.656 -0.6906  0.8427  0.1663
   48MPD2    C2  734   3.979   0.120   9.667  0.5630 -0.1432 -0.0753
   48MPD2    C3  735   4.070   0.192   9.740  0.2802 -0.2403 -0.3698
   48MPD2    C4  736   4.037   0.314   9.796 -0.0449  0.4122 -0.2059
   48MPD2    C5  737   3.902   0.355   9.804  0.3663  0.1114 -0.9242
   48MPD2     H  738   4.012   0.033   9.611 -2.2321 -0.1647 -1.6720
   48MPD2    H1  739   4.103   0.376   9.855 -0.2490 -1.3479  1.8720
   48MPD2    H2  740   3.721   0.338   9.731  0.3032  0.3777  1.2862
   48MPD2    H3  741   3.884   0.449   9.853 -0.2520 -0.5275  0.0658
   48MPD2     N  742   4.201   0.136   9.743 -0.1282  0.0764  0.2655
   48MPD2    H5  743   4.213   0.038   9.720 -2.1030  0.4972 -2.4691
   48MPD2    N1  744   3.744   0.103   9.597  0.1924  0.5248  0.8088
   48MPD2    H7  745   3.761   0.016   9.547  0.4455  0.8128  0.3957
   49MPD2     C  746   2.053   1.699   9.673 -0.3821 -0.4216 -0.2949
   49MPD2    C1  747   2.051   1.675   9.814  1.3469 -0.5520 -0.1404
   49MPD2    C2  748   2.073   1.779   9.900 -0.2508 -1.0121  0.4639
   49MPD2    C3  749   2.111   1.904   9.849  0.4065 -0.4031 -0.1454
   49MPD2    C4  750   2.123   1.920   9.717 -0.8601 -0.1414 -0.7591
   49MPD2    C5  751   2.097   1.821   9.626  0.1914  0.0857  0.2078
   49MPD2     H  752   2.054   1.763  10.005  1.3323 -0.6428  0.8092
   49MPD2    H1  753   2.156   2.014   9.675 -0.4438  0.1460  0.2284
   49MPD2    H2  754   2.031   1.630   9.593 -0.7581  0.0405 -0.5947
   49MPD2    H3  755   2.087   1.846   9.521 -0.6948 -0.2467  0.2181
   49MPD2     N  756   2.138   2.015   9.928  0.0321  0.1100  0.1847
   49MPD2    H5  757   2.150   2.105   9.882  0.2852  1.3305  2.6031
   49MPD2    N1  758   2.018   1.550   9.878 -0.2105 -0.6863 -0.0015
   49MPD2    H7  759   2.038   1.549   9.977  0.3103  0.3351 -0.0901
   50TCq2    C1  760   1.983   1.435   9.815 -0.0494  0.9120 -0.4171
   50TCq2    O2  761   1.953   1.412   9.698  0.1277  0.0175  0.0413
   50TCq2    C2  762   1.976   1.323   9.908  0.4150  0.8477  0.2378
   50TCq2    C3  763   1.906   1.214   9.864 -0.3504  0.7028 -0.0600
   50TCq2    C4  764   1.924   1.088   9.921  1.3033  0.2504 -0.0130
   50TCq2    C5  765   2.024   1.076  10.014 -0.4405 -0.2239 -0.2535
   50TCq2    C6  766   2.091   1.186  10.060  0.2783 -0.0273  0.1958
   50TCq2    C7  767   2.070   1.307  10.007  0.2520 -0.2707 -0.7524
   50TCq2    C8  768   2.174   1.170  10.183 -0.4257 -0.1499  0.5385
   50TCq2    O4  769   2.178   1.058  10.229 -1.0551  0.1386 -0.3947
   50TCq2    C9  770   1.829   0.981   9.891  0.0215 -0.5809  0.7998
   50TCq2    O5  771   1.870   0.865   9.919  0.3402 -0.0459 -0.4589
   50TCq2    O6  772   1.750   0.998   9.793 -0.4572 -0.3283  0.2267
   50TCq2    H2  773   1.831   1.229   9.787 -1.0191 -3.0340 -0.1189
   50TCq2    H3  774   2.041   0.982  10.065  0.1400  0.6738  1.1970
   50TCq2    H4  775   2.138   1.388  10.029 -0.8964  1.0752 -2.0562
   51MPD2     C  776   2.735   1.566   0.769 -0.0855 -0.0686  0.1718
   51MPD2    C1  777   2.852   1.495   0.739 -0.3546 -0.3803 -0.3017
   51MPD2    C2  778   2.972   1.564   0.749 -0.4005  0.7630  0.1515
   51MPD2    C3  779   2.974   1.697   0.777  0.3925 -0.0569 -0.4742
   51MPD2    C4  780   2.851   1.762   0.798 -0.5586  0.6028 -0.4197
   51MPD2    C5  781   2.736   1.697   0.789 -0.4766  0.2927 -0.8537
   51MPD2     H  782   3.064   1.514   0.725 -0.9137  0.1217 -0.4799
   51MPD2    H1  783   2.837   1.866   0.826 -0.3128  0.7213 -0.7385
   51MPD2    H2  784   2.640   1.515   0.756 -0.4995  0.2423  1.9706
   51MPD2    H3  785   2.648   1.756   0.814  0.0618 -0.0504  1.8049
   51MPD2     N  786   3.085   1.774   0.805  0.2043  0.8949  0.1859
   51MPD2    H5  787   3.067   1.870   0.833 -0.5206  1.2076 -1.3515
   51MPD2    N1  788   2.847   1.354   0.717  0.8954  0.3510 -0.3310
   51MPD2    H7  789   2.929   1.308   0.679  0.0715 -0.4197 -1.2064
   52TCq2    C1  790   3.211   1.734   0.813  0.2073  0.5164  0.0735
   52TCq2    O2  791   3.254   1.616   0.819 -0.1733  0.0331  0.1961
   52TCq2    C2  792   3.304   1.840   0.849  0.6744  0.7792 -1.0180
   52TCq2    C3  793   3.424   1.802   0.908 -0.1683  0.2835 -0.2512
   52TCq2    C4  794   3.512   1.908   0.932  0.4201 -0.7321 -0.3715
   52TCq2    C5  795   3.476   2.038   0.914  0.2222 -0.7816  0.2521
   52TCq2    C6  796   3.354   2.066   0.851 -0.3330  0.6156 -0.5471
   52TCq2    C7  797   3.263   1.967   0.811  0.0337  0.2475 -0.0919
   52TCq2    C8  798   3.324   2.206   0.838 -0.6556  0.2346 -0.3460
   52TCq2    O4  799   3.409   2.279   0.884  0.0932 -0.1853  0.5554
   52TCq2    C9  800   3.628   1.868   1.000 -0.7411 -0.4263 -0.6761
   52TCq2    O5  801   3.712   1.964   1.025 -0.8313 -0.3943  0.9000
   52TCq2    O6  802   3.623   1.758   1.059  0.1311  0.1089  1.2847
   52TCq2    H2  803   3.453   1.700   0.932  2.0318  0.2998 -2.8367
   52TCq2    H3  804   3.550   2.112   0.941  2.1428 -2.6888  0.2093
   52TCq2    H4  805   3.174   1.998   0.757  0.7115  2.7134  0.1956
   53TMC2    C1  806   2.695   3.383  11.440 -0.9352  0.6431  0.1818
   53TMC2    C2  807   2.818   3.371  11.382  0.1361 -0.2849  0.2119
   53TMC2    C3  808   2.874   3.491  11.350  0.1881  0.0638  0.3456
   53TMC2    C4  809   2.629   3.500  11.478  0.0483  0.9127 -0.0046
   53TMC2    C5  810   2.693   3.619  11.443  0.1455  0.1714  0.2785
   53TMC2    C6  811   2.815   3.618  11.376 -0.3167 -0.2109 -0.4240
   53TMC2     C  812   2.640   3.255  11.470 -0.3210 -0.5131 -0.4372
   53TMC2     O  813   2.681   3.164  11.402 -0.3701  0.3549 -0.4310
   53TMC2     H  814   2.871   3.279  11.358  2.8588  1.4165 -0.3221
   53TMC2    H1  815   2.532   3.508  11.525 -1.0306  1.2541 -2.2883
   53TMC2    H2  816   2.864   3.707  11.338 -0.6301 -0.4608 -1.4074
   53TMC2    C7  817   2.642   3.739  11.496  0.1377  0.0626 -0.9292
   53TMC2    C8  818   3.000   3.476  11.283  0.4139 -0.2295 -0.2616
   53TMC2    O1  819   2.531   3.745  11.550  0.1660  0.3030 -0.5682
   53TMC2    O2  820   3.025   3.380  11.208  0.1737 -0.4327 -0.0275
   53TMC2    O5  821   3.060   3.600  11.288  0.1655 -0.1432 -0.1390
   53TMC2    H5  822   3.058   3.636  11.379  1.8296 -2.1744  0.7020
   54MPD2     C  823   2.481   3.032  11.575 -0.0633 -0.8164 -0.3919
   54MPD2    C1  824   2.503   3.147  11.645 -0.7752  0.1731  0.2250
   54MPD2    C2  825   2.459   3.160  11.779 -0.5077 -1.0522  0.3961
   54MPD2    C3  826   2.390   3.061  11.836 -0.5729 -0.9068  0.4251
   54MPD2    C4  827   2.377   2.943  11.766  0.2134 -0.6643 -0.0584
   54MPD2    C5  828   2.424   2.925  11.639 -0.4660  0.3896  0.7910
   54MPD2     H  829   2.492   3.242  11.842  1.4299 -2.0211  0.6395
   54MPD2    H1  830   2.339   2.852  11.811  0.4857 -0.2468  1.0056
   54MPD2    H2  831   2.505   3.028  11.470  0.9108  0.8509 -0.2250
   54MPD2    H3  832   2.403   2.838  11.577  0.3084  0.5651  0.2926
   54MPD2     N  833   2.341   3.059  11.960  0.2266  0.4465  0.3355
   54MPD2    H5  834   2.310   2.968  11.994 -0.8429  1.3638  1.8300
   54MPD2    N1  835   2.581   3.255  11.592  0.2689 -0.4400 -0.0443
   54MPD2    H7  836   2.596   3.342  11.641  1.0504 -0.9591  0.6187
   55MPD2     C  837   3.401   2.891  17.186  0.3364  0.0405  0.9798
   55MPD2    C1  838   3.367   2.769  17.237 -0.3139  0.3427  0.5205
   55MPD2    C2  839   3.290   2.754  17.354  0.0562 -0.2590  0.4102
   55MPD2    C3  840   3.258   2.869  17.427  0.4299 -0.1813 -0.4043
   55MPD2    C4  841   3.298   2.987  17.375  0.3729  0.4667  0.2805
   55MPD2    C5  842   3.358   2.999  17.251  0.2922 -0.4160 -0.0789
   55MPD2     H  843   3.272   2.656  17.396 -0.6886 -0.9582 -1.5247
   55MPD2    H1  844   3.282   3.078  17.432 -0.3193  2.1900 -2.6928
   55MPD2    H2  845   3.443   2.900  17.087  0.6233 -1.8323  0.9324
   55MPD2    H3  846   3.367   3.096  17.205 -0.5094 -0.0483  0.5446
   55MPD2     N  847   3.187   2.854  17.548  0.5470 -0.1381  0.1501
   55MPD2    H5  848   3.151   2.762  17.572 -1.9218  0.7011 -0.3568
   55MPD2    N1  849   3.441   2.659  17.180  0.4962  0.1519 -0.3072
   55MPD2    H7  850   3.491   2.686  17.096 -0.1407  2.3978  0.0260
   56TCq2    C1  851   3.442   2.530  17.230 -0.1206 -0.8682 -0.3008
   56TCq2    O2  852   3.428   2.493  17.346 -0.1226  0.0093 -0.2958
   56TCq2    C2  853   3.512   2.432  17.138 -0.6293  0.0821 -0.8980
   56TCq2    C3  854   3.576   2.476  17.028  0.3433 -0.8017 -0.5163
   56TCq2    C4  855   3.695   2.421  16.978  0.4997  0.9324 -0.0923
   56TCq2    C5  856   3.755   2.331  17.057 -0.7877 -0.0696  0.4804
   56TCq2    C6  857   3.692   2.285  17.169 -0.0966  0.2779 -0.6272
   56TCq2    C7  858   3.569   2.334  17.207  0.0626 -0.4907  0.0769
   56TCq2    C8  859   3.780   2.237  17.267 -0.3564  0.0943  0.2388
   56TCq2    O4  860   3.898   2.245  17.240  0.7057 -0.0378  0.0062
   56TCq2    C9  861   3.773   2.476  16.866  0.5078  1.2518 -0.0764
   56TCq2    O5  862   3.716   2.552  16.784 -0.1401 -0.3635  0.2487
   56TCq2    O6  863   3.894   2.437  16.856 -0.4545  0.0264  0.0637
   56TCq2    H2  864   3.552   2.564  16.968 -1.4435 -0.7499  0.2808
   56TCq2    H3  865   3.848   2.289  17.020 -0.6677  0.2731  0.3968
   56TCq2    H4  866   3.515   2.284  17.287 -0.9477  0.4902  0.0064
   57TMC2    C1  867   3.248   3.053  13.723  0.7759 -1.1262  0.0654
   57TMC2    C2  868   3.298   3.142  13.807  0.0234 -0.0075  0.3675
   57TMC2    C3  869   3.430   3.141  13.824 -0.0999 -0.6181  0.8152
   57TMC2    C4  870   3.321   2.957  13.656 -0.0753 -0.1512 -0.3868
   57TMC2    C5  871   3.454   2.948  13.695  0.3904 -0.1999 -0.2473
   57TMC2    C6  872   3.503   3.042  13.779 -0.3713 -0.0670 -0.4136
   57TMC2     C  873   3.107   3.069  13.696  0.1302  0.2853  0.7503
   57TMC2     O  874   3.049   3.170  13.732  0.4028 -0.2090 -0.5871
   57TMC2     H  875   3.254   3.237  13.834 -1.0507  0.3429 -2.6043
   57TMC2    H1  876   3.282   2.908  13.568 -1.4750  1.2687 -0.5452
   57TMC2    H2  877   3.610   3.048  13.797 -0.5109  0.5686  0.2021
   57TMC2    C7  878   3.541   2.850  13.634  0.1069 -0.6927 -0.6686
   57TMC2    C8  879   3.496   3.251  13.892 -0.4943 -0.2190 -0.2960
   57TMC2    O1  880   3.660   2.865  13.645 -0.2692  0.1401 -0.7013
   57TMC2    O2  881   3.615   3.275  13.869  0.1345 -0.0422 -0.0115
   57TMC2    O5  882   3.428   3.304  13.992 -0.2188 -0.1381  0.5755
   57TMC2    H5  883   3.338   3.265  13.996 -0.4224  0.2475 -0.2889
   58MPD2     C  884   2.640   2.858  13.598  0.1179 -0.7058 -0.4641
   58MPD2    C1  885   2.682   2.983  13.596  0.5074 -0.3657  0.2980
   58MPD2    C2  886   2.810   3.020  13.625  0.0046  0.2853 -0.1345
   58MPD2    C3  887   2.904   2.922  13.646 -0.0186  0.0558 -0.0042
   58MPD2    C4  888   2.860   2.790  13.635 -0.5029 -0.1974 -0.2862
   58MPD2    C5  889   2.731   2.759  13.619  0.0859  0.1180 -0.1259
   58MPD2     H  890   2.833   3.125  13.621 -0.7403  0.5050  1.5329
   58MPD2    H1  891   2.928   2.706  13.646  1.0460  1.2618  1.4161
   58MPD2    H2  892   2.538   2.822  13.589 -0.2958  0.8661 -2.0020
   58MPD2    H3  893   2.714   2.657  13.586 -0.2398  1.1360 -3.1620
   58MPD2     N  894   3.050   2.952  13.658  0.6473  0.6147 -0.1212
   58MPD2    H5  895   3.105   2.867  13.663  0.9238  0.8395  0.8298
   58MPD2    N1  896   2.595   3.089  13.575 -0.5502 -0.7464  0.0136
   58MPD2    H7  897   2.635   3.179  13.600 -1.8267 -0.7838  2.2718
   59MPD2     C  898   0.865   2.982  13.252  1.7006  0.1340  0.1487
   59MPD2    C1  899   0.930   3.034  13.148 -0.2929  0.1085 -0.1640
   59MPD2    C2  900   1.024   3.128  13.165 -0.7464 -0.0625 -0.1135
   59MPD2    C3  901   1.053   3.190  13.290  0.2698 -0.0558  0.7141
   59MPD2    C4  902   0.977   3.143  13.395  0.6237  0.3436  0.2198
   59MPD2    C5  903   0.897   3.036  13.375 -0.9696  0.0989 -0.5177
   59MPD2     H  904   1.061   3.170  13.072 -1.7877  1.6476  0.2458
   59MPD2    H1  905   0.990   3.179  13.496 -1.4275 -0.6887  0.8622
   59MPD2    H2  906   0.782   2.913  13.249  1.5112  0.3517  0.3538
   59MPD2    H3  907   0.830   3.009  13.456  2.5114 -0.7919  2.0051
   59MPD2     N  908   1.155   3.284  13.313 -0.1226 -0.1059 -0.1520
   59MPD2    H5  909   1.160   3.311  13.411  0.8649 -1.2204  0.0998
   59MPD2    N1  910   0.907   3.005  13.012  0.2833 -0.1246 -0.2825
   59MPD2    H7  911   0.965   3.056  12.946  0.4080 -0.8101 -0.7024
   60TCq2    C1  912   0.808   2.911  12.976  0.2010 -0.0028 -0.0455
   60TCq2    O2  913   0.722   2.851  13.045 -0.5178  0.4202 -0.0563
   60TCq2    C2  914   0.794   2.886  12.831 -0.3038 -0.8259  0.0947
   60TCq2    C3  915   0.692   2.813  12.790 -0.7591 -0.3514 -0.9469
   60TCq2    C4  916   0.626   2.842  12.683  0.2433 -0.0141 -0.3287
   60TCq2    C5  917   0.667   2.933  12.592  0.3057  0.6277  0.4576
   60TCq2    C6  918   0.768   3.016  12.637  0.2551  0.4134  0.2744
   60TCq2    C7  919   0.838   2.990  12.750  0.9152 -0.2689 -0.1216
   60TCq2    C8  920   0.822   3.124  12.553 -0.5176 -0.1130  0.1383
   60TCq2    O4  921   0.945   3.131  12.540 -0.4453 -0.2776 -0.1366
   60TCq2    C9  922   0.515   2.751  12.645  0.3723  0.4664 -0.0739
   60TCq2    O5  923   0.441   2.779  12.550  0.1590 -0.2375 -0.2269
   60TCq2    O6  924   0.497   2.645  12.710  0.0366 -0.1895  0.5664
   60TCq2    H2  925   0.645   2.738  12.853 -3.2334  0.7101 -1.5410
   60TCq2    H3  926   0.616   2.947  12.498 -0.2235 -1.3536  0.4462
   60TCq2    H4  927   0.912   3.064  12.778  1.8008 -0.0610 -3.0704
   61MPD2     C  928   0.229   4.398  14.896  0.4184  0.3701 -0.4776
   61MPD2    C1  929   0.251   4.534  14.912  0.1267  0.0989  0.3916
   61MPD2    C2  930   0.260   4.617  14.797  0.2554 -0.3040  0.8618
   61MPD2    C3  931   0.258   4.558  14.668  0.6648 -0.5148 -0.0652
   61MPD2    C4  932   0.255   4.422  14.660 -0.2054  0.0865  0.0537
   61MPD2    C5  933   0.237   4.341  14.773 -0.0251  0.3487 -0.2857
   61MPD2     H  934   0.269   0.002  14.804 -0.2586 -0.1606 -0.5936
   61MPD2    H1  935   0.254   4.379  14.561  0.1449  0.6994 -0.2134
   61MPD2    H2  936   0.210   4.325  14.975 -3.3524  0.6345 -1.1504
   61MPD2    H3  937   0.221   4.234  14.763 -0.6871  0.1769  2.6249
   61MPD2     N  938   0.284   4.624  14.546 -0.6550 -0.4902  0.3662
   61MPD2    H5  939   0.294   4.563  14.466  0.5684  0.5346 -0.2718
   61MPD2    N1  940   0.236   4.599  15.034 -0.5909 -0.0733  0.3356
   61MPD2    H7  941   0.261   4.697  15.040 -0.7688  0.0690 -1.3858
   62TCq2    C1  942   0.201   4.544  15.159  0.5438  0.3286  0.3993
   62TCq2    O2  943   0.210   4.431  15.196 -0.1952  0.3127 -0.0563
   62TCq2    C2  944   0.169   4.641  15.264  0.1152 -0.2423  0.2533
   62TCq2    C3  945   0.211   4.612  15.393  0.3744  0.0291  0.6035
   62TCq2    C4  946   0.194   4.701  15.495 -0.1336 -0.9003 -1.0521
   62TCq2    C5  947   0.152   0.107  15.462 -0.0833 -0.2894  0.1921
   62TCq2    C6  948   0.108   0.130  15.334  0.3879 -0.6320 -0.5304
   62TCq2    C7  949   0.119   0.043  15.235  0.1166 -0.5540 -0.6594
   62TCq2    C8  950   0.063   0.263  15.309  0.0067  0.0032  0.0862
   62TCq2    O4  951   0.117   0.353  15.369  0.2393 -0.6494 -0.2053
   62TCq2    C9  952   0.238   4.681  15.635 -0.4337 -0.0889 -0.1505
   62TCq2    O5  953   0.309   4.580  15.656  0.3039 -0.4950 -0.0283
   62TCq2    O6  954   0.222   0.049  15.720  0.4412 -0.0721  0.1327
   62TCq2    H2  955   0.262   4.521  15.421 -0.2007 -0.4805 -0.0192
   62TCq2    H3  956   0.137   0.187  15.533  0.6610  0.3236 -0.3348
   62TCq2    H4  957   0.106   0.069  15.130  1.4625  2.3088 -0.1092
   63TMC2    C1  958   3.746   4.604  11.309 -0.3022  0.7770 -0.5353
   63TMC2    C2  959   3.800   4.634  11.434  0.4214 -0.1226 -0.1461
   63TMC2    C3  960   3.906   4.717  11.438 -0.2459  0.0134  0.1565
   63TMC2    C4  961   3.796   4.661  11.194  0.0978 -0.8159  1.2729
   63TMC2    C5  962   3.902   0.019  11.205 -0.5098  0.0530 -0.1135
   63TMC2    C6  963   3.969   0.045  11.324 -0.3290 -0.2229  1.0304
   63TMC2     C  964   3.665   4.484  11.307 -0.7671 -1.0688  0.0878
   63TMC2     O  965   3.620   4.441  11.412 -0.3538 -0.0125  0.3008
   63TMC2     H  966   3.746   4.614  11.526  1.8393  1.3900  1.0059
   63TMC2    H1  967   3.752   4.641  11.097 -0.3733 -1.9338  1.7166
   63TMC2    H2  968   4.056   0.110  11.323 -1.1871  0.9377  1.0135
   63TMC2    C7  969   3.971   0.040  11.078 -0.9760  1.1849 -0.2738
   63TMC2    C8  970   3.954   0.042  11.564 -0.2510 -0.7097 -0.1078
   63TMC2    O1  971   3.903   0.037  10.982 -0.4625 -0.2903 -0.1091
   63TMC2    O2  972   4.019   0.145  11.587  0.0215 -0.1201  0.2824
   63TMC2    O5  973   3.950   4.656  11.651 -0.2195 -0.0253 -0.3517
   63TMC2    H5  974   3.904   4.581  11.609  0.0748 -0.9786  1.0333
   64MPD2     C  975   3.556   4.045  11.060  0.4426  0.3262 -0.4113
   64MPD2    C1  976   3.610   4.131  10.968  0.1316 -0.2187 -0.7174
   64MPD2    C2  977   3.632   4.261  11.011 -0.1695 -0.5833 -0.4019
   64MPD2    C3  978   3.601   4.311  11.138  0.0188  0.1738  0.1614
   64MPD2    C4  979   3.553   4.225  11.229  0.9236  0.1023 -0.0307
   64MPD2    C5  980   3.521   4.091  11.189 -0.5060  0.5528  0.4690
   64MPD2     H  981   3.684   4.326  10.941  2.7521 -1.4140  0.9870
   64MPD2    H1  982   3.531   4.245  11.333  0.9082  1.1025 -0.2295
   64MPD2    H2  983   3.533   3.942  11.036 -0.1805  1.0692 -2.9782
   64MPD2    H3  984   3.476   4.017  11.254  0.9867  0.3831  1.2976
   64MPD2     N  985   3.645   4.444  11.176  0.2520 -0.3015 -1.0405
   64MPD2    H5  986   3.686   4.499  11.101  1.4977  0.0947 -0.0691
   64MPD2    N1  987   3.640   4.075  10.844 -0.0258 -0.2461  0.1423
   64MPD2    H7  988   3.652   3.974  10.832  2.5899 -0.2428  2.9043
   65MPD2     C  989   1.014   4.161  15.922 -0.3361 -0.2335 -0.5652
   65MPD2    C1  990   1.012   4.176  15.784  0.4219 -0.2035  0.2455
   65MPD2    C2  991   1.005   4.064  15.703  0.0456  0.4175 -0.0781
   65MPD2    C3  992   0.985   3.938  15.757  0.4287  0.0646 -0.1830
   65MPD2    C4  993   0.968   3.930  15.896  1.0472  0.1623  0.1766
   65MPD2    C5  994   0.982   4.041  15.974  0.0497 -0.0252  0.7811
   65MPD2     H  995   1.020   4.080  15.597 -0.2023 -1.6725 -0.4304
   65MPD2    H1  996   0.943   3.834  15.941 -2.4264  0.8182 -0.3412
   65MPD2    H2  997   1.032   4.245  15.987  1.5899 -0.7956 -0.3910
   65MPD2    H3  998   0.975   4.025  16.081 -0.2766 -2.1856  0.4322
   65MPD2     N  999   0.971   3.821  15.680  0.6362 -0.0038  0.2177
   65MPD2    H5 1000   0.940   3.739  15.731 -0.0480 -0.2437 -0.5867
   65MPD2    N1 1001   1.009   4.298  15.717  0.3113  0.2696  0.9545
   65MPD2    H7 1002   0.999   4.291  15.617 -0.7826 -0.8495  1.1421
   66TCq2    C1 1003   1.028   4.424  15.764  0.0345  0.4001 -0.1631
   66TCq2    O2 1004   1.017   4.456  15.884 -0.8010  0.1337  0.1904
   66TCq2    C2 1005   1.045   4.527  15.668 -0.1025 -0.4425 -0.1223
   66TCq2    C3 1006   1.073   4.496  15.542 -0.0866 -0.0657  0.6995
   66TCq2    C4 1007   1.066   4.583  15.439  0.7292  0.3334 -0.7130
   66TCq2    C5 1008   1.022   4.715  15.460 -0.0633 -0.2099 -1.1233
   66TCq2    C6 1009   1.008   0.023  15.588 -0.4732 -0.5416 -0.2641
   66TCq2    C7 1010   1.014   4.655  15.697 -0.1558  0.7155  0.1279
   66TCq2    C8 1011   0.934   0.145  15.604 -0.4634  0.1380  0.1177
   66TCq2    O4 1012   0.935   0.227  15.511  0.1659 -0.2832  0.1033
   66TCq2    C9 1013   1.094   4.533  15.305 -0.1612 -0.4772 -0.0235
   66TCq2    O5 1014   1.063   4.612  15.212  0.1210 -0.2807  0.0941
   66TCq2    O6 1015   1.113   4.408  15.294 -0.5188  0.2171  0.5533
   66TCq2    H2 1016   1.121   4.402  15.515  1.6684  1.1534 -0.4579
   66TCq2    H3 1017   0.996   0.056  15.377  0.8132 -0.0280 -1.2495
   66TCq2    H4 1018   0.991   4.681  15.800  2.9471  1.8376  0.5518
   67MPD2     C 1019   1.039   3.453  14.278  0.3376  0.1401 -0.1086
   67MPD2    C1 1020   0.947   3.509  14.361  0.4711 -0.3337  0.3795
   67MPD2    C2 1021   0.811   3.499  14.330  0.2185  0.2952 -0.2608
   67MPD2    C3 1022   0.775   3.438  14.209  0.2333 -0.1284 -0.8182
   67MPD2    C4 1023   0.872   3.371  14.136  0.1352  0.2538 -0.3167
   67MPD2    C5 1024   1.006   3.377  14.169  0.0749 -0.0531 -0.1047
   67MPD2     H 1025   0.738   3.540  14.399 -0.3545 -1.9988  0.4851
   67MPD2    H1 1026   0.860   3.322  14.041  0.0022  3.1816 -1.8234
   67MPD2    H2 1027   1.147   3.466  14.284  0.1648  1.3160  0.4772
   67MPD2    H3 1028   1.077   3.332  14.101 -0.2389 -1.9936  0.8367
   67MPD2     N 1029   0.639   3.436  14.170 -0.3008 -0.5755 -0.1452
   67MPD2    H5 1030   0.574   3.483  14.232  0.1070 -0.7575  0.4191
   67MPD2    N1 1031   0.990   3.596  14.467 -0.2564  0.3368 -0.1547
   67MPD2    H7 1032   0.913   3.655  14.496  0.1227  0.3647  0.7866
   68TCq2    C1 1033   1.117   3.628  14.503 -0.5973  0.2011  0.2552
   68TCq2    O2 1034   1.222   3.575  14.471 -0.3082  0.0466  0.3620
   68TCq2    C2 1035   1.126   3.740  14.591 -0.1668  0.0735 -0.3550
   68TCq2    C3 1036   1.012   3.780  14.659  0.1056  0.7793  0.0385
   68TCq2    C4 1037   1.028   3.865  14.769  0.1372 -0.2114 -0.0153
   68TCq2    C5 1038   1.148   3.896  14.817  0.7021 -0.9056  0.2369
   68TCq2    C6 1039   1.257   3.830  14.764 -0.0955 -0.1453  0.4028
   68TCq2    C7 1040   1.247   3.758  14.646  0.5092 -0.4037  0.2543
   68TCq2    C8 1041   1.382   3.833  14.837 -0.4633 -0.0588 -0.2043
   68TCq2    O4 1042   1.492   3.818  14.780 -0.0287 -0.0955 -0.1753
   68TCq2    C9 1043   0.916   3.903  14.849 -0.0968  0.4517 -0.5610
   68TCq2    O5 1044   0.806   3.849  14.814  0.7389 -0.2267  0.1367
   68TCq2    O6 1045   0.934   3.955  14.959 -0.2038 -0.0727  0.7851
   68TCq2    H2 1046   0.909   3.763  14.632  0.2773 -0.1689  0.0041
   68TCq2    H3 1047   1.165   3.965  14.899  2.2297 -2.8787  1.5891
   68TCq2    H4 1048   1.335   3.704  14.612  0.4297 -0.2108 -0.2597
   69TMC2    C1 1049   3.038   4.548  12.433 -0.2412  0.3015 -0.1516
   69TMC2    C2 1050   2.981   4.559  12.307  0.7648 -0.6352  0.0514
   69TMC2    C3 1051   3.034   4.652  12.222  0.3228  0.3663  0.1173
   69TMC2    C4 1052   3.149   4.622  12.477  0.5589  0.4577 -0.2266
   69TMC2    C5 1053   3.191   4.718  12.382 -0.3873  0.2003  0.2869
   69TMC2    C6 1054   3.125   0.024  12.262  0.8080 -0.2409 -0.2633
   69TMC2     C 1055   2.988   4.442  12.526  0.0867  0.5944 -0.6512
   69TMC2     O 1056   2.872   4.408  12.508 -0.6241 -0.0265 -0.2154
   69TMC2     H 1057   2.892   4.505  12.279  0.5963 -0.7711  0.8465
   69TMC2    H1 1058   3.182   4.625  12.580  2.1706  0.5327 -0.7410
   69TMC2    H2 1059   3.169   0.088  12.187  1.9348  0.1733  0.7544
   69TMC2    C7 1060   3.313   0.066  12.411 -0.9870  0.5405  0.2798
   69TMC2    C8 1061   2.982   4.660  12.095  0.0558  0.0080 -0.5570
   69TMC2    O1 1062   3.409   0.007  12.455  0.0004 -0.0444  0.6111
   69TMC2    O2 1063   2.967   0.045  12.039  0.2062 -0.2038 -0.0379
   69TMC2    O5 1064   2.978   4.533  12.050  0.1248 -0.2464 -0.0482
   69TMC2    H5 1065   3.029   4.468  12.103 -0.8469 -0.6234  0.4354
   70MPD2     C 1066   3.214   4.212  12.684 -0.7268  0.1402 -0.4652
   70MPD2    C1 1067   3.090   4.264  12.656 -0.2004 -0.2134  0.0081
   70MPD2    C2 1068   2.976   4.184  12.687 -0.2439  0.4346  0.6572
   70MPD2    C3 1069   2.991   4.063  12.754  0.8434  0.6078 -0.2447
   70MPD2    C4 1070   3.113   4.022  12.796 -0.5478  0.7872 -0.1138
   70MPD2    C5 1071   3.226   4.092  12.751  0.0956  0.2459  0.6365
   70MPD2     H 1072   2.880   4.230  12.666 -0.3000  0.5081  1.0614
   70MPD2    H1 1073   3.113   3.932  12.856 -0.8197  0.5997 -0.4004
   70MPD2    H2 1074   3.308   4.257  12.656 -0.2397  0.0671  1.0784
   70MPD2    H3 1075   3.325   4.064  12.785 -1.0163 -5.0285 -0.4710
   70MPD2     N 1076   2.882   3.982  12.797 -0.9011  0.4455 -0.5315
   70MPD2    H5 1077   2.907   3.902  12.854 -2.5391 -0.2642 -0.8123
   70MPD2    N1 1078   3.093   4.380  12.582  0.3484 -0.5877  0.0513
   70MPD2    H7 1079   3.185   4.422  12.580  0.0638  0.0664  0.3729
   71TMC2    C1 1080   1.138   1.237   1.130  0.0353 -0.5173 -0.1607
   71TMC2    C2 1081   1.218   1.140   1.069  0.1140 -0.7011  0.4507
   71TMC2    C3 1082   1.252   1.031   1.142  0.4446 -0.3106  0.5672
   71TMC2    C4 1083   1.093   1.219   1.257  0.7671 -0.3054 -0.6949
   71TMC2    C5 1084   1.130   1.109   1.331 -0.0139  0.1930  0.9246
   71TMC2    C6 1085   1.210   1.018   1.272  0.0346  0.0987  0.3572
   71TMC2     C 1086   1.074   1.345   1.059  0.4924  0.2555  0.2501
   71TMC2     O 1087   0.988   1.407   1.116  0.2205 -0.4757  0.1346
   71TMC2     H 1088   1.247   1.160   0.967  1.5190 -2.1037  0.5624
   71TMC2    H1 1089   1.054   1.304   1.311 -0.3885 -1.8529  0.8877
   71TMC2    H2 1090   1.253   0.939   1.332  2.3052  0.3319 -0.9516
   71TMC2    C7 1091   1.092   1.105   1.472  0.7372 -0.3450  0.3451
   71TMC2    C8 1092   1.359   0.947   1.097 -0.3507  0.6493  0.2114
   71TMC2    O1 1093   1.168   1.045   1.547  0.2983  0.1377  0.5598
   71TMC2    O2 1094   1.450   0.900   1.165  0.8837  0.1867  0.0642
   71TMC2    O5 1095   1.347   0.943   0.963  0.4320 -0.3504  0.6442
   71TMC2    H5 1096   1.259   0.967   0.929  1.2847  1.2028 -0.4498
   72MPD2     C 1097   0.929   1.619   0.655  0.1032 -0.1695 -0.5225
   72MPD2    C1 1098   0.852   1.552   0.754 -0.7576  0.3216 -0.0549
   72MPD2    C2 1099   0.917   1.479   0.850  0.5229  0.4287 -0.2408
   72MPD2    C3 1100   1.053   1.464   0.840  0.4266 -0.1302 -0.8877
   72MPD2    C4 1101   1.121   1.508   0.735  0.1888 -0.0048  0.3590
   72MPD2    C5 1102   1.059   1.596   0.649  0.8282 -0.2927 -0.0185
   72MPD2     H 1103   0.859   1.426   0.924  3.8130 -1.2198  1.1652
   72MPD2    H1 1104   1.229   1.501   0.730  0.0147  0.6564 -4.9170
   72MPD2    H2 1105   0.877   1.668   0.573 -1.2157 -2.1858 -0.8715
   72MPD2    H3 1106   1.118   1.631   0.565 -1.1288 -0.2787 -1.3863
   72MPD2     N 1107   1.118   1.377   0.927 -0.1259 -0.1422  0.1233
   72MPD2    H5 1108   1.214   1.350   0.909 -0.8027 -2.3724 -0.1563
   72MPD2    N1 1109   0.715   1.549   0.742  0.6272  0.2610 -0.3703
   72MPD2    H7 1110   0.667   1.487   0.807  0.3419  0.3704 -0.4736
   73TMC2    C1 1111   0.019   2.239  13.692  0.2805  0.1245 -0.0701
   73TMC2    C2 1112   4.632   2.238  13.778  0.0009  0.5633  0.0232
   73TMC2    C3 1113   4.645   2.247  13.914 -0.5638 -0.2946 -0.1469
   73TMC2    C4 1114   0.143   2.259  13.745  0.1834  0.3411  0.2926
   73TMC2    C5 1115   0.154   2.283  13.887  0.4012  0.7539 -0.1257
   73TMC2    C6 1116   0.047   2.270  13.969  0.2435  0.7795 -0.6767
   73TMC2     C 1117   0.026   2.339  13.582 -0.6838  0.2551  0.0701
   73TMC2     O 1118   0.119   2.418  13.578  0.3417 -0.0368 -0.0934
   73TMC2     H 1119   4.539   2.261  13.728 -0.1316 -0.4288 -0.1866
   73TMC2    H1 1120   0.226   2.252  13.676  0.2359 -1.0836  0.5020
   73TMC2    H2 1121   0.068   2.284  14.075  0.0718  2.4270 -0.8689
   73TMC2    C7 1122   0.230   2.395  13.927  0.4889 -0.6111  0.0057
   73TMC2    C8 1123   4.530   2.196  13.989  0.5239  0.2524 -0.6416
   73TMC2    O1 1124   0.259   2.418  14.044  0.2120 -0.0158  0.0585
   73TMC2    O2 1125   4.438   2.150  13.920  0.1320  0.1899 -0.1246
   73TMC2    O5 1126   4.560   2.156  14.107  0.2745 -0.6192 -0.0930
   73TMC2    H5 1127   4.613   2.220  14.159  0.4707 -0.0108 -1.0382
   74MPD2     C 1128   4.570   2.566  13.167 -0.5506  0.3164  0.1313
   74MPD2    C1 1129   4.665   2.607  13.260 -0.0465  0.6228 -0.0013
   74MPD2    C2 1130   4.683   2.529  13.372  0.4537  0.0837 -0.1560
   74MPD2    C3 1131   4.612   2.410  13.391  0.1754 -0.2135 -0.8876
   74MPD2    C4 1132   4.517   2.371  13.293 -0.4956  0.0887  0.1908
   74MPD2    C5 1133   4.496   2.455  13.180  0.6142 -0.4081  0.1637
   74MPD2     H 1134   0.029   2.561  13.449 -1.4161 -1.5247  2.1731
   74MPD2    H1 1135   4.454   2.283  13.304  0.2561 -0.6555 -1.4063
   74MPD2    H2 1136   4.538   2.637  13.091 -1.8133  0.1791  0.5309
   74MPD2    H3 1137   4.418   2.436  13.107 -0.3922  0.5797  0.9778
   74MPD2     N 1138   4.637   2.327  13.499  0.3573  0.1482  0.2596
   74MPD2    H5 1139   4.577   2.245  13.508  0.9204  0.0640  3.0300
   74MPD2    N1 1140   0.007   2.727  13.239 -0.0028  0.5232 -0.7242
   74MPD2    H7 1141   4.708   2.761  13.145 -1.7641  2.4502  0.3475
   75TCq2    C1 1142   0.597   3.411  14.041  0.1075  0.1300  0.1882
   75TCq2    O2 1143   0.662   3.383  13.940 -0.7595  0.2406 -0.1104
   75TCq2    C2 1144   0.456   3.451  14.027  0.4032 -0.2924 -0.7602
   75TCq2    C3 1145   0.371   3.473  14.132 -0.3815 -0.2752 -0.2683
   75TCq2    C4 1146   0.247   3.527  14.110 -1.1687 -0.6273 -0.7325
   75TCq2    C5 1147   0.208   3.541  13.981  0.8942  0.4440  0.2172
   75TCq2    C6 1148   0.290   3.522  13.881  0.1990  0.0476  0.9848
   75TCq2    C7 1149   0.414   3.471  13.896 -0.0619  0.0461  0.5012
   75TCq2    C8 1150   0.251   3.571  13.748  0.1064 -0.7064 -0.0268
   75TCq2    O4 1151   0.298   3.512  13.655 -0.6419 -0.3923 -0.0788
   75TCq2    C9 1152   0.169   3.569  14.224  0.2923  0.0301 -0.1460
   75TCq2    O5 1153   0.063   3.639  14.196  0.1531  0.4370 -0.0934
   75TCq2    O6 1154   0.215   3.553  14.335  0.0344  0.1099  0.6922
   75TCq2    H2 1155   0.403   3.456  14.234 -0.1544 -0.9680 -0.4561
   75TCq2    H3 1156   0.106   3.573  13.963  1.4809  2.0989 -0.1490
   75TCq2    H4 1157   0.481   3.463  13.811  0.9369  3.0024  1.0345
   76MPD2     C 1158   4.371   4.523  12.263 -0.6852 -0.0184  0.5761
   76MPD2    C1 1159   4.246   4.459  12.236 -0.0023 -0.6572 -0.2780
   76MPD2    C2 1160   4.225   4.333  12.284  0.4249  0.3668  0.1163
   76MPD2    C3 1161   4.307   4.266  12.372 -0.0600  0.2674  0.1255
   76MPD2    C4 1162   4.421   4.343  12.412 -0.2535  0.1639  0.2464
   76MPD2    C5 1163   4.454   4.457  12.351  0.1055  0.3297 -0.1296
   76MPD2     H 1164   4.142   4.282  12.237 -0.2535 -1.9441  3.8147
   76MPD2    H1 1165   4.496   4.310  12.482 -0.4324 -1.0251 -0.1212
   76MPD2    H2 1166   4.407   4.621  12.234  1.4406 -0.3073  2.2302
   76MPD2    H3 1167   4.540   4.513  12.387  1.6895 -0.6196 -2.4460
   76MPD2     N 1168   4.276   4.137  12.428 -0.5570  0.1500  0.7988
   76MPD2    H5 1169   4.197   4.082  12.398 -1.0053 -0.9115  3.9027
   76MPD2    N1 1170   4.151   4.527  12.162  0.0794 -0.0807 -0.4040
   76MPD2    H7 1171   4.062   4.479  12.166  0.4453 -0.7357 -0.2365
   77TCq2    C1 1172   4.353   4.077  12.529 -0.4077 -0.0586 -0.4240
   77TCq2    O2 1173   4.453   4.116  12.587 -0.3408 -0.7504 -0.9867
   77TCq2    C2 1174   4.311   3.941  12.550 -0.4133 -0.1622  0.1122
   77TCq2    C3 1175   4.196   3.890  12.501 -0.9924  0.3185  0.2421
   77TCq2    C4 1176   4.166   3.760  12.524 -0.1579  0.3862 -0.5588
   77TCq2    C5 1177   4.242   3.676  12.592  0.7231  0.4225 -0.0643
   77TCq2    C6 1178   4.360   3.724  12.633  0.2217 -0.0990  0.3233
   77TCq2    C7 1179   4.400   3.855  12.603 -0.1388  0.2174 -0.4723
   77TCq2    C8 1180   4.450   3.631  12.694 -0.1619  0.7206  0.1470
   77TCq2    O4 1181   4.433   3.508  12.685 -0.7900  0.3007  0.1221
   77TCq2    C9 1182   4.037   3.718  12.473 -0.4293 -0.4286 -0.7915
   77TCq2    O5 1183   3.955   3.675  12.562  0.4179  0.4380  0.1674
   77TCq2    O6 1184   3.998   3.796  12.387 -0.1520  0.0359 -0.0856
   77TCq2    H2 1185   4.119   3.958  12.467 -0.5502 -0.1677 -1.7034
   77TCq2    H3 1186   4.220   3.570  12.600  1.7796  0.0569 -2.1623
   77TCq2    H4 1187   4.496   3.895  12.634  0.1360 -0.5480 -0.3188
   78MPD1     C 1188   0.365   4.624   1.892 -0.1432  0.7468 -0.4757
   78MPD1    C1 1189   0.480   4.681   1.853 -0.3871  0.0779  1.1477
   78MPD1    C2 1190   0.522   0.072   1.914 -0.0298 -0.1258  0.4021
   78MPD1    C3 1191   0.449   0.143   2.010 -0.0756  0.3006 -0.2474
   78MPD1    C4 1192   0.337   0.077   2.051 -0.1696  0.3672  0.1721
   78MPD1    C5 1193   0.294   4.686   1.988 -0.1726  0.1052 -0.5037
   78MPD1     H 1194   0.615   0.115   1.879  1.1283 -1.9159  1.3181
   78MPD1    H1 1195   0.280   0.113   2.135  1.1601  3.9536 -0.4761
   78MPD1    H2 1196   0.325   4.538   1.841  2.6040 -0.6952 -0.1991
   78MPD1    H3 1197   0.206   4.637   2.027 -0.5760 -0.2961 -1.9197
   78MPD1     N 1198   0.485   0.269   2.057  0.7427 -0.1471 -0.1500
   78MPD1    H5 1199   0.437   0.298   2.142  1.7706 -0.1685  0.4553
   78MPD1    N1 1200   0.540   4.634   1.732  0.4308 -0.5330  0.1160
   78MPD1    H6 1201   0.641   4.646   1.730  0.2946  0.7547  1.2594
   78MPD1    H7 1202   0.499   4.543   1.715 -0.7693 -0.0805  0.5593
   79TCq2    C1 1203   0.578   0.356   2.001 -0.4207 -0.1021 -0.3276
   79TCq2    O2 1204   0.649   0.332   1.908  0.1250 -0.1584  0.3893
   79TCq2    C2 1205   0.599   0.478   2.083 -0.8379 -0.0505  0.0562
   79TCq2    C3 1206   0.513   0.506   2.189 -0.1613  0.6195 -0.4865
   79TCq2    C4 1207   0.530   0.623   2.257  0.4290  0.0975 -0.8810
   79TCq2    C5 1208   0.629   0.706   2.227 -0.3564 -0.2926 -0.0927
   79TCq2    C6 1209   0.704   0.681   2.116  0.6414  0.4405 -0.2243
   79TCq2    C7 1210   0.692   0.566   2.044  0.0161  0.9264 -0.0083
   79TCq2    C8 1211   0.832   0.745   2.095  0.4084 -0.2916 -0.1748
   79TCq2    O4 1212   0.883   0.719   1.986  0.0990 -0.3534  0.0562
   79TCq2    C9 1213   0.447   0.654   2.366  0.3866  0.3090  0.1418
   79TCq2    O5 1214   0.475   0.761   2.433  0.0379  0.0017 -0.2951
   79TCq2    O6 1215   0.335   0.595   2.380  0.3688  0.4128 -0.0512
   79TCq2    H2 1216   0.427   0.443   2.210  1.9846 -2.2767 -0.5421
   79TCq2    H3 1217   0.649   0.798   2.281  1.4809  0.1733 -1.5780
   79TCq2    H4 1218   0.742   0.537   1.952 -0.9488 -1.7384  0.3229
   80MPD2     C 1219   2.750   4.243  12.049 -0.2102  0.1056 -0.0415
   80MPD2    C1 1220   2.684   4.131  12.038  0.0290  0.0972 -0.4474
   80MPD2    C2 1221   2.554   4.134  12.095 -0.2249  0.2231 -0.9422
   80MPD2    C3 1222   2.504   4.246  12.152  0.0208  0.1514 -0.2103
   80MPD2    C4 1223   2.575   4.358  12.157 -0.8043  0.4050  0.0043
   80MPD2    C5 1224   2.697   4.356  12.103  0.1000 -0.0652 -0.2675
   80MPD2     H 1225   2.498   4.041  12.083 -0.9960  0.7352 -1.3066
   80MPD2    H1 1226   2.534   4.454  12.187 -1.7944 -0.8475  2.6631
   80MPD2    H2 1227   2.854   4.246  12.017 -0.5645 -0.6800 -1.2937
   80MPD2    H3 1228   2.756   4.444  12.125 -0.3747  0.2372 -0.1998
   80MPD2     N 1229   2.380   4.241  12.223  0.0746 -0.5749 -0.0903
   80MPD2    H5 1230   2.360   4.318  12.286 -0.4511 -0.1520 -0.7683
   80MPD2    N1 1231   2.739   4.006  11.995  0.4266 -0.0208  0.9088
   80MPD2    H7 1232   2.671   3.931  11.984 -0.3587  0.2301  3.9941
   81TCq2    C1 1233   2.866   3.984  11.949 -0.1268  0.5661  0.2992
   81TCq2    O2 1234   2.956   4.065  11.943  0.4707 -0.5324 -0.3132
   81TCq2    C2 1235   2.890   3.850  11.913 -0.2439 -0.2329 -0.1557
   81TCq2    C3 1236   3.001   3.835  11.831  0.1066 -0.6404  0.7697
   81TCq2    C4 1237   2.991   3.746  11.733  0.3866  0.8795  0.8525
   81TCq2    C5 1238   2.893   3.652  11.723  0.2955 -0.0521 -0.2409
   81TCq2    C6 1239   2.798   3.655  11.819 -1.0705 -0.0781 -0.3170
   81TCq2    C7 1240   2.789   3.754  11.913 -0.4812  0.5079 -0.2098
   81TCq2    C8 1241   2.752   3.525  11.853  0.0506 -0.6044 -0.0668
   81TCq2    O4 1242   2.761   3.436  11.768  0.2586  0.1921  0.7911
   81TCq2    C9 1243   3.087   3.743  11.630 -0.2012 -0.4440  0.3827
   81TCq2    O5 1244   3.051   3.718  11.516 -0.2681 -0.4442 -0.2671
   81TCq2    O6 1245   3.199   3.771  11.669 -0.1018  0.2385  0.2659
   81TCq2    H2 1246   3.082   3.905  11.819 -2.3153  2.3857  2.0083
   81TCq2    H3 1247   2.909   3.576  11.647  1.3719  0.5424 -0.6077
   81TCq2    H4 1248   2.708   3.766  11.983  0.0232  2.8912 -0.0352
   82MPD2     C 1249   1.158   3.783  10.555  0.2091 -0.4397 -0.4224
   82MPD2    C1 1250   1.092   3.668  10.536  0.8040 -1.1363  0.1386
   82MPD2    C2 1251   1.165   3.552  10.560  0.5500 -0.2868  0.0599
   82MPD2    C3 1252   1.292   3.553  10.615 -0.0646  0.3936  0.6760
   82MPD2    C4 1253   1.349   3.675  10.651  0.0402 -0.5489 -0.0381
   82MPD2    C5 1254   1.282   3.793  10.622 -0.1620 -0.1607  0.0212
   82MPD2     H 1255   1.114   3.462  10.530 -0.0370  0.6291 -1.6913
   82MPD2    H1 1256   1.442   3.681  10.707 -0.4742 -0.0885  0.7539
   82MPD2    H2 1257   1.110   3.878  10.534 -1.1563 -0.6655  1.6768
   82MPD2    H3 1258   1.320   3.892  10.643  0.4896 -0.3000 -0.4993
   82MPD2     N 1259   1.381   3.434  10.631  0.4756 -0.2092 -0.0406
   82MPD2    H5 1260   1.477   3.449  10.657  0.0522 -1.1143  1.9940
   82MPD2    N1 1261   0.962   3.671  10.493 -0.2300  0.4044  0.0109
   82MPD2    H7 1262   0.927   3.759  10.458  1.0458  0.7087 -0.5204
   83TCq2    C1 1263   1.338   3.306  10.604 -0.3920  0.5849 -0.4243
   83TCq2    O2 1264   1.227   3.265  10.573  0.0848  0.4433  0.4686
   83TCq2    C2 1265   1.446   3.206  10.616  0.2229 -0.0921  0.3997
   83TCq2    C3 1266   1.576   3.241  10.616  0.4790  0.2726 -0.0793
   83TCq2    C4 1267   1.674   3.162  10.670 -0.1800  0.2986  0.3941
   83TCq2    C5 1268   1.639   3.038  10.718 -0.4142  0.1584  0.4326
   83TCq2    C6 1269   1.508   2.999  10.716  0.7963  0.5451  1.0684
   83TCq2    C7 1270   1.411   3.080  10.658  0.0047  0.7050 -0.5086
   83TCq2    C8 1271   1.465   2.879  10.785 -0.4055  0.4163 -0.2456
   83TCq2    O4 1272   1.345   2.850  10.783  0.1409  0.4511 -0.1344
   83TCq2    C9 1273   1.809   3.201  10.673 -0.6768 -0.2055  0.3442
   83TCq2    O5 1274   1.844   3.298  10.603 -0.2221  0.1441 -0.1519
   83TCq2    O6 1275   1.880   3.139  10.755  0.0185 -0.2351  0.5369
   83TCq2    H2 1276   1.610   3.337  10.579 -0.1104  0.3863 -0.3296
   83TCq2    H3 1277   1.713   2.972  10.762  0.3556  0.2578 -0.7111
   83TCq2    H4 1278   1.309   3.044  10.657  0.2058  0.1577 -1.0143
   84TCq2    C1 1279   2.133   2.029  10.065 -0.6131 -0.5305 -0.1501
   84TCq2    O2 1280   2.110   1.942  10.150  0.3621  0.4341 -0.2381
   84TCq2    C2 1281   2.185   2.158  10.109 -0.3493 -0.6644  0.7280
   84TCq2    C3 1282   2.167   2.263  10.027 -0.2783 -0.1229 -0.0042
   84TCq2    C4 1283   2.209   2.385  10.076 -0.0724  0.1050 -1.0597
   84TCq2    C5 1284   2.258   2.400  10.203 -0.6487  0.3516 -0.0979
   84TCq2    C6 1285   2.276   2.286  10.275  0.2810  0.0298  0.4492
   84TCq2    C7 1286   2.230   2.164  10.240  1.0130  0.3239  0.0569
   84TCq2    C8 1287   2.288   2.301  10.418 -0.4723 -0.6413 -0.1310
   84TCq2    O4 1288   2.283   2.199  10.487 -0.2169 -0.7256  0.0142
   84TCq2    C9 1289   2.188   2.498   9.994 -0.4547  0.4118  0.3657
   84TCq2    O5 1290   2.250   2.607  10.025  0.1999  0.4721  0.1734
   84TCq2    O6 1291   2.158   2.466   9.874 -0.1701  0.7136 -0.4465
   84TCq2    H2 1292   2.135   2.252   9.924  0.9552 -0.9354 -0.3036
   84TCq2    H3 1293   2.288   2.500  10.234 -0.2071  0.0808  0.3509
   84TCq2    H4 1294   2.240   2.075  10.300 -1.8263  0.0687  0.1769
   85MPD2     C 1295   3.205   0.589  16.331 -0.5464 -0.2878  0.0568
   85MPD2    C1 1296   3.085   0.635  16.279  0.4439  0.1243  0.7444
   85MPD2    C2 1297   3.073   0.762  16.233 -0.2115  0.5518  0.1532
   85MPD2    C3 1298   3.179   0.853  16.235 -0.0043  0.1196 -0.1256
   85MPD2    C4 1299   3.306   0.806  16.270  0.7402 -0.3461  0.0540
   85MPD2    C5 1300   3.311   0.673  16.313  0.2310 -0.7415 -0.3913
   85MPD2     H 1301   2.983   0.811  16.197  2.1374  1.9080 -3.8506
   85MPD2    H1 1302   3.396   0.862  16.291  0.0987  0.1298  1.5983
   85MPD2    H2 1303   3.213   0.489  16.370  0.9604  0.6710  2.1956
   85MPD2    H3 1304   3.407   0.636  16.347 -0.2870 -0.4796  1.3485
   85MPD2     N 1305   3.154   0.985  16.186  0.5541 -0.5774 -0.2204
   85MPD2    H5 1306   3.057   0.999  16.161  0.6972  1.0608  0.1436
   85MPD2    N1 1307   2.965   0.562  16.294  0.1944 -0.6114  0.3047
   85MPD2    H7 1308   2.876   0.611  16.299 -0.2782 -1.6022  1.6815
   86TCq2    C1 1309   3.249   1.092  16.171 -0.0404 -0.0908 -0.3418
   86TCq2    O2 1310   3.368   1.092  16.199  0.5306 -0.4155  0.4085
   86TCq2    C2 1311   3.203   1.217  16.099  0.0371  0.5272 -0.0208
   86TCq2    C3 1312   3.067   1.253  16.114 -0.2980  0.1006  0.4292
   86TCq2    C4 1313   3.020   1.375  16.081 -0.1802 -0.3900 -1.0816
   86TCq2    C5 1314   3.114   1.465  16.033 -0.2809  0.0396  0.4106
   86TCq2    C6 1315   3.247   1.427  16.019 -0.1461  0.3688  0.0051
   86TCq2    C7 1316   3.292   1.300  16.041  0.0846  0.3537 -0.4181
   86TCq2    C8 1317   3.341   1.510  15.945 -0.3706  0.1795  0.2885
   86TCq2    O4 1318   3.456   1.468  15.921  0.2818 -0.2985  0.1267
   86TCq2    C9 1319   2.893   1.417  16.133 -0.1973 -0.0054  0.8407
   86TCq2    O5 1320   2.851   1.533  16.099  0.5754  0.1663 -0.1624
   86TCq2    O6 1321   2.849   1.350  16.233 -0.4036 -0.2152  0.3711
   86TCq2    H2 1322   3.012   1.193  16.184  2.2946  0.5070  2.8004
   86TCq2    H3 1323   3.075   1.564  16.016  0.2231  0.4846  1.8519
   86TCq2    H4 1324   3.399   1.282  16.035 -0.1428 -1.2032  0.2748
   87MPD2     C 1325   0.879   4.643   1.873 -0.0364  0.5087  0.1928
   87MPD2    C1 1326   0.884   4.676   1.742  0.4726 -0.1941 -1.3478
   87MPD2    C2 1327   0.907   0.077   1.709  0.1116  0.3773  0.2631
   87MPD2    C3 1328   0.919   0.177   1.802  0.1382 -0.1449  0.2760
   87MPD2    C4 1329   0.913   0.146   1.939 -0.2425  0.5857 -0.4101
   87MPD2    C5 1330   0.901   0.014   1.978  0.0220  0.6581  0.4692
   87MPD2     H 1331   0.939   0.092   1.607  0.4322  0.1188  0.3242
   87MPD2    H1 1332   0.921   0.215   2.022  0.7318 -0.3373  0.2597
   87MPD2    H2 1333   0.871   4.540   1.906  0.5541  0.1331 -0.8236
   87MPD2    H3 1334   0.899   4.708   2.082  1.9734  1.2321  0.6700
   87MPD2     N 1335   0.934   0.311   1.770 -0.0314  0.2792 -0.7637
   87MPD2    H5 1336   0.946   0.364   1.856 -1.3788  0.2811 -0.5747
   87MPD2    N1 1337   0.874   4.566   1.658  0.0221 -0.6968 -0.3473
   87MPD2    H7 1338   0.856   4.473   1.695  0.9151 -0.5755  0.3830
   88TCq2    C1 1339   0.880   4.572   1.521 -0.6529  0.1306  0.1931
   88TCq2    O2 1340   0.899   4.659   1.438  0.1143 -0.3029  0.5362
   88TCq2    C2 1341   0.874   4.433   1.468  0.4927  0.2769 -0.0075
   88TCq2    C3 1342   0.825   4.335   1.552  0.0876 -0.2365 -0.2736
   88TCq2    C4 1343   0.857   4.203   1.518 -0.0880 -0.2316 -1.1458
   88TCq2    C5 1344   0.928   4.178   1.407 -0.6383 -0.2231  0.3657
   88TCq2    C6 1345   0.964   4.278   1.316  0.7253 -0.2339 -0.0204
   88TCq2    C7 1346   0.939   4.403   1.347 -0.4602  0.0020 -0.1589
   88TCq2    C8 1347   1.041   4.243   1.196  1.2757  0.7159 -0.1986
   88TCq2    O4 1348   1.128   4.162   1.222 -0.2437 -0.2233  0.2777
   88TCq2    C9 1349   0.819   4.087   1.602 -0.0165 -0.2560 -0.1304
   88TCq2    O5 1350   0.831   3.977   1.541  0.4643  0.3544 -0.3799
   88TCq2    O6 1351   0.736   4.110   1.700  0.1958 -0.6432  0.1989
   88TCq2    H2 1352   0.765   4.358   1.639  0.1546  0.9002 -0.5300
   88TCq2    H3 1353   0.952   4.074   1.387 -2.9559 -0.9686  1.4950
   88TCq2    H4 1354   0.961   4.488   1.283 -1.9890  0.2499 -0.3602
   89MPD2     C 1355   1.408   1.725   1.669  0.3428  0.3359  0.2063
   89MPD2    C1 1356   1.322   1.836   1.682  0.2358  0.6353 -0.1686
   89MPD2    C2 1357   1.329   1.941   1.598  0.5492 -0.3431  0.0238
   89MPD2    C3 1358   1.414   1.937   1.487 -0.1456 -0.1490  0.2086
   89MPD2    C4 1359   1.495   1.830   1.473  0.0563 -0.3722  0.8898
   89MPD2    C5 1360   1.495   1.729   1.564 -0.4041 -0.5261  0.1791
   89MPD2     H 1361   1.261   2.023   1.621  0.6874 -0.5431  1.1632
   89MPD2    H1 1362   1.568   1.834   1.392 -0.3920 -1.5221  0.4361
   89MPD2    H2 1363   1.413   1.643   1.740  0.7613 -0.4546 -0.7369
   89MPD2    H3 1364   1.571   1.651   1.563  1.2258  1.0651 -0.3396
   89MPD2     N 1365   1.406   2.039   1.391  0.1607  1.0551  0.3811
   89MPD2    H5 1366   1.345   2.116   1.420  0.3316  0.1780  3.0984
   89MPD2    N1 1367   1.223   1.838   1.784 -0.2446  0.2273  0.0723
   89MPD2    H7 1368   1.147   1.903   1.769 -1.4377 -0.5033  3.0050
   90TCq2    C1 1369   1.463   2.045   1.266 -0.4590 -0.3239  0.4635
   90TCq2    O2 1370   1.532   1.961   1.214 -0.4995  0.0776 -0.0627
   90TCq2    C2 1371   1.433   2.165   1.187 -0.5623  0.0878  0.0676
   90TCq2    C3 1372   1.337   2.244   1.232 -0.1830 -0.5814  0.8609
   90TCq2    C4 1373   1.263   2.313   1.140  0.8159  0.1822 -0.7607
   90TCq2    C5 1374   1.280   2.306   1.006 -0.2884  0.4865  0.4151
   90TCq2    C6 1375   1.386   2.230   0.964  0.0652 -0.8730  0.5612
   90TCq2    C7 1376   1.460   2.156   1.046 -0.0645 -0.8730  0.4640
   90TCq2    C8 1377   1.427   2.247   0.828  0.3718  0.2510 -0.5682
   90TCq2    O4 1378   1.488   2.158   0.772 -0.0613  0.6174  0.1586
   90TCq2    C9 1379   1.157   2.394   1.186  0.7864 -0.1884 -0.0409
   90TCq2    O5 1380   1.159   2.438   1.304 -0.0182 -0.1393 -1.2813
   90TCq2    O6 1381   1.071   2.428   1.098 -0.3332  0.4053 -0.4493
   90TCq2    H2 1382   1.318   2.268   1.336  0.9759  0.5256  0.8283
   90TCq2    H3 1383   1.204   2.348   0.942 -1.3203  0.7977  1.8336
   90TCq2    H4 1384   1.527   2.091   0.991  1.1946  0.2985  0.6362
   91TMC2    C1 1385   2.884   1.531  16.656 -0.2390 -0.4356 -0.6767
   91TMC2    C2 1386   2.964   1.587  16.559  0.0631 -0.2604  0.8995
   91TMC2    C3 1387   2.920   1.622  16.436 -0.5741  0.4885  0.4514
   91TMC2    C4 1388   2.748   1.502  16.619 -0.7782  0.1227  0.7568
   91TMC2    C5 1389   2.708   1.529  16.493  0.2058  0.0512  0.4998
   91TMC2    C6 1390   2.786   1.592  16.402 -0.4498 -0.4982  0.0627
   91TMC2     C 1391   2.950   1.451  16.764 -0.1185  0.0313 -0.1943
   91TMC2     O 1392   2.878   1.378  16.831  0.0242 -0.1416 -0.0212
   91TMC2     H 1393   3.065   1.624  16.575  0.4351 -0.5721 -0.7118
   91TMC2    H1 1394   2.688   1.442  16.686 -0.8562 -0.6830 -0.0339
   91TMC2    H2 1395   2.748   1.624  16.305  0.2313  2.2832  0.7060
   91TMC2    C7 1396   2.589   1.461  16.449 -0.3501 -0.0124  0.4861
   91TMC2    C8 1397   2.979   1.733  16.360  0.2198 -0.3908 -0.4243
   91TMC2    O1 1398   2.490   1.450  16.521 -0.2345  0.1049  0.2321
   91TMC2    O2 1399   3.006   1.834  16.426 -0.4717 -0.3465 -0.3741
   91TMC2    O5 1400   2.933   1.733  16.234  0.2042 -0.5566 -0.0263
   91TMC2    H5 1401   2.902   1.647  16.198  0.2125 -1.2467  1.6554
   92MPD2     C 1402   3.149   1.255  16.896 -0.8214  0.6170 -0.0525
   92MPD2    C1 1403   3.183   1.377  16.830  0.1358 -0.1296  0.3463
   92MPD2    C2 1404   3.320   1.402  16.814 -0.8286  0.1541  0.1663
   92MPD2    C3 1405   3.416   1.318  16.866  0.2716 -0.3699 -0.4345
   92MPD2    C4 1406   3.383   1.206  16.935 -0.6906 -0.6989 -0.0019
   92MPD2    C5 1407   3.250   1.176  16.942 -0.0999  0.3103  0.3090
   92MPD2     H 1408   3.352   1.491  16.761  3.0887 -1.3402 -0.0219
   92MPD2    H1 1409   3.442   1.135  16.992 -0.2188 -0.2545  0.0642
   92MPD2    H2 1410   3.048   1.226  16.923 -1.0801  1.7892  0.2226
   92MPD2    H3 1411   3.229   1.085  16.996  0.3465 -0.3660 -0.6675
   92MPD2     N 1412   3.553   1.360  16.845  0.3053  0.0852  0.3581
   92MPD2    H5 1413   3.568   1.451  16.802 -1.1909 -2.6445 -5.9630
   92MPD2    N1 1414   3.089   1.468  16.767 -0.1147 -0.2963  0.2265
   92MPD2    H7 1415   3.120   1.549  16.715 -1.3705 -0.7504 -1.2218
   93MPD2     C 1416   4.225   1.359  13.967 -0.1393  0.5270  0.2262
   93MPD2    C1 1417   4.251   1.381  13.836 -0.1168 -1.3117 -0.1736
   93MPD2    C2 1418   4.153   1.415  13.748  0.7890 -0.4398 -0.5654
   93MPD2    C3 1419   4.018   1.435  13.792 -0.3806 -0.0614  0.9078
   93MPD2    C4 1420   3.993   1.408  13.923 -0.6146  0.2864 -0.4976
   93MPD2    C5 1421   4.094   1.367  14.010 -0.2268 -0.1163 -0.3802
   93MPD2     H 1422   4.179   1.439  13.646 -0.5262 -1.6830 -1.2078
   93MPD2    H1 1423   3.898   1.429  13.972 -0.8445  0.0467 -0.8476
   93MPD2    H2 1424   4.290   1.310  14.039 -0.7453 -1.7103 -0.7671
   93MPD2    H3 1425   4.061   1.351  14.112  1.3603  1.2068  0.3321
   93MPD2     N 1426   3.913   1.488  13.711  0.3283  0.2328  0.1628
   93MPD2    H5 1427   3.826   1.513  13.756 -0.5462 -1.5517 -0.5595
   93MPD2    N1 1428   4.374   1.344  13.782 -0.9428 -1.1650  0.3119
   93MPD2    H7 1429   4.383   1.358  13.682 -1.8695 -2.9008 -0.0142
   94TCq2    C1 1430   4.488   1.302  13.848 -0.5675  0.1197  0.1855
   94TCq2    O2 1431   4.512   1.302  13.968 -0.0042 -0.7072 -1.0585
   94TCq2    C2 1432   4.597   1.271  13.753  0.4162  0.0158  0.1119
   94TCq2    C3 1433   4.570   1.216  13.629  0.2555  0.2814 -0.4922
   94TCq2    C4 1434   4.665   1.200  13.537  0.6166  0.5558  0.9852
   94TCq2    C5 1435   0.069   1.235  13.560 -0.3279  0.3409 -0.0175
   94TCq2    C6 1436   0.100   1.290  13.684 -0.4977 -0.2278 -0.3054
   94TCq2    C7 1437   4.720   1.303  13.785  0.5552  0.0118 -0.2586
   94TCq2    C8 1438   0.229   1.332  13.709  0.2263 -0.5686 -0.4229
   94TCq2    O4 1439   0.318   1.289  13.633  0.1533  0.0613  0.7218
   94TCq2    C9 1440   4.631   1.147  13.403 -0.6510  0.8905  0.2539
   94TCq2    O5 1441   4.714   1.154  13.311  0.1938 -0.4105 -0.1202
   94TCq2    O6 1442   4.512   1.102  13.389 -0.7003 -0.5873  0.2666
   94TCq2    H2 1443   4.469   1.182  13.611 -0.1008  0.5985  0.9307
   94TCq2    H3 1444   0.140   1.220  13.479 -0.2604  1.4411 -0.1622
   94TCq2    H4 1445   0.028   1.333  13.884 -2.8869  1.4385  0.3550
   95TMC2    C1 1446   0.065   3.408  16.015  0.4848 -0.3330 -0.4528
   95TMC2    C2 1447   0.097   3.462  16.137 -0.9424 -0.4692  0.0078
   95TMC2    C3 1448   0.006   3.449  16.233 -0.2075 -0.2528  0.1180
   95TMC2    C4 1449   4.679   3.335  15.987  0.6311  0.7649 -0.6083
   95TMC2    C5 1450   4.588   3.329  16.088  0.0107 -0.0924 -0.6259
   95TMC2    C6 1451   4.605   3.395  16.206 -0.0782  0.4342  0.0578
   95TMC2     C 1452   0.171   3.409  15.913  0.2903  0.5897  0.1533
   95TMC2     O 1453   0.274   3.470  15.940 -0.0513 -0.3110  0.0285
   95TMC2     H 1454   0.188   3.519  16.153 -0.3510 -1.0933 -1.1826
   95TMC2    H1 1455   4.661   3.295  15.888  1.5522 -2.0318  0.3667
   95TMC2    H2 1456   4.526   3.420  16.276  0.7134  1.1995  0.6894
   95TMC2    C7 1457   4.471   3.244  16.072  0.4734  0.3439 -0.3943
   95TMC2    C8 1458   0.003   3.555  16.331  0.4356 -0.3435  0.2214
   95TMC2    O1 1459   4.397   3.234  16.171 -0.2094 -0.3387 -0.1053
   95TMC2    O2 1460   0.066   3.660  16.313  0.3957 -0.2446  0.1272
   95TMC2    O5 1461   4.657   3.524  16.444 -0.0907 -0.3569  0.6302
   95TMC2    H5 1462   4.625   3.431  16.436 -3.1336  0.7532  0.1348
   96MPD2     C 1463   0.424   3.209  15.509  0.5922 -0.7562 -0.5146
   96MPD2    C1 1464   0.433   3.335  15.571  0.0135 -0.1943 -0.3161
   96MPD2    C2 1465   0.348   3.373  15.674  0.3096 -0.3127  0.7076
   96MPD2    C3 1466   0.254   3.278  15.717 -0.5036 -0.6735 -0.5125
   96MPD2    C4 1467   0.246   3.154  15.655 -0.4324  0.2352 -0.5389
   96MPD2    C5 1468   0.324   3.123  15.548 -0.3089  0.6632  0.4922
   96MPD2     H 1469   0.358   3.466  15.728 -4.3934 -0.8839  2.5007
   96MPD2    H1 1470   0.167   3.090  15.691  0.9136 -1.0246  0.1598
   96MPD2    H2 1471   0.493   3.185  15.428  0.4887  0.9344 -1.1005
   96MPD2    H3 1472   0.309   3.038  15.483 -1.1187 -0.6922  2.4825
   96MPD2     N 1473   0.161   3.306  15.818  0.1316 -0.9698 -0.1177
   96MPD2    H5 1474   0.083   3.242  15.828  0.3091 -1.7209 -3.7574
   96MPD2    N1 1475   0.539   3.411  15.516 -0.4282  0.2896 -0.0615
   96MPD2    H7 1476   0.599   3.371  15.445 -0.6960  0.5698 -0.4475
   97MPD2     C 1477   1.809   0.855   0.461  0.5400  0.1606  0.4484
   97MPD2    C1 1478   1.913   0.921   0.523  0.3027 -0.4047 -0.3184
   97MPD2    C2 1479   2.037   0.915   0.462  0.1055  0.0475 -0.3719
   97MPD2    C3 1480   2.060   0.838   0.350  0.6189  0.3779 -0.1482
   97MPD2    C4 1481   1.957   0.770   0.293 -0.2125  0.0895 -0.7792
   97MPD2    C5 1482   1.833   0.776   0.358  0.2218 -0.2710 -0.5754
   97MPD2     H 1483   2.121   0.960   0.515 -0.6800  1.1105 -0.0462
   97MPD2    H1 1484   1.968   0.704   0.208  1.0732 -0.9033  0.1445
   97MPD2    H2 1485   1.704   0.867   0.487  0.4398 -0.9166  0.5355
   97MPD2    H3 1486   1.751   0.718   0.317 -1.6551  2.3970 -0.6078
   97MPD2     N 1487   2.179   0.836   0.281 -0.4848 -0.2976 -1.0354
   97MPD2    H5 1488   2.184   0.785   0.193  0.4987  0.1058 -1.2154
   97MPD2    N1 1489   1.893   0.991   0.646 -0.4246 -0.5091 -0.7096
   97MPD2    H7 1490   1.973   1.039   0.687 -1.2096 -0.2168  0.4785
   98TCq2    C1 1491   2.294   0.893   0.326  0.4036 -0.2046 -0.2501
   98TCq2    O2 1492   2.319   0.988   0.395  0.3279 -0.3626 -0.5714
   98TCq2    C2 1493   2.408   0.858   0.238  0.8405  0.3255  0.4996
   98TCq2    C3 1494   2.403   0.752   0.154  0.5359  0.8114 -0.4922
   98TCq2    C4 1495   2.494   0.739   0.046 -0.2098 -0.0304 -0.5823
   98TCq2    C5 1496   2.596   0.831   0.029  0.0865 -0.1971 -0.2007
   98TCq2    C6 1497   2.603   0.935   0.116 -0.0200 -0.2233 -0.2128
   98TCq2    C7 1498   2.513   0.949   0.224 -0.4013 -0.1299 -0.5790
   98TCq2    C8 1499   2.712   1.033   0.118  0.4597 -0.5230 -0.1975
   98TCq2    O4 1500   2.717   1.128   0.198 -0.1577  0.1042  0.4270
   98TCq2    C9 1501   2.481   0.626  17.647  0.0666 -0.2857  0.0422
   98TCq2    O5 1502   2.569   0.614  17.560 -0.6025 -0.3806  0.1079
   98TCq2    O6 1503   2.411   0.527  17.682 -0.1166  0.4487  0.5968
   98TCq2    H2 1504   2.330   0.673   0.163 -0.2961  1.5339 -0.9084
   98TCq2    H3 1505   2.669   0.808  17.645 -0.5941 -0.7235 -0.6935
   98TCq2    H4 1506   2.521   1.042   0.279  1.1808 -0.0654 -0.9108
   99MPD2     C 1507   1.467   3.720   1.831  0.2058 -0.0321  0.4537
   99MPD2    C1 1508   1.332   3.724   1.870  0.0548  0.3923 -0.1462
   99MPD2    C2 1509   1.235   3.663   1.795  0.5776 -0.3780 -0.5658
   99MPD2    C3 1510   1.258   3.594   1.686 -0.0407  0.3066  0.2899
   99MPD2    C4 1511   1.394   3.579   1.651 -0.1595  0.2422 -0.5065
   99MPD2    C5 1512   1.496   3.637   1.723  0.4904 -0.4818  0.6175
   99MPD2     H 1513   1.133   3.673   1.829  0.9212  0.7183  0.1458
   99MPD2    H1 1514   1.413   3.529   1.557  1.0652 -1.4160  0.6167
   99MPD2    H2 1515   1.547   3.765   1.890 -0.6065  0.6419  1.0395
   99MPD2    H3 1516   1.600   3.623   1.697  0.0855 -0.5401 -0.9734
   99MPD2     N 1517   1.144   3.538   1.624 -1.1755  0.6905 -0.1724
   99MPD2    H5 1518   1.050   3.556   1.658  0.1561  1.7023  2.9441
   99MPD2    N1 1519   1.286   3.790   1.985  0.4938  0.2101 -0.1446
   99MPD2    H7 1520   1.188   3.770   2.002  0.9533 -0.1340  2.0093
  100TCq2    C1 1521   1.365   3.861   2.069 -0.2261  0.4990  0.5265
  100TCq2    O2 1522   1.479   3.907   2.048  0.7336 -1.0300  0.1582
  100TCq2    C2 1523   1.300   3.903   2.193  0.6683 -0.5827 -0.1133
  100TCq2    C3 1524   1.372   3.980   2.277 -0.0081  0.7585  0.6273
  100TCq2    C4 1525   1.322   3.989   2.406  0.4882 -0.7240 -0.0090
  100TCq2    C5 1526   1.196   3.939   2.443 -0.1478  0.0763 -0.6996
  100TCq2    C6 1527   1.134   3.865   2.351 -0.1682  0.4174  0.1192
  100TCq2    C7 1528   1.181   3.842   2.230 -0.2320 -0.4143 -0.1371
  100TCq2    C8 1529   1.027   3.776   2.403 -0.6561 -0.0122  0.2998
  100TCq2    O4 1530   1.059   3.717   2.510 -0.2382 -0.4923 -0.3760
  100TCq2    C9 1531   1.389   4.070   2.499  0.4253 -0.8913 -0.5183
  100TCq2    O5 1532   1.509   4.101   2.474  0.1972  0.6322  0.3760
  100TCq2    O6 1533   1.325   4.119   2.598 -0.1728  0.3869 -0.0868
  100TCq2    H2 1534   1.476   4.001   2.252 -0.1621 -0.2439 -0.8486
  100TCq2    H3 1535   1.151   3.964   2.539  1.6129  0.2610  0.0948
  100TCq2    H4 1536   1.138   3.761   2.174  1.6852  0.0406 -2.2601
  101MPD2     C 1537   1.904   3.948  12.866 -0.5020 -0.5056  0.3638
  101MPD2    C1 1538   1.795   4.005  12.908 -0.1482  0.4872  0.2139
  101MPD2    C2 1539   1.708   3.935  12.992 -0.2589  0.1008  0.2047
  101MPD2    C3 1540   1.726   3.801  13.016 -0.5109 -0.2995  0.8025
  101MPD2    C4 1541   1.841   3.740  12.964 -0.1610  0.0716 -0.4132
  101MPD2    C5 1542   1.925   3.817  12.884  0.0315  0.1297  0.1925
  101MPD2     H 1543   1.616   3.984  13.022  0.4641  1.1552  0.7248
  101MPD2    H1 1544   1.850   3.634  12.988  2.0124  0.4458  0.4171
  101MPD2    H2 1545   1.974   3.986  12.792 -3.7853  1.1780 -1.9099
  101MPD2    H3 1546   2.014   3.775  12.838  0.2589  0.0377  0.7058
  101MPD2     N 1547   1.634   3.732  13.096  0.5277 -0.3895 -0.4485
  101MPD2    H5 1548   1.577   3.791  13.156 -0.0342 -1.9713  0.5593
  101MPD2    N1 1549   1.771   4.137  12.856  0.3860 -0.4157 -0.2640
  101MPD2    H7 1550   1.813   4.167  12.769 -2.1270  0.4369 -1.1797
  102TCq2    C1 1551   1.691   4.428  12.468  0.4818  0.7620 -0.0896
  102TCq2    O2 1552   1.755   4.330  12.432 -0.0208 -0.1363 -0.1688
  102TCq2    C2 1553   1.668   4.443  12.608  0.0626 -0.2050  0.2339
  102TCq2    C3 1554   1.622   4.565  12.661 -0.6702  0.2007  0.4842
  102TCq2    C4 1555   1.584   4.563  12.793  0.1251  0.6985  0.0875
  102TCq2    C5 1556   1.602   4.454  12.876 -0.3428  0.7983  0.1937
  102TCq2    C6 1557   1.646   4.338  12.819 -0.1934  0.6738 -0.4991
  102TCq2    C7 1558   1.687   4.332  12.686 -0.4351 -0.4977 -0.1909
  102TCq2    C8 1559   1.677   4.230  12.911  0.1604 -0.3275 -0.6768
  102TCq2    O4 1560   1.619   4.223  13.019  0.0117  0.5357 -0.8039
  102TCq2    C9 1561   1.550   4.691  12.855 -0.2775  0.3190  0.3313
  102TCq2    O5 1562   1.484   0.058  12.788 -0.5387  0.3193 -0.4604
  102TCq2    O6 1563   1.569   4.704  12.980 -0.1647 -0.0416  0.0459
  102TCq2    H2 1564   1.611   4.658  12.607  0.7472 -0.5238 -1.0372
  102TCq2    H3 1565   1.571   4.454  12.979  2.2799 -2.8143  0.9898
  102TCq2    H4 1566   1.709   4.238  12.638 -1.2949 -1.7459  1.8515
  103TMC2    C1 1567   0.462   3.934  12.893 -0.9014  0.1528  0.3172
  103TMC2    C2 1568   0.566   3.971  12.818 -0.2050  0.2332 -0.4067
  103TMC2    C3 1569   0.573   4.094  12.762  0.0751  0.2348  0.6100
  103TMC2    C4 1570   0.374   4.030  12.935 -0.0369 -0.3633 -0.1345
  103TMC2    C5 1571   0.386   4.147  12.886 -0.3946 -0.4239  0.1707
  103TMC2    C6 1572   0.479   4.188  12.794 -0.1676  0.7408 -0.6442
  103TMC2     C 1573   0.415   3.795  12.893  0.8689 -0.6299  0.3138
  103TMC2     O 1574   0.489   3.707  12.847  0.0452  0.8118  0.1165
  103TMC2     H 1575   0.631   3.892  12.783  0.0328  0.4223 -0.3942
  103TMC2    H1 1576   0.299   4.009  13.010  0.4424 -0.5482  0.2973
  103TMC2    H2 1577   0.500   4.293  12.773  1.0287  0.4953 -0.6573
  103TMC2    C7 1578   0.316   4.252  12.961  0.0734 -0.1575 -0.3242
  103TMC2    C8 1579   0.675   4.121  12.660  0.1149 -0.4955 -0.5803
  103TMC2    O1 1580   0.278   4.218  13.069  0.5263 -0.0605 -0.0776
  103TMC2    O2 1581   0.718   4.017  12.608  0.1752  0.2779 -0.4452
  103TMC2    O5 1582   0.620   4.211  12.581  0.2257 -0.7567 -0.5248
  103TMC2    H5 1583   0.629   4.300  12.621  0.7216 -1.1168  0.1467
  104MPD2     C 1584   0.221   3.588  12.770 -0.5789  0.4034 -0.4026
  104MPD2    C1 1585   0.187   3.712  12.813  0.5262  0.1881  0.3765
  104MPD2    C2 1586   0.053   3.742  12.810  0.5325  0.0575  0.1761
  104MPD2    C3 1587   4.682   3.656  12.771  0.8243 -0.6083 -0.0436
  104MPD2    C4 1588   4.718   3.530  12.733  0.1173 -0.4702 -0.3671
  104MPD2    C5 1589   0.125   3.498  12.739  0.1298 -0.1980 -0.0786
  104MPD2     H 1590   0.017   3.841  12.838  1.3034  0.6109 -0.7443
  104MPD2    H1 1591   4.646   3.453  12.707 -2.0202  0.6480  2.1902
  104MPD2    H2 1592   0.324   3.554  12.763 -0.0382  1.7090  1.2798
  104MPD2    H3 1593   0.150   3.397  12.708  1.9587 -0.0060  0.7371
  104MPD2     N 1594   4.555   3.703  12.739  0.0806  0.3179 -0.1490
  104MPD2    H5 1595   4.536   3.800  12.765  1.2138  0.7163 -0.7671
  104MPD2    N1 1596   0.280   3.806  12.867 -1.4764  0.1724  0.3914
  104MPD2    H7 1597   0.236   3.898  12.878 -0.7218  0.5891 -0.0839
  105MPD2     C 1598   1.950   3.857   0.019 -0.0011  0.3669  0.3682
  105MPD2    C1 1599   1.826   3.907   0.012  0.5472 -0.4675  0.0335
  105MPD2    C2 1600   1.766   3.949   0.127  0.5149 -0.6754 -0.0571
  105MPD2    C3 1601   1.833   3.947   0.247 -0.5754 -0.1102  0.1274
  105MPD2    C4 1602   1.958   3.889   0.259 -0.1139 -0.2125  0.6038
  105MPD2    C5 1603   2.015   3.850   0.138 -0.3464 -0.3442 -0.6460
  105MPD2     H 1604   1.664   3.986   0.118 -0.0431 -1.8503  1.3934
  105MPD2    H1 1605   2.013   3.879   0.351  2.4831  3.2256 -0.5652
  105MPD2    H2 1606   1.995   3.814  17.623 -0.5791  1.5289 -0.5013
  105MPD2    H3 1607   2.111   3.801   0.141  1.5353  3.3083 -1.1450
  105MPD2     N 1608   1.775   4.015   0.356  0.0281  0.5275 -0.3707
  105MPD2    H5 1609   1.688   4.065   0.341 -1.2105 -1.4925  0.1257
  105MPD2    N1 1610   1.758   3.931  17.582  0.0793  0.0281  0.0516
  105MPD2    H7 1611   1.669   3.980  17.585  1.3079  2.1236  2.4358
  106TCq2    C1 1612   1.831   4.032   0.479 -0.6378 -0.1022 -1.4280
  106TCq2    O2 1613   1.945   4.016   0.519 -0.2346 -0.3324  0.4805
  106TCq2    C2 1614   1.733   4.079   0.585  0.4928 -0.2131 -0.2203
  106TCq2    C3 1615   1.791   4.107   0.702  0.2341  0.2247  0.2933
  106TCq2    C4 1616   1.701   4.125   0.805 -0.1229  0.5565 -0.4034
  106TCq2    C5 1617   1.565   4.117   0.800  0.1962 -0.4946  0.0844
  106TCq2    C6 1618   1.519   4.090   0.674  0.1268  0.7924  0.2858
  106TCq2    C7 1619   1.598   4.071   0.568 -0.5097 -0.4154  0.1042
  106TCq2    C8 1620   1.378   4.117   0.653  0.1088 -0.5950 -0.3472
  106TCq2    O4 1621   1.328   4.078   0.546  0.0461 -0.0423  0.3556
  106TCq2    C9 1622   1.755   4.155   0.935  0.1739 -0.7874  0.5901
  106TCq2    O5 1623   1.684   4.206   1.024 -0.1525  0.2877  0.1437
  106TCq2    O6 1624   1.879   4.167   0.934 -0.0274  0.5883  0.0355
  106TCq2    H2 1625   1.898   4.106   0.718  0.4301 -0.1388 -1.0351
  106TCq2    H3 1626   1.503   4.130   0.888  0.8069 -1.8286  0.7138
  106TCq2    H4 1627   1.559   4.059   0.467 -0.3216 -0.0893 -0.0080
  107TMC2    C1 1628   1.977   2.358  11.352  0.0457  0.6616 -0.1526
  107TMC2    C2 1629   2.020   2.225  11.353  0.5174 -0.0344  0.3601
  107TMC2    C3 1630   2.101   2.189  11.247  0.9369 -0.1121  0.0228
  107TMC2    C4 1631   2.012   2.443  11.256 -0.0356 -0.0529 -0.0363
  107TMC2    C5 1632   2.067   2.395  11.136 -0.1733 -0.3363  0.5640
  107TMC2    C6 1633   2.123   2.267  11.136  0.6104  0.1709  0.2105
  107TMC2     C 1634   1.904   2.400  11.467  0.2382  0.1390  0.6896
  107TMC2     O 1635   1.885   2.518  11.482 -0.0492 -0.2311 -0.3350
  107TMC2     H 1636   2.012   2.156  11.436  1.3537 -2.1609 -1.3307
  107TMC2    H1 1637   1.971   2.543  11.258  0.0549 -0.0013 -0.6621
  107TMC2    H2 1638   2.191   2.228  11.061  0.5771  1.6181 -0.5823
  107TMC2    C7 1639   2.097   2.494  11.041 -0.1735 -0.0401 -0.5136
  107TMC2    C8 1640   2.143   2.052  11.246 -0.5511  0.3620  0.4905
  107TMC2    O1 1641   2.077   2.615  11.068  0.5284 -0.8709 -0.1182
  107TMC2    O2 1642   2.082   1.971  11.315  0.1178  0.4418  0.2382
  107TMC2    O5 1643   2.275   2.046  11.216 -0.5753  0.5197  0.8746
  107TMC2    H5 1644   2.306   2.133  11.185  0.5364  0.0224  0.6092
  108MPD2     C 1645   1.715   2.185  11.692 -0.4749  0.8620 -0.9014
  108MPD2    C1 1646   1.778   2.296  11.652 -0.0754 -0.6411  0.0889
  108MPD2    C2 1647   1.796   2.400  11.743  0.1786  0.6693 -0.5800
  108MPD2    C3 1648   1.743   2.389  11.869  0.2035  0.8660  0.0859
  108MPD2    C4 1649   1.683   2.267  11.904 -0.0124  0.5312  0.2664
  108MPD2    C5 1650   1.666   2.166  11.815 -0.3821 -0.2986 -0.4578
  108MPD2     H 1651   1.854   2.488  11.717  0.2879  0.4258 -1.1652
  108MPD2    H1 1652   1.653   2.261  12.008  1.9329 -0.9626  0.7264
  108MPD2    H2 1653   1.686   2.108  11.621  0.6636 -1.5971  1.3356
  108MPD2    H3 1654   1.612   2.077  11.844 -0.4569  0.1322  0.7094
  108MPD2     N 1655   1.753   2.493  11.967 -0.4551  0.1255 -0.7440
  108MPD2    H5 1656   1.734   2.461  12.061  1.8326 -0.8944 -0.6378
  108MPD2    N1 1657   1.838   2.296  11.526  0.0202  0.5880 -0.2601
  108MPD2    H7 1658   1.826   2.212  11.470  3.0813 -1.9305  2.8614
  109MPD2     C 1659   1.818   1.293   1.876 -0.0556 -0.3057 -0.5578
  109MPD2    C1 1660   1.839   1.182   1.805 -0.7266 -0.0832  0.1185
  109MPD2    C2 1661   1.968   1.152   1.775  0.1251  0.4493  0.0184
  109MPD2    C3 1662   2.078   1.212   1.833  0.6787 -0.2419  0.1939
  109MPD2    C4 1663   2.049   1.329   1.911  0.4678  0.4830  0.6672
  109MPD2    C5 1664   1.922   1.368   1.922 -0.1070  0.5906 -0.3442
  109MPD2     H 1665   1.986   1.060   1.721  0.0279  0.9934 -0.9537
  109MPD2    H1 1666   2.117   1.397   1.961  1.1113  1.0264 -0.9605
  109MPD2    H2 1667   1.723   1.321   1.920  0.0889  0.0940 -0.5044
  109MPD2    H3 1668   1.903   1.459   1.978 -1.0620 -0.9447  1.8087
  109MPD2     N 1669   2.207   1.165   1.800 -0.0354  0.2015 -0.0132
  109MPD2    H5 1670   2.217   1.093   1.729  2.1644  0.9617 -0.4711
  109MPD2    N1 1671   1.734   1.090   1.785 -0.0153  0.9657  0.0482
  109MPD2    H7 1672   1.645   1.135   1.805  0.2328  1.8495 -0.7896
  110TCq2    C1 1673   2.322   1.190   1.873 -0.6288  1.2361  0.5728
  110TCq2    O2 1674   2.337   1.272   1.966  0.5733 -0.3523  0.6392
  110TCq2    C2 1675   2.436   1.132   1.805  0.4668  0.3216 -0.0320
  110TCq2    C3 1676   2.538   1.084   1.892 -0.2469 -0.7012 -1.0673
  110TCq2    C4 1677   2.640   1.012   1.834  0.5398 -0.0863  0.7032
  110TCq2    C5 1678   2.645   0.981   1.702 -0.2227  0.4427  0.8341
  110TCq2    C6 1679   2.546   1.038   1.622  0.9609 -0.2161 -1.0021
  110TCq2    C7 1680   2.443   1.112   1.671  0.5430 -0.2299 -0.2425
  110TCq2    C8 1681   2.561   1.029   1.482  0.1053 -0.8995  0.1865
  110TCq2    O4 1682   2.671   0.984   1.439  0.1876 -0.2154 -0.1079
  110TCq2    C9 1683   2.747   0.967   1.918 -0.1667  0.0029  0.0098
  110TCq2    O5 1684   2.761   1.023   2.031  0.1283  0.4451 -0.6928
  110TCq2    O6 1685   2.811   0.864   1.877  0.2056  0.7635  0.0723
  110TCq2    H2 1686   2.524   1.101   1.998 -0.7462 -0.3263 -1.1919
  110TCq2    H3 1687   2.734   0.935   1.663 -1.3215  0.1476 -1.2952
  110TCq2    H4 1688   2.379   1.174   1.609 -1.4489  1.0867  3.1469
  111TMC2    C1 1689   1.426   0.202  11.400  0.3485 -0.2188 -0.1500
  111TMC2    C2 1690   1.366   0.225  11.517  0.4508  1.0132  0.0594
  111TMC2    C3 1691   1.388   0.131  11.613  0.0102  0.4593  0.2850
  111TMC2    C4 1692   1.525   0.102  11.376  0.7802  0.3080  0.1664
  111TMC2    C5 1693   1.555   0.024  11.484 -0.2630 -0.4356  0.2167
  111TMC2    C6 1694   1.484   0.037  11.596 -0.2322  0.6009 -0.0344
  111TMC2     C 1695   1.397   0.286  11.282 -0.2142 -0.5036 -0.2050
  111TMC2     O 1696   1.293   0.350  11.289 -0.3184  0.3211  0.0609
  111TMC2     H 1697   1.296   0.308  11.521 -0.0404  0.5877  0.4138
  111TMC2    H1 1698   1.543   0.074  11.273  1.8750  0.9254  0.1887
  111TMC2    H2 1699   1.511   4.693  11.678 -1.4129 -0.0506 -0.1771
  111TMC2    C7 1700   1.655   4.637  11.471  0.3272 -0.0094 -0.1995
  111TMC2    C8 1701   1.323   0.127  11.739  0.0265  0.5018  0.9676
  111TMC2    O1 1702   1.672   4.579  11.577 -0.1037  0.2121 -0.1545
  111TMC2    O2 1703   1.330   0.022  11.803  0.3049 -0.2495 -0.1300
  111TMC2    O5 1704   1.217   0.204  11.731  0.2784 -0.0957 -0.1603
  111TMC2    H5 1705   1.238   0.291  11.689  1.2479  1.5060  3.6158
  112MPD2     C 1706   1.553   0.606  10.913 -0.1993  0.2400  0.4321
  112MPD2    C1 1707   1.433   0.603  10.986  0.6763 -0.1386 -0.3977
  112MPD2    C2 1708   1.420   0.493  11.070 -0.5696 -0.7032 -0.2944
  112MPD2    C3 1709   1.520   0.400  11.095  0.1626 -0.4290 -0.0476
  112MPD2    C4 1710   1.645   0.415  11.026  0.4033 -0.3374  0.2439
  112MPD2    C5 1711   1.657   0.513  10.930  0.3333 -0.5760 -0.4283
  112MPD2     H 1712   1.330   0.476  11.128 -1.3643 -0.8986 -1.5832
  112MPD2    H1 1713   1.730   0.350  11.045  0.6058  0.1367  0.9595
  112MPD2    H2 1714   1.567   0.687  10.843  0.5802  0.1672  0.5135
  112MPD2    H3 1715   1.751   0.533  10.881  0.3298 -1.3145 -0.7336
  112MPD2     N 1716   1.514   0.301  11.199 -0.0643 -0.2689  0.5816
  112MPD2    H5 1717   1.599   0.251  11.222  1.6070  2.3572  0.0913
  112MPD2    N1 1718   1.316   0.684  10.967  0.6089 -0.1443  0.0891
  112MPD2    H7 1719   1.229   0.654  11.011  0.5521  0.7514  0.5786
  113MPD2     C 1720   4.625   3.900   0.693  0.7105 -0.0824  0.2446
  113MPD2    C1 1721   4.675   3.781   0.739 -0.0323  0.5002  0.5229
  113MPD2    C2 1722   4.602   3.663   0.721 -0.4644 -0.4665  0.2760
  113MPD2    C3 1723   4.481   3.667   0.650 -0.5721 -0.2371 -0.9528
  113MPD2    C4 1724   4.428   3.786   0.609  0.8742 -0.4256  0.8801
  113MPD2    C5 1725   4.499   3.902   0.630  0.2987 -0.8523  0.7205
  113MPD2     H 1726   4.632   3.569   0.765  0.8102 -0.3396 -0.3356
  113MPD2    H1 1727   4.329   3.796   0.566  2.2280  0.4447 -2.0201
  113MPD2    H2 1728   4.674   3.996   0.701 -0.0612  0.0838  2.9229
  113MPD2    H3 1729   4.457   3.999   0.605  2.6973  0.3423  1.2265
  113MPD2     N 1730   4.397   3.557   0.626  0.0570  0.4809 -0.1573
  113MPD2    H5 1731   4.309   3.583   0.581 -0.5427  0.8640  1.2456
  113MPD2    N1 1732   0.070   3.768   0.811 -0.5590  0.1926  0.1897
  113MPD2    H7 1733   0.097   3.674   0.838 -0.1799  0.1830 -0.2109
  114TCq2    C1 1734   4.423   3.425   0.669  0.8899  0.0414  0.2092
  114TCq2    O2 1735   4.520   3.366   0.719  0.3679  0.2393 -0.0526
  114TCq2    C2 1736   4.318   3.334   0.624  0.5797 -0.2936 -0.5694
  114TCq2    C3 1737   4.248   3.370   0.505  0.3661  0.0551 -0.7267
  114TCq2    C4 1738   4.146   3.290   0.458  0.2745 -0.1941 -0.3828
  114TCq2    C5 1739   4.115   3.172   0.521  0.1597 -0.4653 -0.5771
  114TCq2    C6 1740   4.191   3.142   0.635 -0.9402 -0.5651  0.2397
  114TCq2    C7 1741   4.292   3.220   0.688  0.0639 -0.2143  0.3609
  114TCq2    C8 1742   4.160   3.014   0.701 -0.1464  0.0421  0.1587
  114TCq2    O4 1743   4.109   2.915   0.649  0.5620 -0.0201 -0.3308
  114TCq2    C9 1744   4.075   3.325   0.346 -0.4530 -0.7061  0.0489
  114TCq2    O5 1745   3.970   3.259   0.322 -0.3613  0.1868  0.2727
  114TCq2    O6 1746   4.086   3.447   0.317 -0.6201  0.7068 -0.3729
  114TCq2    H2 1747   4.266   3.466   0.457  4.1202 -0.1679  0.2683
  114TCq2    H3 1748   4.045   3.099   0.482 -0.3619  0.0308 -0.5603
  114TCq2    H4 1749   4.357   3.196   0.771 -1.2134 -0.7410  1.2008
  115TMC2    C1 1750   0.630   0.951   0.082 -0.2084  0.1032 -0.0327
  115TMC2    C2 1751   0.760   0.965   0.117 -0.2161  0.3363 -0.2673
  115TMC2    C3 1752   0.818   1.090   0.115 -0.3937 -0.0125  0.1061
  115TMC2    C4 1753   0.554   1.065   0.061  0.2988 -0.2985  0.1815
  115TMC2    C5 1754   0.618   1.192   0.067 -0.5365 -0.3739 -0.3322
  115TMC2    C6 1755   0.749   1.198   0.095  0.2426  0.4353 -0.0196
  115TMC2     C 1756   0.584   0.816   0.070 -0.7676 -0.5854  0.2212
  115TMC2     O 1757   0.668   0.725   0.051  0.4406  0.6994  0.4935
  115TMC2     H 1758   0.824   0.879   0.136  0.8825  1.5993  1.8662
  115TMC2    H1 1759   0.457   1.050   0.016  1.6027 -2.1804 -1.9870
  115TMC2    H2 1760   0.800   1.293   0.093  0.2627  0.4497  1.3212
  115TMC2    C7 1761   0.539   1.314   0.035 -0.2300 -0.0260  0.3157
  115TMC2    C8 1762   0.954   1.117   0.149 -0.3663 -0.2556  0.5998
  115TMC2    O1 1763   0.419   1.316   0.057  0.1117 -0.0181 -0.6958
  115TMC2    O2 1764   1.020   1.211   0.111  0.0338  0.4803  0.3489
  115TMC2    O5 1765   1.008   1.011   0.208 -0.3154  0.0590  0.4196
  115TMC2    H5 1766   0.956   0.939   0.250  1.7606 -2.3978 -1.2105
  116MPD2     C 1767   0.177   0.525  17.654  0.8802 -0.4437  0.4118
  116MPD2    C1 1768   0.309   0.488  17.646  0.3311 -0.0435 -0.9675
  116MPD2    C2 1769   0.400   0.577   0.014  0.2578  0.0901 -0.5005
  116MPD2    C3 1770   0.357   0.703   0.063  0.3941 -0.2325 -0.0471
  116MPD2    C4 1771   0.222   0.728   0.078  0.4886  0.0680 -0.2360
  116MPD2    C5 1772   0.140   0.636   0.023  0.2716  0.0511 -0.4773
  116MPD2     H 1773   0.509   0.570   0.015  0.1472 -1.4549  0.5054
  116MPD2    H1 1774   0.175   0.815   0.122  1.8225  0.8664 -0.3790
  116MPD2    H2 1775   0.095   0.463  17.619  0.7796 -0.9416  1.5129
  116MPD2    H3 1776   0.034   0.660   0.017  0.1535 -0.2019  0.5421
  116MPD2     N 1777   0.445   0.809   0.101  0.1506  0.1484  0.4176
  116MPD2    H5 1778   0.402   0.889   0.148  2.2216  1.7490 -0.4294
  116MPD2    N1 1779   0.355   0.372  17.569  0.7277  0.5107  0.2480
  116MPD2    H7 1780   0.286   0.315  17.521  2.7139 -2.7087  1.2448
  117TMC2    C1 1781   4.157   2.309  14.302 -0.3969 -0.3653 -0.4127
  117TMC2    C2 1782   4.150   2.370  14.424  0.1953  0.1404  0.2439
  117TMC2    C3 1783   4.222   2.483  14.449 -0.3931 -0.6156  0.6632
  117TMC2    C4 1784   4.225   2.356  14.197  0.3063  0.4534  0.0031
  117TMC2    C5 1785   4.308   2.462  14.227 -0.7031  0.6251 -0.1849
  117TMC2    C6 1786   4.300   2.533  14.353 -0.0560  0.5506  0.3707
  117TMC2     C 1787   4.049   2.219  14.269 -0.4136  0.2423  0.5242
  117TMC2     O 1788   3.988   2.161  14.357  0.5694 -0.6553  0.0203
  117TMC2     H 1789   4.081   2.335  14.500  0.0479 -1.9552 -0.8674
  117TMC2    H1 1790   4.252   2.288  14.117  0.4025  3.4182 -2.5281
  117TMC2    H2 1791   4.352   2.627  14.367  0.5291  0.1167  1.0623
  117TMC2    C7 1792   4.404   2.515  14.127 -0.1997  0.2094 -0.5839
  117TMC2    C8 1793   4.166   2.567  14.556 -0.3475 -0.1618  0.0912
  117TMC2    O1 1794   4.505   2.571  14.170  0.2143 -0.0496  0.5642
  117TMC2    O2 1795   4.043   2.572  14.573  0.3120  0.1122 -0.0818
  117TMC2    O5 1796   4.256   2.647  14.617  0.6743  0.4238 -0.0836
  117TMC2    H5 1797   4.344   2.624  14.582 -0.5113 -1.4399 -1.9012
  118MPD2     C 1798   4.372   2.502  13.756  0.0593  0.2778  0.3297
  118MPD2    C1 1799   4.431   2.539  13.874  0.3905 -0.1440  0.6063
  118MPD2    C2 1800   4.548   2.616  13.867 -0.0213 -0.4665 -0.0143
  118MPD2    C3 1801   4.607   2.649  13.744  0.5569  0.1886  0.4461
  118MPD2    C4 1802   4.533   2.629  13.632 -0.7471 -0.9544 -0.6040
  118MPD2    C5 1803   4.418   2.549  13.638  0.2411 -0.0582  0.0439
  118MPD2     H 1804   4.601   2.640  13.959  1.1472  0.6684 -0.9908
  118MPD2    H1 1805   4.557   2.674  13.536  0.0876  0.3717  0.2314
  118MPD2    H2 1806   4.283   2.440  13.757  0.5611 -0.4219  1.5338
  118MPD2    H3 1807   4.367   2.523  13.546 -0.1089  0.4399  0.0955
  118MPD2     N 1808   4.714   2.733  13.738  0.1164  0.8307 -0.2821
  118MPD2    H5 1809   0.023   2.775  13.651  0.8678  0.3001 -0.2693
  118MPD2    N1 1810   4.369   2.493  13.995  0.2141 -1.1045 -0.0025
  118MPD2    H7 1811   4.275   2.456  13.982  0.7354 -2.3343 -0.2915
  119MPD2     C 1812   2.761   3.523  13.463  0.0188 -0.3531  0.1210
  119MPD2    C1 1813   2.624   3.534  13.479  0.5304 -0.6613  0.5550
  119MPD2    C2 1814   2.537   3.466  13.387 -0.5654 -0.2831 -0.0400
  119MPD2    C3 1815   2.593   3.381  13.295 -0.1167  0.3732  0.1787
  119MPD2    C4 1816   2.728   3.378  13.286  0.4591  0.0513  0.2694
  119MPD2    C5 1817   2.810   3.451  13.360  0.4558  0.1371 -0.3327
  119MPD2     H 1818   2.430   3.479  13.394 -0.5455 -0.0260 -0.2062
  119MPD2    H1 1819   2.777   3.323  13.206  1.0750 -1.3210  1.6012
  119MPD2    H2 1820   2.825   3.577  13.532  2.5017 -1.2117 -1.5280
  119MPD2    H3 1821   2.917   3.432  13.363  0.3983 -0.4544 -1.9499
  119MPD2     N 1822   2.514   3.283  13.227 -0.0518 -0.3646  0.5843
  119MPD2    H5 1823   2.562   3.208  13.178 -1.1647 -2.0190  1.9943
  119MPD2    N1 1824   2.580   3.597  13.596  0.1480  0.0152 -0.3309
  119MPD2    H7 1825   2.645   3.663  13.639 -1.3513  1.6436 -0.5867
  120TCq2    C1 1826   2.383   3.254  13.243 -0.1329 -1.0168 -0.3957
  120TCq2    O2 1827   2.298   3.299  13.318 -0.5802 -0.2587  0.9180
  120TCq2    C2 1828   2.326   3.155  13.151 -0.0029 -0.4950  0.3762
  120TCq2    C3 1829   2.390   3.118  13.031  0.3993  0.1030  0.2318
  120TCq2    C4 1830   2.324   3.026  12.947  0.4972 -0.2755 -0.3619
  120TCq2    C5 1831   2.201   2.979  12.976 -0.2810 -0.0114 -0.9812
  120TCq2    C6 1832   2.150   3.014  13.102 -0.6830  0.1168  0.2665
  120TCq2    C7 1833   2.199   3.114  13.184 -0.3042  0.2136  0.2121
  120TCq2    C8 1834   2.015   2.967  13.128  0.5823  0.4131  0.1879
  120TCq2    O4 1835   1.966   2.910  13.027 -0.0431  0.1791 -0.3056
  120TCq2    C9 1836   2.386   3.006  12.812  0.1012  0.2633  0.3938
  120TCq2    O5 1837   2.324   2.948  12.717  0.7863  0.0977 -0.0985
  120TCq2    O6 1838   2.507   3.036  12.804  0.4892 -0.1498 -0.4456
  120TCq2    H2 1839   2.484   3.158  12.997 -0.0451  1.3111  0.4164
  120TCq2    H3 1840   2.166   2.896  12.914 -0.1823  0.2000 -1.3190
  120TCq2    H4 1841   2.152   3.140  13.278  0.1985  0.7791  0.3126
  121TMC2    C1 1842   4.181   0.516  13.982 -0.0954 -0.8406  0.1669
  121TMC2    C2 1843   4.281   0.465  14.060 -0.0074  0.4698  0.1811
  121TMC2    C3 1844   4.269   0.334  14.089  0.4982  0.4330 -0.3252
  121TMC2    C4 1845   4.071   0.451  13.942  0.5775 -0.1661 -0.7094
  121TMC2    C5 1846   4.069   0.321  13.971 -0.3761 -0.4818  0.3135
  121TMC2    C6 1847   4.168   0.258  14.049 -0.3136 -0.0062 -0.8069
  121TMC2     C 1848   4.202   0.662  13.953  0.4770  0.0911  0.2690
  121TMC2     O 1849   4.224   0.739  14.044 -0.1324  0.2241 -0.4755
  121TMC2     H 1850   4.361   0.520  14.109 -0.4158  1.2938 -0.0785
  121TMC2    H1 1851   4.000   0.504  13.879 -0.3417  0.6739  1.0391
  121TMC2    H2 1852   4.150   0.162  14.096  0.0566  0.4533  0.2826
  121TMC2    C7 1853   3.967   0.227  13.911  0.0770 -0.6302  0.1597
  121TMC2    C8 1854   4.332   0.305  14.218 -0.2688  0.3733  0.3105
  121TMC2    O1 1855   3.994   0.107  13.915 -0.3705 -0.0330 -0.0993
  121TMC2    O2 1856   4.364   0.391  14.301 -0.3153  0.1282 -0.0402
  121TMC2    O5 1857   4.340   0.172  14.233 -0.0295 -0.2674 -0.5592
  121TMC2    H5 1858   4.321   0.111  14.159  0.0172 -1.2350  0.2215
  122MPD2     C 1859   4.126   0.945  13.851  0.4377  0.5475 -0.3456
  122MPD2    C1 1860   4.118   0.822  13.777  0.1136  0.1889 -0.3357
  122MPD2    C2 1861   4.083   0.838  13.639  0.0345 -0.0073  0.1335
  122MPD2    C3 1862   4.062   0.962  13.578 -0.4656  0.5596  0.1731
  122MPD2    C4 1863   4.067   1.074  13.655  0.3441 -0.2219 -0.1168
  122MPD2    C5 1864   4.103   1.065  13.790 -0.1314 -0.8388 -0.1206
  122MPD2     H 1865   4.071   0.747  13.580  1.0832 -1.0337  1.5171
  122MPD2    H1 1866   4.052   1.169  13.605 -1.2730 -1.0368 -1.1743
  122MPD2    H2 1867   4.149   0.953  13.957  0.2600 -0.9535 -0.1879
  122MPD2    H3 1868   4.106   1.149  13.857 -3.6968 -0.7655 -0.0469
  122MPD2     N 1869   4.037   0.980  13.441  0.6220  0.4625 -0.0754
  122MPD2    H5 1870   4.018   1.071  13.400 -0.0355  0.3138 -0.0979
  122MPD2    N1 1871   4.148   0.693  13.827  0.0640  0.6369 -0.3478
  122MPD2    H7 1872   4.141   0.612  13.767 -1.6291  0.9796 -0.6259
  123MPD2     C 1873   3.406   3.768   9.449 -0.2181 -0.4182 -0.0783
  123MPD2    C1 1874   3.339   3.747   9.328 -0.0439  0.7448  0.4490
  123MPD2    C2 1875   3.241   3.650   9.319  0.1944  0.3652  0.3081
  123MPD2    C3 1876   3.195   3.584   9.432  0.4102  0.0279  0.0856
  123MPD2    C4 1877   3.259   3.606   9.555 -0.0150  0.5508  0.1535
  123MPD2    C5 1878   3.366   3.695   9.564 -0.3213 -0.5381 -0.2410
  123MPD2     H 1879   3.195   3.622   9.226  0.4513  1.9373 -0.2948
  123MPD2    H1 1880   3.231   3.549   9.643  0.3281  2.2493  1.3461
  123MPD2    H2 1881   3.485   3.842   9.455 -1.0941  0.3964  1.3369
  123MPD2    H3 1882   3.420   3.709   9.657  1.4069 -1.3855 -1.1248
  123MPD2     N 1883   3.093   3.489   9.424  0.0180  0.5001 -0.5846
  123MPD2    H5 1884   3.052   3.472   9.333 -0.4228  0.1859 -0.3247
  123MPD2    N1 1885   3.397   3.814   9.212 -0.6471  0.5978 -0.0210
  123MPD2    H7 1886   3.459   3.886   9.247  0.1854 -0.3993  0.5252
  124TCq2    C1 1887   3.023   3.432   9.525 -0.6507 -0.2172 -0.8197
  124TCq2    O2 1888   3.019   3.458   9.649 -0.0572 -0.0473 -0.6533
  124TCq2    C2 1889   2.954   3.311   9.474  0.2231  0.1662 -0.2902
  124TCq2    C3 1890   2.988   3.254   9.357  0.2015 -0.7048  0.2861
  124TCq2    C4 1891   2.915   3.143   9.327  0.0455 -0.3089 -0.1294
  124TCq2    C5 1892   2.824   3.088   9.416  0.3962  1.0712 -0.4571
  124TCq2    C6 1893   2.807   3.138   9.535 -0.0912 -0.5427  0.6139
  124TCq2    C7 1894   2.876   3.248   9.577 -0.3891  0.2588 -0.3164
  124TCq2    C8 1895   2.705   3.082   9.615 -0.3642 -0.6121 -0.0089
  124TCq2    O4 1896   2.617   3.021   9.557 -0.5807 -0.2254  0.3740
  124TCq2    C9 1897   2.926   3.074   9.199  0.1307  0.6191 -0.1358
  124TCq2    O5 1898   3.010   3.109   9.113 -0.2453  0.2237  0.4301
  124TCq2    O6 1899   2.853   2.973   9.184  0.5729  0.2947 -0.1380
  124TCq2    H2 1900   3.036   3.313   9.280  0.4384 -2.0415 -0.5895
  124TCq2    H3 1901   2.764   3.003   9.385 -1.7211  1.4784  2.5515
  124TCq2    H4 1902   2.836   3.305   9.659 -1.1385 -0.4009 -0.2206
  125TMC2    C1 1903   2.597   0.080   8.754  0.6014  1.1165  0.5277
  125TMC2    C2 1904   2.464   0.121   8.740 -0.3285 -0.2771  0.2420
  125TMC2    C3 1905   2.413   0.209   8.838  0.1178 -0.3356 -0.1763
  125TMC2    C4 1906   2.671   0.134   8.850 -0.0352  0.3334  0.8088
  125TMC2    C5 1907   2.612   0.210   8.950  0.3080 -0.5654 -0.2769
  125TMC2    C6 1908   2.482   0.254   8.944  1.2329 -0.4272 -0.3072
  125TMC2     C 1909   2.648   4.720   8.654  0.9281  0.0481 -0.4776
  125TMC2     O 1910   2.576   4.688   8.556 -0.1435  0.2796  0.0080
  125TMC2     H 1911   2.409   0.098   8.650 -2.2395 -1.6075  1.7501
  125TMC2    H1 1912   2.779   0.127   8.846 -0.1469 -1.1367  0.1847
  125TMC2    H2 1913   2.439   0.325   9.014 -0.7789 -0.7217 -1.2471
  125TMC2    C7 1914   2.694   0.279   9.053  0.4892 -0.6818 -0.4218
  125TMC2    C8 1915   2.286   0.271   8.810  0.6386  0.2874  0.2103
  125TMC2    O1 1916   2.646   0.376   9.107 -0.3245 -0.0141  0.4395
  125TMC2    O2 1917   2.180   0.227   8.852  0.6734  0.3088  0.2310
  125TMC2    O5 1918   2.317   0.404   8.797  0.0201 -0.3049 -0.7585
  125TMC2    H5 1919   2.408   0.421   8.763  0.3108 -3.5515 -1.5599
  126MPD1     C 1920   3.046   4.464   8.457 -0.3166  0.0060  0.2102
  126MPD1    C1 1921   3.061   4.464   8.594  0.1801 -0.3031  0.2623
  126MPD1    C2 1922   2.972   4.545   8.664 -0.5384  0.0274  0.0326
  126MPD1    C3 1923   2.854   4.589   8.609  0.1342  0.4004  0.3100
  126MPD1    C4 1924   2.835   4.566   8.474 -0.1885  0.9902  0.5462
  126MPD1    C5 1925   2.934   4.518   8.398  0.7261 -0.4513 -0.0932
  126MPD1     H 1926   2.988   4.572   8.768 -3.3053  2.0608 -0.0703
  126MPD1    H1 1927   2.746   4.597   8.420  0.4533  2.1409  0.1700
  126MPD1    H2 1928   3.101   4.401   8.388 -0.8886  1.0044 -1.1733
  126MPD1    H3 1929   2.924   4.520   8.290 -0.2390 -1.7771 -0.0383
  126MPD1     N 1930   2.768   4.665   8.691 -0.4830  0.4171 -0.3336
  126MPD1    H5 1931   2.806   4.674   8.785 -1.8105  1.3797  0.1185
  126MPD1    N1 1932   3.179   4.408   8.651 -0.1456  0.0012 -0.5326
  126MPD1    H6 1933   3.207   4.326   8.597 -0.2375 -0.4335  0.0969
  126MPD1    H7 1934   3.170   4.385   8.749  0.8109 -1.6221 -0.8168
  127MPD2     C 1935   4.429   4.237   9.203 -0.0855  0.2458  0.5407
  127MPD2    C1 1936   4.361   4.243   9.324  0.2840 -0.1105  0.4993
  127MPD2    C2 1937   4.362   4.357   9.400  0.2516 -0.3968  0.5191
  127MPD2    C3 1938   4.451   4.453   9.365  0.6866  0.0933 -0.3118
  127MPD2    C4 1939   4.532   4.447   9.254 -0.0619  0.4332 -0.0147
  127MPD2    C5 1940   4.512   4.341   9.171 -0.2326  0.0993 -0.2323
  127MPD2     H 1941   4.295   4.372   9.483  0.8657 -1.4781  1.2082
  127MPD2    H1 1942   4.602   4.524   9.226  0.9353 -1.2282 -2.0910
  127MPD2    H2 1943   4.425   4.152   9.135 -0.8603  0.6586  0.0636
  127MPD2    H3 1944   4.559   4.333   9.074  0.9163 -1.7635  0.4704
  127MPD2     N 1945   4.467   4.556   9.463  0.1280  0.4196  0.2410
  127MPD2    H5 1946   4.407   4.563   9.544 -1.6985 -0.9121 -1.0045
  127MPD2    N1 1947   4.273   4.130   9.351 -0.1790  0.3869  1.3254
  127MPD2    H7 1948   4.275   4.055   9.283 -0.8421  1.4192  0.1778
  128TCq2    C1 1949   4.206   4.116   9.469 -0.6887 -0.1533  0.1130
  128TCq2    O2 1950   4.200   4.182   9.572 -0.0283  0.3765  0.0387
  128TCq2    C2 1951   4.135   3.993   9.474  0.2171  0.4833 -0.3511
  128TCq2    C3 1952   4.105   3.937   9.591 -0.2542 -0.0260  0.0548
  128TCq2    C4 1953   4.050   3.814   9.590  0.2963  0.2952 -0.4723
  128TCq2    C5 1954   4.002   3.758   9.473 -0.2005 -0.2272  0.0065
  128TCq2    C6 1955   4.024   3.821   9.352 -0.8423 -0.4476  0.0490
  128TCq2    C7 1956   4.095   3.941   9.353  0.7379 -0.8666  0.3094
  128TCq2    C8 1957   3.946   3.785   9.235  0.2220 -0.2476 -0.2056
  128TCq2    O4 1958   3.966   3.843   9.127  0.4174 -0.0818  0.2110
  128TCq2    C9 1959   4.038   3.748   9.720 -0.4485 -0.5071 -0.1735
  128TCq2    O5 1960   3.978   3.642   9.740  0.2529  0.1631  0.3654
  128TCq2    O6 1961   4.096   3.807   9.815  0.0312  0.0581  0.2279
  128TCq2    H2 1962   4.138   3.979   9.686 -1.0679  1.6645 -0.4128
  128TCq2    H3 1963   3.959   3.660   9.490  1.4669 -1.2126 -1.4715
  128TCq2    H4 1964   4.133   3.975   9.257  0.0094 -1.1051 -0.0725
  129MPD2     C 1965   2.129   0.680   0.879 -0.7972 -0.4885  0.4860
  129MPD2    C1 1966   2.221   0.723   0.971  0.7558 -0.4654  1.1283
  129MPD2    C2 1967   2.346   0.771   0.924 -0.1046 -0.0790 -0.0115
  129MPD2    C3 1968   2.374   0.776   0.788  0.1173 -0.2448 -0.2067
  129MPD2    C4 1969   2.273   0.737   0.696  0.5200 -0.2234  0.4824
  129MPD2    C5 1970   2.153   0.683   0.748  0.1850 -0.1635  0.4401
  129MPD2     H 1971   2.412   0.824   0.992 -0.9088 -2.6800  2.8062
  129MPD2    H1 1972   2.281   0.751   0.589 -1.3769  0.0775  0.3847
  129MPD2    H2 1973   2.033   0.636   0.904 -0.9935 -0.8175 -0.8625
  129MPD2    H3 1974   2.070   0.675   0.679 -0.0254  0.0329  0.6728
  129MPD2     N 1975   2.495   0.840   0.746 -0.1715 -0.4676 -0.2692
  129MPD2    H5 1976   2.551   0.885   0.818  0.1862  0.4774 -1.1310
  129MPD2    N1 1977   2.189   0.727   1.111  0.2391  1.4637  0.1038
  129MPD2    H7 1978   2.261   0.756   1.177  0.2973 -2.1337  1.6176
  130TCq2    C1 1979   2.074   0.675   1.166 -0.1317 -0.1095 -0.1965
  130TCq2    O2 1980   1.986   0.604   1.121  0.4168  0.4232 -0.5892
  130TCq2    C2 1981   2.078   0.685   1.311 -0.4130 -0.1440 -0.4889
  130TCq2    C3 1982   2.131   0.793   1.374  0.1453 -0.0991  0.1277
  130TCq2    C4 1983   2.120   0.801   1.514  0.0574 -0.4346  0.4189
  130TCq2    C5 1984   2.055   0.707   1.589  1.1821 -0.6536 -0.6165
  130TCq2    C6 1985   2.013   0.598   1.516  0.2976  0.3885 -0.1227
  130TCq2    C7 1986   2.018   0.582   1.380 -0.3870  0.3746  0.6986
  130TCq2    C8 1987   1.904   0.529   1.574 -0.5631  0.2990 -0.3973
  130TCq2    O4 1988   1.889   0.413   1.541 -0.1628  0.0031  0.6142
  130TCq2    C9 1989   2.169   0.915   1.581  0.5538  0.1649  0.1619
  130TCq2    O5 1990   2.201   1.017   1.517  0.4669 -0.4013  0.1230
  130TCq2    O6 1991   2.192   0.905   1.701 -0.1660 -0.3039  0.2092
  130TCq2    H2 1992   2.178   0.874   1.320 -1.7113 -0.0771 -1.4527
  130TCq2    H3 1993   2.053   0.705   1.698  0.8912  5.9959 -0.5088
  130TCq2    H4 1994   1.989   0.483   1.346  1.3341 -0.0614  0.4814
  131MPD2     C 1995   3.011   4.128   8.337 -0.2124  0.0488  0.1382
  131MPD2    C1 1996   2.960   4.139   8.465 -0.4888 -0.1738 -0.0217
  131MPD2    C2 1997   3.044   4.122   8.571  0.1935 -0.0300  0.8059
  131MPD2    C3 1998   3.183   4.093   8.552  0.4345  0.0823  0.2480
  131MPD2    C4 1999   3.234   4.099   8.423 -0.1216  0.7654  0.5119
  131MPD2    C5 2000   3.149   4.110   8.319 -0.2562 -0.0935  0.2724
  131MPD2     H 2001   3.008   4.134   8.673  0.3777  1.1666  0.7382
  131MPD2    H1 2002   3.338   4.077   8.402 -0.3812 -1.8537  2.0588
  131MPD2    H2 2003   2.950   4.136   8.248  0.8237  0.1827 -0.5557
  131MPD2    H3 2004   3.185   4.112   8.217  1.0131 -2.4567  0.6868
  131MPD2     N 2005   3.254   4.064   8.664  0.0944  0.5222 -0.2539
  131MPD2    H5 2006   3.199   4.051   8.748  0.3507 -0.0541 -0.1758
  131MPD2    N1 2007   2.821   4.166   8.483 -0.8127 -0.3814 -0.2911
  131MPD2    H7 2008   2.765   4.180   8.399 -0.7243  0.4438 -0.2111
  132TCq2    C1 2009   2.373   4.421   8.782  0.2687  0.2559 -0.0022
  132TCq2    O2 2010   2.258   4.450   8.762 -0.3357  0.2459  0.1156
  132TCq2    C2 2011   2.441   4.330   8.694  0.1447  0.5964 -1.2126
  132TCq2    C3 2012   2.364   4.272   8.596 -0.3574 -0.4576 -0.5289
  132TCq2    C4 2013   2.414   4.178   8.515 -0.1625 -0.6693 -0.5862
  132TCq2    C5 2014   2.548   4.151   8.515  0.2917  0.5815  0.3157
  132TCq2    C6 2015   2.626   4.218   8.601  0.2539 -0.0445 -0.0412
  132TCq2    C7 2016   2.577   4.311   8.698 -0.0671  0.4543 -0.7984
  132TCq2    C8 2017   2.765   4.212   8.600  0.4294  0.6016 -0.1857
  132TCq2    O4 2018   2.813   4.219   8.714  0.0039 -0.4958  0.1974
  132TCq2    C9 2019   2.332   4.104   8.416 -0.6944  0.1847  0.2680
  132TCq2    O5 2020   2.208   4.109   8.440  0.4153 -0.8458 -1.4183
  132TCq2    O6 2021   2.400   4.031   8.341  0.6576  0.1702  0.0667
  132TCq2    H2 2022   2.257   4.292   8.587 -0.8715 -1.4625  3.5699
  132TCq2    H3 2023   2.592   4.086   8.440 -0.5490  0.2682  0.0921
  132TCq2    H4 2024   2.640   4.378   8.755 -0.0684 -0.3883  0.1780
  133MPD2     C 2025   1.134   0.198   9.355 -0.0710  0.1574  0.9495
  133MPD2    C1 2026   1.244   0.127   9.401 -0.2266  0.0456  0.7596
  133MPD2    C2 2027   1.227   4.716   9.429  0.1055  0.2183  0.2132
  133MPD2    C3 2028   1.109   4.654   9.385  0.4938 -0.0154  0.5198
  133MPD2    C4 2029   1.003   0.002   9.332  0.7683  0.1657  0.3770
  133MPD2    C5 2030   1.012   0.136   9.321 -0.2606  0.1386 -0.2153
  133MPD2     H 2031   1.312   4.657   9.461  0.1167 -0.8232 -1.7586
  133MPD2    H1 2032   0.912   4.679   9.297  1.7184 -0.2898 -1.4873
  133MPD2    H2 2033   1.141   0.303   9.331 -0.1195 -0.3665 -1.3082
  133MPD2    H3 2034   0.926   0.198   9.298 -0.1550  0.7766  1.1004
  133MPD2     N 2035   1.089   4.512   9.386  0.2745  0.3676 -0.6527
  133MPD2    H5 2036   1.004   4.490   9.335  0.0425  2.6630 -1.2541
  133MPD2    N1 2037   1.359   0.202   9.425 -0.3598 -0.2081  0.0600
  133MPD2    H7 2038   1.353   0.295   9.385 -1.8535  0.0797  0.9536
  134TCq2    C1 2039   1.479   0.159   9.477 -0.4518 -0.2860 -0.4399
  134TCq2    O2 2040   1.504   0.042   9.519 -0.3660  0.5716 -0.3597
  134TCq2    C2 2041   1.584   0.244   9.454 -0.7514  0.2756  0.4180
  134TCq2    C3 2042   1.568   0.359   9.381  0.1046 -0.1767 -0.0172
  134TCq2    C4 2043   1.680   0.442   9.366 -0.6596 -0.1188  0.2541
  134TCq2    C5 2044   1.805   0.406   9.412  0.5135 -0.0707 -0.0719
  134TCq2    C6 2045   1.811   0.282   9.469  0.4858 -0.4841 -0.3411
  134TCq2    C7 2046   1.708   0.195   9.489 -0.5308  0.9069  0.7095
  134TCq2    C8 2047   1.946   0.239   9.502  0.4287 -0.0182 -0.3527
  134TCq2    O4 2048   2.027   0.326   9.531  0.0829  0.2499  0.5066
  134TCq2    C9 2049   1.675   0.571   9.307 -0.3079  0.2869 -0.4279
  134TCq2    O5 2050   1.559   0.617   9.297 -0.3694  0.3158  0.2085
  134TCq2    O6 2051   1.782   0.628   9.272 -0.3477 -0.8442  0.0036
  134TCq2    H2 2052   1.474   0.398   9.344 -0.2740 -1.9662 -0.9287
  134TCq2    H3 2053   1.895   0.463   9.392  0.2605  0.5350  0.4955
  134TCq2    H4 2054   1.724   0.104   9.546  1.0643 -1.6883 -3.9491
  135MPD2     C 2055   3.776   1.165   9.846 -0.5916  0.9841  0.1049
  135MPD2    C1 2056   3.768   1.032   9.879  0.1005  0.1557 -0.3046
  135MPD2    C2 2057   3.866   0.942   9.835  0.3025  0.6438 -0.6176
  135MPD2    C3 2058   3.966   0.987   9.750  0.6177 -0.0814  0.3015
  135MPD2    C4 2059   3.963   1.114   9.703  0.0344 -0.6387  0.2402
  135MPD2    C5 2060   3.875   1.201   9.758 -0.1584 -0.2652 -0.3532
  135MPD2     H 2061   3.857   0.839   9.867  2.6409  0.2137 -1.3172
  135MPD2    H1 2062   4.043   1.149   9.639 -0.0986 -0.0417  0.4006
  135MPD2    H2 2063   3.703   1.240   9.876  0.8530  2.5673 -0.3387
  135MPD2    H3 2064   3.883   1.300   9.716 -0.9448  0.0527  0.2510
  135MPD2     N 2065   4.074   0.904   9.710 -0.7269 -0.7153  0.4384
  135MPD2    H5 2066   4.134   0.947   9.641  0.4186  0.2487  2.0384
  135MPD2    N1 2067   3.670   0.976   9.962  0.3481  0.1760 -0.2669
  135MPD2    H7 2068   3.677   0.875   9.974  1.0976  0.1464 -0.9850
  136TCq2    C1 2069   3.572   1.048  10.029 -0.0183 -0.2140  0.5283
  136TCq2    O2 2070   3.554   1.170  10.023 -0.3017  0.3488  0.1184
  136TCq2    C2 2071   3.496   0.959  10.121  0.4382 -0.5986 -0.0673
  136TCq2    C3 2072   3.523   0.824  10.132  0.1782 -0.4973 -0.9096
  136TCq2    C4 2073   3.449   0.752  10.220  0.0267  0.4188  0.4969
  136TCq2    C5 2074   3.338   0.805  10.279  0.5738  1.0679 -0.7032
  136TCq2    C6 2075   3.315   0.936  10.261 -0.3754 -0.3411 -0.6115
  136TCq2    C7 2076   3.388   1.012  10.178 -0.6060  0.1253  0.7515
  136TCq2    C8 2077   3.192   0.989  10.302 -0.3154 -0.0607 -0.2632
  136TCq2    O4 2078   3.179   1.111  10.286  0.3091  0.0918 -0.0703
  136TCq2    C9 2079   3.477   0.616  10.247 -0.0395  0.0791 -0.1340
  136TCq2    O5 2080   3.382   0.540  10.275 -0.3107 -0.0383  0.0924
  136TCq2    O6 2081   3.596   0.580  10.237 -0.2205  0.2358  0.0728
  136TCq2    H2 2082   3.613   0.777  10.095  0.7964 -0.0407  0.0148
  136TCq2    H3 2083   3.303   0.741  10.359 -0.7448  2.5791 -0.0685
  136TCq2    H4 2084   3.361   1.116  10.166  0.5593  0.2131 -1.1824
  137MPD2     C 2085   3.322   3.851  10.495  0.1435  0.2783 -0.6118
  137MPD2    C1 2086   3.401   3.951  10.448  0.1178  0.8821 -0.4614
  137MPD2    C2 2087   3.406   4.065  10.524 -0.3807  0.5282  0.6566
  137MPD2    C3 2088   3.344   4.080  10.649 -0.6505  0.3605 -0.4124
  137MPD2    C4 2089   3.269   3.972  10.700  0.1811  0.3643 -0.0694
  137MPD2    C5 2090   3.265   3.858  10.622 -0.4874 -0.0400  0.1001
  137MPD2     H 2091   3.452   4.157  10.491  0.0919  0.0122 -0.0863
  137MPD2    H1 2092   3.214   3.980  10.793  0.0758 -0.3052 -0.0727
  137MPD2    H2 2093   3.299   3.765  10.433  0.0526  0.6041 -1.0307
  137MPD2    H3 2094   3.220   3.770  10.667  0.9456 -2.3204 -2.9818
  137MPD2     N 2095   3.341   4.203  10.724  0.0142 -0.0026 -0.4802
  137MPD2    H5 2096   3.393   4.282  10.688 -1.6927  1.3119 -0.0474
  137MPD2    N1 2097   3.458   3.945  10.319  0.5178 -0.2333  0.2253
  137MPD2    H7 2098   3.428   3.869  10.260  0.6347 -0.5674  0.5972
  138TCq2    C1 2099   3.536   4.049  10.270  0.0035 -0.1727  0.6596
  138TCq2    O2 2100   3.608   4.126  10.328 -0.1355  0.0077 -0.6273
  138TCq2    C2 2101   3.519   4.061  10.127  0.8893  0.0670 -0.2993
  138TCq2    C3 2102   3.427   3.986  10.060  0.2277 -1.2764 -0.7245
  138TCq2    C4 2103   3.390   4.023   9.932 -0.6849 -0.1214  0.5702
  138TCq2    C5 2104   3.443   4.134   9.873 -0.2294 -0.0116 -0.2062
  138TCq2    C6 2105   3.527   4.214   9.948 -0.3332  0.3562  0.4281
  138TCq2    C7 2106   3.561   4.184  10.080 -0.0307 -0.0343  0.5417
  138TCq2    C8 2107   3.549   4.352   9.918  0.2235 -0.1235  0.2944
  138TCq2    O4 2108   3.651   4.404   9.965 -0.6385 -0.6832 -0.7993
  138TCq2    C9 2109   3.299   3.949   9.859 -0.9608  0.3072 -0.1957
  138TCq2    O5 2110   3.256   3.838   9.898  0.5735 -0.0054 -0.1810
  138TCq2    O6 2111   3.231   4.009   9.770 -0.9432  0.3211  0.6816
  138TCq2    H2 2112   3.378   3.897  10.098  0.8280 -1.4506 -0.3506
  138TCq2    H3 2113   3.420   4.149   9.769  0.2581  1.5110 -0.0971
  138TCq2    H4 2114   3.618   4.256  10.137  1.0115 -1.0044  0.7221
  139TMC2    C1 2115   3.481   2.764  13.098  0.2160 -0.5881 -0.4109
  139TMC2    C2 2116   3.366   2.737  13.029 -0.4899 -0.2708 -0.6365
  139TMC2    C3 2117   3.255   2.803  13.068  0.2644 -0.3619 -0.2436
  139TMC2    C4 2118   3.488   2.864  13.196 -0.3020 -0.1299 -0.0847
  139TMC2    C5 2119   3.372   2.929  13.225 -0.1198 -0.1223  0.5744
  139TMC2    C6 2120   3.252   2.906  13.156 -0.4722 -0.6131 -0.3548
  139TMC2     C 2121   3.601   2.699  13.054  0.2988  0.0440  0.1599
  139TMC2     O 2122   3.580   2.647  12.947 -0.4769  0.1327  0.4576
  139TMC2     H 2123   3.361   2.658  12.954  0.0375 -0.6962 -0.2188
  139TMC2    H1 2124   3.586   2.887  13.237 -0.7843 -0.5917  1.3150
  139TMC2    H2 2125   3.164   2.969  13.162 -0.6642 -0.7327 -1.7664
  139TMC2    C7 2126   3.370   3.030  13.322  0.3656 -0.1387  0.4716
  139TMC2    C8 2127   3.134   2.774  12.985 -0.3221 -0.4621  0.6485
  139TMC2    O1 2128   3.262   3.064  13.371  0.7132  0.0326  0.6624
  139TMC2    O2 2129   3.143   2.699  12.889 -0.1754 -0.1503  0.2447
  139TMC2    O5 2130   3.034   2.784  13.077 -0.3930 -0.2378  0.7970
  139TMC2    H5 2131   3.060   2.832  13.159  0.0976  2.3577 -0.8957
  140MPD2     C 2132   3.941   2.656  13.211  0.1369 -1.2129  0.2157
  140MPD2    C1 2133   3.835   2.644  13.113  0.3073 -0.5890 -0.0161
  140MPD2    C2 2134   3.858   2.569  13.002 -0.0757  0.0152 -1.0397
  140MPD2    C3 2135   3.980   2.500  12.992  0.7975 -0.3388  0.2214
  140MPD2    C4 2136   4.087   2.525  13.075  0.5561 -0.7239 -0.4263
  140MPD2    C5 2137   4.059   2.603  13.187  0.9147  0.2062 -0.4217
  140MPD2     H 2138   3.782   2.539  12.931 -2.1133  1.0682  0.6783
  140MPD2    H1 2139   4.181   2.474  13.061  2.7133  2.6108  1.9896
  140MPD2    H2 2140   3.929   2.710  13.305  0.6484 -0.9495  0.1308
  140MPD2    H3 2141   4.133   2.625  13.263  1.3753 -2.7763 -0.0224
  140MPD2     N 2142   3.986   2.419  12.871 -0.4398  0.0646 -0.4053
  140MPD2    H5 2143   3.914   2.422  12.800 -0.8989 -0.6250  0.0297
  140MPD2    N1 2144   3.711   2.703  13.138 -0.0162 -0.2204  0.2355
  140MPD2    H7 2145   3.695   2.758  13.222  1.5176 -0.4696  0.6831
  141TCq2    C1 2146   4.609   4.044  14.215 -0.0385 -0.6082  0.5222
  141TCq2    O2 2147   4.523   4.078  14.135  0.8404 -0.2327  0.1263
  141TCq2    C2 2148   4.563   4.000  14.341 -0.2543  0.1093 -0.1573
  141TCq2    C3 2149   4.498   3.887  14.342 -0.1914 -0.1983 -0.1040
  141TCq2    C4 2150   4.458   3.832  14.464  0.1357  0.0882  0.0702
  141TCq2    C5 2151   4.499   3.894  14.579  0.2223  0.1628 -0.2290
  141TCq2    C6 2152   4.574   4.007  14.570 -0.0165 -0.2756  0.1652
  141TCq2    C7 2153   4.609   4.060  14.450 -0.0721  0.0351 -0.1834
  141TCq2    C8 2154   4.595   4.078  14.692 -0.0402 -0.1954 -0.1907
  141TCq2    O4 2155   4.590   4.017  14.800  0.2479 -0.2820 -0.2142
  141TCq2    C9 2156   4.377   3.716  14.474  0.7257  0.2052  0.0598
  141TCq2    O5 2157   4.302   3.693  14.570  0.4059 -0.0684 -0.8414
  141TCq2    O6 2158   4.392   3.648  14.370  0.1889  0.6335  0.3259
  141TCq2    H2 2159   4.464   3.847  14.247 -1.3068  0.9659 -0.1887
  141TCq2    H3 2160   4.486   3.838  14.671  0.5154  2.1049  0.9810
  141TCq2    H4 2161   4.673   4.147  14.445  0.0960 -0.2570 -2.7340
  142MPD2     C 2162   1.898   2.329  10.339  0.2936  0.1623 -0.5792
  142MPD2    C1 2163   1.878   2.320  10.201  0.1850 -0.2507 -0.8094
  142MPD2    C2 2164   1.879   2.438  10.131  0.1952  0.3558  0.1477
  142MPD2    C3 2165   1.909   2.558  10.195 -0.0176 -0.0998  0.3174
  142MPD2    C4 2166   1.947   2.563  10.328 -0.2957 -0.5399 -0.0890
  142MPD2    C5 2167   1.932   2.448  10.406  0.6020  0.0713  0.3434
  142MPD2     H 2168   1.878   2.434  10.022 -1.0554 -2.0526  0.2469
  142MPD2    H1 2169   1.965   2.660  10.373 -1.2901 -0.6214  0.4752
  142MPD2    H2 2170   1.895   2.238  10.397  0.9806  0.7647  0.4225
  142MPD2    H3 2171   1.942   2.445  10.513  0.2405 -0.0274  0.3755
  142MPD2     N 2172   1.933   2.676  10.121  0.1025  0.2941  0.0693
  142MPD2    H5 2173   1.977   2.756  10.165 -0.1575  0.7814 -0.5545
  142MPD2    N1 2174   1.836   2.190  10.155 -0.5056 -0.9364  0.4051
  142MPD2    H7 2175   1.840   2.115  10.222  1.1431 -1.9984 -0.9026
  143TCq2    C1 2176   1.872   2.700  10.002 -0.1689  0.3370 -0.0493
  143TCq2    O2 2177   1.797   2.634   9.933  0.2551 -0.4478 -0.2833
  143TCq2    C2 2178   1.904   2.826   9.944 -0.4356  0.0525  0.5986
  143TCq2    C3 2179   1.806   2.878   9.863 -0.1125  0.4309  0.0043
  143TCq2    C4 2180   1.846   2.947   9.755  0.9334 -0.5699 -0.4318
  143TCq2    C5 2181   1.977   2.969   9.727  0.0973  0.4224 -0.7421
  143TCq2    C6 2182   2.072   2.917   9.805 -0.7452  0.0169  0.1865
  143TCq2    C7 2183   2.039   2.842   9.914 -0.4208  0.2612  0.0394
  143TCq2    C8 2184   2.211   2.952   9.781  0.1862 -0.1525 -0.4541
  143TCq2    O4 2185   2.254   2.981   9.672  0.4450 -0.0400  0.0967
  143TCq2    C9 2186   1.752   3.017   9.670 -0.8554 -0.6024  0.7573
  143TCq2    O5 2187   1.795   3.111   9.595 -0.3370 -0.2774 -0.6265
  143TCq2    O6 2188   1.631   2.975   9.681 -0.2520 -0.3391  0.6608
  143TCq2    H2 2189   1.701   2.854   9.875 -0.3730  1.3775 -0.3735
  143TCq2    H3 2190   2.010   3.026   9.641  0.1208  1.1896 -0.2264
  143TCq2    H4 2191   2.112   2.784   9.970 -0.2238 -0.5329 -1.0566
  144MPD2     C 2192   4.620   3.033   0.834 -0.2282 -0.0569 -0.2503
  144MPD2    C1 2193   4.624   2.892   0.840 -0.1245 -0.0720  0.3489
  144MPD2    C2 2194   4.695   2.834   0.944 -0.0195 -0.3643  0.4704
  144MPD2    C3 2195   0.037   2.909   1.036 -0.4107 -0.4888  0.3133
  144MPD2    C4 2196   0.026   3.046   1.039  0.0124  0.9215  0.0677
  144MPD2    C5 2197   4.686   3.106   0.931  0.2334 -0.0349 -0.7852
  144MPD2     H 2198   4.702   2.726   0.954 -1.5095 -0.7420 -2.4765
  144MPD2    H1 2199   0.067   3.115   1.112 -2.0349 -0.2166  2.2954
  144MPD2    H2 2200   4.568   3.089   0.757 -0.5898  0.1535  0.1478
  144MPD2    H3 2201   4.686   3.214   0.923 -0.0643 -0.0068 -0.4277
  144MPD2     N 2202   0.128   2.856   1.135  0.8300 -0.0325  0.0310
  144MPD2    H5 2203   0.174   2.916   1.203  1.3453  0.5043 -0.7899
  144MPD2    N1 2204   4.567   2.802   0.748 -0.2613 -0.1598  0.3446
  144MPD2    H7 2205   4.598   2.707   0.766 -2.3952 -0.9461 -0.1437
  145TCq2    C1 2206   0.177   2.730   1.131  0.0155  0.0461 -0.0442
  145TCq2    O2 2207   0.164   2.644   1.043  0.9375  0.0172 -0.2399
  145TCq2    C2 2208   0.282   2.697   1.233  0.3338 -0.6739  0.1002
  145TCq2    C3 2209   0.375   2.602   1.205 -0.2439 -0.1383  0.4699
  145TCq2    C4 2210   0.493   2.596   1.266 -0.6272 -0.4612 -0.9597
  145TCq2    C5 2211   0.517   2.675   1.372 -0.1482 -0.1374 -0.2603
  145TCq2    C6 2212   0.420   2.765   1.415  0.6424  0.3584  0.2135
  145TCq2    C7 2213   0.302   2.771   1.348  0.0841  0.0303 -0.5638
  145TCq2    C8 2214   0.413   2.789   1.556 -0.0386  0.4128 -0.5492
  145TCq2    O4 2215   0.434   2.687   1.617 -0.6039 -0.2437 -0.5747
  145TCq2    C9 2216   0.578   2.486   1.242 -0.3320  1.0164 -0.0328
  145TCq2    O5 2217   0.546   2.398   1.156 -0.0107  0.2784  0.0825
  145TCq2    O6 2218   0.693   2.481   1.295 -0.3252  0.6859  0.4350
  145TCq2    H2 2219   0.365   2.537   1.119 -0.8586 -1.2152  1.3619
  145TCq2    H3 2220   0.595   2.646   1.441  1.0114  1.5541 -0.8653
  145TCq2    H4 2221   0.219   2.836   1.373 -0.6877 -1.4769  0.7954
  146TMC2    C1 2222   1.974   0.078  12.062  0.2974 -0.1311  0.0926
  146TMC2    C2 2223   1.937   0.058  11.935  0.2966 -0.5723 -0.2355
  146TMC2    C3 2224   2.028   4.710  11.860  0.4307 -0.6753  0.1565
  146TMC2    C4 2225   2.088   0.028  12.120  0.2207 -0.2985 -0.1821
  146TMC2    C5 2226   2.173   4.678  12.041 -0.2692  0.2377 -0.4366
  146TMC2    C6 2227   2.143   4.654  11.912  0.3098  0.3055  0.5166
  146TMC2     C 2228   1.866   0.105  12.152  0.3942 -0.4303 -0.1385
  146TMC2     O 2229   1.774   0.173  12.109  0.0089  0.2117  0.0499
  146TMC2     H 2230   1.840   0.078  11.892  0.6148  2.6182  0.5354
  146TMC2    H1 2231   2.121   0.074  12.212 -1.0453 -1.2630  0.7426
  146TMC2    H2 2232   2.212   4.606  11.843 -0.2764 -0.1592  0.2611
  146TMC2    C7 2233   2.308   4.652  12.087 -0.7150 -0.0773  0.0955
  146TMC2    C8 2234   1.981   4.658  11.737 -0.5761 -0.5649  0.4285
  146TMC2    O1 2235   2.404   4.647  12.012 -0.5012  0.1706 -0.3442
  146TMC2    O2 2236   2.024   4.552  11.686  0.2011  0.1475 -0.8307
  146TMC2    O5 2237   1.928   0.036  11.671 -0.0295 -0.6325  0.1379
  146TMC2    H5 2238   1.942   0.125  11.712 -0.9853 -1.4347  2.2297
  147MPD2     C 2239   2.674   4.677  12.450  0.5478 -0.3804  0.8046
  147MPD2    C1 2240   2.558   4.623  12.508  0.0792  0.0249 -0.1528
  147MPD2    C2 2241   2.440   4.612  12.433 -0.3610  0.2586 -0.2425
  147MPD2    C3 2242   2.435   4.664  12.304 -0.1885 -0.0702 -0.1472
  147MPD2    C4 2243   2.545   0.009  12.257 -0.2269 -0.7324  0.2779
  147MPD2    C5 2244   2.663   4.718  12.318  0.4054 -0.1792  0.1537
  147MPD2     H 2245   2.356   4.551  12.462 -1.0399  1.6155  0.6731
  147MPD2    H1 2246   2.532   0.055  12.159  1.9509 -0.2841  0.1997
  147MPD2    H2 2247   2.766   4.679  12.508  1.3109 -0.5712 -0.4112
  147MPD2    H3 2248   2.744   0.052  12.272  0.5972 -0.6557 -0.0937
  147MPD2     N 2249   2.316   4.648  12.226  0.5118 -0.0642  0.6044
  147MPD2    H5 2250   2.229   4.639  12.279  0.8221  2.2143  1.4788
  147MPD2    N1 2251   2.569   4.578  12.638 -0.3777 -0.3399  0.6179
  147MPD2    H7 2252   2.662   4.582  12.678 -0.0031  0.8854 -0.3622
  148MPD2     C 2253   2.239   4.196  10.264 -0.0683 -0.1659 -0.0618
  148MPD2    C1 2254   2.241   4.056  10.241  0.4199  0.7329  0.0064
  148MPD2    C2 2255   2.130   3.987  10.275 -0.5214 -0.7642  0.6635
  148MPD2    C3 2256   2.009   4.044  10.299 -0.2927 -0.0789  0.1378
  148MPD2    C4 2257   2.001   4.185  10.300 -0.3658  0.1183  0.0393
  148MPD2    C5 2258   2.120   4.253  10.290  0.3335  0.3035  0.2460
  148MPD2     H 2259   2.136   3.879  10.259 -0.2811 -0.7614  0.7343
  148MPD2    H1 2260   1.916   4.241  10.337 -2.0753 -1.6180 -1.2983
  148MPD2    H2 2261   2.323   4.259  10.236 -1.2704  1.8238  0.8547
  148MPD2    H3 2262   2.121   4.359  10.315  0.2162  0.1596  0.8571
  148MPD2     N 2263   1.887   3.978  10.320  0.1526 -0.2606  0.3459
  148MPD2    H5 2264   1.802   4.033  10.320  0.2841 -0.0553 -0.1734
  148MPD2    N1 2265   2.359   3.984  10.225 -0.4079 -0.1259  0.2968
  148MPD2    H7 2266   2.348   3.883  10.224 -1.4008 -0.0182  0.9171
  149TCq2    C1 2267   2.480   4.033  10.186 -0.7143  0.8474  0.2628
  149TCq2    O2 2268   2.517   4.142  10.148 -0.0988 -0.0774  0.2470
  149TCq2    C2 2269   2.564   3.913  10.173  0.3137 -0.2235  0.2473
  149TCq2    C3 2270   2.679   3.939  10.115 -0.1944 -0.3822 -0.4872
  149TCq2    C4 2271   2.762   3.841  10.081 -0.4920  0.3245 -0.0793
  149TCq2    C5 2272   2.716   3.710  10.072 -0.0937 -0.9824 -0.0378
  149TCq2    C6 2273   2.598   3.682  10.137 -0.6720 -0.5406  0.7893
  149TCq2    C7 2274   2.525   3.781  10.194 -0.2864 -0.0572 -0.5820
  149TCq2    C8 2275   2.527   3.565  10.103 -0.2134  0.3009  0.1070
  149TCq2    O4 2276   2.428   3.535  10.170 -0.0571  0.2789  0.3451
  149TCq2    C9 2277   2.877   3.882  10.010  0.7074 -0.3004 -0.4891
  149TCq2    O5 2278   2.887   3.996   9.963  0.4300 -0.5201 -0.1601
  149TCq2    O6 2279   2.950   3.788   9.966  0.4953  0.2441 -0.1457
  149TCq2    H2 2280   2.717   4.040  10.112  1.8264 -1.1734 -1.7062
  149TCq2    H3 2281   2.782   3.637  10.028 -0.1434 -2.0547  1.6694
  149TCq2    H4 2282   2.437   3.745  10.246 -0.1679 -0.9664 -1.0281
  150MPD2     C 2283   3.176   3.117  12.155  0.2109 -0.1042 -0.0836
  150MPD2    C1 2284   3.168   3.191  12.041 -0.2423  0.2715 -0.2795
  150MPD2    C2 2285   3.258   3.298  12.024 -0.4784 -0.4120  0.9522
  150MPD2    C3 2286   3.366   3.311  12.105  0.1189 -0.4353 -0.0023
  150MPD2    C4 2287   3.368   3.240  12.221 -0.4716  0.0988  0.0453
  150MPD2    C5 2288   3.277   3.141  12.249 -0.0241 -0.0074 -0.1119
  150MPD2     H 2289   3.250   3.360  11.935 -0.7749  1.7229  2.4754
  150MPD2    H1 2290   3.457   3.255  12.282 -0.4567 -0.3026  0.1203
  150MPD2    H2 2291   3.103   3.040  12.174  0.7557 -0.1872  1.6248
  150MPD2    H3 2292   3.285   3.093  12.346  0.7592  1.3228  0.4939
  150MPD2     N 2293   3.468   3.402  12.061 -0.1229 -0.2956 -0.2261
  150MPD2    H5 2294   3.436   3.460  11.983 -2.3402 -0.0428  0.8841
  150MPD2    N1 2295   3.074   3.144  11.944 -0.3284 -0.2733 -0.0416
  150MPD2    H7 2296   3.024   3.058  11.964 -0.6774 -0.1100 -0.1951
  151TCq2    C1 2297   3.592   3.415  12.118 -0.2526  0.4498  0.3051
  151TCq2    O2 2298   3.645   3.347  12.206  0.1266  0.2053 -0.5501
  151TCq2    C2 2299   3.666   3.521  12.051  1.3681  0.7711 -0.2869
  151TCq2    C3 2300   3.609   3.612  11.971 -0.0599  0.2599  0.5182
  151TCq2    C4 2301   3.687   3.707  11.911 -0.2910 -1.1563 -0.7467
  151TCq2    C5 2302   3.813   3.722  11.946  0.2187 -0.4039  0.2086
  151TCq2    C6 2303   3.874   3.632  12.028  0.1304  0.3689  0.8635
  151TCq2    C7 2304   3.793   3.539  12.094 -0.7270  0.7139  0.2960
  151TCq2    C8 2305   4.016   3.635  12.020 -0.2911 -0.4746 -0.1704
  151TCq2    O4 2306   4.062   3.710  11.936 -0.3234 -0.5045 -0.7852
  151TCq2    C9 2307   3.634   3.784  11.795  0.2341 -0.2039 -0.2548
  151TCq2    O5 2308   3.716   3.818  11.706 -0.3032 -0.5589 -0.3884
  151TCq2    O6 2309   3.512   3.766  11.771 -0.0362  0.0148 -0.1480
  151TCq2    H2 2310   3.508   3.595  11.933 -0.0997  2.1701 -0.2135
  151TCq2    H3 2311   3.857   3.797  11.882  1.0299 -2.5879 -1.8082
  151TCq2    H4 2312   3.832   3.486  12.180  0.8868  1.3752 -0.0252
  152MPD2     C 2313   3.128   2.994  12.749 -0.3462  0.5233  0.1263
  152MPD2    C1 2314   3.123   3.111  12.825 -0.2161  0.3508 -0.2413
  152MPD2    C2 2315   2.997   3.170  12.860  0.4672  0.3746  0.7145
  152MPD2    C3 2316   2.875   3.105  12.831 -0.2425  0.3424  0.0432
  152MPD2    C4 2317   2.886   2.988  12.759  0.4476  0.1097  0.5221
  152MPD2    C5 2318   3.010   2.931  12.723 -0.2447  0.2549  0.2610
  152MPD2     H 2319   3.004   3.265  12.911 -2.8664  1.1065 -0.2009
  152MPD2    H1 2320   2.801   2.928  12.729  0.3859  0.1292  0.6535
  152MPD2    H2 2321   3.221   2.943  12.729 -0.2518  2.0758 -3.4045
  152MPD2    H3 2322   3.008   2.830  12.684  1.5952 -0.3058  1.5968
  152MPD2     N 2323   2.748   3.157  12.843  0.2618 -0.5286  0.3223
  152MPD2    H5 2324   2.666   3.121  12.795  0.1582  0.9438 -0.5876
  152MPD2    N1 2325   3.256   3.162  12.858  0.4447  0.2627  0.5484
  152MPD2    H7 2326   3.336   3.101  12.844  1.4097  1.2844  1.6560
  153TCq2    C1 2327   3.281   3.296  12.879 -0.0831 -0.3235  0.0622
  153TCq2    O2 2328   3.206   3.389  12.853 -0.1553  0.3161 -0.2710
  153TCq2    C2 2329   3.419   3.324  12.927 -0.6490 -0.9472  0.3410
  153TCq2    C3 2330   3.466   3.440  12.884  0.1144 -0.2725  0.1505
  153TCq2    C4 2331   3.597   3.475  12.912  0.7992 -0.6765  0.3753
  153TCq2    C5 2332   3.676   3.388  12.982 -0.0363 -0.1736  0.2031
  153TCq2    C6 2333   3.626   3.265  13.027 -0.1035 -0.3985 -0.1471
  153TCq2    C7 2334   3.497   3.233  12.991 -0.2141  0.4604 -0.1339
  153TCq2    C8 2335   3.728   3.168  13.058  0.8769  0.1639 -0.7742
  153TCq2    O4 2336   3.692   3.050  13.072  0.1355 -0.1904 -0.3294
  153TCq2    C9 2337   3.654   3.598  12.859  0.2630 -0.5132 -0.1364
  153TCq2    O5 2338   3.779   3.611  12.858 -0.7065 -0.2768 -0.4005
  153TCq2    O6 2339   3.586   3.655  12.771 -0.1782  0.9681 -0.2633
  153TCq2    H2 2340   3.398   3.508  12.835  0.9038  0.0876 -0.4228
  153TCq2    H3 2341   3.777   3.427  12.987 -0.8705  2.1937 -1.4004
  153TCq2    H4 2342   3.451   3.142  13.027 -0.3278 -0.3054 -2.2248
  154MPD2     C 2343   0.956   4.380   0.328 -0.2993  0.5289  0.3507
  154MPD2    C1 2344   1.080   4.408   0.394 -0.1974  0.0511 -0.4786
  154MPD2    C2 2345   1.063   4.480   0.509 -0.0058 -0.1708  0.2457
  154MPD2    C3 2346   0.935   4.542   0.547 -0.1578  0.4026 -0.6981
  154MPD2    C4 2347   0.823   4.510   0.478 -0.4060  0.5450  0.6460
  154MPD2    C5 2348   0.833   4.427   0.373  0.0113  0.3644  0.5880
  154MPD2     H 2349   1.147   4.499   0.574  0.4096 -0.3622 -0.2383
  154MPD2    H1 2350   0.723   4.542   0.507 -0.8381  0.3708 -0.6494
  154MPD2    H2 2351   0.958   4.334   0.230  2.8335  1.8889 -0.2259
  154MPD2    H3 2352   0.744   4.385   0.329 -0.3093  0.0483  1.5452
  154MPD2     N 2353   0.925   4.615   0.671 -0.3724 -0.2449  0.0102
  154MPD2    H5 2354   1.002   4.628   0.737 -1.7565  1.1703  1.3347
  154MPD2    N1 2355   1.198   4.341   0.353 -0.1192 -0.9346  0.2117
  154MPD2    H7 2356   1.193   4.293   0.264  1.6183  1.2075 -1.0471
  155TCq2    C1 2357   1.313   4.343   0.416 -0.7944 -0.2954  0.9506
  155TCq2    O2 2358   1.356   4.406   0.510 -0.0444 -0.3882  0.5195
  155TCq2    C2 2359   1.414   4.295   0.328  0.7987  0.2095 -0.0500
  155TCq2    C3 2360   1.375   4.209   0.229  0.3129  0.9237  0.0410
  155TCq2    C4 2361   1.457   4.184   0.120 -0.2443 -0.3984  0.2233
  155TCq2    C5 2362   1.575   4.238   0.114 -0.3261 -0.2213  0.0167
  155TCq2    C6 2363   1.614   4.326   0.214 -0.6156 -0.1732  0.0946
  155TCq2    C7 2364   1.538   4.354   0.323  0.1884 -0.1183  0.4635
  155TCq2    C8 2365   1.736   4.403   0.187 -0.4010  0.4328  0.0776
  155TCq2    O4 2366   1.831   4.344   0.140  0.2250 -0.6886  0.2845
  155TCq2    C9 2367   1.417   4.090   0.016  0.5570  0.4322  0.1674
  155TCq2    O5 2368   1.510   4.044  17.636 -0.2801 -0.7762 -0.4083
  155TCq2    O6 2369   1.300   4.046   0.013 -0.0486 -0.1485  0.7982
  155TCq2    H2 2370   1.287   4.150   0.253  1.4289 -0.5625  0.5033
  155TCq2    H3 2371   1.641   4.225   0.029  0.1414  0.5594  0.2552
  155TCq2    H4 2372   1.577   4.416   0.403  1.9408  2.5185 -2.4227
  156MPD2     C 2373   3.349   0.516  11.489  0.4154  1.0997  0.4348
  156MPD2    C1 2374   3.342   0.647  11.446 -0.3756  0.1770 -0.3468
  156MPD2    C2 2375   3.355   0.747  11.546  0.4191 -0.1337  0.2061
  156MPD2    C3 2376   3.379   0.719  11.679 -0.1857  0.3110  0.0887
  156MPD2    C4 2377   3.404   0.589  11.712  0.2807  0.3377  0.7262
  156MPD2    C5 2378   3.384   0.494  11.617  0.5844  0.0107  0.0611
  156MPD2     H 2379   3.329   0.850  11.527 -1.6965 -0.8362 -0.6808
  156MPD2    H1 2380   3.433   0.553  11.810 -0.1342 -1.3771  0.2228
  156MPD2    H2 2381   3.316   0.436  11.423 -0.4690  0.6797  1.3912
  156MPD2    H3 2382   3.398   0.389  11.643  1.1875  0.7436  2.6803
  156MPD2     N 2383   3.392   0.822  11.774 -0.2464  0.0278  0.3859
  156MPD2    H5 2384   3.387   0.913  11.730  0.4365 -0.7533 -1.3336
  156MPD2    N1 2385   3.305   0.669  11.316 -0.0658 -0.4176 -0.4561
  156MPD2    H7 2386   3.282   0.584  11.265  1.1447 -0.3364 -1.1114
  157TCq2    C1 2387   3.307   0.793  11.248 -0.1075 -0.0266 -0.2599
  157TCq2    O2 2388   3.363   0.897  11.285 -0.1897 -0.3488 -0.0149
  157TCq2    C2 2389   3.234   0.793  11.122 -0.1088  0.6236 -0.0257
  157TCq2    C3 2390   3.154   0.690  11.080  0.1444  0.5233  0.3445
  157TCq2    C4 2391   3.073   0.700  10.968 -0.4242 -0.0357  0.3406
  157TCq2    C5 2392   3.059   0.823  10.912  0.1535  0.3844  0.6601
  157TCq2    C6 2393   3.139   0.925  10.962  0.5945 -0.1804 -0.5350
  157TCq2    C7 2394   3.235   0.908  11.057 -0.5232  0.2651  0.5431
  157TCq2    C8 2395   3.118   1.061  10.906  0.3700  0.4655  0.3830
  157TCq2    O4 2396   3.210   1.143  10.918 -0.4044 -0.5967  0.6412
  157TCq2    C9 2397   2.992   0.587  10.917 -0.1806 -1.1083  0.4698
  157TCq2    O5 2398   3.026   0.470  10.950  0.6528  0.0411 -0.4267
  157TCq2    O6 2399   2.917   0.618  10.819  0.5336  0.4926  0.5142
  157TCq2    H2 2400   3.156   0.597  11.136  0.8293 -1.5435 -3.1409
  157TCq2    H3 2401   2.989   0.837  10.830  0.8095 -1.6356 -0.2451
  157TCq2    H4 2402   3.293   0.993  11.092 -1.0870  0.0070  2.1110
  158TMC2    C1 2403   4.155   4.063  13.586  0.2739 -0.6557 -0.4997
  158TMC2    C2 2404   4.246   4.161  13.574  0.0804  0.0321 -1.0467
  158TMC2    C3 2405   4.211   4.280  13.506  0.7730  1.0195  0.0992
  158TMC2    C4 2406   4.033   4.068  13.534  0.4068  0.5152 -0.1013
  158TMC2    C5 2407   4.008   4.178  13.456  0.0945  0.4958 -0.2979
  158TMC2    C6 2408   4.092   4.289  13.444 -0.4178 -0.0089 -0.4132
  158TMC2     C 2409   4.206   3.941  13.652  0.1619 -0.1334 -0.2324
  158TMC2     O 2410   4.320   3.934  13.683  0.2175 -0.4371  0.1115
  158TMC2     H 2411   4.345   4.155  13.619 -0.3289 -1.0714 -0.3076
  158TMC2    H1 2412   3.977   3.978  13.513  1.5033 -0.3566  0.7401
  158TMC2    H2 2413   4.057   4.379  13.396 -0.4790  0.5774  0.7321
  158TMC2    C7 2414   3.878   4.192  13.391 -0.4097  0.1440  0.3436
  158TMC2    C8 2415   4.304   4.389  13.519 -1.3020 -1.2947 -0.2046
  158TMC2    O1 2416   3.869   4.266  13.295  0.9180  0.4331  0.1006
  158TMC2    O2 2417   4.376   4.394  13.616 -0.4884 -0.7440  0.4210
  158TMC2    O5 2418   4.235   4.497  13.474  0.3293 -0.3733  0.0480
  158TMC2    H5 2419   4.173   4.477  13.402 -0.8686  0.0165  0.9673
  159MPD2     C 2420   4.102   3.558  13.987  0.0040  1.0273 -0.2428
  159MPD2    C1 2421   3.984   3.607  13.932  0.6042  0.1505  0.3964
  159MPD2    C2 2422   3.988   3.701  13.826 -0.1856 -0.2279  0.5775
  159MPD2    C3 2423   4.108   3.753  13.785  0.2868 -0.0497  0.2033
  159MPD2    C4 2424   4.221   3.693  13.830  0.2860 -1.1284  0.2236
  159MPD2    C5 2425   4.217   3.591  13.924 -0.2958 -0.4107  0.5106
  159MPD2     H 2426   3.895   3.747  13.793  0.2506  0.7776  0.7637
  159MPD2    H1 2427   4.316   3.723  13.789  0.4679  0.6460  1.9374
  159MPD2    H2 2428   4.114   3.485  14.066 -0.4263  1.7444  0.4859
  159MPD2    H3 2429   4.310   3.546  13.959 -0.2059 -1.5850 -1.2349
  159MPD2     N 2430   4.103   3.863  13.704 -0.0267 -0.1221 -0.0026
  159MPD2    H5 2431   4.011   3.886  13.669 -1.3349 -0.1929  3.5081
  159MPD2    N1 2432   3.866   3.565  13.997  0.6638  0.4976 -0.0542
  159MPD2    H7 2433   3.879   3.518  14.086  0.1848 -0.3602 -0.4419
  160TMC2    C1 2434   4.321   3.468   0.989  0.3647  0.0714 -0.8155
  160TMC2    C2 2435   4.450   3.423   1.028 -0.5537 -0.3731 -0.4671
  160TMC2    C3 2436   4.554   3.506   1.046  0.4472 -0.0181 -0.5034
  160TMC2    C4 2437   4.298   3.602   0.977 -0.6547  0.5971 -0.1210
  160TMC2    C5 2438   4.405   3.687   1.009  0.6548 -0.3661 -0.3365
  160TMC2    C6 2439   4.532   3.636   1.029 -0.2360 -0.1898  0.1661
  160TMC2     C 2440   4.212   3.377   1.005  0.8514 -0.1963  0.3315
  160TMC2     O 2441   4.232   3.261   0.978  0.2898 -0.3317 -0.4713
  160TMC2     H 2442   4.456   3.315   1.041  0.4259 -0.0256  1.8809
  160TMC2    H1 2443   4.195   3.632   0.957 -0.4547 -1.3904 -4.0727
  160TMC2    H2 2444   4.621   3.695   1.052 -2.2599  2.5291  1.0275
  160TMC2    C7 2445   4.392   3.832   1.000 -0.2353 -0.0265 -0.4733
  160TMC2    C8 2446   4.687   3.463   1.092 -0.5599 -0.5293 -1.0931
  160TMC2    O1 2447   4.296   3.874   0.940 -0.2677  0.0882 -0.1809
  160TMC2    O2 2448   0.056   3.540   1.075  0.2800  0.7413 -0.1273
  160TMC2    O5 2449   4.662   3.380   1.194 -0.0576 -0.8311  0.0608
  160TMC2    H5 2450   4.573   3.342   1.206  0.0833 -0.7282  1.3923
  161MPD2     C 2451   3.950   3.244   1.068  0.7273  0.1128  0.6322
  161MPD2    C1 2452   3.978   3.379   1.083 -0.2571  0.3097  0.3245
  161MPD2    C2 2453   3.877   3.462   1.137 -0.1906 -0.0503 -0.7692
  161MPD2    C3 2454   3.751   3.418   1.163  0.3879 -0.0912  0.0191
  161MPD2    C4 2455   3.725   3.284   1.143 -0.1677 -0.7268  0.1937
  161MPD2    C5 2456   3.829   3.197   1.109 -0.4653  0.1516 -0.3082
  161MPD2     H 2457   3.904   3.567   1.137 -0.6240  0.0587  0.1014
  161MPD2    H1 2458   3.628   3.240   1.161 -0.3344 -0.3538  0.2180
  161MPD2    H2 2459   4.027   3.175   1.036  2.0116  1.0911  1.6259
  161MPD2    H3 2460   3.802   3.094   1.088 -0.6427 -0.2493  1.8907
  161MPD2     N 2461   3.648   3.497   1.212 -0.1115  0.0412  0.3113
  161MPD2    H5 2462   3.554   3.462   1.225  0.9805 -2.3477  1.6712
  161MPD2    N1 2463   4.104   3.435   1.057  0.1753 -0.7327 -0.5252
  161MPD2    H7 2464   4.116   3.533   1.079  0.2986 -0.7539 -0.5013
  162TMC2    C1 2465   1.323   0.071   0.505  0.7909  0.6053  0.6117
  162TMC2    C2 2466   1.260   0.067   0.382 -0.6348 -0.7953  1.2177
  162TMC2    C3 2467   1.132   0.109   0.386  0.4031 -0.1791  0.6740
  162TMC2    C4 2468   1.269   0.099   0.628  1.3543  0.1335 -0.2180
  162TMC2    C5 2469   1.139   0.136   0.620  0.2553  0.0582 -0.6932
  162TMC2    C6 2470   1.070   0.138   0.502  0.6833 -0.5122 -0.6984
  162TMC2     C 2471   1.464   0.049   0.489  0.3791 -0.5019  0.1147
  162TMC2     O 2472   1.512   4.706   0.398 -0.2330 -0.7897  0.1449
  162TMC2     H 2473   1.318   0.042   0.294  0.2144 -0.7696  1.7727
  162TMC2    H1 2474   1.316   0.087   0.725  2.0544  1.0458 -0.4478
  162TMC2    H2 2475   0.966   0.167   0.513  0.8411 -0.7602  1.5454
  162TMC2    C7 2476   1.086   0.214   0.732  0.2695 -0.3352  0.5534
  162TMC2    C8 2477   1.077   0.174   0.269 -0.0331  0.7066  0.0923
  162TMC2    O1 2478   0.983   0.279   0.711 -0.5413  0.0641 -0.0275
  162TMC2    O2 2479   0.960   0.191   0.259 -0.2491 -0.7014  0.1782
  162TMC2    O5 2480   1.173   0.267   0.233  0.7906  0.5823  0.6455
  162TMC2    H5 2481   1.265   0.245   0.260  0.8872  1.6236  1.1712
  163MPD2     C 2482   1.933   0.180   0.571  0.7415  0.4974 -0.7402
  163MPD2    C1 2483   1.885   0.055   0.542  0.6921  0.3785 -1.2716
  163MPD2    C2 2484   1.752   0.036   0.563 -1.0108  0.2520 -0.2442
  163MPD2    C3 2485   1.670   0.146   0.586 -0.1641 -0.0014  0.5865
  163MPD2    C4 2486   1.724   0.270   0.612 -0.2279 -0.1300  0.1395
  163MPD2    C5 2487   1.854   0.290   0.594 -0.7005  0.3474 -0.0606
  163MPD2     H 2488   1.713   4.657   0.556  1.0688 -0.3937 -2.3153
  163MPD2    H1 2489   1.660   0.356   0.626  0.8380  0.7399 -0.2996
  163MPD2    H2 2490   2.038   0.205   0.562  1.0210  0.3106  2.1208
  163MPD2    H3 2491   1.892   0.391   0.607  1.4470 -0.5753  0.7853
  163MPD2     N 2492   1.532   0.133   0.578  0.1650  0.5792 -0.1431
  163MPD2    H5 2493   1.476   0.212   0.606  1.5001  1.2324  0.7042
  163MPD2    N1 2494   1.979   4.669   0.515 -0.0595 -0.2886 -0.7260
  163MPD2    H7 2495   2.076   4.690   0.494  0.4078  0.3729  2.0730
  164TCq2    C1 2496   2.034   4.181  10.757 -0.1314 -0.0069 -0.6481
  164TCq2    O2 2497   2.012   4.095  10.838  0.0497  0.0590  0.1651
  164TCq2    C2 2498   1.944   4.296  10.749 -0.9187  0.8969  0.0664
  164TCq2    C3 2499   1.932   4.358  10.628 -0.1454 -0.7319 -1.2843
  164TCq2    C4 2500   1.825   4.439  10.602  0.7903  0.0455 -0.6819
  164TCq2    C5 2501   1.715   4.441  10.683 -0.5761  0.6665 -0.0215
  164TCq2    C6 2502   1.729   4.368  10.799 -0.2930 -0.1946 -0.1246
  164TCq2    C7 2503   1.839   4.283  10.828  0.3022 -1.0572  0.2910
  164TCq2    C8 2504   1.624   4.389  10.902 -0.0416  0.0200  0.0292
  164TCq2    O4 2505   1.575   4.504  10.892  0.0526  0.2880 -0.7565
  164TCq2    C9 2506   1.813   4.521  10.485  0.6180 -0.8458 -0.9872
  164TCq2    O5 2507   1.713   4.600  10.471  0.4156 -0.8698 -1.2342
  164TCq2    O6 2508   1.898   4.512  10.392 -0.1108 -0.3609 -0.5220
  164TCq2    H2 2509   2.009   4.346  10.553 -0.3408  0.7971 -1.7193
  164TCq2    H3 2510   1.629   4.500  10.655  0.4512  1.4181 -1.6114
  164TCq2    H4 2511   1.845   4.222  10.917  0.2489 -0.3048  0.8124
  165MPD2     C 2512   2.993   2.374   0.765 -0.4765  0.0978 -0.0673
  165MPD2    C1 2513   3.128   2.362   0.790 -0.0360  0.1975  1.1094
  165MPD2    C2 2514   3.197   2.485   0.816  0.2216  0.1463 -0.0177
  165MPD2    C3 2515   3.127   2.599   0.829  0.3192  0.8313  0.8465
  165MPD2    C4 2516   2.993   2.606   0.792  0.7179 -0.5195  0.3499
  165MPD2    C5 2517   2.929   2.493   0.752 -1.0736  0.0606  0.5520
  165MPD2     H 2518   3.300   2.477   0.849  0.5213  0.6204 -0.8341
  165MPD2    H1 2519   2.929   2.694   0.798 -2.2474 -2.7586  1.3046
  165MPD2    H2 2520   2.939   2.285   0.735  0.0473 -0.4641  0.6608
  165MPD2    H3 2521   2.828   2.486   0.714 -1.5916 -4.5130  2.8762
  165MPD2     N 2522   3.187   2.722   0.870 -0.4588 -1.4015 -0.7442
  165MPD2    H5 2523   3.126   2.803   0.863 -0.8080 -1.1578  4.5492
  165MPD2    N1 2524   3.191   2.238   0.797 -0.3013 -0.0784  0.2549
  165MPD2    H7 2525   3.132   2.158   0.776 -1.4423  0.6945  0.5269
  166TCq2    C1 2526   3.311   2.730   0.937  0.3688 -0.5865 -0.3640
  166TCq2    O2 2527   3.371   2.641   1.002  0.1161 -0.6531  0.6804
  166TCq2    C2 2528   3.350   2.864   0.971  0.4307  0.0454 -0.1411
  166TCq2    C3 2529   3.290   2.970   0.908  0.0181 -0.7168  0.9675
  166TCq2    C4 2530   3.296   3.088   0.968 -0.5003  0.1522 -0.2454
  166TCq2    C5 2531   3.365   3.115   1.084  0.2177  0.6768 -0.2271
  166TCq2    C6 2532   3.422   3.004   1.153 -0.0021  0.4810  0.1062
  166TCq2    C7 2533   3.431   2.883   1.085 -0.2604  0.1500  0.7298
  166TCq2    C8 2534   3.508   3.015   1.262  0.2566  0.4812 -0.5008
  166TCq2    O4 2535   3.588   2.922   1.273  0.1058  0.1116  0.6072
  166TCq2    C9 2536   3.219   3.195   0.903  0.0625 -0.0479  0.0934
  166TCq2    O5 2537   3.212   3.304   0.968  0.2764  0.0429 -0.0976
  166TCq2    O6 2538   3.167   3.169   0.793  0.2222  0.7801  0.6702
  166TCq2    H2 2539   3.232   2.959   0.817  0.1345  1.8781  0.5958
  166TCq2    H3 2540   3.345   3.209   1.134 -2.2341  0.2883 -0.5047
  166TCq2    H4 2541   3.486   2.793   1.112  0.7251  0.5032 -0.0729
  167TMC2    C1 2542   1.359   4.038  12.820 -0.2217 -0.3133  0.5209
  167TMC2    C2 2543   1.348   4.075  12.954 -0.0728 -0.1207  0.8823
  167TMC2    C3 2544   1.333   3.975  13.048 -0.0600 -0.6529  0.0540
  167TMC2    C4 2545   1.343   3.906  12.779  0.1604  0.1418 -0.0692
  167TMC2    C5 2546   1.336   3.811  12.875 -0.6905 -0.7688 -0.3369
  167TMC2    C6 2547   1.321   3.838  13.010  0.1791  0.5655  0.1987
  167TMC2     C 2548   1.338   4.153  12.725  0.4229  0.2194  0.0479
  167TMC2     O 2549   1.325   4.267  12.769 -0.1851  0.1419 -0.3619
  167TMC2     H 2550   1.389   4.173  12.976  0.3600 -0.1837  0.3360
  167TMC2    H1 2551   1.348   3.871  12.677 -2.1690  3.6329 -1.3950
  167TMC2    H2 2552   1.306   3.763  13.086  0.2096  0.1240 -0.2317
  167TMC2    C7 2553   1.340   3.671  12.836  0.0600 -0.5034  0.6657
  167TMC2    C8 2554   1.373   3.999  13.188 -0.1503 -0.1263 -0.4096
  167TMC2    O1 2555   1.297   3.599  12.926 -0.8776  0.5150  0.1329
  167TMC2    O2 2556   1.436   3.916  13.256  0.0327  0.8877 -0.5004
  167TMC2    O5 2557   1.373   4.136  13.209 -0.0749  0.4706 -0.2037
  167TMC2    H5 2558   1.307   4.181  13.151  0.7037 -0.2423 -1.6609
  168MPD2     C 2559   1.288   4.326  12.496  0.6367 -0.0772  0.5029
  168MPD2    C1 2560   1.337   4.193  12.488 -0.4129  0.0496  0.1053
  168MPD2    C2 2561   1.378   4.143  12.371 -0.0229  0.4018  0.2955
  168MPD2    C3 2562   1.381   4.224  12.255 -0.1838 -0.2141 -0.1769
  168MPD2    C4 2563   1.334   4.357  12.264 -0.1645  0.2725 -0.4125
  168MPD2    C5 2564   1.290   4.403  12.384 -0.0386 -0.1025 -0.4874
  168MPD2     H 2565   1.418   4.042  12.373  2.6259  1.4663  0.2707
  168MPD2    H1 2566   1.355   4.432  12.189  0.5465 -1.5577 -2.0332
  168MPD2    H2 2567   1.245   4.374  12.584  0.5397  2.5260 -0.9637
  168MPD2    H3 2568   1.252   4.504  12.394  0.4458  0.0491 -0.1909
  168MPD2     N 2569   1.431   4.168  12.126 -0.5341  0.5718  0.1150
  168MPD2    H5 2570   1.443   4.228  12.045 -1.2020 -1.9818 -1.8833
  168MPD2    N1 2571   1.344   4.108  12.599 -0.0249  0.0852  0.1114
  168MPD2    H7 2572   1.386   4.018  12.580 -1.1708 -0.3258 -0.3974
  169MPD1     C 2573   3.387   3.140   8.560 -0.4813 -0.1790 -1.3695
  169MPD1    C1 2574   3.379   3.229   8.658 -0.4783  0.1609 -0.1975
  169MPD1    C2 2575   3.419   3.193   8.786  1.1313 -0.6798  0.0558
  169MPD1    C3 2576   3.465   3.065   8.806  0.3152 -0.3422  0.5854
  169MPD1    C4 2577   3.464   2.970   8.703 -0.1084  0.1382  0.2620
  169MPD1    C5 2578   3.414   3.010   8.584  0.1990 -0.6088 -0.0043
  169MPD1     H 2579   3.435   3.268   8.863  0.0725 -0.8805  0.4721
  169MPD1    H1 2580   3.486   2.866   8.724  1.0522  0.7014  1.8576
  169MPD1    H2 2581   3.366   3.174   8.460 -0.5851  1.4881 -0.7722
  169MPD1    H3 2582   3.413   2.942   8.499 -0.5021 -0.1274 -0.3890
  169MPD1     N 2583   3.530   3.043   8.928 -0.1354  0.6817  0.0342
  169MPD1    H5 2584   3.535   3.123   8.990 -1.8908  1.0776 -0.3326
  169MPD1    N1 2585   3.367   3.369   8.633  0.3985 -0.1715 -0.0383
  169MPD1    H6 2586   3.322   3.389   8.544  1.5891 -0.5043 -0.7218
  169MPD1    H7 2587   3.326   3.423   8.709  2.8979  2.7608 -0.7528
  170MPD1     C 2588   2.248   1.134  12.960 -0.1755  0.1865 -0.4818
  170MPD1    C1 2589   2.187   1.251  12.996  0.2231  0.2556  0.7613
  170MPD1    C2 2590   2.227   1.313  13.112 -0.2399  0.3251  0.0943
  170MPD1    C3 2591   2.319   1.258  13.194  0.5753  0.2628  0.1747
  170MPD1    C4 2592   2.371   1.137  13.159 -0.4456  0.0841  0.4551
  170MPD1    C5 2593   2.333   1.071  13.049  0.2677 -0.6267  0.4845
  170MPD1     H 2594   2.182   1.411  13.129  1.2141  0.6087  2.3377
  170MPD1    H1 2595   2.448   1.092  13.221 -0.4188 -2.0602 -1.0997
  170MPD1    H2 2596   2.224   1.081  12.869 -3.2772 -0.3900  0.6760
  170MPD1    H3 2597   2.390   0.981  13.028 -0.0540 -0.3289 -1.6309
  170MPD1     N 2598   2.349   1.321  13.319 -0.3600 -0.5544  1.1600
  170MPD1    H5 2599   2.305   1.410  13.338 -1.3249 -0.5022 -1.3258
  170MPD1    N1 2600   2.106   1.320  12.901  0.1091  0.0464  0.0266
  170MPD1    H6 2601   2.031   1.370  12.949 -0.7756 -0.1638 -1.1381
  170MPD1    H7 2602   2.045   1.263  12.842 -0.4485 -0.7686  1.3854
  171MPD1     C 2603   1.611   2.889  15.073 -0.2252  0.5423  0.2225
  171MPD1    C1 2604   1.592   2.950  15.194  0.5534 -0.5704  1.0866
  171MPD1    C2 2605   1.566   2.873  15.308 -0.0997  0.0818 -0.6215
  171MPD1    C3 2606   1.561   2.733  15.303 -0.6397 -0.1911 -0.3073
  171MPD1    C4 2607   1.571   2.674  15.179 -0.5055 -1.3598  0.2202
  171MPD1    C5 2608   1.605   2.753  15.072  0.0640 -0.1759  0.1844
  171MPD1     H 2609   1.546   2.928  15.399  0.1298 -1.6527  0.4834
  171MPD1    H1 2610   1.584   2.567  15.163  0.7664 -1.1226 -0.3758
  171MPD1    H2 2611   1.640   2.945  14.984  0.0254 -0.6363 -0.4350
  171MPD1    H3 2612   1.635   2.708  14.978 -0.5418 -0.0780 -0.0612
  171MPD1     N 2613   1.540   2.651  15.417 -0.5556  0.3392 -0.0188
  171MPD1    H5 2614   1.555   2.551  15.405 -1.5747 -0.0119  1.6195
  171MPD1    N1 2615   1.582   3.089  15.194 -0.0917  0.3596  0.2228
  171MPD1    H6 2616   1.645   3.135  15.130  0.3775 -1.3502 -0.5495
  171MPD1    H7 2617   1.595   3.131  15.286 -0.8012  1.5555 -0.2320
  172MPD1     C 2618   4.428   2.281   0.720 -0.1473  0.1297 -0.6625
  172MPD1    C1 2619   4.517   2.282   0.621  0.0048  1.1398 -0.2135
  172MPD1    C2 2620   4.629   2.360   0.628  0.1899 -0.2942 -0.4003
  172MPD1    C3 2621   4.665   2.431   0.738 -0.4715  0.4050 -0.3818
  172MPD1    C4 2622   4.579   2.426   0.844 -0.6313 -0.5222 -0.0868
  172MPD1    C5 2623   4.467   2.354   0.831 -0.1458  0.0976  0.2679
  172MPD1     H 2624   4.698   2.357   0.545 -0.1308  1.9629 -0.7315
  172MPD1    H1 2625   4.609   2.478   0.934 -0.2414 -0.3478 -0.3142
  172MPD1    H2 2626   4.335   2.226   0.720 -0.0472 -0.0392 -0.2338
  172MPD1    H3 2627   4.405   2.357   0.919  0.0731 -2.4484  0.5266
  172MPD1     N 2628   0.061   2.507   0.745 -0.6500  0.5469  0.1570
  172MPD1    H5 2629   0.093   2.540   0.835 -0.6869  1.5402 -0.1863
  172MPD1    N1 2630   4.494   2.210   0.498 -0.2235 -0.2256 -0.4919
  172MPD1    H6 2631   4.394   2.206   0.479 -0.4594  0.3224  0.6398
  172MPD1    H7 2632   4.548   2.252   0.422  0.5626  1.7943  1.1819
  173MPD1     C 2633   1.693   2.292  14.555  0.3482 -0.8879  0.1894
  173MPD1    C1 2634   1.614   2.217  14.469  0.2185 -0.1028 -0.7566
  173MPD1    C2 2635   1.501   2.154  14.527 -0.1534 -0.8464  0.2164
  173MPD1    C3 2636   1.480   2.156  14.665 -0.2078 -0.2882 -0.2072
  173MPD1    C4 2637   1.572   2.212  14.747 -0.0297 -0.6076  0.2316
  173MPD1    C5 2638   1.679   2.277  14.691  0.7219  0.2398 -0.0939
  173MPD1     H 2639   1.424   2.101  14.473 -2.5595  0.7464  2.0700
  173MPD1    H1 2640   1.561   2.207  14.854 -0.5036  0.5197  0.2261
  173MPD1    H2 2641   1.780   2.347  14.519 -0.8895  0.6283 -0.4992
  173MPD1    H3 2642   1.742   2.336  14.757  1.0759 -1.4027  1.0320
  173MPD1     N 2643   1.362   2.083  14.707 -0.3862  0.3649  0.2310
  173MPD1    H5 2644   1.321   2.029  14.631  2.9761  0.5366 -1.7365
  173MPD1    N1 2645   1.627   2.230  14.332 -0.1732 -0.6379 -0.3227
  173MPD1    H6 2646   1.712   2.270  14.292  0.3064 -1.8295 -0.4695
  173MPD1    H7 2647   1.613   2.143  14.282  0.1032 -0.8225 -0.0772
  174MPD1     C 2648   0.926   1.500  14.179  0.2919  0.4195 -0.0803
  174MPD1    C1 2649   0.904   1.634  14.198  0.3582 -0.1362 -0.3471
  174MPD1    C2 2650   0.932   1.686  14.325  0.3134 -0.0717  0.0198
  174MPD1    C3 2651   0.982   1.610  14.422  0.4905 -0.3976 -0.1953
  174MPD1    C4 2652   0.995   1.474  14.401  0.0411  0.2812  0.7137
  174MPD1    C5 2653   0.958   1.418  14.286  0.0694  0.3977  1.0270
  174MPD1     H 2654   0.912   1.792  14.338  1.0857  0.1241 -0.3709
  174MPD1    H1 2655   1.021   1.401  14.478  0.6966 -0.5477 -0.2937
  174MPD1    H2 2656   0.898   1.453  14.086  0.9674  0.5301 -0.3364
  174MPD1    H3 2657   0.968   1.310  14.274 -0.2759  0.3550  1.1287
  174MPD1     N 2658   1.028   1.657  14.549 -0.2443  0.0262  0.4261
  174MPD1    H5 2659   1.031   1.589  14.624 -1.8057 -2.7102 -1.9631
  174MPD1    N1 2660   0.866   1.715  14.092  0.4739  0.5275 -0.1699
  174MPD1    H6 2661   0.824   1.670  14.011 -0.5503  0.4689  0.3802
  174MPD1    H7 2662   0.800   1.788  14.120 -0.3793 -0.7937  1.3318
  175MPD1     C 2663   4.029   2.430  16.074  0.2295 -0.2898  0.4462
  175MPD1    C1 2664   3.992   2.547  16.133 -0.4407  0.2605  0.1218
  175MPD1    C2 2665   4.085   2.622  16.198  0.7205  0.5379  0.3616
  175MPD1    C3 2666   4.221   2.610  16.180 -0.3527  1.0519  0.0673
  175MPD1    C4 2667   4.257   2.510  16.102 -0.1339  0.3505 -0.4763
  175MPD1    C5 2668   4.165   2.416  16.053 -0.4040  0.4200  0.1759
  175MPD1     H 2669   4.039   2.697  16.261  0.2034 -0.7269  1.4893
  175MPD1    H1 2670   4.357   2.485  16.068 -0.3569 -0.4618 -0.5285
  175MPD1    H2 2671   3.950   2.355  16.073 -1.0880  1.1022 -0.0363
  175MPD1    H3 2672   4.198   2.332  15.992  1.3509  2.1278 -1.2250
  175MPD1     N 2673   4.324   2.708  16.221  0.2072 -0.1443  0.1396
  175MPD1    H5 2674   4.420   2.694  16.193  0.4939  2.8179 -0.3086
  175MPD1    N1 2675   3.855   2.577  16.155 -0.3478 -0.1929  0.4495
  175MPD1    H6 2676   3.787   2.522  16.103 -0.2260  0.3765 -0.3095
  175MPD1    H7 2677   3.816   2.667  16.182  1.1911  0.9990 -1.3376
  176MPD1     C 2678   1.513   0.372   0.306  0.9312  0.3871  0.2917
  176MPD1    C1 2679   1.487   0.338   0.174 -0.4925 -0.7509 -0.3560
  176MPD1    C2 2680   1.486   0.441   0.081  0.1253  0.3113  0.7233
  176MPD1    C3 2681   1.505   0.576   0.116  0.1181  0.1725 -0.1830
  176MPD1    C4 2682   1.533   0.604   0.246 -0.2771 -0.0534  0.3013
  176MPD1    C5 2683   1.543   0.500   0.341 -0.2212  0.3091 -0.3032
  176MPD1     H 2684   1.472   0.419  17.669  0.4498  2.3097  0.2510
  176MPD1    H1 2685   1.556   0.707   0.270  1.1667 -0.7723  2.0387
  176MPD1    H2 2686   1.521   0.298   0.384 -0.4810 -0.6668 -0.5375
  176MPD1    H3 2687   1.562   0.519   0.446 -0.9694 -0.0266 -0.1086
  176MPD1     N 2688   1.490   0.681   0.021  0.1829 -0.6201 -0.0291
  176MPD1    H5 2689   1.462   0.647  17.622  0.8326 -0.1928 -0.3943
  176MPD1    N1 2690   1.445   0.206   0.135  0.2024  0.6185  0.0078
  176MPD1    H6 2691   1.497   0.147   0.199 -0.1682  1.0070  0.6577
  176MPD1    H7 2692   1.467   0.182   0.039  0.6585 -1.4878  0.6578
  177MPD1     C 2693   0.543   0.252   9.899 -0.4959 -0.1715  0.5242
  177MPD1    C1 2694   0.522   0.141   9.826  0.3140  0.5816  0.6013
  177MPD1    C2 2695   0.386   0.101   9.799  0.0703  0.6390 -0.1138
  177MPD1    C3 2696   0.283   0.175   9.847  0.4417 -0.2713 -0.0115
  177MPD1    C4 2697   0.305   0.285   9.925  0.0113 -0.0792 -0.5440
  177MPD1    C5 2698   0.433   0.328   9.942 -0.2400  0.8383  0.1450
  177MPD1     H 2699   0.363   0.012   9.742  0.7882 -1.0150  2.1717
  177MPD1    H1 2700   0.232   0.354   9.964  0.7208  0.1521  0.3738
  177MPD1    H2 2701   0.640   0.290   9.928 -1.6870  2.2703  1.3631
  177MPD1    H3 2702   0.448   0.426   9.984 -0.3283 -0.1166  2.3789
  177MPD1     N 2703   0.158   0.122   9.813  0.2580 -0.7689  0.4872
  177MPD1    H5 2704   0.172   0.042   9.752 -1.3951 -1.1657  0.6203
  177MPD1    N1 2705   0.632   0.064   9.784 -0.2420 -0.4149  0.4847
  177MPD1    H6 2706   0.613   4.693   9.818  0.0694 -0.5462  0.2935
  177MPD1    H7 2707   0.718   0.094   9.830  0.2411  0.1354 -0.7653
  178MPD1     C 2708   2.148   1.042   0.009  0.6519  0.0720 -0.2747
  178MPD1    C1 2709   2.090   0.926  17.661  0.9547  0.6730  0.0813
  178MPD1    C2 2710   2.163   0.846  17.570  0.0665 -0.1137 -0.0329
  178MPD1    C3 2711   2.283   0.883  17.519  0.0637 -0.2533  0.4629
  178MPD1    C4 2712   2.341   0.999  17.573 -1.1761 -0.7009  0.2537
  178MPD1    C5 2713   2.280   1.072  17.671 -0.3327  0.3846 -0.5370
  178MPD1     H 2714   2.120   0.753  17.534  2.9820 -1.1682 -0.7669
  178MPD1    H1 2715   2.442   1.030  17.545 -2.2435  1.9551 -0.6534
  178MPD1    H2 2716   2.102   1.105   0.083  2.5051  0.6726  0.3556
  178MPD1    H3 2717   2.326   1.156   0.030 -0.9037 -0.8203  1.9783
  178MPD1     N 2718   2.352   0.815  17.416 -0.0416  0.0659 -0.0103
  178MPD1    H5 2719   2.442   0.849  17.384 -1.2901  1.4333 -2.0672
  178MPD1    N1 2720   1.950   0.893  17.675  0.7926  0.3021 -0.2920
  178MPD1    H6 2721   1.913   0.941   0.066  1.8214  0.9028 -0.1810
  178MPD1    H7 2722   1.927   0.794  17.683  1.4417 -0.0294 -2.7384
  179MPD1     C 2723   2.064   4.120  15.323  0.7083 -0.0102  0.2787
  179MPD1    C1 2724   2.129   4.127  15.445  0.5157 -0.4131  0.0925
  179MPD1    C2 2725   2.125   4.021  15.530  0.4743 -0.0669  0.3789
  179MPD1    C3 2726   2.075   3.899  15.476 -0.0186  0.4195  0.1618
  179MPD1    C4 2727   2.015   3.894  15.352 -0.0260 -0.6789  0.4905
  179MPD1    C5 2728   2.012   4.004  15.278 -0.3723 -0.1097 -0.6500
  179MPD1     H 2729   2.165   4.018  15.630  0.6424 -1.5910  0.2706
  179MPD1    H1 2730   1.967   3.812  15.301  0.2542 -1.6906  1.8471
  179MPD1    H2 2731   2.058   4.211  15.265  2.2287 -0.3307 -0.3940
  179MPD1    H3 2732   1.970   4.007  15.177  1.6999 -0.7702 -1.5194
  179MPD1     N 2733   2.080   3.779  15.548 -0.3347 -0.2355 -0.2205
  179MPD1    H5 2734   2.029   3.707  15.498 -0.4592  0.1755 -0.6889
  179MPD1    N1 2735   2.176   4.251  15.485  0.2007 -0.3633 -0.7981
  179MPD1    H6 2736   2.251   4.234  15.551 -0.3259  1.6942  0.3375
  179MPD1    H7 2737   2.222   4.308  15.414  2.0826 -1.8822 -0.7733
  180MPD1     C 2738   1.973   4.710  15.585 -0.3620  0.2444 -0.2461
  180MPD1    C1 2739   2.096   0.027  15.532 -0.1280  0.3516  0.0685
  180MPD1    C2 2740   2.096   0.122  15.427 -0.3275  0.3149  0.5594
  180MPD1    C3 2741   1.974   0.156  15.366 -0.5679 -0.2981 -0.4972
  180MPD1    C4 2742   1.856   0.114  15.421 -0.0254  0.7645 -0.4209
  180MPD1    C5 2743   1.857   0.030  15.531  0.4659  0.3309  0.7724
  180MPD1     H 2744   2.189   0.155  15.382 -1.5915 -0.3921 -2.5256
  180MPD1    H1 2745   1.760   0.131  15.374  0.0967  0.6205 -0.7252
  180MPD1    H2 2746   1.964   4.639  15.666  3.6849 -0.4894 -0.4368
  180MPD1    H3 2747   1.761   4.718  15.567  0.1118  0.3908 -0.1017
  180MPD1     N 2748   1.978   0.244  15.255 -0.1997  0.2609  0.4977
  180MPD1    H5 2749   2.070   0.277  15.225  0.4843  0.3747  2.7574
  180MPD1    N1 2750   2.213   4.686  15.569 -0.3319 -0.1502  0.3299
  180MPD1    H6 2751   2.210   4.638  15.658 -1.0696 -0.6459  0.0369
  180MPD1    H7 2752   2.295   0.023  15.560  0.8331 -2.0355 -1.4882
  181MPD1     C 2753   3.424   2.744   8.330 -0.2832 -0.3908 -0.4654
  181MPD1    C1 2754   3.390   2.647   8.428 -0.0332 -0.4250 -0.1387
  181MPD1    C2 2755   3.490   2.611   8.527  0.7984 -0.6046 -0.3143
  181MPD1    C3 2756   3.621   2.664   8.514 -0.2423 -0.1065  0.1985
  181MPD1    C4 2757   3.654   2.745   8.411 -0.4531  0.8368 -0.9801
  181MPD1    C5 2758   3.556   2.787   8.328  0.6167  1.0596  0.4527
  181MPD1     H 2759   3.467   2.549   8.613 -1.8364 -0.6187 -1.0401
  181MPD1    H1 2760   3.754   2.779   8.387  0.6378 -0.5682  1.5836
  181MPD1    H2 2761   3.352   2.810   8.283 -1.7319 -1.6047  0.0396
  181MPD1    H3 2762   3.581   2.857   8.249 -0.6500  1.0378  0.0367
  181MPD1     N 2763   3.711   2.642   8.618  0.1225  0.1527 -0.1608
  181MPD1    H5 2764   3.792   2.703   8.617  0.2266  0.0012 -0.8682
  181MPD1    N1 2765   3.258   2.609   8.442 -0.5933 -0.0511  0.3976
  181MPD1    H6 2766   3.208   2.601   8.353 -0.3998 -0.4175  0.3194
  181MPD1    H7 2767   3.256   2.521   8.492  3.8785  0.7196  1.9487
  182MPD1     C 2768   0.454   1.288   1.360  0.0553  0.6538 -0.5700
  182MPD1    C1 2769   0.401   1.383   1.437  0.0057 -0.2480 -0.4593
  182MPD1    C2 2770   0.262   1.408   1.435 -0.3883  0.0595 -0.4807
  182MPD1    C3 2771   0.182   1.342   1.339 -0.2110 -0.3511  0.4249
  182MPD1    C4 2772   0.244   1.245   1.266 -0.1008 -0.2337 -0.4125
  182MPD1    C5 2773   0.376   1.214   1.282 -0.3515 -0.0216 -0.4599
  182MPD1     H 2774   0.217   1.483   1.499 -0.4479 -1.0413  0.7694
  182MPD1    H1 2775   0.193   1.189   1.189  1.2279 -4.5876  1.8478
  182MPD1    H2 2776   0.560   1.264   1.359  0.0113  0.4365  1.7480
  182MPD1    H3 2777   0.425   1.140   1.219  0.6185 -0.6463  1.0424
  182MPD1     N 2778   0.043   1.364   1.324 -0.1653  0.3119 -0.1734
  182MPD1    H5 2779   0.003   1.297   1.261 -1.7695 -1.4934  2.7681
  182MPD1    N1 2780   0.487   1.440   1.533  0.3902  0.7338  0.9150
  182MPD1    H6 2781   0.454   1.528   1.572  1.4263  1.0620  1.0610
  182MPD1    H7 2782   0.581   1.445   1.495 -0.1089 -1.6518 -0.6054
  183MPD1     C 2783   0.923   2.011   9.678 -0.1235  0.1877  0.1877
  183MPD1    C1 2784   0.865   1.921   9.767  0.5212  0.6009  0.2377
  183MPD1    C2 2785   0.724   1.921   9.776 -0.3947  0.3586 -0.0945
  183MPD1    C3 2786   0.638   2.023   9.728  0.3208  0.1509 -1.2143
  183MPD1    C4 2787   0.705   2.124   9.660  0.5452 -1.0551 -0.3412
  183MPD1    C5 2788   0.844   2.118   9.642  0.2834 -0.6340 -0.2972
  183MPD1     H 2789   0.690   1.840   9.840  0.8760 -0.7849 -0.8768
  183MPD1    H1 2790   0.656   2.208   9.612  1.0100 -1.0821 -0.8654
  183MPD1    H2 2791   1.027   2.004   9.647 -0.1866 -1.9469  0.4622
  183MPD1    H3 2792   0.886   2.194   9.577 -0.0863 -0.6296 -0.5319
  183MPD1     N 2793   0.500   2.019   9.760 -0.0733  0.0933 -0.1967
  183MPD1    H5 2794   0.466   1.929   9.793  2.0503  0.3447  2.7503
  183MPD1    N1 2795   0.938   1.814   9.815 -0.1793  0.3183 -0.2284
  183MPD1    H6 2796   1.031   1.851   9.833 -0.9410  0.4467  3.4475
  183MPD1    H7 2797   0.905   1.782   9.906  0.9088 -0.5221 -0.1353
  184MPD1     C 2798   3.679   3.677   9.798 -0.0217 -0.3908 -0.1909
  184MPD1    C1 2799   3.696   3.768   9.898  0.0453 -0.7270 -0.3552
  184MPD1    C2 2800   3.738   3.895   9.868 -0.2055  0.4003 -0.3402
  184MPD1    C3 2801   3.750   3.941   9.738 -0.9486  0.2870  0.1053
  184MPD1    C4 2802   3.712   3.852   9.644 -0.4018 -0.3724  0.4159
  184MPD1    C5 2803   3.681   3.720   9.668  0.4193 -0.1203 -0.4707
  184MPD1     H 2804   3.772   3.963   9.945 -1.4559  0.7353 -0.1011
  184MPD1    H1 2805   3.719   3.871   9.537 -2.8521 -1.6112  0.0519
  184MPD1    H2 2806   3.653   3.573   9.810  1.9818 -1.0476 -1.5752
  184MPD1    H3 2807   3.644   3.657   9.587  1.5653  0.6585 -1.6035
  184MPD1     N 2808   3.801   4.066   9.700 -0.5041 -0.5348  0.3008
  184MPD1    H5 2809   3.789   4.094   9.603 -0.3622 -1.1674  0.1002
  184MPD1    N1 2810   3.716   3.731  10.031 -0.0156 -1.0152  0.6835
  184MPD1    H6 2811   3.699   3.801  10.103  0.8169  1.0274 -1.0969
  184MPD1    H7 2812   3.663   3.645  10.044  2.4556 -2.8375 -1.1988
  185MPD1     C 2813   3.579   4.542   9.002 -0.0765  0.9136 -0.1799
  185MPD1    C1 2814   3.676   4.619   9.059 -0.5312  0.1498  0.1146
  185MPD1    C2 2815   3.734   4.577   9.172 -0.2050  0.3340 -0.1639
  185MPD1    C3 2816   3.703   4.454   9.231 -0.3750  0.4484 -0.7457
  185MPD1    C4 2817   3.612   4.371   9.168 -0.4017  0.2475  0.2820
  185MPD1    C5 2818   3.556   4.414   9.051  0.6766  0.2691 -0.3523
  185MPD1     H 2819   3.813   4.638   9.213  1.0048 -1.1771 -0.2410
  185MPD1    H1 2820   3.590   4.272   9.206  0.0388  0.4146  0.9726
  185MPD1    H2 2821   3.524   4.578   8.916 -1.1035  2.1044  0.9583
  185MPD1    H3 2822   3.482   4.356   8.997 -0.4760  1.1204  0.3257
  185MPD1     N 2823   3.774   4.417   9.348  0.7590  0.5442 -0.1416
  185MPD1    H5 2824   3.763   4.320   9.374  2.3927  0.8949  1.8346
  185MPD1    N1 2825   3.707   0.022   9.003 -0.1972 -0.3057 -0.4323
  185MPD1    H6 2826   3.685   0.018   8.903 -0.3954 -0.0392 -0.3986
  185MPD1    H7 2827   3.809   0.019   9.001 -0.2412 -1.7622 -1.0784
  186MPD1     C 2828   3.231   3.326  15.933  0.2425 -0.1844  0.0238
  186MPD1    C1 2829   3.212   3.439  15.870  0.0216  0.3484  0.0630
  186MPD1    C2 2830   3.104   3.525  15.891 -0.3673  0.3712 -0.1770
  186MPD1    C3 2831   3.022   3.491  15.994 -0.1904  0.3052 -0.3772
  186MPD1    C4 2832   3.033   3.369  16.051  0.2257 -0.8956 -0.4902
  186MPD1    C5 2833   3.145   3.294  16.038 -0.4931  0.5044 -0.5997
  186MPD1     H 2834   3.092   3.609  15.824  2.2558  0.6364 -0.3380
  186MPD1    H1 2835   2.963   3.340  16.129  1.6782 -2.6153  0.1858
  186MPD1    H2 2836   3.316   3.262  15.912 -0.6555 -1.3191 -0.0974
  186MPD1    H3 2837   3.155   3.200  16.090 -2.4248  1.0732  0.7779
  186MPD1     N 2838   2.919   3.578  16.037 -0.0063 -0.0030  0.0932
  186MPD1    H5 2839   2.860   3.553  16.116  0.7498  1.3189  1.0817
  186MPD1    N1 2840   3.294   3.470  15.764 -0.0766  0.3141 -0.7981
  186MPD1    H6 2841   3.293   3.569  15.741  2.0066  0.2828 -1.0688
  186MPD1    H7 2842   3.389   3.437  15.782 -0.8459 -1.0719  0.7619
  187MPD1     C 2843   2.175   1.212  17.284  0.2757 -0.6235  0.6295
  187MPD1    C1 2844   2.160   1.293  17.171 -0.7787 -0.5861 -0.5537
  187MPD1    C2 2845   2.046   1.367  17.155 -0.7313 -0.0432 -0.4010
  187MPD1    C3 2846   1.939   1.350  17.239  0.2506  0.1352  0.3655
  187MPD1    C4 2847   1.961   1.267  17.338  1.1749 -0.4341 -0.1667
  187MPD1    C5 2848   2.072   1.205  17.377  0.3332 -0.0444  0.1654
  187MPD1     H 2849   2.034   1.427  17.066  0.6087 -1.7667 -1.7655
  187MPD1    H1 2850   1.876   1.255  17.403  0.8033 -2.1670 -0.9811
  187MPD1    H2 2851   2.269   1.167  17.313  0.3299  0.0160  1.4404
  187MPD1    H3 2852   2.085   1.133  17.457  0.1043  0.2382  0.4550
  187MPD1     N 2853   1.818   1.410  17.220 -0.5411 -0.3534 -0.6489
  187MPD1    H5 2854   1.748   1.392  17.292 -1.9560 -0.8420 -2.1658
  187MPD1    N1 2855   2.271   1.312  17.090  0.3397 -1.1946  0.0164
  187MPD1    H6 2856   2.340   1.236  17.088 -0.4013 -1.8866  0.4700
  187MPD1    H7 2857   2.252   1.344  16.996 -1.4028  0.0183  0.7834
  188MPD1     C 2858   1.396   0.937  10.460 -0.0213  0.1519 -0.1193
  188MPD1    C1 2859   1.490   0.834  10.461  0.1170  0.3006 -0.0945
  188MPD1    C2 2860   1.526   0.775  10.339 -1.0054  0.1027 -0.0019
  188MPD1    C3 2861   1.449   0.803  10.228 -0.4909  0.2915 -0.0581
  188MPD1    C4 2862   1.364   0.908  10.225  0.4956  0.2620  0.0131
  188MPD1    C5 2863   1.337   0.976  10.341  0.4371  0.3280  0.3933
  188MPD1     H 2864   1.592   0.689  10.343 -1.6103 -0.3854 -0.5390
  188MPD1    H1 2865   1.298   0.928  10.142 -2.6157  0.4041  2.5140
  188MPD1    H2 2866   1.380   1.000  10.546  0.4848 -1.0473  0.8390
  188MPD1    H3 2867   1.268   1.058  10.359  0.3409  0.3186  0.0722
  188MPD1     N 2868   1.454   0.714  10.112 -0.3189  0.0684 -0.5095
  188MPD1    H5 2869   1.384   0.725  10.040 -0.6080 -2.5713 -0.6559
  188MPD1    N1 2870   1.569   0.801  10.573  0.7307  0.2044  0.3303
  188MPD1    H6 2871   1.587   0.701  10.571  0.2319  0.1013  0.8760
  188MPD1    H7 2872   1.510   0.826  10.652  0.8307 -3.2874  1.4850
  189MPD1     C 2873   3.853   1.721   0.202  0.0163  0.3991  0.7691
  189MPD1    C1 2874   3.785   1.638   0.290 -0.0520 -0.7344 -0.0764
  189MPD1    C2 2875   3.646   1.627   0.269 -0.3918  0.4548 -0.2339
  189MPD1    C3 2876   3.580   1.721   0.189 -0.1750  0.5196 -0.2019
  189MPD1    C4 2877   3.657   1.802   0.100 -0.1954 -0.2604  0.0621
  189MPD1    C5 2878   3.796   1.795   0.103 -0.2820  0.6615  0.0379
  189MPD1     H 2879   3.578   1.567   0.330  1.8113  0.4946  2.2624
  189MPD1    H1 2880   3.610   1.859   0.021 -0.4352 -1.9915 -1.0422
  189MPD1    H2 2881   3.961   1.727   0.204 -0.1125  2.8468  0.3903
  189MPD1    H3 2882   3.849   1.835   0.017 -0.9242  1.6562  0.1084
  189MPD1     N 2883   3.439   1.711   0.179  0.7073  0.2258  0.6195
  189MPD1    H5 2884   3.385   1.639   0.226  1.3058 -1.3207 -1.0920
  189MPD1    N1 2885   3.859   1.556   0.376 -0.2416  0.4783  0.5206
  189MPD1    H6 2886   3.943   1.599   0.415  2.5757 -2.2196 -2.5198
  189MPD1    H7 2887   3.800   1.520   0.451 -1.5307  1.8708  0.1651
  190MPD1     C 2888   1.765   0.888  15.588  0.2528 -0.0040  0.4933
  190MPD1    C1 2889   1.784   0.800  15.696  0.1108 -0.4711 -0.3510
  190MPD1    C2 2890   1.909   0.763  15.722  0.3790  0.8604  0.0787
  190MPD1    C3 2891   2.014   0.823  15.661  0.5071 -0.9804 -0.0158
  190MPD1    C4 2892   1.996   0.929  15.577 -0.3990 -0.3470  0.0832
  190MPD1    C5 2893   1.871   0.952  15.529  0.1842  0.5028 -0.5001
  190MPD1     H 2894   1.930   0.681  15.789  1.1098  1.6677  0.8322
  190MPD1    H1 2895   2.075   0.994  15.541  0.9294 -1.2569  1.3799
  190MPD1    H2 2896   1.666   0.908  15.551  0.4982  0.0485 -0.1403
  190MPD1    H3 2897   1.855   1.032  15.458 -1.9288  1.2279  0.7975
  190MPD1     N 2898   2.143   0.771  15.679 -0.1016  0.1841 -0.2222
  190MPD1    H5 2899   2.145   0.682  15.728 -2.0129  0.8886  1.1094
  190MPD1    N1 2900   1.674   0.724  15.753  0.0818 -0.1970  0.3299
  190MPD1    H6 2901   1.707   0.691  15.844 -1.6092 -1.9238  0.3096
  190MPD1    H7 2902   1.591   0.780  15.770  0.7468  0.8414  0.2071
  191MPD1     C 2903   1.638   1.749  13.020 -0.2740 -0.1372 -0.5470
  191MPD1    C1 2904   1.732   1.836  12.978 -0.2906 -0.3692  0.6251
  191MPD1    C2 2905   1.703   1.917  12.872 -0.4844  0.5417  0.1707
  191MPD1    C3 2906   1.577   1.914  12.807  0.3854  0.9392 -0.8604
  191MPD1    C4 2907   1.482   1.828  12.855  0.2163 -0.1030 -0.1570
  191MPD1    C5 2908   1.514   1.751  12.961 -0.4217  0.7028  0.8592
  191MPD1     H 2909   1.774   1.992  12.839 -1.0669  1.0651  0.1047
  191MPD1    H1 2910   1.383   1.812  12.813 -0.1659  1.2874  0.1815
  191MPD1    H2 2911   1.650   1.670  13.094 -1.4229 -0.0412 -0.2446
  191MPD1    H3 2912   1.445   1.674  12.995 -2.1181  1.5691 -0.5865
  191MPD1     N 2913   1.561   2.007  12.701  0.1923  0.4051 -0.9247
  191MPD1    H5 2914   1.639   2.068  12.678 -1.2914  1.5980 -2.7287
  191MPD1    N1 2915   1.845   1.844  13.055  0.2321 -0.6819 -0.5833
  191MPD1    H6 2916   1.932   1.859  13.004  2.5187 -1.9079  2.9304
  191MPD1    H7 2917   1.866   1.761  13.110 -1.1499 -0.9972 -0.5351
  192MPD1     C 2918   1.092   2.930  12.374  0.2730  0.2098 -0.8024
  192MPD1    C1 2919   1.018   2.820  12.385 -0.0442 -0.5078 -0.1419
  192MPD1    C2 2920   1.072   2.696  12.415 -0.4296 -0.3838  0.8863
  192MPD1    C3 2921   1.213   2.681  12.426 -0.1939  0.2317  0.0745
  192MPD1    C4 2922   1.285   2.803  12.439  0.1775 -0.4972  0.1965
  192MPD1    C5 2923   1.228   2.922  12.411 -0.3178  0.1268 -0.4007
  192MPD1     H 2924   1.015   2.605  12.399  0.3529 -0.6479 -0.3856
  192MPD1    H1 2925   1.390   2.810  12.462 -0.0411 -2.3254  1.7544
  192MPD1    H2 2926   1.055   3.023  12.331 -0.0409  1.2260  1.6675
  192MPD1    H3 2927   1.286   3.012  12.395  0.9292 -0.7507 -0.8197
  192MPD1     N 2928   1.284   2.554  12.440 -0.1424 -0.2236  0.0200
  192MPD1    H5 2929   1.384   2.560  12.452 -0.5092  0.2971  2.6988
  192MPD1    N1 2930   0.900   2.814  12.306  1.0287 -0.6799  0.1281
  192MPD1    H6 2931   0.839   2.740  12.341  0.4476  0.9245  2.5160
  192MPD1    H7 2932   0.848   2.901  12.298 -1.4948 -2.1403  0.5887
  193MPD1     C 2933   0.968   2.146  16.335 -0.6326 -0.3228  0.6106
  193MPD1    C1 2934   0.930   2.247  16.419  0.6506  0.2856  0.2368
  193MPD1    C2 2935   1.033   2.335  16.449  0.2877 -0.2484  0.0866
  193MPD1    C3 2936   1.157   2.331  16.384 -0.1855 -0.5270 -0.0648
  193MPD1    C4 2937   1.186   2.224  16.307  0.4464 -0.2960 -1.4967
  193MPD1    C5 2938   1.091   2.134  16.286  0.7871  0.5968 -0.0372
  193MPD1     H 2939   1.003   2.425  16.502  0.3878 -0.1271 -0.0621
  193MPD1    H1 2940   1.280   2.226  16.253  0.8867  3.3384 -0.6137
  193MPD1    H2 2941   0.898   2.073  16.296  0.4193 -1.3623  0.6869
  193MPD1    H3 2942   1.105   2.055  16.213 -2.5803  0.7958 -0.8836
  193MPD1     N 2943   1.257   2.434  16.401 -0.1913  0.1510  0.7259
  193MPD1    H5 2944   1.346   2.417  16.354 -0.7214  1.8725 -0.9291
  193MPD1    N1 2945   0.800   2.251  16.475 -1.2237  1.2416  0.2283
  193MPD1    H6 2946   0.765   2.338  16.516 -1.9450  1.0138  0.1073
  193MPD1    H7 2947   0.730   2.208  16.415  1.5062  1.5724 -3.1568
  194MPD1     C 2948   3.259   0.423  17.179  0.2532 -0.2502  0.2440
  194MPD1    C1 2949   3.351   0.393  17.077  0.1890 -0.7759  0.4495
  194MPD1    C2 2950   3.464   0.317  17.111  0.3808 -0.0529  0.3674
  194MPD1    C3 2951   3.492   0.296  17.245  0.6244 -0.3152  0.7474
  194MPD1    C4 2952   3.397   0.320  17.342 -0.1645  0.6699 -0.7775
  194MPD1    C5 2953   3.283   0.384  17.310 -0.3212  0.3816 -0.9233
  194MPD1     H 2954   3.536   0.293  17.033  0.4161 -0.3511  0.4916
  194MPD1    H1 2955   3.409   0.285  17.444  0.2375 -0.6796 -1.2735
  194MPD1    H2 2956   3.172   0.484  17.159 -1.0002 -2.2637 -0.5306
  194MPD1    H3 2957   3.215   0.402  17.393  1.5116  0.4724  0.5540
  194MPD1     N 2958   3.605   0.221  17.283 -0.1149 -0.3293 -0.0103
  194MPD1    H5 2959   3.631   0.221  17.382 -0.7184  1.3584  0.1519
  194MPD1    N1 2960   3.317   0.409  16.943 -0.2601  0.2616 -0.0805
  194MPD1    H6 2961   3.393   0.400  16.876  0.6940 -2.1778  1.3133
  194MPD1    H7 2962   3.248   0.479  16.916  0.4326  0.2707 -1.7953
  195MPD1     C 2963   0.383   2.291   0.003  0.0357 -0.0976  0.0750
  195MPD1    C1 2964   0.337   2.168   0.052 -0.0883 -0.1329 -0.5756
  195MPD1    C2 2965   0.431   2.084   0.105 -0.1848  0.0207 -0.1302
  195MPD1    C3 2966   0.563   2.098   0.093  0.0663 -0.7088 -0.2544
  195MPD1    C4 2967   0.606   2.216   0.034  0.0500  1.2702 -1.0184
  195MPD1    C5 2968   0.520   2.312  17.685  0.5768 -1.1416  0.0092
  195MPD1     H 2969   0.387   2.003   0.162  0.1491 -0.8607 -1.1282
  195MPD1    H1 2970   0.711   2.242   0.029  0.4651 -0.6706 -2.3584
  195MPD1    H2 2971   0.313   2.369  17.668 -0.9890 -1.2009 -0.4579
  195MPD1    H3 2972   0.558   2.408  17.653 -2.5484 -0.2939 -1.2357
  195MPD1     N 2973   0.660   2.000   0.128 -0.4198 -0.1651  0.1544
  195MPD1    H5 2974   0.756   2.018   0.101  0.3241 -2.0509  1.5744
  195MPD1    N1 2975   0.198   2.145   0.067 -0.3832  0.0762  0.1689
  195MPD1    H6 2976   0.171   2.047   0.060  1.5778 -0.6019  1.9746
  195MPD1    H7 2977   0.135   2.193   0.004  0.8137  0.7815 -0.4753
  196MPD1     C 2978   0.349   0.819   0.862  0.2610  0.2095  0.6626
  196MPD1    C1 2979   0.260   0.869   0.773 -0.0208  0.1078  0.4804
  196MPD1    C2 2980   0.253   1.008   0.763  0.3332  0.0046  0.0441
  196MPD1    C3 2981   0.358   1.092   0.818  0.0610 -0.4600 -0.6754
  196MPD1    C4 2982   0.455   1.038   0.909 -0.0067  0.2452  0.2222
  196MPD1    C5 2983   0.446   0.901   0.926 -0.1315 -0.2868 -0.2566
  196MPD1     H 2984   0.175   1.045   0.698 -1.7406 -3.3343  0.6368
  196MPD1    H1 2985   0.536   1.088   0.962  1.7493 -0.1206 -2.1166
  196MPD1    H2 2986   0.357   0.713   0.882  0.3821  0.0143 -0.4227
  196MPD1    H3 2987   0.529   0.858   0.980  0.2862  1.6227  0.6204
  196MPD1     N 2988   0.373   1.234   0.798  0.6229 -0.0173  0.0625
  196MPD1    H5 2989   0.466   1.269   0.818 -0.0292  0.9283  1.4972
  196MPD1    N1 2990   0.167   0.791   0.703  0.2241  0.3485  0.0251
  196MPD1    H6 2991   0.185   0.693   0.681  0.8412  0.9203 -2.0660
  196MPD1    H7 2992   0.127   0.826   0.616 -0.5062 -2.0845 -0.6258
  197MPD1     C 2993   0.029   3.054   0.074 -0.6029 -0.0763 -0.9659
  197MPD1    C1 2994   0.094   3.158   0.124  0.2437 -0.5266  0.1918
  197MPD1    C2 2995   0.091   3.277   0.053 -0.0184  0.7679  0.0066
  197MPD1    C3 2996   0.037   3.278  17.615 -0.5193  0.2988  0.4372
  197MPD1    C4 2997   4.685   3.168  17.573 -0.0460  0.4114 -0.1989
  197MPD1    C5 2998   4.685   3.058  17.651 -0.2208  0.1275 -0.6044
  197MPD1     H 2999   0.152   3.358   0.094  2.4128 -1.1989  0.2817
  197MPD1    H1 3000   4.652   3.165  17.470 -0.5700 -1.9643  0.0288
  197MPD1    H2 3001   0.023   2.967   0.139 -0.9508 -0.4350 -1.4777
  197MPD1    H3 3002   4.637   2.966  17.621  0.6956  0.3459 -2.7370
  197MPD1     N 3003   0.043   3.385  17.524  0.0578 -0.3104 -0.1876
  197MPD1    H5 3004   0.010   3.360  17.431  0.1280  3.5440 -1.2447
  197MPD1    N1 3005   0.130   3.164   0.260 -0.7286  0.3031 -0.3276
  197MPD1    H6 3006   0.188   3.081   0.272 -2.6957 -1.0792 -0.4197
  197MPD1    H7 3007   0.192   3.241   0.284 -1.2961  0.9202 -0.8569
  198MPD1     C 3008   2.997   0.887  15.675  0.9563  0.3452  0.0228
  198MPD1    C1 3009   3.014   0.995  15.752  0.5235 -0.4317  0.7270
  198MPD1    C2 3010   2.950   1.110  15.707  0.0805 -0.0621  0.4148
  198MPD1    C3 3011   2.869   1.110  15.597  0.6210 -0.1170 -0.9394
  198MPD1    C4 3012   2.862   0.995  15.523 -0.4273 -0.0618 -0.2582
  198MPD1    C5 3013   2.923   0.879  15.566  0.2300  0.1126  0.4801
  198MPD1     H 3014   2.955   1.200  15.768 -0.0602 -1.3878  2.3625
  198MPD1    H1 3015   2.810   0.984  15.429 -1.1409 -0.4167  0.1711
  198MPD1    H2 3016   3.041   0.792  15.704 -1.0546  0.2190  2.6086
  198MPD1    H3 3017   2.910   0.785  15.514 -2.2639  1.2938 -1.0086
  198MPD1     N 3018   2.792   1.222  15.569 -0.2780 -0.4328  0.2135
  198MPD1    H5 3019   2.808   1.299  15.634 -0.0799  0.0145 -0.3678
  198MPD1    N1 3020   3.075   0.972  15.877  0.8049  0.2148 -0.0692
  198MPD1    H6 3021   3.105   1.050  15.936  1.1468  0.5183 -0.6475
  198MPD1    H7 3022   3.133   0.890  15.889  0.3689 -0.4717 -2.7064
  199MPD1     C 3023   3.819   2.389   8.215  0.1621  0.2170  0.1828
  199MPD1    C1 3024   3.894   2.277   8.228 -0.3218 -0.3239  0.9041
  199MPD1    C2 3025   3.851   2.175   8.317  0.6994  0.5751  0.2477
  199MPD1    C3 3026   3.751   2.202   8.406 -0.0624  0.2874  0.9613
  199MPD1    C4 3027   3.680   2.317   8.395  0.4741 -0.1983 -0.1404
  199MPD1    C5 3028   3.707   2.403   8.290  0.3650 -0.7557  0.1536
  199MPD1     H 3029   3.897   2.077   8.308  0.9852  0.7600 -0.2589
  199MPD1    H1 3030   3.603   2.353   8.462  0.8081 -0.9032  0.6195
  199MPD1    H2 3031   3.836   2.469   8.145 -0.1397  1.1312  1.1537
  199MPD1    H3 3032   3.641   2.489   8.294  1.1885 -0.0600 -1.4448
  199MPD1     N 3033   3.730   2.128   8.521 -0.4306 -0.5415 -0.2810
  199MPD1    H5 3034   3.654   2.166   8.576  0.2389  1.5827 -0.8480
  199MPD1    N1 3035   4.002   2.256   8.138 -0.3806 -0.6279 -0.4937
  199MPD1    H6 3036   4.049   2.340   8.107  0.4203 -1.3380 -1.1866
  199MPD1    H7 3037   4.060   2.179   8.171  0.9194 -0.3600 -2.2034
  200MPD1     C 3038   2.671   2.379  14.755 -0.7036  0.3641 -0.1637
  200MPD1    C1 3039   2.760   2.289  14.708  0.1451 -0.6258  0.5592
  200MPD1    C2 3040   2.892   2.327  14.704 -0.0489  0.4021 -0.4009
  200MPD1    C3 3041   2.933   2.440  14.772 -0.0408  0.8435  0.3521
  200MPD1    C4 3042   2.840   2.524  14.832  0.4883  0.4390  0.1185
  200MPD1    C5 3043   2.709   2.492  14.819 -0.1539 -0.2378  0.0094
  200MPD1     H 3044   2.967   2.279  14.642  3.2702  2.6404  1.8796
  200MPD1    H1 3045   2.865   2.615  14.885 -0.2309 -0.4599  2.0397
  200MPD1    H2 3046   2.565   2.362  14.740 -1.1846  2.2198  1.1291
  200MPD1    H3 3047   2.624   2.555  14.839 -0.8273 -0.6090 -1.6797
  200MPD1     N 3048   3.070   2.467  14.759  0.3658  0.3020  0.0641
  200MPD1    H5 3049   3.121   2.400  14.703  1.0864 -1.5076  2.8765
  200MPD1    N1 3050   2.719   2.175  14.634  0.2888 -0.8896  0.0312
  200MPD1    H6 3051   2.626   2.145  14.664  0.3758  1.0809  2.2239
  200MPD1    H7 3052   2.790   2.103  14.636 -1.5484 -2.7557 -1.7940
  201MPD1     C 3053   1.871   0.883  13.621  0.3903  0.1973  0.7474
  201MPD1    C1 3054   1.771   0.974  13.601  0.2680 -0.6014 -0.6743
  201MPD1    C2 3055   1.676   0.955  13.500 -0.2771  0.2546  0.5823
  201MPD1    C3 3056   1.688   0.851  13.410  0.0172  0.4177  0.1008
  201MPD1    C4 3057   1.781   0.760  13.441  0.5663 -0.0150 -0.1702
  201MPD1    C5 3058   1.874   0.779  13.543 -0.3074  0.0110 -1.0396
  201MPD1     H 3059   1.592   1.023  13.490 -0.4524 -0.0233  0.1745
  201MPD1    H1 3060   1.794   0.671  13.380  0.3990 -1.5791  2.0704
  201MPD1    H2 3061   1.946   0.893  13.700  1.2646  0.0991 -0.0708
  201MPD1    H3 3062   1.946   0.703  13.572 -1.3866  0.5263  3.0472
  201MPD1     N 3063   1.603   0.840  13.296  0.0770  0.3236 -0.3858
  201MPD1    H5 3064   1.534   0.909  13.271 -1.9544 -1.4176  0.3372
  201MPD1    N1 3065   1.767   1.099  13.674 -0.3278  0.0946 -0.5602
  201MPD1    H6 3066   1.805   1.076  13.766 -0.4858  1.2424 -0.2039
  201MPD1    H7 3067   1.677   1.147  13.682 -1.4911 -1.7949 -2.4022
  202MPD1     C 3068   0.612   1.587  10.820 -0.3681 -0.2754 -0.1827
  202MPD1    C1 3069   0.702   1.483  10.805 -0.0251  0.6563 -0.4946
  202MPD1    C2 3070   0.678   1.405  10.690 -0.2676 -0.0758  0.3735
  202MPD1    C3 3071   0.546   1.394  10.638 -0.6123  0.7493  0.4095
  202MPD1    C4 3072   0.452   1.480  10.685 -0.2177 -0.3603 -1.0057
  202MPD1    C5 3073   0.484   1.582  10.769 -0.4071  0.1561 -0.1372
  202MPD1     H 3074   0.752   1.330  10.663  0.3438  0.7740 -0.2886
  202MPD1    H1 3075   0.350   1.467  10.651 -0.1035 -0.5450 -1.2753
  202MPD1    H2 3076   0.641   1.677  10.873  0.3989  0.2289 -1.4616
  202MPD1    H3 3077   0.405   1.654  10.790 -1.2475 -0.5573 -0.8252
  202MPD1     N 3078   0.513   1.317  10.529  0.0980 -0.1340 -0.7023
  202MPD1    H5 3079   0.423   1.322  10.482 -0.5395 -0.1792  0.5007
  202MPD1    N1 3080   0.836   1.504  10.847 -0.1949  0.0253 -0.3423
  202MPD1    H6 3081   0.893   1.420  10.851 -0.2538 -0.0381 -0.9383
  202MPD1    H7 3082   0.830   1.543  10.941 -0.7541  1.5569 -1.0130
  203MPD1     C 3083   4.161   2.466  12.395 -0.4888 -0.1590  0.0304
  203MPD1    C1 3084   4.095   2.375  12.307 -0.0582 -0.0468  0.3998
  203MPD1    C2 3085   4.134   2.241  12.309  0.3346 -0.4088  0.4369
  203MPD1    C3 3086   4.233   2.192  12.387 -0.4051 -0.3762 -0.8078
  203MPD1    C4 3087   4.299   2.278  12.467 -0.2823  0.2141 -0.2523
  203MPD1    C5 3088   4.261   2.412  12.467 -0.3561  1.0376 -0.6525
  203MPD1     H 3089   4.085   2.171  12.242  0.8436 -1.5658  1.2674
  203MPD1    H1 3090   4.368   2.242  12.543  0.7005  1.3417 -0.6073
  203MPD1    H2 3091   4.130   2.568  12.415  1.1845  0.5245 -0.8816
  203MPD1    H3 3092   4.317   2.480  12.530  1.6228 -1.6234  0.4790
  203MPD1     N 3093   4.265   2.057  12.382  0.4756  0.4207  0.3077
  203MPD1    H5 3094   4.220   2.002  12.310 -0.9004  3.2596 -0.9910
  203MPD1    N1 3095   3.969   2.412  12.243 -0.9245  0.0118 -0.2861
  203MPD1    H6 3096   3.953   2.354  12.160 -0.3423 -1.5778  0.7137
  203MPD1    H7 3097   3.965   2.511  12.223 -0.2322 -0.1630 -1.2813
  204MPD1     C 3098   2.610   3.086  17.454 -0.3778 -0.0902  0.3439
  204MPD1    C1 3099   2.640   2.960  17.506 -0.0231 -0.7938  0.0471
  204MPD1    C2 3100   2.699   2.874  17.422 -0.0346 -0.1119  0.2707
  204MPD1    C3 3101   2.764   2.915  17.310  0.2095  0.5139 -0.0562
  204MPD1    C4 3102   2.761   3.048  17.270  0.1991  0.4463 -0.1710
  204MPD1    C5 3103   2.681   3.132  17.342  0.4734  0.7566 -0.3329
  204MPD1     H 3104   2.705   2.770  17.453 -3.0384 -0.9085 -1.8173
  204MPD1    H1 3105   2.816   3.096  17.190  0.5171 -0.1139 -0.2940
  204MPD1    H2 3106   2.552   3.162  17.506 -0.2979  1.3121 -1.5991
  204MPD1    H3 3107   2.664   3.229  17.297  1.2238  1.1549  0.2354
  204MPD1     N 3108   2.840   2.823  17.232 -0.0730 -0.3253  0.1979
  204MPD1    H5 3109   2.838   2.724  17.254 -3.5552 -0.9432 -2.8106
  204MPD1    N1 3110   2.584   2.915  17.625  0.0071 -0.3754 -0.7738
  204MPD1    H6 3111   2.647   2.844  17.659  1.6177  0.4692 -1.9929
  204MPD1    H7 3112   2.586   2.987   0.005  1.9337 -1.0873 -0.1248
  205MPD1     C 3113   4.178   1.898  17.032  0.6769  0.2493 -0.2725
  205MPD1    C1 3114   4.188   1.832  17.154 -0.3262  0.1923 -0.3984
  205MPD1    C2 3115   4.080   1.840  17.236  0.5818  0.4356  0.8320
  205MPD1    C3 3116   3.958   1.904  17.200 -0.1271 -0.6624 -0.2028
  205MPD1    C4 3117   3.953   1.963  17.073 -0.4014 -1.0206  0.5347
  205MPD1    C5 3118   4.058   1.956  16.992  0.1025 -0.6281  0.4547
  205MPD1     H 3119   4.066   1.780  17.325  0.5829  0.8439  1.1051
  205MPD1    H1 3120   3.857   1.997  17.035 -0.2149 -0.8405  0.2255
  205MPD1    H2 3121   4.255   1.890  16.956  2.5337  2.3318  1.3868
  205MPD1    H3 3122   4.060   2.006  16.896  2.7202 -1.8551 -0.1160
  205MPD1     N 3123   3.838   1.886  17.271  0.0564  0.7568  0.5884
  205MPD1    H5 3124   3.755   1.923  17.226 -0.7946  0.3086  1.7969
  205MPD1    N1 3125   4.296   1.747  17.181 -0.1503  0.2152 -0.0251
  205MPD1    H6 3126   4.385   1.793  17.165 -0.1544  0.9315  1.9096
  205MPD1    H7 3127   4.303   1.730  17.282 -3.6920 -2.8745 -0.3308
  206MPD1     C 3128   3.730   4.501  16.661 -0.2223  0.0574  0.7093
  206MPD1    C1 3129   3.718   4.383  16.591  0.3362 -0.0751 -0.0970
  206MPD1    C2 3130   3.707   4.389  16.451 -0.4120  0.2188 -0.7908
  206MPD1    C3 3131   3.711   4.512  16.387  1.3077 -0.1397 -0.1814
  206MPD1    C4 3132   3.695   4.623  16.460 -0.1656  1.2565  0.2539
  206MPD1    C5 3133   3.715   4.618  16.598 -0.8582  0.2528 -0.2762
  206MPD1     H 3134   3.713   4.294  16.399  0.3750  0.2540 -0.7630
  206MPD1    H1 3135   3.686   4.720  16.412  0.2413  0.6965 -0.9491
  206MPD1    H2 3136   3.751   4.510  16.767 -1.5790 -0.7532  1.0468
  206MPD1    H3 3137   3.724   4.716  16.644  1.0096  0.4055 -0.9811
  206MPD1     N 3138   3.721   4.534  16.248 -0.3486  0.0727 -0.2159
  206MPD1    H5 3139   3.718   4.632  16.224  0.1330  0.5340  1.5934
  206MPD1    N1 3140   3.753   4.264  16.659 -0.4277  0.6894 -1.0629
  206MPD1    H6 3141   3.710   4.182  16.617  2.9593 -1.9275  0.5367
  206MPD1    H7 3142   3.710   4.264  16.752 -1.4088  1.6352 -1.5085
  207MPD1     C 3143   1.716   2.029   9.205  0.3353 -0.3975  0.2764
  207MPD1    C1 3144   1.658   1.915   9.257 -0.5720  0.8135 -0.0147
  207MPD1    C2 3145   1.683   1.885   9.393  0.6779  0.0285  1.4147
  207MPD1    C3 3146   1.760   1.965   9.469 -0.2186 -0.1543  0.1708
  207MPD1    C4 3147   1.808   2.085   9.418  0.4879 -0.2863  0.2847
  207MPD1    C5 3148   1.785   2.116   9.285 -0.2919  0.3840  0.0656
  207MPD1     H 3149   1.644   1.792   9.432 -0.0282 -0.1665  0.2332
  207MPD1    H1 3150   1.876   2.148   9.474 -0.7724  0.1896  1.2878
  207MPD1    H2 3151   1.705   2.047   9.098 -0.5840  2.1532  0.8022
  207MPD1    H3 3152   1.835   2.200   9.238  1.9358  0.3973  2.4340
  207MPD1     N 3153   1.786   1.943   9.605 -0.1110  0.0267  0.2657
  207MPD1    H5 3154   1.839   2.018   9.648 -0.8904  1.4549 -1.2721
  207MPD1    N1 3155   1.606   1.816   9.178  0.5309 -0.1016  0.0468
  207MPD1    H6 3156   1.524   1.784   9.229  1.0044 -0.9644  0.2563
  207MPD1    H7 3157   1.564   1.851   9.092  1.0600  1.2145  0.3177
  208MPD1     C 3158   4.495   1.404  17.601  0.3824  0.3507  0.7467
  208MPD1    C1 3159   4.425   1.290  17.549  0.8784  0.7587 -0.0013
  208MPD1    C2 3160   4.368   1.213  17.647 -0.1763 -0.4879 -0.4423
  208MPD1    C3 3161   4.380   1.236   0.089 -0.8913  0.8943  0.0593
  208MPD1    C4 3162   4.460   1.336   0.134 -0.3358 -0.4004  0.1901
  208MPD1    C5 3163   4.512   1.424   0.043 -0.4141 -0.6330 -0.0927
  208MPD1     H 3164   4.291   1.145  17.613 -0.7386  0.0972 -0.3455
  208MPD1    H1 3165   4.470   1.363   0.238 -0.5746 -0.4895  0.2363
  208MPD1    H2 3166   4.529   1.487  17.541  1.4391 -0.6943 -0.0897
  208MPD1    H3 3167   4.552   1.521   0.070 -1.9262  0.8909 -3.3930
  208MPD1     N 3168   4.302   1.156   0.186  0.8738 -0.2830  0.2663
  208MPD1    H5 3169   4.246   1.082   0.146  0.6033  0.0890 -0.0522
  208MPD1    N1 3170   4.394   1.282  17.415 -0.5253  0.1597 -0.2237
  208MPD1    H6 3171   4.359   1.190  17.390 -0.0432  0.0686 -0.5685
  208MPD1    H7 3172   4.469   1.316  17.356 -0.0812  0.9192  0.7748
  209MPD1     C 3173   2.099   0.416  10.379  0.4230  0.2871  0.4856
  209MPD1    C1 3174   2.002   0.497  10.331 -0.1719  0.0449  1.1090
  209MPD1    C2 3175   2.001   0.630  10.377  0.1144 -0.1355 -0.7342
  209MPD1    C3 3176   2.083   0.671  10.484  0.4661  0.3752  0.2371
  209MPD1    C4 3177   2.178   0.579  10.534 -0.2307 -0.6141  0.5086
  209MPD1    C5 3178   2.178   0.455  10.479  0.1595 -0.0983 -0.4104
  209MPD1     H 3179   1.936   0.697  10.322 -0.2915 -0.5283 -0.7380
  209MPD1    H1 3180   2.233   0.605  10.623  1.3738 -2.6562  0.1118
  209MPD1    H2 3181   2.114   0.319  10.332  0.4891  0.5756 -0.0916
  209MPD1    H3 3182   2.240   0.379  10.525  1.1639  1.3174  0.5703
  209MPD1     N 3183   2.075   0.803  10.525  0.2428  0.1158 -0.0845
  209MPD1    H5 3184   2.007   0.861  10.478  0.5129  1.9612  1.7906
  209MPD1    N1 3185   1.931   0.472  10.215 -0.3562 -0.2330 -0.3558
  209MPD1    H6 3186   1.920   0.378  10.180 -1.3935 -0.4149  0.4636
  209MPD1    H7 3187   1.848   0.529  10.201  0.6823  1.4785  0.4169
  210MPD1     C 3188   2.222   1.645  11.217 -1.1938  1.0068  0.6490
  210MPD1    C1 3189   2.222   1.510  11.246  0.1673 -0.2575 -0.0918
  210MPD1    C2 3190   2.213   1.420  11.133 -0.5641  0.4744 -0.2691
  210MPD1    C3 3191   2.199   1.463  10.999 -0.0495  0.1028 -0.0077
  210MPD1    C4 3192   2.186   1.602  10.979  0.1754  0.1288  0.7178
  210MPD1    C5 3193   2.198   1.686  11.091 -0.1782 -0.6043 -0.2427
  210MPD1     H 3194   2.224   1.314  11.151  0.6909  0.2046 -2.5983
  210MPD1    H1 3195   2.165   1.644  10.882  1.3374 -0.7794  0.0686
  210MPD1    H2 3196   2.228   1.718  11.297 -1.1485  0.4949  1.1119
  210MPD1    H3 3197   2.198   1.794  11.082 -1.5434 -0.6068 -0.3203
  210MPD1     N 3198   2.179   1.376  10.888  0.2597  0.1390 -0.0591
  210MPD1    H5 3199   2.147   1.430  10.808  2.2506  1.8552  0.3149
  210MPD1    N1 3200   2.243   1.464  11.377 -0.7468  0.5014 -0.0138
  210MPD1    H6 3201   2.293   1.375  11.382 -1.6237 -0.0466 -0.8986
  210MPD1    H7 3202   2.285   1.538  11.433 -0.4090  0.0288  0.3555
  211MPD1     C 3203   4.647   1.219  16.799 -0.2037  0.4137 -0.1693
  211MPD1    C1 3204   4.612   1.349  16.787 -0.2120 -0.3109 -0.6321
  211MPD1    C2 3205   4.483   1.386  16.784 -0.8541 -0.1603 -0.0226
  211MPD1    C3 3206   4.379   1.290  16.778 -0.4798 -0.0723 -0.3935
  211MPD1    C4 3207   4.416   1.158  16.760  0.5663  0.0180  0.4097
  211MPD1    C5 3208   4.548   1.126  16.777  0.1405  0.1745  0.6431
  211MPD1     H 3209   4.459   1.491  16.792  0.4297  0.1167  0.1948
  211MPD1    H1 3210   4.340   1.082  16.746  0.8890 -0.4129  0.9607
  211MPD1    H2 3211   0.021   1.176  16.823  0.2265  0.7301 -1.3640
  211MPD1    H3 3212   4.573   1.020  16.772  0.4609  0.1827  1.9540
  211MPD1     N 3213   4.242   1.324  16.766 -0.0896  0.1998 -0.0353
  211MPD1    H5 3214   4.230   1.425  16.765  0.2427  0.2439  0.3849
  211MPD1    N1 3215   4.717   1.448  16.803  0.1478 -0.0645  0.6227
  211MPD1    H6 3216   0.089   1.420  16.780  0.4787  0.2596  1.5763
  211MPD1    H7 3217   4.699   1.537  16.756 -1.0774 -0.7999 -0.3161
  212MPD1     C 3218   3.462   0.340  16.288  0.4380  0.2977  0.2355
  212MPD1    C1 3219   3.524   0.352  16.410 -0.4657 -0.1498 -0.8889
  212MPD1    C2 3220   3.493   0.255  16.501  0.0679 -0.6677  0.2234
  212MPD1    C3 3221   3.427   0.138  16.462 -0.6136 -0.1830 -0.1163
  212MPD1    C4 3222   3.368   0.127  16.340  0.4207 -0.1654 -0.0893
  212MPD1    C5 3223   3.382   0.233  16.251 -0.4446  0.0952 -0.3385
  212MPD1     H 3224   3.526   0.260  16.604 -0.4564  0.1261  0.3478
  212MPD1    H1 3225   3.317   0.036  16.312 -0.0656  0.1294 -0.1724
  212MPD1    H2 3226   3.469   0.417  16.212  1.2836 -0.7169 -0.7036
  212MPD1    H3 3227   3.327   0.234  16.157  2.9784  2.7224 -2.2769
  212MPD1     N 3228   3.405   0.034  16.552 -0.0763  0.0193 -0.0906
  212MPD1    H5 3229   3.370   4.667  16.519  0.9635 -0.5382  0.3089
  212MPD1    N1 3230   3.583   0.469  16.451  0.3858 -0.0420 -0.2352
  212MPD1    H6 3231   3.661   0.446  16.512  0.0745 -2.1354 -0.6113
  212MPD1    H7 3232   3.633   0.517  16.376  1.2096  0.9423  0.9440
  213MPD1     C 3233   1.408   0.932  15.984 -0.4807 -0.3496 -0.9850
  213MPD1    C1 3234   1.338   0.833  15.920  0.4548  0.1421  0.1755
  213MPD1    C2 3235   1.352   0.827  15.782 -0.7914  0.7660  0.2254
  213MPD1    C3 3236   1.399   0.932  15.708 -0.1326  0.1171  0.0757
  213MPD1    C4 3237   1.456   1.038  15.777 -0.6274 -0.2106  0.3971
  213MPD1    C5 3238   1.457   1.036  15.917  1.0591 -0.3016  0.6621
  213MPD1     H 3239   1.335   0.731  15.733 -2.6225  2.3447 -2.2192
  213MPD1    H1 3240   1.512   1.114  15.723  0.7980  0.5217  2.9065
  213MPD1    H2 3241   1.411   0.946  16.091 -0.6631 -0.2368 -0.9943
  213MPD1    H3 3242   1.511   1.115  15.967  0.6471  0.5361 -0.2008
  213MPD1     N 3243   1.387   0.920  15.562 -0.2788  0.1501  0.2090
  213MPD1    H5 3244   1.329   0.845  15.524 -0.8935  1.3225 -1.1538
  213MPD1    N1 3245   1.311   0.716  15.987  0.1935  0.1767 -0.1888
  213MPD1    H6 3246   1.241   0.655  15.947 -0.8115  0.3843  1.2467
  213MPD1    H7 3247   1.292   0.733  16.086  0.1160  1.3406 -0.3967
  214MPD1     C 3248   0.747   0.499  15.219  0.2658  0.0231  0.0126
  214MPD1    C1 3249   0.781   0.573  15.108 -0.4240 -0.2275  0.0605
  214MPD1    C2 3250   0.875   0.666  15.117 -0.3349 -0.2471  0.2556
  214MPD1    C3 3251   0.969   0.663  15.221  0.0196 -0.7115 -0.0219
  214MPD1    C4 3252   0.951   0.574  15.326  0.7405  0.1601 -0.4187
  214MPD1    C5 3253   0.836   0.498  15.324  0.0974  0.6415 -0.1716
  214MPD1     H 3254   0.891   0.738  15.038  1.2598 -1.9497 -0.9562
  214MPD1    H1 3255   1.022   0.567  15.408  1.1350 -1.5986 -0.9150
  214MPD1    H2 3256   0.657   0.439  15.226 -0.4870  1.3421  1.9524
  214MPD1    H3 3257   0.822   0.440  15.414 -1.9927  2.4708  0.6740
  214MPD1     N 3258   1.088   0.739  15.221 -0.3619  0.2187  0.5514
  214MPD1    H5 3259   1.140   0.717  15.305 -0.9881 -2.5532  0.2337
  214MPD1    N1 3260   0.688   0.564  15.002  0.3408 -0.4849  0.4195
  214MPD1    H6 3261   0.735   0.582  14.913  1.4154 -1.5074  0.7818
  214MPD1    H7 3262   0.642   0.474  14.991  0.2031 -0.2107 -1.2353
  215MPD1     C 3263   1.649   0.995  10.876 -0.0961 -0.0404 -0.3644
  215MPD1    C1 3264   1.719   1.004  10.999  0.3936  0.0351  0.2978
  215MPD1    C2 3265   1.782   1.120  11.041 -0.2055  0.1559 -0.7692
  215MPD1    C3 3266   1.771   1.236  10.963 -0.6687  0.0936 -0.3741
  215MPD1    C4 3267   1.691   1.231  10.851  0.0228 -0.7880 -0.3213
  215MPD1    C5 3268   1.641   1.109  10.805  0.3822 -0.0539  0.2298
  215MPD1     H 3269   1.851   1.117  11.124  0.1431 -1.1295 -1.0929
  215MPD1    H1 3270   1.662   1.314  10.788  2.5590 -1.2672 -2.0961
  215MPD1    H2 3271   1.616   0.899  10.838 -0.2529  1.0066 -2.8359
  215MPD1    H3 3272   1.575   1.112  10.719  1.2730 -0.6184 -0.4707
  215MPD1     N 3273   1.838   1.357  11.005 -0.5130  0.7936  0.4749
  215MPD1    H5 3274   1.864   1.360  11.103  0.8455  2.4880  0.0572
  215MPD1    N1 3275   1.734   0.886  11.078  0.3950  0.2125 -0.2006
  215MPD1    H6 3276   1.663   0.813  11.074 -0.0748  0.5606  2.0432
  215MPD1    H7 3277   1.757   0.893  11.177  0.8896  0.5963 -0.3441
  216MPD1     C 3278   3.651   4.491   0.255 -0.1830  0.2373  0.0276
  216MPD1    C1 3279   3.749   4.449   0.337 -0.1108 -0.2051 -0.1486
  216MPD1    C2 3280   3.853   4.380   0.288  0.3330 -0.0808  0.4985
  216MPD1    C3 3281   3.855   4.336   0.156 -0.5627  0.0961  0.4658
  216MPD1    C4 3282   3.748   4.369   0.073  0.5928 -0.0160  0.6593
  216MPD1    C5 3283   3.647   4.454   0.126  0.4745  0.0909 -0.1602
  216MPD1     H 3284   3.922   4.341   0.363  1.3767 -0.1809 -0.5227
  216MPD1    H1 3285   3.748   4.340  17.660  0.0324 -0.0783  0.6779
  216MPD1    H2 3286   3.587   4.566   0.301  2.3554  2.1805  0.3804
  216MPD1    H3 3287   3.568   4.495   0.064  0.3820  1.8736  1.1404
  216MPD1     N 3288   3.972   4.264   0.110  0.7074 -0.3478 -0.1581
  216MPD1    H5 3289   4.051   4.271   0.173 -0.2712  2.8445  0.7279
  216MPD1    N1 3290   3.749   4.487   0.472  0.0242 -0.6544 -0.6251
  216MPD1    H6 3291   3.655   4.503   0.507  0.3790  0.0755 -0.0134
  216MPD1    H7 3292   3.778   4.424   0.546  1.2792  1.5316  0.7401
  217MPD1     C 3293   4.090   0.102   9.235  0.3704 -0.1954  0.0159
  217MPD1    C1 3294   4.230   0.120   9.250  0.1550 -0.0145  0.5761
  217MPD1    C2 3295   4.276   0.225   9.328 -0.0202 -0.0824 -0.4846
  217MPD1    C3 3296   4.177   0.308   9.384  0.0355 -0.4426 -0.8863
  217MPD1    C4 3297   4.043   0.291   9.357  0.1215 -0.2429  0.1893
  217MPD1    C5 3298   4.000   0.195   9.284 -0.5153 -1.1037  0.0181
  217MPD1     H 3299   4.382   0.241   9.342 -0.1931  0.4249  0.2653
  217MPD1    H1 3300   3.973   0.359   9.406 -1.8456 -2.0850 -0.0481
  217MPD1    H2 3301   4.059   0.015   9.178 -1.1213  0.9043 -0.8330
  217MPD1    H3 3302   3.899   0.171   9.250 -0.3809 -2.3603  0.5117
  217MPD1     N 3303   4.201   0.414   9.471 -0.4024 -0.5659  0.0029
  217MPD1    H5 3304   4.126   0.477   9.498 -1.4962 -1.0588 -1.8844
  217MPD1    N1 3305   4.319   0.022   9.208 -0.3408 -0.6171 -0.0031
  217MPD1    H6 3306   4.268   4.707   9.128 -1.4684 -0.9837  0.8904
  217MPD1    H7 3307   4.407   0.062   9.175 -1.1482  2.3824  1.4307
  218MPD1     C 3308   0.798   2.105  12.746  0.0388 -0.5247 -0.6723
  218MPD1    C1 3309   0.914   2.146  12.684 -0.6315 -0.2115 -0.3051
  218MPD1    C2 3310   1.014   2.054  12.664 -0.1982 -0.2522  0.0776
  218MPD1    C3 3311   1.003   1.927  12.719  0.2221  0.1210 -0.7014
  218MPD1    C4 3312   0.888   1.897  12.794 -0.5091 -0.1291  0.0116
  218MPD1    C5 3313   0.783   1.982  12.802 -0.0359  0.0225  0.5228
  218MPD1     H 3314   1.103   2.075  12.605 -1.1526  0.3628 -1.1425
  218MPD1    H1 3315   0.877   1.802  12.845  1.3301 -1.5165 -2.1470
  218MPD1    H2 3316   0.710   2.167  12.744  0.4336 -0.0129 -2.8454
  218MPD1    H3 3317   0.691   1.954  12.851 -0.8511 -0.0907 -1.0955
  218MPD1     N 3318   1.110   1.839  12.700  0.1765 -0.2362  0.1981
  218MPD1    H5 3319   1.196   1.870  12.657 -0.0918  0.4559  0.1595
  218MPD1    N1 3320   0.914   2.268  12.625 -0.0366  0.0827 -0.1711
  218MPD1    H6 3321   1.003   2.311  12.598  1.1714 -1.0634  1.9456
  218MPD1    H7 3322   0.872   2.340  12.683 -0.2848 -0.1286 -0.0866
  219MPD1     C 3323   2.031   1.884  12.464  0.1317 -0.0495 -0.2641
  219MPD1    C1 3324   1.930   1.877  12.373  0.2176 -0.6390  0.1309
  219MPD1    C2 3325   1.814   1.819  12.414 -0.1676  0.3011  0.3407
  219MPD1    C3 3326   1.791   1.760  12.543 -1.3919 -0.0329  0.0555
  219MPD1    C4 3327   1.902   1.769  12.631  0.3615 -0.7229 -0.8063
  219MPD1    C5 3328   2.020   1.834  12.595 -0.1236  0.4004 -0.0785
  219MPD1     H 3329   1.728   1.829  12.349 -0.1559 -0.7759  0.1574
  219MPD1    H1 3330   1.889   1.721  12.728 -2.5373 -1.8200 -1.7426
  219MPD1    H2 3331   2.123   1.930  12.432  1.0778 -1.3985  0.5265
  219MPD1    H3 3332   2.104   1.839  12.664  1.3896  0.5207 -1.9308
  219MPD1     N 3333   1.669   1.717  12.591 -0.1567 -0.3757  0.5583
  219MPD1    H5 3334   1.669   1.670  12.681 -0.1928 -0.2631  0.6173
  219MPD1    N1 3335   1.947   1.929  12.246 -0.3589 -0.1589 -0.2496
  219MPD1    H6 3336   1.853   1.943  12.207 -1.3693 -2.2194  1.4726
  219MPD1    H7 3337   1.994   2.019  12.252 -0.3010 -0.1844 -0.3206
  220MPD1     C 3338   1.450   2.109   9.515  0.5962  0.7415  0.1281
  220MPD1    C1 3339   1.485   2.203   9.610  0.2003  0.0149  0.0550
  220MPD1    C2 3340   1.430   2.183   9.735  0.2282  0.1533 -0.1037
  220MPD1    C3 3341   1.371   2.067   9.769  0.5351  0.0267 -0.3734
  220MPD1    C4 3342   1.370   1.956   9.678 -0.6100 -0.1404 -0.6608
  220MPD1    C5 3343   1.404   1.983   9.554 -0.2660 -0.3669 -0.2952
  220MPD1     H 3344   1.443   2.261   9.809 -1.4563  0.2587  0.0672
  220MPD1    H1 3345   1.330   1.857   9.697  0.4510 -0.4729 -0.1590
  220MPD1    H2 3346   1.490   2.113   9.414  0.0249  1.7771 -0.0582
  220MPD1    H3 3347   1.397   1.901   9.483  0.8123 -1.4298  0.8170
  220MPD1     N 3348   1.316   2.055   9.901  0.5266  0.0702  0.6385
  220MPD1    H5 3349   1.353   2.124   9.965  0.8801 -0.7786  1.3582
  220MPD1    N1 3350   1.526   2.330   9.573 -0.2160  0.5271  0.2047
  220MPD1    H6 3351   1.589   2.328   9.493  2.2635 -0.9237  2.1908
  220MPD1    H7 3352   1.575   2.373   9.652  0.3798 -0.7230  0.5160
  221MPD1     C 3353   4.405   0.257  16.259 -0.2839 -0.6711  0.0887
  221MPD1    C1 3354   4.408   0.359  16.354 -0.4378  1.1745  0.4932
  221MPD1    C2 3355   4.291   0.430  16.385  0.0998  0.1863  0.3634
  221MPD1    C3 3356   4.170   0.411  16.320 -0.3153 -0.1925 -0.0779
  221MPD1    C4 3357   4.173   0.311  16.220 -0.4445  0.8503  0.0205
  221MPD1    C5 3358   4.288   0.228  16.195 -0.3213  0.4149 -0.9810
  221MPD1     H 3359   4.295   0.511  16.457 -0.1944  0.0852  0.4939
  221MPD1    H1 3360   4.077   0.292  16.173 -0.3776 -1.2714  0.7571
  221MPD1    H2 3361   4.489   0.194  16.235  0.8556  1.2675 -0.9503
  221MPD1    H3 3362   4.294   0.149  16.121  0.7006 -0.5181  0.0992
  221MPD1     N 3363   4.053   0.489  16.335 -0.0383  0.2016  0.0991
  221MPD1    H5 3364   3.967   0.447  16.301  0.2759 -0.4310  0.0677
  221MPD1    N1 3365   4.523   0.369  16.433 -0.1556 -0.4439 -0.1969
  221MPD1    H6 3366   4.531   0.464  16.467  1.1991 -0.6129 -0.0537
  221MPD1    H7 3367   4.609   0.350  16.382 -1.1987 -2.9482 -1.0512
  222MPD1     C 3368   4.653   4.362   0.686 -0.5060  0.4983  0.0133
  222MPD1    C1 3369   4.656   4.501   0.666  0.7212 -0.0912 -0.3909
  222MPD1    C2 3370   4.603   4.549   0.553 -0.0886  0.3197 -0.6145
  222MPD1    C3 3371   4.529   4.463   0.466 -0.7541 -0.2854 -0.9014
  222MPD1    C4 3372   4.518   4.333   0.487  0.5272  0.1414 -0.0478
  222MPD1    C5 3373   4.581   4.284   0.594 -0.0837  0.1865 -0.3118
  222MPD1     H 3374   4.610   4.654   0.530  1.2472  1.2500  4.1056
  222MPD1    H1 3375   4.453   4.266   0.432 -0.0649 -0.7977  1.7870
  222MPD1    H2 3376   4.709   4.313   0.764  1.4667  0.3327 -1.5237
  222MPD1    H3 3377   4.594   4.177   0.605 -1.8860 -0.0764 -0.6434
  222MPD1     N 3378   4.447   4.522   0.371 -0.7374  0.5574 -0.4604
  222MPD1    H5 3379   4.380   4.456   0.334 -0.5763 -0.7137  1.4995
  222MPD1    N1 3380   0.021   4.570   0.749  0.1317  0.8887 -1.0574
  222MPD1    H6 3381   4.709   4.666   0.759 -0.2590  0.7847 -1.3974
  222MPD1    H7 3382   0.039   4.529   0.840 -0.6779 -0.1941 -1.3751
  223MPD1     C 3383   3.830   4.384  17.297 -0.1961 -0.2761  0.0124
  223MPD1    C1 3384   3.757   4.471  17.376 -1.0405 -0.6113  0.0316
  223MPD1    C2 3385   3.824   4.541  17.474  0.3226 -0.2092  0.6914
  223MPD1    C3 3386   3.950   4.518  17.507  0.4797  0.9629 -0.0161
  223MPD1    C4 3387   4.024   4.431  17.424 -0.4226  0.4909 -0.0384
  223MPD1    C5 3388   3.964   4.366  17.318  0.5954 -0.4085 -0.3809
  223MPD1     H 3389   3.769   4.618  17.528 -1.3127 -1.6997  1.1237
  223MPD1    H1 3390   4.132   4.423  17.431 -0.3472  0.5504 -1.1250
  223MPD1    H2 3391   3.801   4.344  17.201 -1.0512 -1.8866  0.9400
  223MPD1    H3 3392   4.016   4.303  17.246  1.9035  0.7495 -0.4471
  223MPD1     N 3393   4.000   4.585  17.619  0.6560 -0.8153  0.2130
  223MPD1    H5 3394   3.942   4.649  17.672  0.3050 -1.2864  0.4027
  223MPD1    N1 3395   3.631   4.517  17.328 -0.1203 -0.1891  0.2741
  223MPD1    H6 3396   3.575   4.559  17.402 -0.0882  0.1659  0.0987
  223MPD1    H7 3397   3.581   4.436  17.290 -0.3100  0.5469 -1.0667
  224MPD1     C 3398   3.586   1.455   9.771  0.7413 -0.1412  0.5424
  224MPD1    C1 3399   3.682   1.499   9.850 -0.3214  1.0323 -0.0170
  224MPD1    C2 3400   3.778   1.574   9.789  0.5519  0.0567 -0.3641
  224MPD1    C3 3401   3.786   1.587   9.652 -0.1312  0.0483 -0.1948
  224MPD1    C4 3402   3.693   1.526   9.577  0.5215  0.6987 -0.7353
  224MPD1    C5 3403   3.586   1.470   9.636 -0.4856 -0.8366  0.5033
  224MPD1     H 3404   3.843   1.627   9.859 -1.2088  1.9424 -0.1628
  224MPD1    H1 3405   3.696   1.517   9.469  2.2191  3.8770 -0.9432
  224MPD1    H2 3406   3.502   1.399   9.811 -0.2034  2.5748  2.2800
  224MPD1    H3 3407   3.513   1.421   9.573 -0.9201  1.2060 -0.6063
  224MPD1     N 3408   3.887   1.670   9.597  0.3981 -0.3075  0.4258
  224MPD1    H5 3409   3.885   1.676   9.496 -1.2146  0.6934  0.5223
  224MPD1    N1 3410   3.674   1.508   9.992 -0.0494 -0.0409 -0.0950
  224MPD1    H6 3411   3.759   1.530  10.044  0.1415 -0.4297 -0.2422
  224MPD1    H7 3412   3.630   1.423  10.026  0.8276  0.0363  1.2461
  225MPD1     C 3413   1.394   2.520  12.008  1.0860 -0.2598 -0.3705
  225MPD1    C1 3414   1.310   2.465  11.909 -0.4333 -0.2366 -0.7112
  225MPD1    C2 3415   1.181   2.513  11.903  0.0873 -0.6997  0.1099
  225MPD1    C3 3416   1.127   2.604  11.995 -0.1590  0.3525 -0.3954
  225MPD1    C4 3417   1.206   2.645  12.096  0.0025  0.0941 -0.4022
  225MPD1    C5 3418   1.340   2.607  12.097  0.2181  0.4218  0.1662
  225MPD1     H 3419   1.115   2.475  11.826 -0.7281  0.5242  0.1966
  225MPD1    H1 3420   1.165   2.717  12.165  1.6137  0.5488  0.0724
  225MPD1    H2 3421   1.498   2.496  12.028  1.8174  1.7326 -1.8048
  225MPD1    H3 3422   1.404   2.649  12.174  1.3363 -1.7975  0.4535
  225MPD1     N 3423   0.997   2.654  11.990 -0.5867  0.7082 -0.1424
  225MPD1    H5 3424   0.978   2.727  12.057  1.0912  1.2487 -0.2531
  225MPD1    N1 3425   1.361   2.391  11.801  0.1249 -0.1970  0.1517
  225MPD1    H6 3426   1.299   2.314  11.779  1.4290 -1.4879  0.9743
  225MPD1    H7 3427   1.451   2.351  11.828  0.3966 -0.4159 -1.0743
  226MPD1     C 3428   4.274   2.929   8.853  0.2785  0.2689 -0.4982
  226MPD1    C1 3429   4.341   2.885   8.963  0.0511 -0.2678 -0.2685
  226MPD1    C2 3430   4.369   2.755   8.972 -0.7629 -0.5041 -0.0579
  226MPD1    C3 3431   4.331   2.666   8.874 -0.3146  0.6924 -0.2410
  226MPD1    C4 3432   4.263   2.714   8.763  0.2470  0.5553  0.0547
  226MPD1    C5 3433   4.229   2.842   8.763 -0.6669  0.4094  0.5094
  226MPD1     H 3434   4.428   2.717   9.055 -3.9843 -1.7068  1.7008
  226MPD1    H1 3435   4.222   2.652   8.684  2.5704  1.9938 -2.3059
  226MPD1    H2 3436   4.265   3.037   8.846  0.1817  0.2673 -0.3960
  226MPD1    H3 3437   4.182   2.880   8.673  0.0395  1.4406  0.5646
  226MPD1     N 3438   4.373   2.531   8.897 -0.4634 -0.3527 -0.5025
  226MPD1    H5 3439   4.413   2.511   8.988 -0.6699  0.3124 -0.2689
  226MPD1    N1 3440   4.408   2.979   9.051  0.0179 -0.0125 -0.1060
  226MPD1    H6 3441   4.414   2.951   9.149  0.9301  1.8993  0.3873
  226MPD1    H7 3442   4.351   3.064   9.048  0.3250  0.1678 -0.8382
  227MPD1     C 3443   4.528   1.496   8.632 -0.3254 -0.8035  0.3751
  227MPD1    C1 3444   4.591   1.511   8.752  0.3320 -0.4560 -0.3610
  227MPD1    C2 3445   4.598   1.638   8.808  0.0502 -0.0474 -0.3843
  227MPD1    C3 3446   4.545   1.749   8.740 -0.4344 -0.5483  0.1982
  227MPD1    C4 3447   4.484   1.727   8.618 -0.0361 -0.3640  0.7628
  227MPD1    C5 3448   4.470   1.599   8.563  0.1872  0.4482  0.2308
  227MPD1     H 3449   4.649   1.653   8.902 -0.5880 -0.2999  0.0042
  227MPD1    H1 3450   4.432   1.807   8.567  1.5992 -0.9905 -1.9184
  227MPD1    H2 3451   4.522   1.395   8.593  2.0057 -0.7842 -0.0812
  227MPD1    H3 3452   4.416   1.586   8.469  0.7407  1.2868 -0.1987
  227MPD1     N 3453   4.545   1.870   8.806 -0.1509  0.2086 -0.1183
  227MPD1    H5 3454   4.589   1.867   8.898  0.6632  0.3447 -0.5035
  227MPD1    N1 3455   4.628   1.398   8.832  0.1761  0.1684  0.0135
  227MPD1    H6 3456   4.711   1.422   8.886  0.9117  0.9263 -1.4573
  227MPD1    H7 3457   4.661   1.322   8.773 -0.6358 -1.0840  1.1841
  228MPD1     C 3458   3.069   3.948  13.214 -0.4495 -0.7224  0.6646
  228MPD1    C1 3459   2.942   3.937  13.271 -0.1655 -0.1372  0.9734
  228MPD1    C2 3460   2.850   4.028  13.235 -0.6561 -0.1027  0.2300
  228MPD1    C3 3461   2.860   4.121  13.136 -0.4389 -0.3359  0.0023
  228MPD1    C4 3462   2.983   4.133  13.082 -0.1770 -0.4352  0.4953
  228MPD1    C5 3463   3.077   4.049  13.120  0.0461 -0.0736  0.1845
  228MPD1     H 3464   2.753   4.033  13.284 -0.5746  0.7395  0.3077
  228MPD1    H1 3465   3.006   4.205  13.004 -2.0367  0.9445  1.2372
  228MPD1    H2 3466   3.148   3.874  13.214 -0.2241 -0.4904 -0.2551
  228MPD1    H3 3467   3.173   4.063  13.071  0.3625  4.4830  2.0687
  228MPD1     N 3468   2.753   4.202  13.092  0.0717 -0.1782  0.0180
  228MPD1    H5 3469   2.663   4.182  13.133  1.1983 -1.0868  2.0066
  228MPD1    N1 3470   2.915   3.824  13.355  0.4337  0.2346  0.4451
  228MPD1    H6 3471   2.992   3.792  13.414  0.7440  0.4975  0.1771
  228MPD1    H7 3472   2.841   3.853  13.419 -0.5526 -0.7328 -0.2458
  229MPD1     C 3473   1.860   3.926  14.071  0.2912  0.0794 -0.7846
  229MPD1    C1 3474   1.890   4.008  14.184 -0.3352 -0.0104 -0.2062
  229MPD1    C2 3475   1.965   3.957  14.294 -0.3303 -0.0103 -0.5877
  229MPD1    C3 3476   1.990   3.819  14.292 -0.3134  0.4536 -0.7653
  229MPD1    C4 3477   1.959   3.740  14.183  0.2839 -0.5610 -0.7094
  229MPD1    C5 3478   1.898   3.800  14.073 -0.6999 -0.2896  0.3545
  229MPD1     H 3479   2.003   4.019  14.374  1.1367 -0.2557 -1.0854
  229MPD1    H1 3480   1.954   3.633  14.197 -3.8793 -0.6998 -3.0005
  229MPD1    H2 3481   1.804   3.975  13.992  1.0526 -1.6436 -2.3718
  229MPD1    H3 3482   1.871   3.725  14.000  1.9826  1.4136 -2.3928
  229MPD1     N 3483   2.069   3.757  14.398  0.0832 -0.3738 -0.5375
  229MPD1    H5 3484   2.095   3.660  14.385 -1.5844 -0.9315  0.2968
  229MPD1    N1 3485   1.868   4.152  14.184  0.7851  0.1467 -0.2865
  229MPD1    H6 3486   1.862   4.194  14.277 -4.3462 -1.7437  0.2772
  229MPD1    H7 3487   1.782   4.167  14.130  1.3821  2.0832 -0.7118
  230MPD1     C 3488   2.511   3.712  15.423 -0.1318  0.2953  0.0898
  230MPD1    C1 3489   2.590   3.639  15.337  0.4949  0.4218 -0.5195
  230MPD1    C2 3490   2.539   3.618  15.209  0.4654 -0.1248  0.7501
  230MPD1    C3 3491   2.433   3.691  15.156  0.5276  0.2751  0.1007
  230MPD1    C4 3492   2.366   3.777  15.246 -0.4746  0.0399  0.2878
  230MPD1    C5 3493   2.407   3.782  15.372  0.0600 -0.0899 -0.5920
  230MPD1     H 3494   2.595   3.562  15.134  1.4170 -0.4142  1.6720
  230MPD1    H1 3495   2.290   3.851  15.222  0.5139  1.4658  1.5980
  230MPD1    H2 3496   2.540   3.736  15.524 -1.1074  2.4001 -0.1351
  230MPD1    H3 3497   2.348   3.844  15.437  2.8653  0.1333  1.7362
  230MPD1     N 3498   2.404   3.680  15.011 -0.3346  0.1292 -0.1053
  230MPD1    H5 3499   2.457   3.617  14.952  1.2829  0.9897  0.4266
  230MPD1    N1 3500   2.705   3.574  15.384 -0.2590  0.0982 -0.2908
  230MPD1    H6 3501   2.782   3.558  15.319 -0.8769 -2.1908 -0.4832
  230MPD1    H7 3502   2.750   3.605  15.471  3.0809 -0.6066 -1.7446
  231MPD1     C 3503   0.250   0.588  15.800 -0.6709 -0.1114 -0.9121
  231MPD1    C1 3504   0.236   0.535  15.673 -0.4224  0.2248  0.7187
  231MPD1    C2 3505   0.316   0.588  15.571 -1.0136 -0.7618 -0.2435
  231MPD1    C3 3506   0.421   0.672  15.606  0.3038  0.2749  0.4140
  231MPD1    C4 3507   0.443   0.712  15.730  0.5974  0.1728 -0.5993
  231MPD1    C5 3508   0.358   0.672  15.826 -0.8129  0.2534 -0.3646
  231MPD1     H 3509   0.291   0.565  15.468 -0.6403  1.3183 -0.7891
  231MPD1    H1 3510   0.521   0.779  15.764  0.9532 -0.4810 -0.1323
  231MPD1    H2 3511   0.179   0.571  15.881 -1.0002  0.5346 -1.0592
  231MPD1    H3 3512   0.354   0.727  15.920  1.1979  0.2728 -0.2852
  231MPD1     N 3513   0.502   0.720  15.497 -0.4856 -0.7361  0.5972
  231MPD1    H5 3514   0.492   0.671  15.409  0.7161  0.2765 -0.1032
  231MPD1    N1 3515   0.131   0.445  15.653 -0.0166  0.2952  0.3246
  231MPD1    H6 3516   0.136   0.425  15.553 -0.3277 -2.4195  0.8522
  231MPD1    H7 3517   0.039   0.480  15.679  0.2601  0.6745  0.7932
  232MPD1     C 3518   2.653   2.651  17.031  0.1193  0.2226 -0.1390
  232MPD1    C1 3519   2.630   2.580  17.149  0.4746  0.4578  0.2781
  232MPD1    C2 3520   2.543   2.635  17.238 -0.0016 -0.3811 -0.0289
  232MPD1    C3 3521   2.475   2.751  17.212 -0.9241 -0.1064 -0.0182
  232MPD1    C4 3522   2.487   2.806  17.087 -0.5464  0.3383 -1.1230
  232MPD1    C5 3523   2.576   2.758  16.997  0.0373 -0.4658 -1.0075
  232MPD1     H 3524   2.536   2.588  17.336  2.0551 -0.0944  0.2539
  232MPD1    H1 3525   2.423   2.880  17.041 -1.3341  0.3513 -0.0061
  232MPD1    H2 3526   2.721   2.621  16.953  2.3748  4.6441  0.1440
  232MPD1    H3 3527   2.569   2.808  16.901 -2.1295  1.1014 -0.0352
  232MPD1     N 3528   2.390   2.805  17.311  0.0384 -0.0246 -0.3593
  232MPD1    H5 3529   2.399   2.763  17.403 -0.2736  0.0317 -0.3029
  232MPD1    N1 3530   2.715   2.476  17.183 -0.0623  0.5996  0.3256
  232MPD1    H6 3531   2.664   2.403  17.233 -0.2045 -0.3183 -1.1624
  232MPD1    H7 3532   2.734   2.428  17.096 -3.4043 -1.0810  0.4889
  233MPD1     C 3533   4.007   2.770   2.144  0.2759  0.3033  0.4667
  233MPD1    C1 3534   4.095   2.728   2.242 -0.2655 -0.0037 -0.8985
  233MPD1    C2 3535   4.142   2.600   2.235 -0.5972 -0.2259 -0.6494
  233MPD1    C3 3536   4.122   2.521   2.117 -0.2927 -0.3259  0.4656
  233MPD1    C4 3537   4.053   2.581   2.021 -0.6277  0.3975 -0.1277
  233MPD1    C5 3538   3.992   2.696   2.034  0.0573 -0.1266  0.1834
  233MPD1     H 3539   4.205   2.568   2.317 -0.9606 -0.4086 -0.4421
  233MPD1    H1 3540   4.043   2.535   1.923  1.3368 -1.6441  0.6273
  233MPD1    H2 3541   3.948   2.860   2.158 -1.8915 -0.8414 -1.2304
  233MPD1    H3 3542   3.930   2.744   1.960 -1.9009 -0.0236  1.8713
  233MPD1     N 3543   4.182   2.397   2.092 -0.4773  0.0031  0.5794
  233MPD1    H5 3544   4.164   2.338   2.011  0.4972  1.7012 -0.8817
  233MPD1    N1 3545   4.099   2.795   2.367 -0.3347 -0.2113  0.6645
  233MPD1    H6 3546   4.176   2.777   2.432 -1.5734 -0.3377  2.0946
  233MPD1    H7 3547   4.089   2.897   2.363  0.6841 -0.2365 -2.4584
  234MPD1     C 3548   0.900   1.084  10.314 -0.2043 -0.0771 -0.4318
  234MPD1    C1 3549   0.857   0.991  10.217 -0.2446 -0.2677 -0.4341
  234MPD1    C2 3550   0.784   1.041  10.112 -0.1783  0.5187 -0.5559
  234MPD1    C3 3551   0.728   1.169  10.110 -0.9842  0.1586  0.4071
  234MPD1    C4 3552   0.762   1.252  10.212 -0.6446  0.4740  0.4545
  234MPD1    C5 3553   0.852   1.212  10.310  0.2140  1.0812 -0.0530
  234MPD1     H 3554   0.759   0.971  10.033 -1.5287  2.0966 -1.5216
  234MPD1    H1 3555   0.723   1.353  10.216  1.6849  1.3546  0.5386
  234MPD1    H2 3556   0.963   1.044  10.393  0.7398  0.9355 -0.6758
  234MPD1    H3 3557   0.879   1.283  10.387  2.6673 -3.3159  3.1054
  234MPD1     N 3558   0.645   1.204  10.000  0.4181  0.0416 -0.1914
  234MPD1    H5 3559   0.629   1.134   9.928  0.6257 -0.3057  0.1024
  234MPD1    N1 3560   0.898   0.860  10.216 -0.4347  0.1240  0.9418
  234MPD1    H6 3561   0.921   0.839  10.313 -0.4974 -1.5990  0.5709
  234MPD1    H7 3562   0.830   0.794  10.181  1.4851 -2.4630  2.1186
  235MPD1     C 3563   4.153   4.383   9.032 -0.8074  0.5269  0.3006
  235MPD1    C1 3564   4.120   4.355   8.902  0.1250 -0.6662 -0.1382
  235MPD1    C2 3565   4.003   4.289   8.880  0.7526  0.1814  0.5251
  235MPD1    C3 3566   3.932   4.234   8.983 -0.5725  0.6826  0.0669
  235MPD1    C4 3567   3.979   4.245   9.110 -0.8474 -0.4074 -0.1592
  235MPD1    C5 3568   4.095   4.312   9.134 -0.5324 -0.5011  0.7413
  235MPD1     H 3569   3.974   4.286   8.776 -0.4003 -0.3315  0.8637
  235MPD1    H1 3570   3.922   4.208   9.194 -2.4111  0.7258 -0.7228
  235MPD1    H2 3571   4.241   4.438   9.065 -0.1681  0.2534 -0.9754
  235MPD1    H3 3572   4.118   4.342   9.235  0.5401 -1.2521  0.7125
  235MPD1     N 3573   3.819   4.162   8.941 -0.0679 -0.0147  0.3288
  235MPD1    H5 3574   3.788   4.157   8.844  0.9876  0.4023 -0.0333
  235MPD1    N1 3575   4.176   4.432   8.800 -0.0215  0.1810  0.3221
  235MPD1    H6 3576   4.276   4.446   8.815 -0.1252 -0.1952  1.3597
  235MPD1    H7 3577   4.162   4.391   8.708 -0.6456  0.9910  0.0488
  236MPD1     C 3578   1.164   4.295  10.556 -0.0558  0.7261 -0.1282
  236MPD1    C1 3579   1.133   4.240  10.438 -0.3393 -0.3357 -0.5511
  236MPD1    C2 3580   1.218   4.146  10.390 -0.1267 -0.1222  0.6167
  236MPD1    C3 3581   1.333   4.117  10.457  0.2280  0.4818  0.2635
  236MPD1    C4 3582   1.373   4.187  10.573  0.8038  0.1249  0.6997
  236MPD1    C5 3583   1.285   4.274  10.623 -0.9593 -0.6164  0.4380
  236MPD1     H 3584   1.189   4.102  10.295 -0.4820 -0.6234  0.9526
  236MPD1    H1 3585   1.464   4.163  10.627  0.1897 -1.3622  1.0802
  236MPD1    H2 3586   1.088   4.361  10.598 -0.7747 -1.3275  1.7731
  236MPD1    H3 3587   1.308   4.332  10.712  1.5018  1.0414 -1.2670
  236MPD1     N 3588   1.420   4.017  10.421  0.2200  0.1206  0.5445
  236MPD1    H5 3589   1.501   4.007  10.481  0.3970  1.4318  0.5232
  236MPD1    N1 3590   1.002   4.251  10.389  0.4779  0.2846 -0.0089
  236MPD1    H6 3591   1.002   4.210  10.295  0.2551  0.1147  0.0654
  236MPD1    H7 3592   0.980   4.350  10.384  3.0332  0.8461 -0.0913
  237MPD1     C 3593   0.695   1.642  15.618  0.1010  0.6478  0.5894
  237MPD1    C1 3594   0.576   1.667  15.684  0.2190  0.6522  0.4061
  237MPD1    C2 3595   0.487   1.740  15.616 -0.0259  0.1153  0.7650
  237MPD1    C3 3596   0.506   1.780  15.485  0.7569 -0.5490  0.3951
  237MPD1    C4 3597   0.629   1.762  15.420 -0.1440  0.2202 -0.0165
  237MPD1    C5 3598   0.718   1.681  15.487  0.3422  0.1706 -0.1843
  237MPD1     H 3599   0.401   1.776  15.671 -1.4214  1.2562 -2.1311
  237MPD1    H1 3600   0.632   1.800  15.319 -0.3121 -0.8833 -0.4348
  237MPD1    H2 3601   0.775   1.591  15.670 -0.8112  1.1332  2.4833
  237MPD1    H3 3602   0.816   1.661  15.445  0.3572 -1.0255  0.4397
  237MPD1     N 3603   0.406   1.852  15.410  0.4875  0.0093 -0.1693
  237MPD1    H5 3604   0.428   1.894  15.320  5.5772  0.8268  1.4974
  237MPD1    N1 3605   0.544   1.631  15.814  0.7383  1.0525 -0.1637
  237MPD1    H6 3606   0.472   1.680  15.868  0.2855  0.5656 -0.3310
  237MPD1    H7 3607   0.616   1.579  15.863 -1.0517  1.1653  2.6225
  238MPD1     C 3608   2.614   0.017  15.064 -0.4761 -0.5067  0.3528
  238MPD1    C1 3609   2.610   0.047  15.201  0.3238  0.1635  0.1703
  238MPD1    C2 3610   2.563   0.172  15.242 -0.1743 -0.6162 -0.3630
  238MPD1    C3 3611   2.490   0.251  15.149 -0.1868 -0.0680 -0.5150
  238MPD1    C4 3612   2.490   0.219  15.012  0.0868 -0.5383 -0.0459
  238MPD1    C5 3613   2.545   0.101  14.976  0.4895  0.7562  0.1765
  238MPD1     H 3614   2.575   0.211  15.342 -1.0079  0.0369 -0.5085
  238MPD1    H1 3615   2.425   0.266  14.939  1.8754 -0.8523 -1.8173
  238MPD1    H2 3616   2.664   4.657  15.015 -0.6230 -0.6276  0.4067
  238MPD1    H3 3617   2.535   0.059  14.876  2.6094 -2.0390  1.1676
  238MPD1     N 3618   2.421   0.372  15.183 -0.6079 -0.1162  0.4322
  238MPD1    H5 3619   2.371   0.421  15.110 -1.7963  1.2583  2.1801
  238MPD1    N1 3620   2.693   4.697  15.288  0.0913 -0.0247 -0.3078
  238MPD1    H6 3621   2.684   4.598  15.268  0.2926 -0.2144  0.5172
  238MPD1    H7 3622   2.681   4.703  15.389 -0.5715 -0.5490 -0.3598
  239MPD1     C 3623   2.331   1.277  14.940  0.0535  0.5248 -0.0109
  239MPD1    C1 3624   2.465   1.286  14.905 -0.6330 -0.4899 -0.3430
  239MPD1    C2 3625   2.499   1.354  14.789 -0.2752 -0.2832 -0.3024
  239MPD1    C3 3626   2.399   1.420  14.712  0.0537 -0.0496 -0.3482
  239MPD1    C4 3627   2.270   1.407  14.751 -0.3411 -0.4539 -0.3806
  239MPD1    C5 3628   2.234   1.342  14.866  0.4763  0.4160 -0.2730
  239MPD1     H 3629   2.602   1.362  14.756  0.2455 -1.1448  1.0969
  239MPD1    H1 3630   2.195   1.463  14.696  0.5155  0.0664 -1.0093
  239MPD1    H2 3631   2.293   1.224  15.027 -1.4616  1.6120  0.0045
  239MPD1    H3 3632   2.134   1.340  14.908  0.2851  1.3569 -0.6878
  239MPD1     N 3633   2.422   1.486  14.594  0.2996  0.5270 -0.9889
  239MPD1    H5 3634   2.342   1.540  14.564 -0.7744  0.0754  1.0716
  239MPD1    N1 3635   2.575   1.225  14.974  0.6170  0.1504  0.1890
  239MPD1    H6 3636   2.647   1.213  14.903 -1.1875 -0.4115 -1.5687
  239MPD1    H7 3637   2.542   1.141  15.022  0.7910  0.7057  1.2742
  240MPD1     C 3638   1.759   1.956  14.187  0.0355  0.2041  0.2772
  240MPD1    C1 3639   1.643   1.889  14.217  0.1480 -0.6302  1.5495
  240MPD1    C2 3640   1.649   1.788  14.306  0.1970  0.0202  0.1801
  240MPD1    C3 3641   1.765   1.748  14.371  0.1920  0.0392 -0.1381
  240MPD1    C4 3642   1.878   1.813  14.335 -0.1474 -0.1820  0.7132
  240MPD1    C5 3643   1.876   1.914  14.241 -0.2191  0.4085 -0.6160
  240MPD1     H 3644   1.557   1.736  14.329 -0.1293  0.3819 -0.2975
  240MPD1    H1 3645   1.968   1.780  14.385  1.0216 -0.4539 -1.5656
  240MPD1    H2 3646   1.765   2.038  14.117 -1.5397 -1.4665 -1.7897
  240MPD1    H3 3647   1.971   1.954  14.206  0.2596 -0.3632 -0.1994
  240MPD1     N 3648   1.752   1.645  14.461 -0.3383 -0.1546  0.2779
  240MPD1    H5 3649   1.668   1.588  14.468  1.2274 -2.5448 -0.7425
  240MPD1    N1 3650   1.519   1.944  14.174  0.3663  0.2202 -0.1417
  240MPD1    H6 3651   1.457   1.865  14.155  0.2760 -0.1276  1.5661
  240MPD1    H7 3652   1.527   1.992  14.085  0.1199 -0.2503 -0.4196
  241MPD1     C 3653   2.134   1.206  15.385  0.0716  0.0411 -0.3952
  241MPD1    C1 3654   2.037   1.305  15.380  0.2995 -0.4868  0.0029
  241MPD1    C2 3655   1.971   1.327  15.258 -0.6801 -0.3921  0.0174
  241MPD1    C3 3656   1.991   1.244  15.149  0.4944  0.6161 -1.0118
  241MPD1    C4 3657   2.083   1.142  15.156  0.1321 -0.3097 -0.1368
  241MPD1    C5 3658   2.148   1.118  15.276 -0.0017 -0.5968 -0.5271
  241MPD1     H 3659   1.896   1.405  15.246 -1.5085 -1.3924 -1.3916
  241MPD1    H1 3660   2.079   1.075  15.071 -0.8644  1.2020 -1.2746
  241MPD1    H2 3661   2.193   1.185  15.474  1.7249  1.0451 -1.2534
  241MPD1    H3 3662   2.220   1.037  15.278 -1.1096 -1.5371  1.4383
  241MPD1     N 3663   1.916   1.261  15.029  0.4062  0.2042 -0.2261
  241MPD1    H5 3664   1.916   1.187  14.960 -2.1026 -0.8651  0.8942
  241MPD1    N1 3665   2.023   1.397  15.486 -0.4254  0.5222 -0.6334
  241MPD1    H6 3666   1.930   1.437  15.476 -0.4262 -0.2939 -4.1009
  241MPD1    H7 3667   2.008   1.348  15.574  0.1816  2.1484  0.3724
  242MPD1     C 3668   1.846   4.297  15.970 -0.0740 -0.7186  0.3840
  242MPD1    C1 3669   1.740   4.358  15.906 -0.0175 -0.2615  0.3738
  242MPD1    C2 3670   1.750   4.385  15.769 -0.1379  0.2509 -0.3076
  242MPD1    C3 3671   1.850   4.326  15.696 -0.6750  0.2148 -0.1126
  242MPD1    C4 3672   1.949   4.258  15.759  0.4565  0.0197 -0.5264
  242MPD1    C5 3673   1.948   4.249  15.900 -0.4771  0.0821  0.1317
  242MPD1     H 3674   1.672   4.449  15.730 -0.1103  1.3796  1.5217
  242MPD1    H1 3675   2.030   4.214  15.702  1.9717 -0.8057  2.2572
  242MPD1    H2 3676   1.838   4.269  16.075 -1.4142  0.5194  0.6141
  242MPD1    H3 3677   2.011   4.180  15.955 -3.5393 -2.5333  0.3991
  242MPD1     N 3678   1.872   4.359  15.564 -0.4002  0.2093 -0.2873
  242MPD1    H5 3679   1.958   4.336  15.515  0.0561  0.6092  0.3280
  242MPD1    N1 3680   1.629   4.399  15.979  0.1151 -0.4034 -0.3914
  242MPD1    H6 3681   1.619   4.349  16.067 -0.8739  0.4942  0.0072
  242MPD1    H7 3682   1.536   4.394  15.938 -0.6326  3.2420  0.8093
  243MPD1     C 3683   4.423   2.735  17.331 -0.3488  0.8284 -0.0821
  243MPD1    C1 3684   4.331   2.701  17.232 -0.1734  0.2412 -0.5520
  243MPD1    C2 3685   4.255   2.806  17.180 -0.2216  1.0657 -0.1410
  243MPD1    C3 3686   4.269   2.932  17.224  0.2430 -0.1680 -0.4855
  243MPD1    C4 3687   4.347   2.960  17.337  0.4428  0.0661 -0.1289
  243MPD1    C5 3688   4.428   2.864  17.382 -0.1479 -0.5737  0.1036
  243MPD1     H 3689   4.192   2.782  17.095  0.7034  1.4807 -0.9326
  243MPD1    H1 3690   4.360   3.053  17.392  0.0382  0.5274 -0.8091
  243MPD1    H2 3691   4.492   2.664  17.374 -1.5000 -0.1525  0.1402
  243MPD1    H3 3692   4.500   2.893  17.458  1.1750 -1.0129 -0.9930
  243MPD1     N 3693   4.194   3.036  17.155  0.3382 -0.0877  0.4824
  243MPD1    H5 3694   4.136   3.002  17.078 -0.6143  0.7377  0.8458
  243MPD1    N1 3695   4.346   2.576  17.176  0.2215 -0.2090 -0.1797
  243MPD1    H6 3696   4.260   2.539  17.137  0.1022 -1.0744  0.9231
  243MPD1    H7 3697   4.383   2.504  17.237 -0.6604  0.1578  0.7771
  244MPD1     C 3698   4.222   4.062  17.223  0.1391  0.2821 -0.5345
  244MPD1    C1 3699   4.295   3.969  17.290 -0.1602 -0.1050  0.2603
  244MPD1    C2 3700   4.258   3.829  17.270 -0.4506 -0.9593  0.3194
  244MPD1    C3 3701   4.171   3.791  17.171 -0.1839 -1.0478  0.0045
  244MPD1    C4 3702   4.113   3.891  17.097  0.2064  0.2979  0.4603
  244MPD1    C5 3703   4.133   4.025  17.129  0.5361  0.1440 -0.7797
  244MPD1     H 3704   4.309   3.760  17.337 -1.7315 -1.0384  1.2060
  244MPD1    H1 3705   4.049   3.877  17.010  0.3182 -0.6657  0.5237
  244MPD1    H2 3706   4.228   4.168  17.243 -1.0326  0.0898  0.8472
  244MPD1    H3 3707   4.082   4.100  17.069 -1.3394  1.8296  2.9586
  244MPD1     N 3708   4.138   3.657  17.157 -0.4613 -0.4925 -0.9630
  244MPD1    H5 3709   4.201   3.590  17.201 -1.3540 -0.6580  0.0576
  244MPD1    N1 3710   4.378   4.021  17.390 -0.5330  0.1803  0.0410
  244MPD1    H6 3711   4.460   3.967  17.416 -1.0440 -1.3820 -1.5710
  244MPD1    H7 3712   4.417   4.109  17.357 -1.9967  0.9128  0.2904
  245MPD1     C 3713   0.606   3.281  13.348  0.2382 -0.3887 -0.2976
  245MPD1    C1 3714   0.570   3.328  13.470  0.7092  0.2021 -0.1830
  245MPD1    C2 3715   0.570   3.465  13.489 -0.3000  0.0194  0.5212
  245MPD1    C3 3716   0.621   3.545  13.396 -0.0177 -0.0103 -0.0274
  245MPD1    C4 3717   0.657   3.501  13.268  0.0509 -0.4987 -0.2433
  245MPD1    C5 3718   0.644   3.366  13.245 -0.2794  0.1477 -0.1392
  245MPD1     H 3719   0.534   3.508  13.581 -0.9113 -1.4127  0.9516
  245MPD1    H1 3720   0.701   3.563  13.191 -2.3562  1.4482 -0.0559
  245MPD1    H2 3721   0.614   3.174  13.333  1.8387 -0.1196 -1.4709
  245MPD1    H3 3722   0.683   3.322  13.154 -0.3509 -0.4963  0.1387
  245MPD1     N 3723   0.648   3.674  13.439 -0.1548  0.6314 -0.3897
  245MPD1    H5 3724   0.635   3.682  13.540 -0.3317  0.5406 -0.4054
  245MPD1    N1 3725   0.493   3.243  13.544  0.2385 -0.3973 -0.6608
  245MPD1    H6 3726   0.487   3.277  13.640 -0.7779 -0.1897 -0.8012
  245MPD1    H7 3727   0.538   3.151  13.541 -0.9896 -0.9717 -1.1867
  246MPD1     C 3728   2.340   4.635   9.524  0.2035 -0.0388  1.0358
  246MPD1    C1 3729   2.250   4.584   9.436 -0.0825 -0.3088  0.1110
  246MPD1    C2 3730   2.124   4.642   9.424 -0.1120  0.3818 -0.7475
  246MPD1    C3 3731   2.091   0.039   9.493 -0.1546 -0.5098 -0.0417
  246MPD1    C4 3732   2.198   0.099   9.563  0.6202 -0.2403  0.7588
  246MPD1    C5 3733   2.305   0.021   9.593 -0.2133 -0.0675 -0.2464
  246MPD1     H 3734   2.052   4.608   9.350 -0.2247  0.5815 -0.7311
  246MPD1    H1 3735   2.201   0.193   9.618  0.2189 -0.0276  0.4144
  246MPD1    H2 3736   2.434   4.585   9.544  0.3203 -0.4703 -0.5728
  246MPD1    H3 3737   2.384   0.061   9.656  0.8549  0.8452 -2.1828
  246MPD1     N 3738   1.964   0.102   9.483  0.2649 -0.1431  0.2798
  246MPD1    H5 3739   1.888   0.047   9.445  0.2837 -0.0894  0.1642
  246MPD1    N1 3740   2.286   4.473   9.359 -0.5166 -0.0113 -0.2960
  246MPD1    H6 3741   2.264   4.499   9.264 -0.0807 -1.3607 -0.7665
  246MPD1    H7 3742   2.385   4.449   9.362 -0.9548 -1.7090  0.6287
  247MPD1     C 3743   4.167   2.854  15.903  0.2260 -0.1518 -0.2568
  247MPD1    C1 3744   4.142   2.966  15.992  0.2081  0.1801  0.0314
  247MPD1    C2 3745   4.243   3.059  16.013 -0.0769  0.0966  0.1547
  247MPD1    C3 3746   4.367   3.053  15.946  0.2711 -0.2116 -0.2619
  247MPD1    C4 3747   4.390   2.949  15.861 -0.2995 -0.1701  0.3596
  247MPD1    C5 3748   4.296   2.852  15.847  0.0404  0.0937 -0.5226
  247MPD1     H 3749   4.229   3.135  16.089  0.9339  0.2876  0.1569
  247MPD1    H1 3750   4.483   2.941  15.806 -1.1368 -0.5070 -1.0192
  247MPD1    H2 3751   4.097   2.777  15.873 -3.5830  3.1494  0.1723
  247MPD1    H3 3752   4.311   2.778  15.768 -0.8911  0.4989 -1.0851
  247MPD1     N 3753   4.467   3.152  15.967  0.2046 -0.4795  0.2980
  247MPD1    H5 3754   4.552   3.128  15.917 -0.9217 -0.2847 -1.7016
  247MPD1    N1 3755   4.009   2.985  16.039 -0.4050 -0.1043  0.0216
  247MPD1    H6 3756   3.954   2.899  16.045 -1.0488  0.3919  1.1751
  247MPD1    H7 3757   3.996   3.034  16.127 -3.1479 -3.7073  1.6080
  248MPD1     C 3758   1.997   0.115   0.142 -0.2858  0.0282  0.0403
  248MPD1    C1 3759   1.897   0.135   0.231  0.0126 -0.2694 -0.7107
  248MPD1    C2 3760   1.805   0.033   0.247 -0.1954 -0.2314  0.2442
  248MPD1    C3 3761   1.827   4.632   0.192 -0.5069  0.3632 -1.3720
  248MPD1    C4 3762   1.935   4.610   0.113  0.4406  0.2675  0.1709
  248MPD1    C5 3763   2.018   4.713   0.094  0.1510  0.2309 -0.1345
  248MPD1     H 3764   1.709   0.047   0.295  0.7492 -0.8039  2.2850
  248MPD1    H1 3765   1.969   4.512   0.081 -0.6734 -0.3784  0.9443
  248MPD1    H2 3766   2.081   0.183   0.134  0.3131 -0.6038  0.9721
  248MPD1    H3 3767   2.100   4.706   0.024  1.2796  3.7019  0.8469
  248MPD1     N 3768   1.726   4.537   0.226 -0.3940  0.2478 -0.0517
  248MPD1    H5 3769   1.642   4.577   0.267 -0.3558 -2.1709  2.4405
  248MPD1    N1 3770   1.876   0.257   0.283 -0.0300 -0.7068  0.1467
  248MPD1    H6 3771   1.828   0.249   0.372 -1.2826 -1.4464 -0.5916
  248MPD1    H7 3772   1.964   0.303   0.306 -0.7539  1.3284 -1.1297
  249MPD1     C 3773   2.408   1.292  10.610 -0.0386  0.3811 -0.2491
  249MPD1    C1 3774   2.326   1.398  10.577 -0.6541  0.0699  0.4814
  249MPD1    C2 3775   2.273   1.404  10.456 -0.2739  0.1676 -0.3931
  249MPD1    C3 3776   2.277   1.287  10.375 -0.5921 -0.1434  0.0079
  249MPD1    C4 3777   2.348   1.177  10.412  0.0036 -0.5847 -0.2294
  249MPD1    C5 3778   2.431   1.189  10.523 -0.0254  0.3217  0.2213
  249MPD1     H 3779   2.225   1.497  10.428 -0.8457  0.4573  1.5904
  249MPD1    H1 3780   2.361   1.089  10.351  1.9605 -0.3122 -0.2269
  249MPD1    H2 3781   2.463   1.286  10.703  0.6045 -1.2145 -0.7328
  249MPD1    H3 3782   2.489   1.111  10.569 -1.5910 -1.7012 -1.2175
  249MPD1     N 3783   2.202   1.288  10.252 -0.7332 -1.2122  0.8555
  249MPD1    H5 3784   2.165   1.376  10.218  1.0313  0.2842  2.7851
  249MPD1    N1 3785   2.331   1.510  10.661  0.2339  0.0716 -0.2416
  249MPD1    H6 3786   2.383   1.495  10.747  1.4744 -2.3215 -1.4020
  249MPD1    H7 3787   2.246   1.566  10.668 -0.2939 -0.6430 -0.8999
  250MPD2     C 3788   3.191   1.752  13.331  0.1533  0.6457  0.1063
  250MPD2    C1 3789   3.182   1.791  13.201  0.3623  0.4762  0.1601
  250MPD2    C2 3790   3.137   1.695  13.111 -0.4720 -0.4311 -0.0749
  250MPD2    C3 3791   3.104   1.564  13.148 -1.1759 -0.1160 -0.0843
  250MPD2    C4 3792   3.115   1.528  13.277  0.3396 -0.2051  0.2491
  250MPD2    C5 3793   3.169   1.624  13.370 -0.1230  0.0868  0.0366
  250MPD2     H 3794   3.111   1.727  13.011  0.6075  1.3584  0.2236
  250MPD2    H1 3795   3.077   1.434  13.314 -1.3986  0.2124 -0.4669
  250MPD2    H2 3796   3.215   1.821  13.412  0.8479 -2.3562  2.4762
  250MPD2    H3 3797   3.161   1.601  13.476 -0.0616  2.6720  0.6104
  250MPD2     N 3798   3.044   1.464  13.068 -0.2366 -0.0412  0.6778
  250MPD2    H5 3799   3.020   1.374  13.108  4.7190 -2.1034 -0.9287
  250MPD2    N1 3800   3.197   1.928  13.177 -0.9020  0.5086 -0.3683
  250MPD2    H7 3801   3.216   1.989  13.255  2.6228 -2.1245  0.8012
  251TMC3    C1 3802   3.214   2.121  13.039 -0.6296 -0.1953 -0.2318
  251TMC3    C2 3803   3.198   2.211  13.141 -0.4069 -0.4969 -0.7034
  251TMC3    C3 3804   3.206   2.341  13.119 -0.3569 -0.2572 -0.0027
  251TMC3    C4 3805   3.220   2.169  12.914  0.5762  0.0127  0.1239
  251TMC3    C5 3806   3.223   2.304  12.884 -0.6991  0.9843  0.1580
  251TMC3    C6 3807   3.218   2.390  12.992  0.4947 -0.0295  0.3628
  251TMC3     C 3808   3.189   1.979  13.051  0.3015  0.7138 -1.2656
  251TMC3     O 3809   3.192   1.921  12.947  0.3664 -0.1547 -0.1768
  251TMC3     H 3810   3.200   2.170  13.242  0.9755 -0.5028 -0.7278
  251TMC3    H1 3811   3.215   2.105  12.827  0.0745  0.0390  0.1358
  251TMC3    H2 3812   3.247   2.494  12.986  0.2566  0.0741  1.0463
  251TMC3    C7 3813   3.327   2.334  12.789  0.3272  0.0958  0.5871
  251TMC3    C8 3814   3.245   2.431  13.226  0.8535 -0.1180  0.1118
  251TMC3    O1 3815   3.419   2.256  12.797  0.0690  0.2523 -0.2264
  251TMC3    O2 3816   3.226   2.551  13.212  0.0150  0.0035 -0.6867
  252TMC3    C1 3817   3.654   2.930   9.093  0.4079 -0.0767  0.0284
  252TMC3    C2 3818   3.691   3.046   9.152  0.0831 -0.1125  0.0360
  252TMC3    C3 3819   3.720   3.043   9.288 -0.0181 -0.0287 -0.1072
  252TMC3    C4 3820   3.652   2.806   9.156  0.5268  0.0513  0.3075
  252TMC3    C5 3821   3.691   2.808   9.290 -0.5471  0.4205  1.0042
  252TMC3    C6 3822   3.727   2.922   9.353  0.4525 -0.4096 -0.4480
  252TMC3     C 3823   3.611   2.932   8.951  0.1078  0.6412 -0.6771
  252TMC3     O 3824   3.642   2.836   8.882 -0.7268 -0.4065 -0.1190
  252TMC3     H 3825   3.687   3.141   9.099  2.2712  0.9605  1.8097
  252TMC3    H1 3826   3.630   2.718   9.095  0.2349  0.3599 -0.0303
  252TMC3    H2 3827   3.760   2.913   9.456 -0.3167 -1.3384 -0.2904
  252TMC3    C7 3828   3.734   2.680   9.358  0.0623 -0.2075  0.1752
  252TMC3    C8 3829   3.796   3.156   9.348 -0.2762 -0.1197  0.5770
  252TMC3    O1 3830   3.765   2.687   9.478 -0.9948  0.2121 -0.2355
  252TMC3    O2 3831   3.790   3.162   9.467  0.1923  0.0920 -0.0731
  253MPD2     C 3832   0.217   2.191  15.559 -0.3513 -0.6848 -0.6128
  253MPD2    C1 3833   0.089   2.192  15.593  0.8293  0.1369 -0.2811
  253MPD2    C2 3834   0.042   2.139  15.713  0.0578 -0.6811 -0.3998
  253MPD2    C3 3835   0.132   2.077  15.807  0.6322 -0.2206  0.1868
  253MPD2    C4 3836   0.261   2.072  15.763 -0.6462 -0.2907 -0.9323
  253MPD2    C5 3837   0.300   2.126  15.644  0.1404 -0.1156  0.1985
  253MPD2     H 3838   4.658   2.140  15.731  0.1209 -0.7984 -0.0381
  253MPD2    H1 3839   0.340   2.032  15.825  1.5167  1.1274 -2.7764
  253MPD2    H2 3840   0.256   2.235  15.468  3.4592  2.8877  2.7638
  253MPD2    H3 3841   0.404   2.118  15.615 -0.2607 -1.7818 -0.8339
  253MPD2     N 3842   0.099   2.016  15.928  0.0813  0.0550 -0.0505
  253MPD2    H5 3843   0.175   2.000  15.993  0.4521  1.2610 -0.1812
  253MPD2    N1 3844   4.708   2.249  15.511  0.0576  0.2951 -0.2123
  253MPD2    H7 3845   4.619   2.263  15.559  1.6709  1.9989  2.2836
  254TMC3    C1 3846   4.675   1.922  16.088 -0.5919  0.4334  0.1038
  254TMC3    C2 3847   4.550   1.937  16.129 -0.0001  0.0591 -0.4618
  254TMC3    C3 3848   4.534   1.948  16.265  0.0747  1.1527 -0.5276
  254TMC3    C4 3849   0.057   1.894  16.173 -0.0474  0.0320 -0.0510
  254TMC3    C5 3850   0.042   1.915  16.306 -0.3298 -0.6415  0.5971
  254TMC3    C6 3851   4.634   1.934  16.355  0.5189  0.1445  0.0167
  254TMC3     C 3852   4.699   1.966  15.952 -0.6316  0.5105 -0.1580
  254TMC3     O 3853   4.611   1.955  15.870 -0.5269  0.3251  0.4159
  254TMC3     H 3854   4.473   1.959  16.056  0.6386  0.1247 -1.1280
  254TMC3    H1 3855   0.156   1.870  16.138 -0.2905  0.3284 -0.9546
  254TMC3    H2 3856   4.611   1.953  16.459  0.5796  0.6233 -0.0578
  254TMC3    C7 3857   0.144   1.870  16.400  0.5745 -0.4187  0.4990
  254TMC3    C8 3858   4.437   2.032  16.310 -0.0266 -0.0487 -0.4785
  254TMC3    O1 3859   0.221   1.785  16.362 -0.5265 -0.1249 -0.0032
  254TMC3    O2 3860   4.473   2.127  16.376 -0.0807 -0.4429 -0.1019
  255MPD2     C 3861   2.499   4.717  10.763 -0.0217 -0.4346  0.1468
  255MPD2    C1 3862   2.590   0.058  10.692  0.2579 -1.3420 -0.4454
  255MPD2    C2 3863   2.723   0.035  10.718 -0.0349 -0.1454 -0.0565
  255MPD2    C3 3864   2.765   4.657  10.813  0.4774  0.4299 -0.4700
  255MPD2    C4 3865   2.666   4.587  10.881  0.1174 -0.5111  0.2390
  255MPD2    C5 3866   2.539   4.635  10.865  0.0706  0.2076  0.2563
  255MPD2     H 3867   2.793   0.075  10.646 -1.6506 -0.0507 -1.5744
  255MPD2    H1 3868   2.679   4.525  10.969  0.4575 -0.4441  0.2383
  255MPD2    H2 3869   2.393   0.015  10.756  0.1906 -0.2670 -2.9293
  255MPD2    H3 3870   2.460   4.595  10.927 -0.4365  1.4525  0.4227
  255MPD2     N 3871   2.903   4.639  10.825 -0.2579  0.2483 -0.1017
  255MPD2    H5 3872   2.964   4.688  10.760 -2.3114  0.8308 -1.5837
  255MPD2    N1 3873   2.543   0.164  10.608 -0.1308  0.8656 -0.5910
  255MPD2    H7 3874   2.443   0.175  10.593 -0.1903  1.6413  0.3749
  256TMC3    C1 3875   2.541   0.355  10.464  0.1188  0.6375 -0.3157
  256TMC3    C2 3876   2.541   0.486  10.491  1.1277  0.5237 -0.2372
  256TMC3    C3 3877   2.486   0.564  10.388 -0.0340  0.0612 -0.6896
  256TMC3    C4 3878   2.493   0.298  10.349 -0.3595  0.1877  0.1709
  256TMC3    C5 3879   2.429   0.376  10.259  0.9720 -0.3860  0.7468
  256TMC3    C6 3880   2.420   0.513  10.278  1.3663  0.5945 -0.3318
  256TMC3     C 3881   2.614   0.266  10.555 -0.7515  0.1611  0.0617
  256TMC3     O 3882   2.722   0.314  10.582  0.8002  0.7826 -0.3032
  256TMC3     H 3883   2.588   0.518  10.583  0.8248  2.3904 -0.7108
  256TMC3    H1 3884   2.499   0.190  10.342 -0.5550  0.1218  1.0608
  256TMC3    H2 3885   2.380   0.588  10.211  1.6944 -0.3410 -1.5833
  256TMC3    C7 3886   2.453   0.345  10.121 -0.2685 -0.0966  0.6112
  256TMC3    C8 3887   2.532   0.697  10.377  0.5045 -0.1804 -0.5448
  256TMC3    O1 3888   2.537   0.262  10.099  0.0639  0.0290  0.7207
  256TMC3    O2 3889   2.461   0.786  10.332 -0.2449  0.4343  0.9531
  257MPD2     C 3890   2.524   2.139  13.284 -0.1768 -0.0371 -0.6952
  257MPD2    C1 3891   2.476   2.036  13.199 -0.1882 -0.4240  0.7547
  257MPD2    C2 3892   2.442   1.912  13.250 -0.6336 -0.1121 -0.3088
  257MPD2    C3 3893   2.454   1.886  13.386 -0.1219  0.2885  0.5179
  257MPD2    C4 3894   2.498   1.991  13.468  0.5671 -0.1264  0.1834
  257MPD2    C5 3895   2.528   2.113  13.419 -0.4007  0.5413 -0.2931
  257MPD2     H 3896   2.416   1.838  13.176 -0.7375  0.2406 -0.6233
  257MPD2    H1 3897   2.516   1.980  13.575  1.0120 -2.3777 -0.1254
  257MPD2    H2 3898   2.540   2.239  13.244 -0.1246  0.1730 -0.1412
  257MPD2    H3 3899   2.577   2.177  13.491  1.1287 -1.7082  0.6564
  257MPD2     N 3900   2.409   1.759  13.435  0.0384  0.0823  0.1246
  257MPD2    H5 3901   2.355   1.707  13.367 -1.2734 -1.3852  2.2790
  257MPD2    N1 3902   2.490   2.067  13.063 -1.1147 -0.2476  1.0319
  257MPD2    H7 3903   2.534   2.155  13.040  1.7008 -1.6864  0.8945
  258TMC3    C1 3904   2.388   1.583  13.593 -0.6299  0.4060  0.1228
  258TMC3    C2 3905   2.417   1.491  13.496  0.2019  0.0563  0.5598
  258TMC3    C3 3906   2.438   1.365  13.530 -0.4215  0.2321 -0.5857
  258TMC3    C4 3907   2.382   1.548  13.725 -0.8407 -0.1541 -0.3194
  258TMC3    C5 3908   2.400   1.416  13.749  0.6448 -0.2349 -0.3659
  258TMC3    C6 3909   2.424   1.316  13.659  0.1482  0.4999  0.8416
  258TMC3     C 3910   2.418   1.718  13.567 -0.5296 -0.1998 -0.3876
  258TMC3     O 3911   2.467   1.778  13.660 -0.5215 -0.7281 -0.0173
  258TMC3     H 3912   2.453   1.527  13.400  2.0330 -0.1770  1.1582
  258TMC3    H1 3913   2.375   1.620  13.805  0.5419  0.4718 -0.7616
  258TMC3    H2 3914   2.416   1.211  13.683  0.6422  0.5538  1.2354
  258TMC3    C7 3915   2.423   1.384  13.891 -0.1824  0.5338 -0.0850
  258TMC3    C8 3916   2.424   1.268  13.418  0.2555  0.5963 -0.4842
  258TMC3    O1 3917   2.369   1.466  13.963  0.2209  0.6613 -0.6572
  258TMC3    O2 3918   2.459   1.154  13.442 -0.1294  0.4707  0.2711
  259MPD2     C 3919   1.905   3.664   1.379 -0.0497  0.0117  0.6614
  259MPD2    C1 3920   1.815   3.643   1.281 -0.6250  0.0443 -0.4705
  259MPD2    C2 3921   1.853   3.596   1.158 -0.5608 -0.4515 -0.7216
  259MPD2    C3 3922   1.987   3.573   1.132  0.2897  0.7052 -0.0114
  259MPD2    C4 3923   2.081   3.605   1.230 -1.2363  0.3309  0.1254
  259MPD2    C5 3924   2.033   3.638   1.355 -0.4625  0.8053 -0.6160
  259MPD2     H 3925   1.784   3.587   1.075 -0.9329 -0.9978 -0.3517
  259MPD2    H1 3926   2.187   3.593   1.214 -0.7068  0.8093  3.3931
  259MPD2    H2 3927   1.885   3.712   1.473 -1.6737 -3.1714  1.9698
  259MPD2    H3 3928   2.099   3.671   1.436 -0.8787 -2.3031  0.9773
  259MPD2     N 3929   2.018   3.517   1.007 -0.1087 -0.0955 -0.0304
  259MPD2    H5 3930   1.941   3.499   0.944 -0.9190  1.2695  0.5642
  259MPD2    N1 3931   1.686   3.691   1.303 -0.0868 -0.2134  0.2386
  259MPD2    H7 3932   1.663   3.734   1.392 -1.0610  2.4632 -1.3100
  260TMC3    C1 3933   2.153   3.442   0.827  0.1875 -0.4035 -1.0396
  260TMC3    C2 3934   2.252   3.362   0.782  0.9195  0.1317 -0.0325
  260TMC3    C3 3935   2.270   3.333   0.646 -0.2002 -0.1021  0.1136
  260TMC3    C4 3936   2.074   3.505   0.733  0.0787  0.0799  0.6594
  260TMC3    C5 3937   2.089   3.467   0.601  0.2429  1.0828  0.1320
  260TMC3    C6 3938   2.183   3.376   0.552  0.2917  0.1060  0.2570
  260TMC3     C 3939   2.141   3.460   0.970 -0.7035 -0.1108  0.3207
  260TMC3     O 3940   2.243   3.437   1.035  0.3917 -0.0316 -0.0915
  260TMC3     H 3941   2.315   3.316   0.857  2.7580 -1.5710 -2.6282
  260TMC3    H1 3942   2.005   3.581   0.767  0.4599 -0.1423  1.9666
  260TMC3    H2 3943   2.204   3.371   0.446  1.4385  0.2563  0.4687
  260TMC3    C7 3944   1.993   3.518   0.502  0.0945  0.7635 -0.1910
  260TMC3    C8 3945   2.369   3.239   0.602  0.1512 -0.8474  0.5494
  260TMC3    O1 3946   2.041   3.522   0.389  0.1833 -0.9466 -0.6946
  260TMC3    O2 3947   2.471   3.229   0.667  0.2423 -0.8037 -0.3231
  261MPD2     C 3948   2.628   1.472  12.342 -0.3428 -0.4722  0.0171
  261MPD2    C1 3949   2.748   1.501  12.408  0.0280  0.3943 -0.1482
  261MPD2    C2 3950   2.831   1.603  12.365 -0.4707 -0.4050 -0.3919
  261MPD2    C3 3951   2.789   1.685  12.267  0.4665  0.3998 -0.1588
  261MPD2    C4 3952   2.678   1.650  12.196  0.7809  0.2626  0.3521
  261MPD2    C5 3953   2.601   1.548  12.232  0.4619 -0.3887 -0.0449
  261MPD2     H 3954   2.912   1.633  12.430 -1.2080  1.2624 -0.2528
  261MPD2    H1 3955   2.636   1.723  12.127  1.7168 -0.5720 -1.0987
  261MPD2    H2 3956   2.562   1.394  12.378 -0.9898 -0.1619 -0.4982
  261MPD2    H3 3957   2.515   1.523  12.171 -0.4822 -0.1893  1.2210
  261MPD2     N 3958   2.858   1.805  12.246 -0.8081 -0.0152 -0.5566
  261MPD2    H5 3959   2.958   1.805  12.265 -1.0410 -2.1484  0.7332
  261MPD2    N1 3960   2.786   1.430  12.523 -0.9046 -0.2912  0.4021
  261MPD2    H7 3961   2.878   1.460  12.554 -0.3416  0.1213 -1.6834
  262TMC3    C1 3962   2.909   2.021  12.156  0.2226  0.8043 -0.6321
  262TMC3    C2 3963   2.861   2.151  12.150  0.2049  0.8025 -0.1113
  262TMC3    C3 3964   2.950   2.253  12.124 -0.4072  1.0882 -0.5375
  262TMC3    C4 3965   3.037   1.986  12.132 -0.3045 -0.7619 -0.1478
  262TMC3    C5 3966   3.120   2.090  12.115  0.2056 -0.1260  0.7054
  262TMC3    C6 3967   3.081   2.217  12.109 -0.4680 -0.3876 -0.1031
  262TMC3     C 3968   2.807   1.915  12.180 -0.2877 -0.1042  0.1230
  262TMC3     O 3969   2.692   1.937  12.144  0.3825  0.0132 -0.0783
  262TMC3     H 3970   2.758   2.172  12.176 -0.1439 -3.4087  2.0585
  262TMC3    H1 3971   3.073   1.884  12.120 -0.9173 -0.7713 -1.9089
  262TMC3    H2 3972   3.157   2.282  12.067 -0.4795  0.0855  0.6038
  262TMC3    C7 3973   3.218   2.081  12.015  0.3544 -0.0226  0.3564
  262TMC3    C8 3974   2.910   2.374  12.063 -0.2751  0.4307 -0.0364
  262TMC3    O1 3975   3.333   2.047  12.039 -0.0979  0.3933  0.1131
  262TMC3    O2 3976   3.000   2.446  12.024 -0.4070  0.1473 -0.4671
  263MPD2     C 3977   4.007   1.481  11.312  0.5707  0.0928 -0.3610
  263MPD2    C1 3978   4.109   1.518  11.233  0.0549 -0.7599  0.0734
  263MPD2    C2 3979   4.084   1.556  11.097  0.0203  0.0068  0.8707
  263MPD2    C3 3980   3.955   1.552  11.048 -0.5357 -0.4090 -0.7738
  263MPD2    C4 3981   3.851   1.510  11.131 -0.4313  0.0826  0.5838
  263MPD2    C5 3982   3.881   1.478  11.261  0.4038 -0.3163  0.3553
  263MPD2     H 3983   4.149   1.599  11.022 -2.9478  0.4025 -1.5130
  263MPD2    H1 3984   3.754   1.491  11.087 -0.1447  0.5428 -0.2389
  263MPD2    H2 3985   4.018   1.462  11.418 -0.3459 -1.2324 -0.5044
  263MPD2    H3 3986   3.794   1.457  11.323 -0.6396 -0.5285 -1.1864
  263MPD2     N 3987   3.921   1.594  10.918  0.5945  0.4216  0.4556
  263MPD2    H5 3988   4.008   1.613  10.869  1.3424  0.1340  1.6783
  263MPD2    N1 3989   4.241   1.527  11.285  0.1651 -0.2052 -0.0371
  263MPD2    H7 3990   4.246   1.514  11.385 -1.5337 -1.7425 -0.1558
  264TMC3    C1 3991   3.804   1.682  10.735  0.7334 -0.4603 -0.0763
  264TMC3    C2 3992   3.758   1.810  10.752  0.2982  0.1629  0.6721
  264TMC3    C3 3993   3.811   1.901  10.665  0.4372 -0.7384 -0.0563
  264TMC3    C4 3994   3.903   1.641  10.651  0.6066 -0.2262 -0.2883
  264TMC3    C5 3995   3.953   1.744  10.570 -0.1219 -0.0225  0.2387
  264TMC3    C6 3996   3.897   1.868  10.563  0.5573  0.4805 -0.6768
  264TMC3     C 3997   3.799   1.617  10.864 -0.1234 -0.1596  0.1101
  264TMC3     O 3998   3.706   1.653  10.933 -0.3018 -0.5587 -0.4247
  264TMC3     H 3999   3.682   1.844  10.822  0.2373  0.6435  0.3685
  264TMC3    H1 4000   3.958   1.548  10.657  1.7065  0.2898 -2.6923
  264TMC3    H2 4001   3.930   1.951  10.501 -0.0390 -0.2137 -1.9180
  264TMC3    C7 4002   4.102   1.762  10.563 -0.1255 -0.2499  0.0934
  264TMC3    C8 4003   3.840   2.043  10.713  0.1706  0.5486 -0.5265
  264TMC3    O1 4004   4.173   1.665  10.545 -0.0891  0.0778  0.4367
  264TMC3    O2 4005   3.893   2.111  10.625 -0.1957 -0.1791  0.2966
  265MPD2     C 4006   1.424   1.942  15.548 -1.0404 -0.2891 -0.3926
  265MPD2    C1 4007   1.483   2.055  15.494  0.0737  0.0854 -0.1110
  265MPD2    C2 4008   1.540   2.044  15.371 -0.2278 -0.1196  0.3556
  265MPD2    C3 4009   1.535   1.930  15.296 -0.0141  0.0428 -0.2439
  265MPD2    C4 4010   1.476   1.818  15.354  0.0716  0.2100  0.0535
  265MPD2    C5 4011   1.426   1.824  15.481 -0.7146  1.0472  0.4161
  265MPD2     H 4012   1.601   2.119  15.322 -0.1303 -0.8728 -0.6846
  265MPD2    H1 4013   1.474   1.725  15.298  0.7738  1.2423 -1.6924
  265MPD2    H2 4014   1.374   1.938  15.644 -0.6983  0.2515 -0.1926
  265MPD2    H3 4015   1.382   1.734  15.523 -0.3358  0.8482  0.3804
  265MPD2     N 4016   1.581   1.902  15.167  0.1108 -0.4908  0.3275
  265MPD2    H5 4017   1.562   1.808  15.135 -0.0601 -0.2284 -0.3415
  265MPD2    N1 4018   1.488   2.182  15.558 -0.2915 -0.6206 -0.2352
  265MPD2    H7 4019   1.531   2.253  15.499  0.6998 -1.6807 -0.8005
  266TMC3    C1 4020   1.435   2.365  15.705  0.3263 -1.0711  0.2324
  266TMC3    C2 4021   1.383   2.412  15.824 -0.3361  0.4849  0.3047
  266TMC3    C3 4022   1.395   2.541  15.858 -0.9540  0.2827 -0.1430
  266TMC3    C4 4023   1.467   2.453  15.603  0.1708 -0.2182 -0.2049
  266TMC3    C5 4024   1.462   2.589  15.634 -0.3005  0.5944 -0.3264
  266TMC3    C6 4025   1.435   2.639  15.769  0.5715  0.0921 -0.0961
  266TMC3     C 4026   1.420   2.223  15.669 -0.4416  0.7272 -0.7129
  266TMC3     O 4027   1.348   2.160  15.748  0.1942  0.2420  0.0363
  266TMC3     H 4028   1.391   2.341  15.906  1.7126  0.3663 -0.0185
  266TMC3    H1 4029   1.460   2.430  15.498  1.7035  3.4192 -1.0925
  266TMC3    H2 4030   1.429   2.745  15.790  0.4076 -0.3628  2.1553
  266TMC3    C7 4031   1.509   2.697  15.545 -0.1420 -0.3738 -0.0061
  266TMC3    C8 4032   1.316   2.592  15.979 -0.7401  0.6719 -0.9645
  266TMC3    O1 4033   1.515   2.811  15.590  0.0322 -0.0752  0.1716
  266TMC3    O2 4034   1.229   2.521  16.024 -0.2804  0.5320  0.7755
  267MPD2     C 4035   0.147   4.196   0.380  0.6085  1.0953 -1.3395
  267MPD2    C1 4036   0.082   4.285   0.293  0.3420 -0.7066  0.2953
  267MPD2    C2 4037   4.689   4.243   0.223  0.0219  0.2376  0.3184
  267MPD2    C3 4038   4.630   4.118   0.252 -0.5166 -0.0818  0.4265
  267MPD2    C4 4039   4.684   4.040   0.353 -0.2058  0.1179 -0.2023
  267MPD2    C5 4040   0.083   4.077   0.409 -0.6827 -0.2756 -0.3978
  267MPD2     H 4041   4.641   4.306   0.148  1.7896 -0.7010 -1.5680
  267MPD2    H1 4042   4.639   3.946   0.382  1.4411 -0.4069  0.6316
  267MPD2    H2 4043   0.241   4.205   0.433  0.1658 -3.0736  0.2319
  267MPD2    H3 4044   0.141   4.018   0.480  0.9999 -0.5192 -1.9602
  267MPD2     N 4045   4.516   4.066   0.186  0.8996 -0.2334 -0.4612
  267MPD2    H5 4046   4.481   3.978   0.224 -0.5692  0.5897  0.1154
  267MPD2    N1 4047   0.122   4.423   0.299  0.2548 -0.2490  0.0676
  267MPD2    H7 4048   0.186   4.444   0.375 -0.7640  0.3588  0.7553
  268TMC3    C1 4049   0.118   4.653   0.249  0.0420 -0.3417  0.4663
  268TMC3    C2 4050   0.048   0.026   0.176  0.0189 -0.2227  0.0782
  268TMC3    C3 4051   0.019   0.147   0.226  0.2451  0.5830 -0.0024
  268TMC3    C4 4052   0.150   4.683   0.377  0.6230  0.2711  0.0880
  268TMC3    C5 4053   0.133   0.088   0.421  0.4480  0.0390  0.1422
  268TMC3    C6 4054   0.070   0.187   0.350 -0.4575 -0.7350 -0.5240
  268TMC3     C 4055   0.092   4.516   0.204 -0.7637  0.5385 -0.7684
  268TMC3     O 4056   0.021   4.507   0.106 -0.0787 -0.1866 -0.1509
  268TMC3     H 4057   0.007   0.000   0.079 -0.1686 -0.1213  0.1295
  268TMC3    H1 4058   0.184   4.603   0.441  0.7638 -0.1529 -0.5245
  268TMC3    H2 4059   0.046   0.288   0.379  0.6808 -0.0894 -1.8326
  268TMC3    C7 4060   0.195   0.119   0.546  0.4362  0.6940 -0.5518
  268TMC3    C8 4061   4.686   0.255   0.146 -0.4544  0.3720  0.4184
  268TMC3    O1 4062   0.286   0.051   0.586 -0.1267 -0.2231 -0.3980
  268TMC3    O2 4063   4.713   0.373   0.167 -0.2264  0.2457  0.1785
  269MPD2     C 4064   3.641   2.680  15.823 -0.2139  0.3440 -0.1070
  269MPD2    C1 4065   3.533   2.708  15.744  0.1638  0.0552  0.5785
  269MPD2    C2 4066   3.543   2.812  15.658  0.4595 -0.3784 -0.4141
  269MPD2    C3 4067   3.666   2.880  15.636 -0.0180  0.5503 -0.3608
  269MPD2    C4 4068   3.779   2.836  15.706  0.0239 -0.6992 -0.5663
  269MPD2    C5 4069   3.762   2.746  15.812  0.3135  0.1109  0.2325
  269MPD2     H 4070   3.459   2.845  15.598  1.2465  2.6197  0.1235
  269MPD2    H1 4071   3.870   2.893  15.695 -1.0937  1.4227  1.0824
  269MPD2    H2 4072   3.638   2.596  15.891 -0.2722 -0.9162 -1.6709
  269MPD2    H3 4073   3.841   2.703  15.872  0.5664  0.3093  0.0410
  269MPD2     N 4074   3.665   2.986  15.544  0.2115  0.5612 -1.0703
  269MPD2    H5 4075   3.582   3.002  15.488 -0.1633  1.2518 -0.3019
  269MPD2    N1 4076   3.421   2.623  15.766 -0.1908  0.3801  0.1253
  269MPD2    H7 4077   3.432   2.544  15.829 -0.7803 -0.1120 -0.3874
  270TMC3    C1 4078   3.218   2.518  15.738  1.1858  0.4278 -0.2159
  270TMC3    C2 4079   3.154   2.456  15.633 -0.3864  0.2131  0.1280
  270TMC3    C3 4080   3.120   2.321  15.649 -0.0537 -1.0470  0.6762
  270TMC3    C4 4081   3.262   2.453  15.850 -0.1017 -0.2535 -0.6775
  270TMC3    C5 4082   3.222   2.325  15.868 -0.2617  0.7033 -0.5784
  270TMC3    C6 4083   3.158   2.261  15.765  0.3085  0.0639 -0.0053
  270TMC3     C 4084   3.298   2.640  15.707 -0.5702 -0.3999 -0.1025
  270TMC3     O 4085   3.261   2.718  15.621 -0.3802  0.4773 -0.3601
  270TMC3     H 4086   3.117   2.511  15.548 -0.3197 -1.9113 -1.2741
  270TMC3    H1 4087   3.305   2.501  15.937 -4.1116  1.3852  0.4177
  270TMC3    H2 4088   3.124   2.159  15.773 -1.5510  0.6120 -0.9258
  270TMC3    C7 4089   3.308   2.241  15.941 -0.9448 -0.8470  0.7709
  270TMC3    C8 4090   3.134   2.250  15.530  0.9972  0.1438  0.5855
  270TMC3    O1 4091   3.429   2.264  15.943  0.6180 -0.2813  0.3695
  270TMC3    O2 4092   3.179   2.311  15.434 -0.0415 -0.2207 -0.3722
  271MPD2     C 4093   3.007   2.192  13.957  0.1956  0.4743  0.0579
  271MPD2    C1 4094   2.951   2.084  14.010  0.2190  0.1848  0.0325
  271MPD2    C2 4095   2.829   2.045  13.963 -0.0300  0.7143 -0.0961
  271MPD2    C3 4096   2.760   2.119  13.871 -0.3637  0.0683  0.5021
  271MPD2    C4 4097   2.833   2.215  13.804 -0.0858 -0.1558  0.2126
  271MPD2    C5 4098   2.953   2.255  13.853 -0.3553  0.2168 -0.2484
  271MPD2     H 4099   2.788   1.960  14.018  0.3618  2.2089  2.4815
  271MPD2    H1 4100   2.782   2.273  13.728  0.1278 -1.1755 -0.6893
  271MPD2    H2 4101   3.096   2.242  13.994 -0.0945  0.3056  0.9865
  271MPD2    H3 4102   3.013   2.334  13.808  0.1686 -0.0104  0.0551
  271MPD2     N 4103   2.625   2.095  13.844 -0.0675 -0.1429  0.3325
  271MPD2    H5 4104   2.566   2.170  13.809 -0.2196  0.1431  1.2064
  271MPD2    N1 4105   3.009   2.011  14.110 -0.2692  0.2136 -0.4881
  271MPD2    H7 4106   2.961   1.944  14.168  0.3821  0.3066  0.1605
  272TMC3    C1 4107   3.163   1.954  14.272  0.5394 -0.4422 -0.3633
  272TMC3    C2 4108   3.274   1.876  14.291  0.0449 -0.3838 -0.3658
  272TMC3    C3 4109   3.334   1.870  14.416 -0.2779  0.1869  0.4211
  272TMC3    C4 4110   3.093   1.998  14.381 -0.5058  0.5278  0.0503
  272TMC3    C5 4111   3.142   1.972  14.511  0.3577  0.9336 -0.3591
  272TMC3    C6 4112   3.266   1.914  14.528  0.2137 -0.5765 -0.1249
  272TMC3     C 4113   3.142   2.013  14.145 -0.0934 -0.2662  0.2037
  272TMC3     O 4114   3.243   2.039  14.081 -0.8755  0.5677  0.2314
  272TMC3     H 4115   3.326   1.850  14.199 -0.4536 -0.7754 -0.5344
  272TMC3    H1 4116   3.008   2.065  14.371 -0.6067  0.5666  1.2087
  272TMC3    H2 4117   3.310   1.907  14.627 -1.5622 -2.1778  0.5514
  272TMC3    C7 4118   3.073   2.019  14.628  0.3107 -0.3382 -0.1922
  272TMC3    C8 4119   3.476   1.830  14.418 -0.9074  0.2422 -0.6536
  272TMC3    O1 4120   2.952   2.007  14.627  0.1763  0.4510 -0.2415
  272TMC3    O2 4121   3.516   1.805  14.308 -0.3337  0.1894  0.1992
  273MPD2     C 4122   4.454   0.223  11.722  0.2145 -0.7979 -0.1422
  273MPD2    C1 4123   4.581   0.273  11.740 -0.5378 -0.1140  0.0950
  273MPD2    C2 4124   4.645   0.342  11.637 -0.5036  1.0283  0.4384
  273MPD2    C3 4125   4.587   0.341  11.508 -0.1896  0.3463 -0.1917
  273MPD2    C4 4126   4.472   0.277  11.490  0.6284 -0.6388 -0.2885
  273MPD2    C5 4127   4.399   0.229  11.598  0.0014 -0.0772 -0.8595
  273MPD2     H 4128   0.027   0.370  11.643 -0.0391 -0.2819 -1.6407
  273MPD2    H1 4129   4.424   0.275  11.393  3.4308 -0.9396 -1.6654
  273MPD2    H2 4130   4.396   0.180  11.802 -0.5194  0.4463 -0.0018
  273MPD2    H3 4131   4.309   0.176  11.569  0.2724 -0.3648 -1.1669
  273MPD2     N 4132   4.640   0.403  11.391 -0.4129  0.4426  0.4183
  273MPD2    H5 4133   4.583   0.381  11.310 -1.5980 -0.2986  1.4457
  273MPD2    N1 4134   4.636   0.267  11.872  0.2852  0.2183 -0.3961
  273MPD2    H7 4135   4.574   0.229  11.944  0.2439  3.3530  1.2444
  274TMC3    C1 4136   0.052   0.515  11.242 -0.2299  0.2842  0.2822
  274TMC3    C2 4137   4.687   0.472  11.142 -0.3296 -0.2675 -0.2245
  274TMC3    C3 4138   4.692   0.537  11.025 -0.5370  0.5921  0.8805
  274TMC3    C4 4139   0.124   0.630  11.229 -0.1280 -0.6662 -0.4755
  274TMC3    C5 4140   0.126   0.697  11.109  0.5003  0.3609 -0.2006
  274TMC3    C6 4141   0.049   0.648  11.007 -0.5680  0.0785  0.4256
  274TMC3     C 4142   0.029   0.476  11.382  0.3979  0.1373  0.3129
  274TMC3     O 4143   0.099   0.525  11.468  0.2092 -0.2403 -0.5730
  274TMC3     H 4144   4.626   0.382  11.139  1.7807 -1.7028  0.4142
  274TMC3    H1 4145   0.175   0.675  11.313  0.2529 -2.0369  0.0348
  274TMC3    H2 4146   0.016   0.719  10.932 -2.2723  0.5252  1.6010
  274TMC3    C7 4147   0.180   0.832  11.099  0.2643  0.5075  0.2752
  274TMC3    C8 4148   4.561   0.538  10.963  0.3011  0.2260  0.0578
  274TMC3    O1 4149   0.131   0.916  11.028 -0.3841 -0.2298 -0.2253
  274TMC3    O2 4150   4.458   0.507  11.028 -0.2154  0.2624 -0.2284
  275MPD2     C 4151   4.602   2.998  14.165  1.1156 -1.0894 -0.0278
  275MPD2    C1 4152   4.540   3.043  14.278 -0.1633  0.4540  0.5506
  275MPD2    C2 4153   4.413   3.002  14.302  0.1491  0.0771 -0.2474
  275MPD2    C3 4154   4.348   2.913  14.220  0.3607  0.0066  0.0495
  275MPD2    C4 4155   4.412   2.870  14.107 -0.0643 -0.3784  0.0512
  275MPD2    C5 4156   4.533   2.920  14.080 -0.1852 -0.3441  0.5697
  275MPD2     H 4157   4.370   3.028  14.398  1.8976 -1.2021  0.8712
  275MPD2    H1 4158   4.367   2.815  14.025 -1.1295  0.8110 -0.1623
  275MPD2    H2 4159   4.706   3.018  14.141 -0.1996  1.0586 -3.9408
  275MPD2    H3 4160   4.587   2.895  13.989  0.4479  2.4888  0.1715
  275MPD2     N 4161   4.216   2.880  14.235 -0.3293 -0.1974  0.5661
  275MPD2    H5 4162   4.167   2.833  14.160  2.7455  0.2288 -1.7187
  275MPD2    N1 4163   4.607   3.121  14.375 -0.2278  0.0726 -0.5098
  275MPD2    H7 4164   4.560   3.143  14.462 -0.5317  0.1066 -0.6838
  276TMC3    C1 4165   0.068   3.216  14.498 -0.0763  0.3383  0.4817
  276TMC3    C2 4166   4.720   3.197  14.615 -0.1084 -1.0129  1.0564
  276TMC3    C3 4167   0.067   3.227  14.735 -0.4019  0.5501  0.4431
  276TMC3    C4 4168   0.204   3.245  14.502  0.0460 -0.0554  0.1656
  276TMC3    C5 4169   0.268   3.276  14.616 -0.3858  0.4961 -0.2242
  276TMC3    C6 4170   0.200   3.268  14.737 -0.2788  0.3217 -0.1989
  276TMC3     C 4171   0.014   3.162  14.377  0.2345 -0.3176  0.3508
  276TMC3     O 4172   0.096   3.151  14.289 -0.4814  0.3625  0.4692
  276TMC3     H 4173   4.614   3.173  14.614  0.2216 -2.4814 -1.4319
  276TMC3    H1 4174   0.262   3.266  14.413 -0.2849  1.8745  0.4182
  276TMC3    H2 4175   0.242   3.287  14.835  2.4019 -1.6981 -0.9682
  276TMC3    C7 4176   0.406   3.315  14.619  0.1011  0.0302  0.4130
  276TMC3    C8 4177   4.713   3.227  14.861 -0.7326 -0.1888  0.2980
  276TMC3    O1 4178   0.465   3.302  14.511  0.3787 -0.5628 -1.1975
  276TMC3    O2 4179   0.017   3.318  14.945 -0.0133  0.0888 -0.6419
  277MPD2     C 4180   1.542   1.903  13.288 -0.0193  0.1640 -0.0620
  277MPD2    C1 4181   1.410   1.912  13.257  0.2125 -0.8023  0.5413
  277MPD2    C2 4182   1.314   1.838  13.325  0.0516 -0.7057 -0.2873
  277MPD2    C3 4183   1.362   1.757  13.421  0.0884 -0.1114 -0.8717
  277MPD2    C4 4184   1.495   1.759  13.468 -0.5440  0.5195 -0.4332
  277MPD2    C5 4185   1.582   1.827  13.394  0.4021  0.5129 -0.5745
  277MPD2     H 4186   1.207   1.841  13.305 -0.2875 -0.5232  1.5053
  277MPD2    H1 4187   1.526   1.692  13.548 -3.2938 -0.0207  0.1615
  277MPD2    H2 4188   1.621   1.953  13.233  0.6652  0.8312  1.5307
  277MPD2    H3 4189   1.687   1.815  13.418 -0.1125 -1.3509  0.7579
  277MPD2     N 4190   1.257   1.692  13.487 -0.0242  0.5380 -0.2357
  277MPD2    H5 4191   1.161   1.694  13.455 -0.6072 -0.3101  1.4379
  277MPD2    N1 4192   1.385   1.999  13.144 -0.2980 -0.9029 -0.2767
  277MPD2    H7 4193   1.458   2.065  13.120 -1.0113  0.4035  1.1573
  278TMC3    C1 4194   1.140   1.556  13.624 -0.1517 -0.2860 -0.0290
  278TMC3    C2 4195   1.112   1.497  13.504  0.5043 -0.4308 -0.7371
  278TMC3    C3 4196   0.991   1.448  13.488 -0.3589  0.3914 -0.0372
  278TMC3    C4 4197   1.045   1.586  13.721  0.0952 -0.3937  0.0966
  278TMC3    C5 4198   0.921   1.560  13.680  0.2760  0.0423 -0.5805
  278TMC3    C6 4199   0.889   1.488  13.571  0.2993  0.4061  0.2047
  278TMC3     C 4200   1.266   1.624  13.604  0.7441 -0.4053 -0.1598
  278TMC3     O 4201   1.359   1.588  13.676  0.7657  0.1368  0.0917
  278TMC3     H 4202   1.197   1.474  13.441  1.5068  3.0859 -0.6334
  278TMC3    H1 4203   1.063   1.656  13.802 -0.2272 -0.2315  0.0275
  278TMC3    H2 4204   0.787   1.476  13.538  0.8149 -0.8765 -0.9119
  278TMC3    C7 4205   0.804   1.633  13.725  0.0732  0.1103  0.3408
  278TMC3    C8 4206   0.961   1.413  13.352 -0.0978 -0.1618  0.0762
  278TMC3    O1 4207   0.807   1.753  13.744 -0.8349 -0.0677  0.5352
  278TMC3    O2 4208   0.854   1.442  13.307 -0.1114  0.2134 -0.1402
  279MPD2     C 4209   0.765   2.413   0.376  0.0165  0.0707  0.0116
  279MPD2    C1 4210   0.724   2.538   0.416 -0.1379  0.0448  0.5349
  279MPD2    C2 4211   0.747   2.647   0.328  0.0612  0.7220  0.3556
  279MPD2    C3 4212   0.800   2.621   0.202  0.2763  0.3606 -0.3965
  279MPD2    C4 4213   0.841   2.492   0.171 -0.1077 -0.3469 -0.3470
  279MPD2    C5 4214   0.830   2.394   0.259 -0.1891 -0.1209  0.6754
  279MPD2     H 4215   0.717   2.748   0.352  1.3696  1.3131 -0.4730
  279MPD2    H1 4216   0.877   2.484   0.069 -1.8153 -2.1554 -0.8050
  279MPD2    H2 4217   0.764   2.325   0.441 -1.1672  0.7866  0.9823
  279MPD2    H3 4218   0.868   2.295   0.236 -0.7988 -0.2042  0.0757
  279MPD2     N 4219   0.808   2.711   0.096 -0.1612  0.2587 -0.8241
  279MPD2    H5 4220   0.831   2.677   0.004 -1.6828  0.2150 -1.1834
  279MPD2    N1 4221   0.642   2.543   0.533  0.1264 -0.0065 -0.1568
  279MPD2    H7 4222   0.614   2.453   0.568  0.2716 -0.2698 -0.7167
  280TMC3    C1 4223   0.489   2.631   0.688 -0.8281 -0.2675  0.1433
  280TMC3    C2 4224   0.386   2.552   0.638  0.1765 -0.1721  0.5035
  280TMC3    C3 4225   0.265   2.590   0.684 -0.0565 -0.7227 -0.1362
  280TMC3    C4 4226   0.465   2.737   0.768  0.6535  1.1912 -0.3341
  280TMC3    C5 4227   0.335   2.773   0.795 -0.0965  0.2426 -0.4524
  280TMC3    C6 4228   0.232   2.701   0.753  0.5703  0.4192 -0.5217
  280TMC3     C 4229   0.589   2.656   0.586 -0.3834  0.8893  0.7373
  280TMC3     O 4230   0.621   2.774   0.557 -0.0809  0.1948  0.1141
  280TMC3     H 4231   0.400   2.475   0.563  3.7372 -0.1510  1.1558
  280TMC3    H1 4232   0.537   2.811   0.800  0.8095  0.7920  0.2308
  280TMC3    H2 4233   0.131   2.735   0.775  0.1713 -1.9102  1.2441
  280TMC3    C7 4234   0.323   2.915   0.822  0.5481 -0.0926 -0.4629
  280TMC3    C8 4235   0.157   2.503   0.650 -0.7329 -0.2143  0.1360
  280TMC3    O1 4236   0.406   2.955   0.900  0.2648 -0.5836 -0.2714
  280TMC3    O2 4237   0.168   2.458   0.538 -0.1301  0.4819  0.1884
  281TMC3    C1 4238   4.057   2.263  12.720  0.9177  0.0809 -0.1116
  281TMC3    C2 4239   3.975   2.327  12.624  0.5572  0.0049  0.2741
  281TMC3    C3 4240   3.890   2.249  12.551 -0.3401  0.3486  0.0852
  281TMC3    C4 4241   4.069   2.127  12.711 -0.1644 -0.2476  0.3416
  281TMC3    C5 4242   3.985   2.061  12.618 -0.0383  0.1227  0.1478
  281TMC3    C6 4243   3.897   2.119  12.532 -0.2516  0.1600  0.7526
  281TMC3     C 4244   4.082   2.331  12.846  0.3013 -0.5624  0.2170
  281TMC3     O 4245   4.168   2.293  12.919 -0.0057  0.3182  0.0120
  281TMC3     H 4246   3.977   2.434  12.613  0.6741  0.0710  0.9562
  281TMC3    H1 4247   4.135   2.076  12.780  0.3644 -1.1980 -0.8775
  281TMC3    H2 4248   3.831   2.056  12.473 -0.7234 -0.5292  2.0078
  281TMC3    C7 4249   3.985   1.915  12.630  0.0604  1.1301  0.5031
  281TMC3    C8 4250   3.759   2.301  12.513  1.1603  0.3798 -0.0657
  281TMC3    O1 4251   3.997   1.840  12.532 -0.2887  0.0281  0.2453
  281TMC3    O2 4252   3.669   2.225  12.484  0.0905  0.3752 -0.1668
  282MPD2     C 4253   1.664   3.813  15.265 -1.1079 -0.0391  0.1958
  282MPD2    C1 4254   1.531   3.787  15.285  0.3173  0.0417  0.2430
  282MPD2    C2 4255   1.426   3.799  15.193  0.8115  0.7317 -0.2840
  282MPD2    C3 4256   1.465   3.834  15.066  0.7410  0.3451  0.3345
  282MPD2    C4 4257   1.600   3.867  15.038  0.0366  0.4761  0.6394
  282MPD2    C5 4258   1.695   3.855  15.138  0.0950 -0.3999  0.0693
  282MPD2     H 4259   1.327   3.765  15.220  0.8518  0.2030 -0.8031
  282MPD2    H1 4260   1.633   3.903  14.941 -1.3824  1.7227  0.6289
  282MPD2    H2 4261   1.737   3.813  15.345 -0.4692  0.3229 -0.3841
  282MPD2    H3 4262   1.799   3.881  15.121 -0.2184  1.0941  0.3894
  282MPD2     N 4263   1.359   3.834  14.969 -0.1800  0.0109  0.0511
  282MPD2    H5 4264   1.267   3.819  15.008  0.3304  1.3718  1.7877
  282MPD2    N1 4265   1.498   3.768  15.428 -0.3510 -0.8379 -0.1806
  282MPD2    H7 4266   1.574   3.786  15.492  0.0270 -0.4763 -0.7321
  283TMC3    C1 4267   1.370   3.726  15.624 -0.1314  0.2865 -0.2171
  283TMC3    C2 4268   1.424   3.831  15.695  0.5152  0.3350 -0.2282
  283TMC3    C3 4269   1.386   3.847  15.831 -0.5841  0.5445 -0.1073
  283TMC3    C4 4270   1.276   3.638  15.677 -0.5856  0.0301 -0.3001
  283TMC3    C5 4271   1.257   3.642  15.812  0.1908  0.4006  0.6655
  283TMC3    C6 4272   1.316   3.741  15.886  0.2221  0.1380 -1.1063
  283TMC3     C 4273   1.388   3.702  15.475  0.0184 -0.1642 -0.3231
  283TMC3     O 4274   1.297   3.643  15.420  0.0808 -0.0862 -0.3964
  283TMC3     H 4275   1.484   3.905  15.644 -1.3674  2.7943  1.1466
  283TMC3    H1 4276   1.239   3.557  15.615  0.1314  0.0938 -0.8021
  283TMC3    H2 4277   1.295   3.748  15.992 -0.4896  1.4422 -1.3353
  283TMC3    C7 4278   1.138   3.560  15.870 -0.0495  0.1968 -0.0260
  283TMC3    C8 4279   1.357   3.982  15.889 -0.4621  0.1570 -0.3466
  283TMC3    O1 4280   1.117   3.587  15.991  0.8317 -0.1607  0.3731
  283TMC3    O2 4281   1.341   3.985  16.010 -0.1957  0.0494 -0.2002
  284MPD2     C 4282   3.927   3.361  11.740 -0.4049 -0.1470  0.4347
  284MPD2    C1 4283   4.062   3.393  11.727  0.9427 -0.2548 -0.0254
  284MPD2    C2 4284   4.149   3.343  11.821  0.7669 -0.7819 -0.3830
  284MPD2    C3 4285   4.107   3.254  11.918  0.4020 -0.9333  0.3331
  284MPD2    C4 4286   3.974   3.222  11.933 -0.3311 -0.5839 -0.1687
  284MPD2    C5 4287   3.885   3.283  11.846  1.0111 -0.3743 -1.0875
  284MPD2     H 4288   4.253   3.372  11.814  0.0766  2.2945  2.0513
  284MPD2    H1 4289   3.946   3.146  12.005 -1.0360  0.3682  0.5522
  284MPD2    H2 4290   3.847   3.386  11.671  1.2859  0.9771 -1.1133
  284MPD2    H3 4291   3.784   3.244  11.851  0.9355  0.3410  2.8337
  284MPD2     N 4292   4.215   3.194  11.990  0.0187 -0.0623 -0.3555
  284MPD2    H5 4293   4.310   3.221  11.966 -0.3088  1.6946  0.4110
  284MPD2    N1 4294   4.116   3.459  11.622  0.7093  0.1467  0.4856
  284MPD2    H7 4295   4.216   3.475  11.627  0.5667 -0.1099  4.1097
  285TMC3    C1 4296   4.161   3.494  11.401  0.4042 -0.4048  0.3222
  285TMC3    C2 4297   4.196   3.392  11.317 -0.3283 -0.1906 -0.4995
  285TMC3    C3 4298   4.325   3.385  11.269 -0.6135  0.4378 -0.8792
  285TMC3    C4 4299   4.251   3.586  11.439 -0.3586 -0.5288 -0.2205
  285TMC3    C5 4300   4.368   3.590  11.372  0.5545 -0.3887  0.3987
  285TMC3    C6 4301   4.413   3.487  11.297 -0.1848  0.2141 -0.8687
  285TMC3     C 4302   4.059   3.459  11.495  0.7341  0.5655 -1.1949
  285TMC3     O 4303   3.963   3.393  11.452 -0.7174  0.3382  0.1947
  285TMC3     H 4304   4.130   3.306  11.306 -1.4626  0.6911 -0.5402
  285TMC3    H1 4305   4.220   3.663  11.508  2.0533 -2.8330  3.4441
  285TMC3    H2 4306   4.514   3.484  11.260  0.7747  1.0949  1.7103
  285TMC3    C7 4307   4.458   3.685  11.424  0.2260 -0.0959 -0.2217
  285TMC3    C8 4308   4.370   3.250  11.224  0.2607 -0.0752  0.2900
  285TMC3    O1 4309   4.418   3.801  11.441 -0.1734 -0.3370  0.3336
  285TMC3    O2 4310   4.285   3.163  11.208  0.6571  0.1178 -0.3396
  286MPD2     C 4311   4.456   2.523   1.920  0.6848  0.7621  0.0864
  286MPD2    C1 4312   4.438   2.527   1.788 -0.0661  0.6722 -0.3350
  286MPD2    C2 4313   4.490   2.426   1.704 -0.1175  0.0417  0.1695
  286MPD2    C3 4314   4.553   2.318   1.757 -0.3939  0.2113 -0.1287
  286MPD2    C4 4315   4.574   2.318   1.891 -0.3804  0.3397  0.6437
  286MPD2    C5 4316   4.525   2.415   1.976 -0.1441  0.7888 -0.1675
  286MPD2     H 4317   4.476   2.441   1.597 -2.1468 -1.6935  0.1911
  286MPD2    H1 4318   4.630   2.235   1.934  0.2610  0.0706 -0.7148
  286MPD2    H2 4319   4.397   2.577   1.993  2.5287  1.2198  1.2581
  286MPD2    H3 4320   4.540   2.404   2.083 -0.5098  1.1238 -0.0824
  286MPD2     N 4321   4.620   2.213   1.690 -0.0420 -0.2822  0.1296
  286MPD2    H5 4322   4.694   2.157   1.730 -0.7812 -1.1795  0.2155
  286MPD2    N1 4323   4.373   2.637   1.720 -0.1925 -0.2271 -0.4008
  286MPD2    H7 4324   4.353   2.631   1.621  0.8005  0.7327 -0.6555
  287TMC3    C1 4325   4.665   2.070   1.517  0.4468 -0.7206 -0.4784
  287TMC3    C2 4326   4.613   1.996   1.407 -0.6003 -0.1700 -0.2135
  287TMC3    C3 4327   4.676   1.888   1.355 -0.0322  0.2314  0.5650
  287TMC3    C4 4328   0.065   2.032   1.573  0.3649  0.2878 -0.2084
  287TMC3    C5 4329   0.135   1.933   1.514 -0.3949 -0.3813  0.3069
  287TMC3    C6 4330   0.078   1.852   1.417 -0.0957  0.4065  0.1825
  287TMC3     C 4331   4.596   2.186   1.564  0.4831 -0.1712 -0.9400
  287TMC3     O 4332   4.505   2.228   1.493 -0.2401  0.2794 -0.1710
  287TMC3     H 4333   4.518   2.032   1.367  0.4275  0.5494 -1.9766
  287TMC3    H1 4334   0.100   2.083   1.662  0.8979 -0.0342 -0.2332
  287TMC3    H2 4335   0.122   1.759   1.383  1.8331  1.3407  0.1211
  287TMC3    C7 4336   0.268   1.896   1.567  0.3212  0.0927  0.4463
  287TMC3    C8 4337   4.620   1.802   1.250  0.1962 -0.2478 -0.3813
  287TMC3    O1 4338   0.283   1.909   1.687  0.2068  0.5934  0.0032
  287TMC3    O2 4339   4.701   1.720   1.212  0.1270 -0.0918 -0.3180
  288TMC3    C1 4340   1.098   1.823  14.706  0.0572  0.1948 -0.1833
  288TMC3    C2 4341   1.102   1.734  14.808 -0.8300 -0.2307 -0.3855
  288TMC3    C3 4342   1.145   1.776  14.937  0.0445 -0.3827  0.1553
  288TMC3    C4 4343   1.145   1.947  14.720  0.1300 -0.2698 -0.7021
  288TMC3    C5 4344   1.198   1.992  14.841 -0.2427 -0.0480 -0.6776
  288TMC3    C6 4345   1.197   1.904  14.945 -0.8864 -0.6822 -0.3077
  288TMC3     C 4346   1.047   1.790  14.573 -0.0200 -0.0443 -0.5526
  288TMC3     O 4347   1.026   1.891  14.508  0.4790  0.4547  0.4394
  288TMC3     H 4348   1.069   1.631  14.804 -0.0214 -0.5528  1.2451
  288TMC3    H1 4349   1.120   2.021  14.645 -1.2736 -2.1139 -2.0825
  288TMC3    H2 4350   1.245   1.931  15.039  0.4850 -1.4675 -0.7758
  288TMC3    C7 4351   1.308   2.086  14.830 -0.8311  0.6110 -0.0415
  288TMC3    C8 4352   1.186   1.671  15.027  0.4322 -0.1473  0.7347
  288TMC3    O1 4353   1.358   2.125  14.936 -0.0187  0.0291 -0.0203
  288TMC3    O2 4354   1.296   1.699  15.075 -0.1974 -0.2500  0.3026
  289MPD2     C 4355   1.594   0.853  14.744 -0.7546 -0.3577  0.2100
  289MPD2    C1 4356   1.548   0.966  14.683  0.3949  0.5565  0.6501
  289MPD2    C2 4357   1.429   0.962  14.622  0.5158 -0.0843  0.9717
  289MPD2    C3 4358   1.352   0.842  14.615 -0.1299 -0.1165  0.6851
  289MPD2    C4 4359   1.405   0.732  14.683  0.9118  0.5732  0.3112
  289MPD2    C5 4360   1.528   0.736  14.739 -0.0413 -0.0310 -0.1108
  289MPD2     H 4361   1.383   1.055  14.592 -2.4149 -1.7202  0.3513
  289MPD2    H1 4362   1.355   0.636  14.683  1.4064  0.3177  1.4428
  289MPD2    H2 4363   1.692   0.860  14.790  0.0142 -1.3902 -1.2758
  289MPD2    H3 4364   1.573   0.645  14.778 -0.3283 -1.2846 -2.7180
  289MPD2     N 4365   1.216   0.830  14.572  0.0747  0.4009  0.3892
  289MPD2    H5 4366   1.168   0.741  14.589 -0.3715  1.1568  3.0237
  289MPD2    N1 4367   1.627   1.084  14.693  0.4031  0.3439 -0.5856
  289MPD2    H7 4368   1.706   1.077  14.755 -0.2775 -0.3166  0.2084
  290TMC3    C1 4369   1.017   0.881  14.457  0.2431  0.6121 -0.0923
  290TMC3    C2 4370   0.927   0.976  14.414 -0.2112  0.5760  0.0564
  290TMC3    C3 4371   0.816   0.934  14.351 -0.0460  0.0273 -0.2417
  290TMC3    C4 4372   0.980   0.746  14.451 -0.7245 -0.4157  0.3065
  290TMC3    C5 4373   0.866   0.713  14.383  0.0851 -0.5254  0.1214
  290TMC3    C6 4374   0.785   0.808  14.332 -0.4211 -0.7997  0.5178
  290TMC3     C 4375   1.145   0.927  14.513  0.0481 -0.0797 -0.4936
  290TMC3     O 4376   1.182   1.042  14.490  0.6172 -0.9645 -0.4762
  290TMC3     H 4377   0.941   1.083  14.426 -0.6338  0.7912 -1.4106
  290TMC3    H1 4378   1.043   0.671  14.499 -0.8516  0.1204  1.3166
  290TMC3    H2 4379   0.692   0.778  14.286 -0.3578  0.7246 -0.5970
  290TMC3    C7 4380   0.802   0.578  14.373 -0.2491 -0.6893  0.1514
  290TMC3    C8 4381   0.712   1.028  14.308 -0.5656  0.1642 -0.0910
  290TMC3    O1 4382   0.695   0.568  14.318 -0.1156  0.1455 -0.2936
  290TMC3    O2 4383   0.665   1.005  14.201 -0.2791  0.5187 -0.5625
  291MPD2     C 4384   0.378   1.127   0.424 -0.1666  0.0369  0.0904
  291MPD2    C1 4385   0.510   1.117   0.467 -0.0615 -0.6037  0.4498
  291MPD2    C2 4386   0.588   1.234   0.450 -0.2502 -0.1434  0.2812
  291MPD2    C3 4387   0.547   1.351   0.382 -0.2895  0.5687 -0.4825
  291MPD2    C4 4388   0.409   1.353   0.353  0.3896  0.1684 -0.6460
  291MPD2    C5 4389   0.330   1.246   0.374 -0.8014  0.5111 -0.3690
  291MPD2     H 4390   0.685   1.226   0.500  0.1345  0.2812 -0.4029
  291MPD2    H1 4391   0.368   1.439   0.301  2.9269  0.9353 -1.4297
  291MPD2    H2 4392   0.302   1.053   0.443 -1.1591  0.9813 -0.1608
  291MPD2    H3 4393   0.227   1.258   0.342 -0.6510 -2.1707 -1.8154
  291MPD2     N 4394   0.629   1.461   0.354 -0.3935  0.3927  0.5217
  291MPD2    H5 4395   0.577   1.529   0.299  2.7808  1.1093 -1.6003
  291MPD2    N1 4396   0.566   1.000   0.529  0.1906  0.4666 -0.5986
  291MPD2    H7 4397   0.661   1.008   0.565 -0.4710 -3.6407  2.0805
  292TMC3    C1 4398   0.571   0.772   0.594 -0.7460 -0.3714  0.3591
  292TMC3    C2 4399   0.640   0.792   0.709  0.4728  0.1706  0.7112
  292TMC3    C3 4400   0.723   0.696   0.756 -0.0431  0.1457  0.0665
  292TMC3    C4 4401   0.575   0.649   0.528 -1.2742  0.4609  0.5528
  292TMC3    C5 4402   0.654   0.551   0.589 -0.4335  0.8615 -0.0176
  292TMC3    C6 4403   0.737   0.575   0.696 -0.5194  0.3282 -0.3722
  292TMC3     C 4404   0.510   0.879   0.525 -0.2401 -0.1423 -0.3684
  292TMC3     O 4405   0.428   0.842   0.438  0.2155  0.1658 -0.2074
  292TMC3     H 4406   0.645   0.891   0.752  0.3186 -0.0365  1.2103
  292TMC3    H1 4407   0.515   0.633   0.440  2.5113 -2.2670 -1.5358
  292TMC3    H2 4408   0.791   0.491   0.737 -1.5463  0.5071  1.3476
  292TMC3    C7 4409   0.654   0.426   0.526  0.8284  0.2460  0.3921
  292TMC3    C8 4410   0.799   0.717   0.874  0.9316 -0.1847 -0.0768
  292TMC3    O1 4411   0.762   0.372   0.495 -0.0712  0.1801  0.0683
  292TMC3    O2 4412   0.773   0.804   0.957  0.4855 -0.6073 -0.6889
  293MPD2     C 4413   2.583   1.801  12.502 -0.0692 -0.1148  0.0640
  293MPD2    C1 4414   2.508   1.727  12.587 -0.4834 -0.3662  0.2969
  293MPD2    C2 4415   2.542   1.711  12.717 -0.0218 -0.2317  0.5594
  293MPD2    C3 4416   2.663   1.773  12.761  0.1233 -0.0308 -0.0717
  293MPD2    C4 4417   2.742   1.835  12.665  0.5445 -0.0535  0.1082
  293MPD2    C5 4418   2.694   1.861  12.538  0.5409  0.3725  0.4482
  293MPD2     H 4419   2.477   1.653  12.782  0.7007 -0.6208  0.9321
  293MPD2    H1 4420   2.842   1.874  12.684  0.5198  1.4843 -3.0157
  293MPD2    H2 4421   2.547   1.812  12.401  1.3437 -2.7939 -0.7264
  293MPD2    H3 4422   2.744   1.928  12.468 -1.1722  0.4711 -0.6862
  293MPD2     N 4423   2.706   1.762  12.896  0.5422 -0.2225  0.5389
  293MPD2    H5 4424   2.636   1.717  12.954 -0.9525 -0.4276 -1.4373
  293MPD2    N1 4425   2.396   1.671  12.524  0.1648  0.1195 -0.5154
  293MPD2    H7 4426   2.371   1.696  12.430  2.0380  0.5925 -0.8899
  294TMC3    C1 4427   2.188   1.561  12.498  0.0839 -0.1279 -0.9206
  294TMC3    C2 4428   2.073   1.510  12.548  0.3562  0.8509  0.0393
  294TMC3    C3 4429   1.978   1.471  12.462 -0.3080  0.3395  0.0099
  294TMC3    C4 4430   2.210   1.580  12.357 -0.9585  0.7985 -0.3750
  294TMC3    C5 4431   2.099   1.548  12.275 -1.3928  0.3054  0.0881
  294TMC3    C6 4432   1.995   1.476  12.330  0.1595 -0.1540  0.0513
  294TMC3     C 4433   2.293   1.595  12.587 -0.1295 -0.0950 -0.4378
  294TMC3     O 4434   2.276   1.574  12.704 -0.6281 -0.0831 -0.1310
  294TMC3     H 4435   2.053   1.493  12.653  1.4509  0.6701  0.2198
  294TMC3    H1 4436   2.293   1.628  12.306  1.2397 -0.9886  1.5024
  294TMC3    H2 4437   1.908   1.449  12.270  1.0257 -0.0903 -1.2302
  294TMC3    C7 4438   2.109   1.542  12.128  0.3830  0.3690 -0.1119
  294TMC3    C8 4439   1.869   1.396  12.521  0.5247 -0.3184 -0.2515
  294TMC3    O1 4440   2.032   1.463  12.077 -0.4595 -0.0093  0.5716
  294TMC3    O2 4441   1.835   1.419  12.636 -0.4444  0.1946  0.0928
  295MPD2     C 4442   3.236   0.655   0.153  0.1155 -0.8382 -0.3227
  295MPD2    C1 4443   3.256   0.789   0.162 -0.2428  1.2407 -0.4327
  295MPD2    C2 4444   3.167   0.873   0.231  0.4427  0.0870  0.3405
  295MPD2    C3 4445   3.052   0.811   0.280  0.0080  0.4299 -0.1934
  295MPD2    C4 4446   3.032   0.676   0.261  0.2430  0.0168  0.0596
  295MPD2    C5 4447   3.127   0.595   0.199 -0.2042  0.6631 -0.2066
  295MPD2     H 4448   3.192   0.977   0.247 -0.4308  0.2671  0.5072
  295MPD2    H1 4449   2.945   0.628   0.303  0.2379  0.0544  0.0915
  295MPD2    H2 4450   3.306   0.588   0.105  0.6675  0.9327 -1.9839
  295MPD2    H3 4451   3.113   0.489   0.180 -0.0240  0.3356  1.4521
  295MPD2     N 4452   2.961   0.864   0.367 -0.5463 -0.0319 -0.6466
  295MPD2    H5 4453   2.895   0.794   0.397  0.2557 -0.3451  0.3881
  295MPD2    N1 4454   3.377   0.849   0.103  0.6988 -0.3827  0.1884
  295MPD2    H7 4455   3.399   0.948   0.108 -0.9285  0.0506 -1.4597
  296TMC3    C1 4456   2.843   1.017   0.491  1.0067 -0.1002 -0.3518
  296TMC3    C2 4457   2.849   1.126   0.569 -0.0574  0.0016  0.4379
  296TMC3    C3 4458   2.749   1.143   0.661  0.4318 -0.0077 -0.2637
  296TMC3    C4 4459   2.745   0.920   0.500  0.3027  0.1890 -0.5496
  296TMC3    C5 4460   2.649   0.939   0.595  0.8966 -0.0707  0.3072
  296TMC3    C6 4461   2.655   1.045   0.683 -0.3600 -0.5175  0.5469
  296TMC3     C 4462   2.951   0.998   0.398  0.9278  0.4114 -0.3124
  296TMC3     O 4463   3.040   1.080   0.387  0.1109 -0.8377  0.0496
  296TMC3     H 4464   2.919   1.202   0.536  1.1421 -1.4334 -0.2852
  296TMC3    H1 4465   2.744   0.832   0.437 -1.2294 -0.8105  0.8725
  296TMC3    H2 4466   2.565   1.085   0.730 -0.1671  1.4801 -0.7930
  296TMC3    C7 4467   2.549   0.844   0.615 -0.5172 -0.0142 -0.4673
  296TMC3    C8 4468   2.737   1.269   0.733 -0.8122  0.5449 -0.0584
  296TMC3    O1 4469   2.521   0.769   0.520  0.5479 -0.6407  0.8131
  296TMC3    O2 4470   2.630   1.286   0.789  0.2207  0.7149 -0.5758
  297MPD2     C 4471   0.252   2.947  15.958 -0.6012  0.2669 -0.7470
  297MPD2    C1 4472   0.249   3.001  16.086 -0.0190  0.0374  1.0125
  297MPD2    C2 4473   0.361   3.056  16.144 -0.2899  0.1196  0.2433
  297MPD2    C3 4474   0.479   3.053  16.071  0.7009  0.9704 -0.2043
  297MPD2    C4 4475   0.476   3.009  15.941  0.3391  0.6253  0.3575
  297MPD2    C5 4476   0.361   2.968  15.882 -0.1789  0.0509  0.1241
  297MPD2     H 4477   0.355   3.089  16.247 -3.6703 -1.3956  0.5326
  297MPD2    H1 4478   0.564   3.011  15.877  0.2339 -0.0003  0.2011
  297MPD2    H2 4479   0.164   2.897  15.919 -1.1908 -0.3666  1.3835
  297MPD2    H3 4480   0.369   2.929  15.782  2.2886  2.2731 -0.5599
  297MPD2     N 4481   0.598   3.098  16.139  0.0104  0.6234  0.2064
  297MPD2    H5 4482   0.586   3.139  16.232  1.6630  0.6298  0.4269
  297MPD2    N1 4483   0.135   3.002  16.174  0.3900 -0.1376  0.2891
  297MPD2    H7 4484   0.140   3.047  16.265  2.5463 -1.3105  0.7530
  298TMC3    C1 4485   4.629   2.964  16.240 -0.0491 -0.0231 -0.2840
  298TMC3    C2 4486   4.514   2.885  16.218  0.6932 -0.4538  1.0939
  298TMC3    C3 4487   4.414   2.894  16.316  0.5613  0.5904  0.5469
  298TMC3    C4 4488   4.624   3.068  16.333 -0.0193 -0.4008  0.2816
  298TMC3    C5 4489   4.507   3.081  16.409 -0.7382 -0.0520  0.5240
  298TMC3    C6 4490   4.402   2.992  16.413  0.1914 -0.5425  1.4773
  298TMC3     C 4491   0.017   2.941  16.145 -0.7297  0.2635 -0.1431
  298TMC3     O 4492   4.714   2.874  16.052  0.3343  0.0264  0.1393
  298TMC3     H 4493   4.512   2.814  16.135 -0.5751  0.8370  0.0170
  298TMC3    H1 4494   4.708   3.125  16.373 -0.6735  0.5397  0.2972
  298TMC3    H2 4495   4.308   3.006  16.467  0.0400 -0.8040  1.2799
  298TMC3    C7 4496   4.469   3.213  16.463  0.0293  0.4176 -0.1377
  298TMC3    C8 4497   4.295   2.816  16.298  0.2777  0.1225  0.4196
  298TMC3    O1 4498   4.562   3.285  16.495 -0.0164 -0.0919  0.2478
  298TMC3    O2 4499   4.196   2.839  16.367  0.0691  0.4780  0.4307
  299MPD2     C 4500   1.281   2.368  10.080  0.4026  0.1751  0.2112
  299MPD2    C1 4501   1.208   2.338  10.190 -0.4331  0.1628  0.5694
  299MPD2    C2 4502   1.074   2.312  10.172 -0.8606  0.7432  0.2966
  299MPD2    C3 4503   1.018   2.317  10.043  0.1209  0.0238 -0.4428
  299MPD2    C4 4504   1.095   2.356   9.932  0.0909  0.3330 -0.1232
  299MPD2    C5 4505   1.230   2.369   9.953  0.4663 -0.5021 -0.3863
  299MPD2     H 4506   1.016   2.272  10.254  0.9152  0.3806  1.3675
  299MPD2    H1 4507   1.057   2.383   9.834  0.2005  0.2257 -0.1946
  299MPD2    H2 4508   1.383   2.402  10.097  0.6654 -0.7252  0.4233
  299MPD2    H3 4509   1.283   2.400   9.864  0.0665 -1.9848 -1.1362
  299MPD2     N 4510   0.877   2.309  10.019 -0.2692  0.0044 -0.0196
  299MPD2    H5 4511   0.838   2.343   9.931 -3.4524  0.2750  1.4825
  299MPD2    N1 4512   1.274   2.357  10.313 -0.1298 -0.0531  0.6318
  299MPD2    H7 4513   1.366   2.400  10.307 -1.6109  3.1825  0.8110
  300TMC3    C1 4514   0.650   2.255  10.047  0.4028 -0.1594 -0.1236
  300TMC3    C2 4515   0.612   2.365   9.972  0.7424  0.5462 -0.3547
  300TMC3    C3 4516   0.482   2.405   9.973 -0.2118 -0.1222 -0.2249
  300TMC3    C4 4517   0.555   2.182  10.117  0.4084  0.7399 -0.7508
  300TMC3    C5 4518   0.430   2.235  10.125 -0.4680 -0.2234  0.2394
  300TMC3    C6 4519   0.389   2.343  10.051  0.5623  0.2227  0.3406
  300TMC3     C 4520   0.785   2.244  10.100  0.2865  0.2906  0.3550
  300TMC3     O 4521   0.795   2.181  10.206 -0.7197  0.2257 -0.0795
  300TMC3     H 4522   0.683   2.430   9.923 -0.5690  0.6810 -2.0682
  300TMC3    H1 4523   0.584   2.095  10.174 -0.0296  0.5846 -0.7606
  300TMC3    H2 4524   0.286   2.376  10.047  0.6910  0.4860 -0.6667
  300TMC3    C7 4525   0.324   2.160  10.181 -0.5833  0.3720 -0.3413
  300TMC3    C8 4526   0.465   2.548   9.983 -0.2305  0.2383 -0.1981
  300TMC3    O1 4527   0.317   2.038  10.140 -0.2750 -0.1709 -0.2679
  300TMC3    O2 4528   0.407   2.609  10.075 -0.4603  0.2196  0.2066
  301MPD2     C 4529   3.374   4.465   1.046  1.1519  0.4227 -0.2319
  301MPD2    C1 4530   3.261   4.385   1.077  0.0211 -0.8836 -0.2585
  301MPD2    C2 4531   3.285   4.250   1.095  0.2777 -0.7002 -0.0707
  301MPD2    C3 4532   3.408   4.189   1.101 -0.0784 -0.1093  0.7611
  301MPD2    C4 4533   3.520   4.266   1.066 -0.2258 -0.4404 -0.3667
  301MPD2    C5 4534   3.495   4.398   1.038  0.8836 -0.2122  0.2715
  301MPD2     H 4535   3.196   4.194   1.121 -0.4454  0.3800 -0.2176
  301MPD2    H1 4536   3.621   4.228   1.075 -0.2502 -0.3899  0.1016
  301MPD2    H2 4537   3.367   4.569   1.017 -1.9570  0.7709  1.7504
  301MPD2    H3 4538   3.587   4.452   1.015  1.2351 -0.8834  0.1113
  301MPD2     N 4539   3.418   4.051   1.144  0.6882 -0.0403 -0.7960
  301MPD2    H5 4540   3.513   4.015   1.143  1.0968  0.9932  1.9497
  301MPD2    N1 4541   3.131   4.432   1.099  0.5066  0.6359 -0.1806
  301MPD2    H7 4542   3.073   4.366   1.151  1.6256  1.5911  2.3065
  302TMC3    C1 4543   3.381   3.860   1.270 -0.1632 -0.0588  0.4869
  302TMC3    C2 4544   3.496   3.800   1.224  0.4192 -0.5963  0.3725
  302TMC3    C3 4545   3.533   3.685   1.276  0.2390  0.1804 -1.1228
  302TMC3    C4 4546   3.310   3.807   1.371  0.4838 -0.0767 -0.0244
  302TMC3    C5 4547   3.356   3.693   1.429 -0.1696 -0.5527 -0.0248
  302TMC3    C6 4548   3.465   3.632   1.379  0.0480  0.1037  0.7393
  302TMC3     C 4549   3.326   3.985   1.214 -0.0510 -0.2250 -0.3758
  302TMC3     O 4550   3.209   3.999   1.234  0.2362 -0.1865  0.9896
  302TMC3     H 4551   3.553   3.842   1.142  0.0197 -1.3604 -0.2944
  302TMC3    H1 4552   3.228   3.862   1.415 -0.9175 -1.6117 -0.7369
  302TMC3    H2 4553   3.491   3.539   1.428  3.4841 -0.4695 -2.1486
  302TMC3    C7 4554   3.262   3.610   1.500 -0.2863 -0.1947 -0.2001
  302TMC3    C8 4555   3.653   3.635   1.215  0.8085  0.1439 -0.0139
  302TMC3    O1 4556   3.309   3.526   1.580 -0.4979  0.3189 -0.4280
  302TMC3    O2 4557   3.732   3.716   1.173  0.3190 -0.0869 -0.2559
  303MPD2     C 4558   2.946   1.681   9.173 -0.3475  0.6015  0.2948
  303MPD2    C1 4559   2.891   1.556   9.222  0.0940  0.2612  0.5284
  303MPD2    C2 4560   2.976   1.463   9.277 -0.1177 -0.1999  0.1087
  303MPD2    C3 4561   3.109   1.493   9.277  0.1278  0.3642  0.1348
  303MPD2    C4 4562   3.160   1.604   9.217  0.0261 -0.7692  0.4628
  303MPD2    C5 4563   3.080   1.704   9.169 -0.2752  0.4859  0.1702
  303MPD2     H 4564   2.942   1.368   9.317 -0.0663  1.5134  4.2221
  303MPD2    H1 4565   3.267   1.625   9.218  0.0890 -1.1244  1.2587
  303MPD2    H2 4566   2.881   1.757   9.130  1.8610  3.0481  1.2849
  303MPD2    H3 4567   3.128   1.790   9.125 -1.6330  1.1109 -0.0825
  303MPD2     N 4568   3.207   1.414   9.347 -0.0896  0.5572  0.0098
  303MPD2    H5 4569   3.302   1.440   9.324  1.1372 -2.8715  1.1702
  303MPD2    N1 4570   2.750   1.530   9.208  0.3949  1.0432 -0.7834
  303MPD2    H7 4571   2.690   1.612   9.200 -0.5639  0.4256  0.0566
  304TMC3    C1 4572   2.549   1.416   9.225 -0.0378  0.1295  0.8648
  304TMC3    C2 4573   2.485   1.295   9.190  0.2148  0.5347  0.3671
  304TMC3    C3 4574   2.365   1.260   9.250  0.6847 -0.2261  0.6508
  304TMC3    C4 4575   2.491   1.514   9.312  0.2708  0.7202  0.3954
  304TMC3    C5 4576   2.373   1.475   9.358  0.2854 -0.2738 -0.2888
  304TMC3    C6 4577   2.311   1.358   9.329 -0.2285 -0.1370 -0.3475
  304TMC3     C 4578   2.692   1.408   9.216 -0.6724  0.1358  0.1150
  304TMC3     O 4579   2.742   1.294   9.209  0.4838 -0.8072  0.4820
  304TMC3     H 4580   2.539   1.220   9.134  0.6124  0.7338  0.4775
  304TMC3    H1 4581   2.554   1.591   9.357  2.0017  0.6726 -1.9394
  304TMC3    H2 4582   2.214   1.339   9.373  0.1410  2.3438  1.5564
  304TMC3    C7 4583   2.355   1.523   9.493 -0.1143  0.8362 -0.2797
  304TMC3    C8 4584   2.375   1.143   9.334 -0.0597 -0.1115  0.1581
  304TMC3    O1 4585   2.398   1.634   9.522  0.1296 -0.0591 -0.6889
  304TMC3    O2 4586   2.311   1.145   9.435  0.0483 -0.1081  0.0654
  305MPD2     C 4587   1.477   4.078  13.808  0.0942 -0.2113  0.3727
  305MPD2    C1 4588   1.474   3.950  13.851 -0.8038  0.5381  0.2389
  305MPD2    C2 4589   1.455   3.845  13.760 -0.5220  0.0909 -0.3888
  305MPD2    C3 4590   1.417   3.878  13.628 -0.2025  0.7025  0.1596
  305MPD2    C4 4591   1.417   4.014  13.584  0.0137  0.0974 -0.0376
  305MPD2    C5 4592   1.454   4.109  13.679  0.0378 -0.1476 -0.0909
  305MPD2     H 4593   1.479   3.748  13.800 -0.6146  0.6043  0.9231
  305MPD2    H1 4594   1.415   4.044  13.480 -1.6763 -2.1558 -0.6435
  305MPD2    H2 4595   1.509   4.159  13.872  1.4443 -1.6828  1.5170
  305MPD2    H3 4596   1.470   4.212  13.649  1.5590 -0.0647  1.0132
  305MPD2     N 4597   1.412   3.789  13.524 -0.4345  0.3670 -0.1561
  305MPD2    H5 4598   1.404   3.825  13.429 -1.6883 -3.9444 -1.7356
  305MPD2    N1 4599   1.514   3.932  13.987  0.7927 -0.8966 -0.2009
  305MPD2    H7 4600   1.542   4.018  14.031 -1.0269 -0.1646 -0.4733
  306TMC3    C1 4601   1.556   3.840  14.199  0.3722  0.3474  0.3845
  306TMC3    C2 4602   1.606   3.736  14.268  0.6853  0.0102 -0.3199
  306TMC3    C3 4603   1.635   3.751  14.405 -0.3485 -0.5753  0.3677
  306TMC3    C4 4604   1.524   3.956  14.267  0.1263 -0.4510  0.0495
  306TMC3    C5 4605   1.546   3.966  14.400  0.0488  0.2359  0.5965
  306TMC3    C6 4606   1.605   3.866  14.469 -0.3369 -0.2684 -0.1094
  306TMC3     C 4607   1.515   3.813  14.060 -0.2903 -0.4396  0.0779
  306TMC3     O 4608   1.499   3.699  14.021 -0.4933  0.1667 -0.1462
  306TMC3     H 4609   1.618   3.643  14.213 -3.3068 -0.6128 -0.1426
  306TMC3    H1 4610   1.458   4.019  14.209  2.5437  0.1501 -2.0386
  306TMC3    H2 4611   1.599   3.867  14.577  0.4948 -3.1839 -0.0333
  306TMC3    C7 4612   1.481   4.074  14.471 -0.7099  0.1690  0.3054
  306TMC3    C8 4613   1.709   3.647  14.471 -0.1232  0.6667  0.7509
  306TMC3    O1 4614   1.367   4.098  14.430  0.0322 -0.3985  0.2922
  306TMC3    O2 4615   1.749   3.552  14.408 -0.5820 -0.5625 -0.1059
  307MPD2     C 4616   3.921   2.150  17.508  0.4034  0.2403 -0.6926
  307MPD2    C1 4617   3.783   2.176  17.506  0.2566  0.1859  0.6467
  307MPD2    C2 4618   3.709   2.163  17.621  0.5337  0.1899  0.2515
  307MPD2    C3 4619   3.770   2.142   0.054 -0.0814 -0.3491 -0.2208
  307MPD2    C4 4620   3.905   2.114   0.054 -0.0801  0.4319  0.2913
  307MPD2    C5 4621   3.984   2.115  17.627 -0.5368 -0.3497  0.3386
  307MPD2     H 4622   3.603   2.185  17.609  0.8251  1.6676  0.4028
  307MPD2    H1 4623   3.960   2.088   0.144  0.2215  1.4887  0.4148
  307MPD2    H2 4624   3.984   2.145  17.420  0.2524  1.4899 -0.8647
  307MPD2    H3 4625   4.088   2.087  17.636 -0.5173 -0.2735  0.3530
  307MPD2     N 4626   3.695   2.146   0.172 -0.1502  0.4462 -0.4360
  307MPD2    H5 4627   3.595   2.160   0.171 -0.6042 -2.5174  4.7109
  307MPD2    N1 4628   3.715   2.211  17.387  0.4814 -0.0532  0.4559
  307MPD2    H7 4629   3.613   2.212  17.391  0.4421 -3.7374  0.3072
  308TMC3    C1 4630   3.417   2.158   0.446  0.6379 -0.5514 -0.5398
  308TMC3    C2 4631   3.428   2.267   0.533  0.3961 -0.6656 -0.1466
  308TMC3    C3 4632   3.557   2.311   0.557  0.1779 -1.0279 -0.1128
  308TMC3    C4 4633   3.519   2.101   0.377 -0.1189 -0.2803 -0.0096
  308TMC3    C5 4634   3.643   2.154   0.403 -0.6534 -0.5186 -0.0848
  308TMC3    C6 4635   3.660   2.261   0.490 -0.3658 -0.4675 -0.6743
  308TMC3     C 4636   3.288   2.082   0.427 -0.9382 -0.3605  0.2601
  308TMC3     O 4637   3.292   1.959   0.412  0.1007  0.2124 -0.8974
  308TMC3     H 4638   3.341   2.297   0.590  0.0775 -0.1353 -0.9007
  308TMC3    H1 4639   3.518   2.013   0.314  0.3770 -0.0048 -0.4015
  308TMC3    H2 4640   3.758   2.306   0.497 -0.4258 -0.5545  0.9110
  308TMC3    C7 4641   3.744   2.157   0.301  0.3870 -1.2647 -0.4825
  308TMC3    C8 4642   3.568   2.450   0.581  0.3760  1.0584  0.2874
  308TMC3    O1 4643   3.864   2.164   0.340 -0.1412  0.3081 -0.4171
  308TMC3    O2 4644   3.665   2.473   0.653 -0.3018  0.3184 -0.2298
  309MPD2     C 4645   2.737   2.040  17.027 -0.7453  0.3460 -0.3068
  309MPD2    C1 4646   2.742   2.156  16.943 -0.4464 -0.6578  0.3551
  309MPD2    C2 4647   2.629   2.235  16.936  0.7519  0.4917  0.7959
  309MPD2    C3 4648   2.521   2.206  17.008 -0.3822  0.2014  0.3579
  309MPD2    C4 4649   2.520   2.102  17.103  0.0551  0.1824  0.4998
  309MPD2    C5 4650   2.627   2.014  17.099 -0.4427 -0.2960  0.2929
  309MPD2     H 4651   2.634   2.314  16.862 -0.9258  0.0742  0.2355
  309MPD2    H1 4652   2.441   2.078  17.173  0.4839  0.1705  0.9811
  309MPD2    H2 4653   2.823   1.974  17.039 -3.5595 -3.3348 -0.3598
  309MPD2    H3 4654   2.633   1.928  17.165 -0.2799 -1.3265 -1.0476
  309MPD2     N 4655   2.420   2.308  17.019 -0.2365  0.4446 -0.3510
  309MPD2    H5 4656   2.367   2.316  17.105  1.4338  0.3867  0.6949
  309MPD2    N1 4657   2.862   2.206  16.882  0.2797 -0.2557 -0.3464
  309MPD2    H7 4658   2.844   2.276  16.811 -0.3780  0.3027  0.3617
  310TMC3    C1 4659   3.090   2.218  16.824  0.2616  1.1189 -0.3060
  310TMC3    C2 4660   3.068   2.315  16.734  0.1327  0.3889  0.0168
  310TMC3    C3 4661   3.181   2.346  16.661 -0.4376 -0.3728 -0.2849
  310TMC3    C4 4662   3.215   2.169  16.849 -0.5946  0.5846 -0.0201
  310TMC3    C5 4663   3.326   2.203  16.776  0.1716 -0.5642  0.3015
  310TMC3    C6 4664   3.307   2.299  16.679 -0.5768  0.3622 -0.5675
  310TMC3     C 4665   2.986   2.150  16.905  0.4821 -0.3961  0.2156
  310TMC3     O 4666   3.023   2.075  16.995  0.3199 -0.3315  0.0845
  310TMC3     H 4667   2.968   2.352  16.714  0.2135 -0.9753 -3.0097
  310TMC3    H1 4668   3.230   2.101  16.933  0.1201  0.8504  0.0705
  310TMC3    H2 4669   3.380   2.301  16.599  1.2959 -0.5991  1.1326
  310TMC3    C7 4670   3.447   2.120  16.790 -0.5646 -0.1563 -0.1949
  310TMC3    C8 4671   3.163   2.435  16.546 -0.4649 -0.0644  0.2377
  310TMC3    O1 4672   3.455   2.035  16.879  0.1352 -0.6270 -0.0448
  310TMC3    O2 4673   3.049   2.458  16.520 -0.4766  0.6386 -0.5293
  311MPD2     C 4674   0.584   3.214  12.877 -0.4586 -0.3073  0.1891
  311MPD2    C1 4675   0.551   3.349  12.904  0.1365 -0.3854  0.0798
  311MPD2    C2 4676   0.425   3.385  12.948  0.2146 -0.9291  0.4498
  311MPD2    C3 4677   0.322   3.295  12.956  0.0899  0.2707  0.4577
  311MPD2    C4 4678   0.355   3.166  12.930 -0.2983 -0.0378  0.0359
  311MPD2    C5 4679   0.481   3.122  12.902 -0.0390  0.9307 -0.1568
  311MPD2     H 4680   0.408   3.491  12.961  0.6300 -0.6183 -1.5782
  311MPD2    H1 4681   0.281   3.088  12.948 -0.7498  1.0323  2.7527
  311MPD2    H2 4682   0.687   3.185  12.861 -0.4238 -0.8765  1.4339
  311MPD2    H3 4683   0.494   3.015  12.887 -0.3613  1.2111 -2.4457
  311MPD2     N 4684   0.201   3.343  13.004 -0.3812  0.2927  0.5706
  311MPD2    H5 4685   0.196   3.445  13.011 -0.3448  0.2753  0.8489
  311MPD2    N1 4686   0.642   3.459  12.872 -0.1518  0.0261  0.3985
  311MPD2    H7 4687   0.608   3.554  12.880 -4.2022 -1.4421  0.8765
  312TMC3    C1 4688   4.704   3.356  13.052 -0.0845 -0.8555  0.2015
  312TMC3    C2 4689   4.582   3.317  13.017  0.4321  0.1450 -0.4525
  312TMC3    C3 4690   4.485   3.415  13.030 -0.6394  0.4257 -0.3261
  312TMC3    C4 4691   0.011   3.485  13.094  0.3819 -0.6724 -0.1332
  312TMC3    C5 4692   4.640   3.580  13.094 -0.7695 -1.0891  0.5577
  312TMC3    C6 4693   4.512   3.547  13.053  0.2994 -0.4612  0.4736
  312TMC3     C 4694   0.090   3.270  13.014 -0.5170  0.6940 -0.0796
  312TMC3     O 4695   0.061   3.155  12.970 -0.1568  0.3746 -0.3153
  312TMC3     H 4696   4.561   3.219  12.976 -1.3413  0.2492  0.1966
  312TMC3    H1 4697   0.107   3.507  13.139 -0.6846  0.3692  1.6220
  312TMC3    H2 4698   4.427   3.614  13.059  1.7700  1.3107  1.6889
  312TMC3    C7 4699   4.648   3.688  13.188 -0.8195  0.1223  0.1526
  312TMC3    C8 4700   4.349   3.378  13.057 -0.4753 -0.0663 -0.3380
  312TMC3    O1 4701   4.584   3.790  13.156  0.0624  0.0956  0.0140
  312TMC3    O2 4702   4.258   3.460  13.055 -0.1707  0.0726 -0.3530
  313MPD2     C 4703   4.668   2.791  10.426  1.4551  0.2105  0.0555
  313MPD2    C1 4704   4.569   2.888  10.425 -0.1299  0.5074 -0.3263
  313MPD2    C2 4705   4.481   2.885  10.322  1.0507  0.3285  0.0204
  313MPD2    C3 4706   4.474   2.778  10.233  0.1075  0.1695 -0.1131
  313MPD2    C4 4707   4.580   2.693  10.235 -0.1797  0.6955  0.1755
  313MPD2    C5 4708   4.675   2.705  10.326 -0.7040 -0.0629  0.5722
  313MPD2     H 4709   4.418   2.971  10.305  1.3280  0.6011  0.3751
  313MPD2    H1 4710   4.596   2.607  10.171 -1.2942 -0.1672  1.0452
  313MPD2    H2 4711   0.023   2.781  10.501  2.0612 -0.0624 -0.6103
  313MPD2    H3 4712   0.027   2.627  10.317  0.0602  0.7283 -0.0660
  313MPD2     N 4713   4.364   2.749  10.146  0.5282  1.4868 -0.2651
  313MPD2    H5 4714   4.295   2.820  10.126 -1.5488  0.0607  1.8430
  313MPD2    N1 4715   4.559   2.984  10.522  0.6792  0.8667  0.1390
  313MPD2    H7 4716   4.487   3.055  10.509  0.9235  0.7590 -1.8921
  314TMC3    C1 4717   4.559   3.098  10.717  0.0759 -0.5467  0.2713
  314TMC3    C2 4718   4.622   3.186  10.801  0.0990  0.2431 -1.4233
  314TMC3    C3 4719   4.548   3.280  10.866 -0.9786  0.2904  0.6027
  314TMC3    C4 4720   4.420   3.102  10.716  0.5234 -0.7904 -0.4742
  314TMC3    C5 4721   4.347   3.186  10.790  0.1796 -0.0197  0.2744
  314TMC3    C6 4722   4.408   3.285  10.858  0.7834  0.2363  0.8154
  314TMC3     C 4723   4.625   2.997  10.641 -0.3471 -0.3200  0.2145
  314TMC3     O 4724   0.009   2.944  10.677  0.0029  0.3694 -0.6888
  314TMC3     H 4725   0.008   3.188  10.809  0.2454 -1.6411 -2.8764
  314TMC3    H1 4726   4.358   3.030  10.665 -2.7122  1.4707  0.3010
  314TMC3    H2 4727   4.345   3.355  10.913  0.8814  1.0408 -0.0868
  314TMC3    C7 4728   4.225   3.234  10.730  0.2510 -0.6043  0.3150
  314TMC3    C8 4729   4.612   3.386  10.944 -0.0535  0.4272 -0.3708
  314TMC3    O1 4730   4.131   3.283  10.793 -0.7443 -0.1364 -0.1875
  314TMC3    O2 4731   4.534   3.472  10.994  0.2896  0.2879  0.3721
  315MPD2     C 4732   4.200   2.919   0.092  0.7757 -0.1603  0.1871
  315MPD2    C1 4733   4.267   2.928   0.213  0.0211  0.3773 -0.2966
  315MPD2    C2 4734   4.329   3.050   0.244  0.0624  0.0438 -0.2829
  315MPD2    C3 4735   4.325   3.159   0.158  0.0309 -0.5418 -0.2392
  315MPD2    C4 4736   4.261   3.144   0.034 -0.6441  0.9986  0.0240
  315MPD2    C5 4737   4.188   3.032   0.011 -0.3893  0.2864  0.3373
  315MPD2     H 4738   4.387   3.058   0.335  1.6713 -1.2707 -1.2157
  315MPD2    H1 4739   4.244   3.220  17.651  2.4877  0.5364 -1.1368
  315MPD2    H2 4740   4.151   2.831   0.051  0.8444 -0.1511  0.0842
  315MPD2    H3 4741   4.128   3.033  17.613 -3.0365  2.4335  2.1293
  315MPD2     N 4742   4.399   3.276   0.191  0.0326 -0.5884  0.3820
  315MPD2    H5 4743   4.435   3.285   0.285  0.3001  0.0101  0.2179
  315MPD2    N1 4744   4.277   2.835   0.322  0.1115  0.0958 -0.2010
  315MPD2    H7 4745   4.322   2.856   0.411  1.6347 -1.2176 -0.6729
  316TMC3    C1 4746   4.532   3.468   0.173  0.1191  0.0818  0.4286
  316TMC3    C2 4747   4.610   3.429   0.281 -0.2571  0.5391  0.7338
  316TMC3    C3 4748   4.702   3.514   0.331 -0.1467  0.2419  0.8576
  316TMC3    C4 4749   4.548   3.595   0.114  0.0039 -0.0995 -0.2551
  316TMC3    C5 4750   4.645   3.677   0.169  0.5043 -0.2146 -0.5392
  316TMC3    C6 4751   4.720   3.643   0.279 -0.1367  0.1561 -0.1700
  316TMC3     C 4752   4.434   3.382   0.108 -0.1593 -0.2983  0.1495
  316TMC3     O 4753   4.393   3.401  17.687  0.3220 -0.3083 -0.7725
  316TMC3     H 4754   4.609   3.323   0.306  0.3172  0.2288 -0.5607
  316TMC3    H1 4755   4.485   3.640   0.039  0.1109  3.4009  1.7398
  316TMC3    H2 4756   0.076   3.710   0.311 -0.6844  1.7234 -2.1225
  316TMC3    C7 4757   4.700   3.781   0.089 -0.2227  0.1771 -0.2097
  316TMC3    C8 4758   0.049   3.484   0.452  0.1849  0.2013 -0.6181
  316TMC3    O1 4759   0.057   3.860   0.140 -0.0773  0.9703  0.2897
  316TMC3    O2 4760   0.089   3.582   0.515  0.5698  0.5117  0.4806
  317MPD2     C 4761   1.722   0.178  12.401  0.2736  0.0300 -0.9502
  317MPD2    C1 4762   1.837   0.103  12.407 -0.7157  0.7895 -0.8901
  317MPD2    C2 4763   1.905   0.084  12.523  0.3620  0.0861 -0.4952
  317MPD2    C3 4764   1.855   0.136  12.635 -0.2347  0.3429  0.3323
  317MPD2    C4 4765   1.731   0.198  12.636 -0.0837 -0.5474  0.3751
  317MPD2    C5 4766   1.667   0.222  12.518  0.0062  0.1675 -0.6603
  317MPD2     H 4767   2.002   0.036  12.514 -0.5114 -1.9958  1.1655
  317MPD2    H1 4768   1.677   0.208  12.730  1.1610 -3.7387  1.3951
  317MPD2    H2 4769   1.667   0.198  12.309 -0.8109 -4.6985 -1.3121
  317MPD2    H3 4770   1.579   0.285  12.508 -1.3454 -1.7073 -0.6438
  317MPD2     N 4771   1.932   0.121  12.754  0.8999 -0.2715 -0.0504
  317MPD2    H5 4772   2.000   0.046  12.752  0.2724 -0.8297 -0.1176
  317MPD2    N1 4773   1.900   0.065  12.281 -0.0967  0.3827  0.2364
  317MPD2    H7 4774   1.989   0.016  12.281 -0.1660  0.2554 -0.1270
  318TMC3    C1 4775   2.006   0.152  12.974 -0.2828 -0.1004 -0.2504
  318TMC3    C2 4776   1.969   0.154  13.102  0.5628 -0.0720 -0.3681
  318TMC3    C3 4777   2.070   0.137  13.194  0.6046  0.2801 -0.1041
  318TMC3    C4 4778   2.136   0.135  12.932  0.1032  0.5654 -0.0881
  318TMC3    C5 4779   2.236   0.119  13.027 -0.0102 -0.1024  0.3665
  318TMC3    C6 4780   2.201   0.116  13.160  0.1940  0.4182 -0.1998
  318TMC3     C 4781   1.900   0.176  12.874  0.0961  0.4208  0.4565
  318TMC3     O 4782   1.800   0.243  12.901  0.2848 -0.2461  0.6909
  318TMC3     H 4783   1.865   0.178  13.119  0.9335 -0.5398  2.4974
  318TMC3    H1 4784   2.164   0.141  12.827  1.4481  1.7576  0.3343
  318TMC3    H2 4785   2.277   0.107  13.237 -0.0150  0.4867  0.0097
  318TMC3    C7 4786   2.368   0.131  12.985  0.2689  0.7935  0.1323
  318TMC3    C8 4787   2.026   0.122  13.330 -0.0807 -0.1127 -0.1545
  318TMC3    O1 4788   2.389   0.175  12.874  0.0281  0.3276  0.3168
  318TMC3    O2 4789   2.108   0.145  13.420  0.8493 -0.6164  0.2045
  319MPD2     C 4790   1.955   2.308  17.013 -0.3570  0.3766 -0.2073
  319MPD2    C1 4791   1.952   2.183  16.952  0.3308 -0.6246 -0.1794
  319MPD2    C2 4792   1.866   2.149  16.858  0.3819 -0.2733  0.0327
  319MPD2    C3 4793   1.765   2.238  16.828  1.1116 -0.4530  0.2100
  319MPD2    C4 4794   1.764   2.364  16.884 -0.1176  0.5757 -0.4960
  319MPD2    C5 4795   1.862   2.402  16.978 -0.4586  0.3564  0.7752
  319MPD2     H 4796   1.865   2.048  16.818  2.0012 -0.3788  0.2815
  319MPD2    H1 4797   1.681   2.431  16.868  0.2910  0.9958 -0.8776
  319MPD2    H2 4798   2.015   2.336  17.099  1.5725  1.1811 -1.8321
  319MPD2    H3 4799   1.855   2.497  17.031 -1.8182  1.1345 -0.7919
  319MPD2     N 4800   1.660   2.208  16.744  0.1756 -0.1509 -0.0398
  319MPD2    H5 4801   1.593   2.281  16.726 -0.7532 -1.0806 -0.3579
  319MPD2    N1 4802   2.042   2.081  16.994 -0.0607 -0.0990  0.3062
  319MPD2    H7 4803   2.026   1.992  16.948 -0.1858  0.0233  0.1162
  320TMC3    C1 4804   1.514   2.071  16.622  0.0537 -0.2795  0.9532
  320TMC3    C2 4805   1.519   2.157  16.510  0.0432 -0.3950  0.7718
  320TMC3    C3 4806   1.496   2.107  16.382 -0.0208 -0.0783 -0.3303
  320TMC3    C4 4807   1.494   1.937  16.600  0.4925  0.1820 -0.3872
  320TMC3    C5 4808   1.493   1.890  16.476 -0.2572  0.0526 -0.2405
  320TMC3    C6 4809   1.497   1.969  16.365  0.2034 -0.0631 -0.4113
  320TMC3     C 4810   1.634   2.077  16.697 -0.5371 -0.3234  0.8372
  320TMC3     O 4811   1.690   1.972  16.716 -0.2294 -0.2455  0.2108
  320TMC3     H 4812   1.545   2.262  16.519 -0.8439 -0.0832 -0.3065
  320TMC3    H1 4813   1.497   1.874  16.688 -0.2129  1.4482  0.5447
  320TMC3    H2 4814   1.488   1.927  16.266 -4.3800  1.6340 -0.6733
  320TMC3    C7 4815   1.524   1.749  16.454 -0.1806 -0.4425  0.3045
  320TMC3    C8 4816   1.527   2.198  16.272 -0.4210 -0.0335 -0.2679
  320TMC3    O1 4817   1.476   1.697  16.356 -0.3184  0.0469 -0.0916
  320TMC3    O2 4818   1.501   2.312  16.296  0.5320 -0.6573 -0.2090
  321TMC3    C1 4819   2.174   1.947  17.119  0.0746 -0.4084 -0.0889
  321TMC3    C2 4820   2.221   1.870  17.017 -0.6055  0.3456 -0.2674
  321TMC3    C3 4821   2.271   1.748  17.044 -0.0438  0.0487  0.0103
  321TMC3    C4 4822   2.175   1.906  17.246 -0.3524  0.4559  0.0241
  321TMC3    C5 4823   2.229   1.788  17.276  0.2399 -0.5627  0.0248
  321TMC3    C6 4824   2.262   1.706  17.175 -0.5196  0.3920  0.5862
  321TMC3     C 4825   2.133   2.080  17.099 -0.1840  0.0761  0.2120
  321TMC3     O 4826   2.152   2.166  17.186  0.4522  0.3695  0.5981
  321TMC3     H 4827   2.238   1.917  16.921  0.5706 -1.9815 -1.2062
  321TMC3    H1 4828   2.148   1.980  17.322 -1.7731  0.1770 -0.2070
  321TMC3    H2 4829   2.311   1.614  17.204 -2.2474  0.0285  2.3206
  321TMC3    C7 4830   2.324   1.794  17.384 -0.3521 -0.3144 -0.0314
  321TMC3    C8 4831   2.408   1.737  17.000 -0.0512  0.2692  0.3258
  321TMC3    O1 4832   2.292   1.853  17.485  0.2338 -0.2304 -0.7904
  321TMC3    O2 4833   2.491   1.703  17.080  0.1278  0.0309  0.4463
  322MPD2     C 4834   1.110   2.660  13.351  0.9512 -0.4803 -0.0803
  322MPD2    C1 4835   1.194   2.663  13.466 -0.2474  0.8215  0.2562
  322MPD2    C2 4836   1.211   2.544  13.533 -0.2655 -0.0655  0.2038
  322MPD2    C3 4837   1.162   2.426  13.481 -0.2130 -0.2782 -0.4351
  322MPD2    C4 4838   1.100   2.420  13.365  0.1145  0.4141  0.2215
  322MPD2    C5 4839   1.071   2.536  13.297  0.3688 -0.2423  0.1076
  322MPD2     H 4840   1.261   2.543  13.630  1.2743 -2.8824 -0.5939
  322MPD2    H1 4841   1.054   2.331  13.324  1.0089  0.0590 -0.0026
  322MPD2    H2 4842   1.066   2.749  13.308 -0.7309 -0.0676  2.4461
  322MPD2    H3 4843   0.991   2.538  13.223 -0.5534  0.1405  1.1082
  322MPD2     N 4844   1.172   2.315  13.570  0.1773  0.2510  0.0985
  322MPD2    H5 4845   1.197   2.341  13.665 -0.0701 -0.4012  0.3399
  322MPD2    N1 4846   1.243   2.779  13.535  0.0966 -0.3579 -0.3811
  322MPD2    H7 4847   1.284   2.778  13.627 -1.3136  0.4038  0.2620
  323TMC3    C1 4848   1.275   3.016  13.554 -0.0663 -1.1308  0.2460
  323TMC3    C2 4849   1.350   3.113  13.497  0.0844  0.3425  0.0145
  323TMC3    C3 4850   1.411   3.207  13.576  0.9053 -0.5556 -0.5091
  323TMC3    C4 4851   1.241   3.019  13.683 -0.7842  0.0814  0.4324
  323TMC3    C5 4852   1.286   3.125  13.763 -0.6201 -1.1088 -0.0658
  323TMC3    C6 4853   1.377   3.214  13.712  0.4177  0.7209 -0.3179
  323TMC3     C 4854   1.247   2.902  13.472 -0.4796 -0.0431  0.1843
  323TMC3     O 4855   1.236   2.923  13.350 -0.0528  0.2779  0.3035
  323TMC3     H 4856   1.386   3.110  13.395  0.0939 -0.1185  0.0331
  323TMC3    H1 4857   1.196   2.932  13.728 -0.5746 -0.6763 -0.8311
  323TMC3    H2 4858   1.416   3.298  13.768  0.1878  1.1329 -0.7737
  323TMC3    C7 4859   1.261   3.123  13.909 -0.1033 -0.0207 -0.0788
  323TMC3    C8 4860   1.547   3.243  13.552  0.2083  0.3257 -0.5232
  323TMC3    O1 4861   1.233   3.015  13.966  0.0511  0.2800  0.2978
  323TMC3    O2 4862   1.599   3.313  13.641 -0.4637 -0.4322 -0.0442
  324MPD2     C 4863   3.429   4.579  13.981 -0.0361 -0.9394 -0.2181
  324MPD2    C1 4864   3.418   4.685  14.070 -0.1773 -0.0684  0.6157
  324MPD2    C2 4865   3.290   0.004  14.110  0.0587 -0.2335  0.7503
  324MPD2    C3 4866   3.177   4.671  14.047  0.1499  0.4091  0.0540
  324MPD2    C4 4867   3.193   4.572  13.957  0.1885 -0.4222  0.1508
  324MPD2    C5 4868   3.318   4.530  13.925  0.5812  0.4098  0.5159
  324MPD2     H 4869   3.285   0.067  14.199  0.5056  0.4477  0.2897
  324MPD2    H1 4870   3.106   4.527  13.911  0.4348 -2.0927  1.3435
  324MPD2    H2 4871   3.524   4.534  13.954 -0.2113 -0.6446 -1.3428
  324MPD2    H3 4872   3.316   4.449  13.852 -0.0933  1.0323 -0.1599
  324MPD2     N 4873   3.053   0.006  14.059  0.2167  0.3189 -0.0199
  324MPD2    H5 4874   2.978   4.691  14.002  1.0777 -0.2035 -0.7997
  324MPD2    N1 4875   3.534   0.015  14.138  0.7316  0.0653 -0.1630
  324MPD2    H7 4876   3.523   0.093  14.201 -1.0941 -2.4122  2.5841
  325TMC3    C1 4877   2.887   0.145  14.140  0.0122  0.2126  0.3593
  325TMC3    C2 4878   2.802   0.056  14.084  0.0785  0.4972  0.2157
  325TMC3    C3 4879   2.667   0.087  14.101 -0.7381 -0.3078  0.7498
  325TMC3    C4 4880   2.850   0.252  14.219  0.1178  0.3314  0.7763
  325TMC3    C5 4881   2.716   0.263  14.241  0.0114  0.2183  0.2565
  325TMC3    C6 4882   2.622   0.180  14.185  0.3113 -0.4672  0.6401
  325TMC3     C 4883   3.024   0.106  14.145 -0.7487 -0.6226  0.0014
  325TMC3     O 4884   3.090   0.168  14.229 -0.2751  0.1135 -0.0357
  325TMC3     H 4885   2.820   4.686  14.032  0.7253  0.0236  1.2743
  325TMC3    H1 4886   2.921   0.323  14.259  1.6456 -1.4349  1.2117
  325TMC3    H2 4887   2.515   0.184  14.200  0.3022  0.3994  0.3208
  325TMC3    C7 4888   2.686   0.357  14.348 -0.0783 -0.4173 -0.0636
  325TMC3    C8 4889   2.572   4.714  14.047 -0.0757 -0.4493 -0.6846
  325TMC3    O1 4890   2.765   0.450  14.358 -0.9398  0.2358  0.1810
  325TMC3    O2 4891   2.453   0.002  14.080  0.2594  0.1298 -0.0110
  326MPD2     C 4892   3.984   0.637  11.236  0.1892  0.1361  0.2331
  326MPD2    C1 4893   3.985   0.659  11.101 -0.2418  0.1479  0.6180
  326MPD2    C2 4894   4.077   0.740  11.042  0.0537  0.8244 -0.1522
  326MPD2    C3 4895   4.180   0.793  11.125 -0.0127 -0.3839 -0.2892
  326MPD2    C4 4896   4.171   0.776  11.263 -0.4874 -0.3377 -0.5516
  326MPD2    C5 4897   4.076   0.692  11.317 -0.3489  0.6425  0.6342
  326MPD2     H 4898   4.062   0.752  10.935  2.2519  0.4622 -0.5070
  326MPD2    H1 4899   4.234   0.832  11.330 -0.0450 -0.8017 -0.5809
  326MPD2    H2 4900   3.903   0.576  11.274  1.6534 -1.4047  0.8421
  326MPD2    H3 4901   4.080   0.676  11.424  0.6423 -0.6746  0.4029
  326MPD2     N 4902   4.299   0.857  11.072  0.2056 -0.4318  0.2098
  326MPD2    H5 4903   4.371   0.887  11.137  1.7548 -0.3496 -1.5384
  326MPD2    N1 4904   3.906   0.595  11.005  0.3573 -0.3339 -0.3183
  326MPD2    H7 4905   3.922   0.621  10.908  0.3903  2.9417  0.5642
  327TMC3    C1 4906   3.792   0.433  10.898 -0.6484 -0.0431  0.0056
  327TMC3    C2 4907   3.696   0.497  10.822  0.3977 -0.1377 -0.2457
  327TMC3    C3 4908   3.693   0.470  10.690  0.2936 -0.3109 -0.0772
  327TMC3    C4 4909   3.902   0.370  10.833  0.2065  0.5710 -0.0138
  327TMC3    C5 4910   3.891   0.356  10.698 -0.4414  0.0634  0.2903
  327TMC3    C6 4911   3.779   0.386  10.627  0.2893 -0.3292 -0.1448
  327TMC3     C 4912   3.822   0.490  11.028 -0.4368  0.4082 -0.1741
  327TMC3     O 4913   3.774   0.437  11.128  0.4332 -0.2469  0.1714
  327TMC3     H 4914   3.642   0.578  10.868  0.3107  0.4599 -1.3941
  327TMC3    H1 4915   3.978   0.314  10.886  1.3236 -0.0752 -2.2817
  327TMC3    H2 4916   3.768   0.361  10.523  3.0694 -0.9584 -0.2965
  327TMC3    C7 4917   4.012   0.381  10.629  0.0834 -0.1299  0.3707
  327TMC3    C8 4918   3.664   0.586  10.611  0.1174 -0.8167 -0.2251
  327TMC3    O1 4919   4.004   0.375  10.508  0.3795  0.0870 -0.2093
  327TMC3    O2 4920   3.732   0.596  10.509  0.2317 -0.0442  0.2252
  328MPD2     C 4921   1.819   1.062  17.039  0.8709  0.7663  0.0389
  328MPD2    C1 4922   1.712   0.990  17.086 -0.6835  0.7696  0.2876
  328MPD2    C2 4923   1.588   1.010  17.040  0.4692  0.7635 -0.0138
  328MPD2    C3 4924   1.571   1.094  16.930 -0.5946 -0.5572 -0.9197
  328MPD2    C4 4925   1.669   1.178  16.883  1.1624 -0.6695 -0.5051
  328MPD2    C5 4926   1.795   1.151  16.932  0.0545 -0.2110 -0.2636
  328MPD2     H 4927   1.505   0.957  17.084  0.1882  0.7598 -0.5410
  328MPD2    H1 4928   1.666   1.228  16.787 -2.3545 -0.3000 -0.2173
  328MPD2    H2 4929   1.919   1.049  17.078 -0.7610  0.7118  4.1511
  328MPD2    H3 4930   1.878   1.201  16.884 -1.1193  1.2918 -0.7553
  328MPD2     N 4931   1.445   1.102  16.857  0.8156 -0.3807  0.0639
  328MPD2    H5 4932   1.431   1.175  16.789  1.1993  1.8751  2.4287
  328MPD2    N1 4933   1.738   0.913  17.203  0.6252 -0.5104  0.9731
  328MPD2    H7 4934   1.830   0.915  17.246  0.9540 -1.9829  0.3399
  329TMC3    C1 4935   1.646   0.888  17.408  0.0127  0.6302 -0.6083
  329TMC3    C2 4936   1.669   1.025  17.417 -0.2684  0.1227  0.6282
  329TMC3    C3 4937   1.614   1.089  17.517  0.7669  0.2399 -0.1413
  329TMC3    C4 4938   1.565   0.819  17.492 -0.5973  0.0718  0.0003
  329TMC3    C5 4939   1.514   0.884  17.603 -0.0105 -0.5852 -0.4324
  329TMC3    C6 4940   1.547   1.016  17.618 -0.0925  0.0685 -0.0791
  329TMC3     C 4941   1.645   0.845  17.271 -0.4304 -0.0177  1.2737
  329TMC3     O 4942   1.546   0.793  17.221 -0.4655  0.0675 -0.5290
  329TMC3     H 4943   1.735   1.080  17.352 -0.3864 -0.6038 -0.1079
  329TMC3    H1 4944   1.551   0.713  17.471 -0.9783 -1.1427  6.1718
  329TMC3    H2 4945   1.522   1.076   0.013 -1.4517 -2.0428  0.9866
  329TMC3    C7 4946   1.501   0.812   0.037 -0.1312  0.5921  0.1410
  329TMC3    C8 4947   1.571   1.223  17.489  0.0437 -0.2492  0.7776
  329TMC3    O1 4948   1.532   0.888   0.128 -0.3900  0.1352 -0.0603
  329TMC3    O2 4949   1.621   1.276  17.389 -0.1399 -0.1943 -0.0767
  330TMC3    C1 4950   4.432   0.147   9.726 -0.5213 -0.6128  0.3268
  330TMC3    C2 4951   4.447   0.057   9.625 -0.1145 -0.1102  0.4105
  330TMC3    C3 4952   4.564   4.721   9.599  0.1707  0.2101  0.2108
  330TMC3    C4 4953   4.534   0.167   9.812  0.0582  0.2969 -0.4945
  330TMC3    C5 4954   4.657   0.123   9.779  0.6621 -0.0674 -0.2917
  330TMC3    C6 4955   4.676   0.037   9.671 -0.2091  0.3435 -0.1889
  330TMC3     C 4956   4.318   0.217   9.756 -0.9605 -0.0143 -0.1011
  330TMC3     O 4957   4.335   0.331   9.788 -0.1872  0.4938  0.1916
  330TMC3     H 4958   4.363   0.032   9.562 -0.2382 -1.2584  1.0318
  330TMC3    H1 4959   4.518   0.236   9.895  4.3612 -0.8430  1.2325
  330TMC3    H2 4960   0.042   4.699   9.654  0.7179  1.7512 -0.4149
  330TMC3    C7 4961   0.040   0.164   9.861  0.0622  0.3788 -0.0130
  330TMC3    C8 4962   4.577   4.636   9.483 -0.5689 -0.6269  0.1936
  330TMC3    O1 4963   0.013   0.257   9.935 -0.2680  0.1138 -0.0596
  330TMC3    O2 4964   4.685   4.625   9.434  0.0868  0.1525  0.7481
  331MPD2     C 4965   2.194   4.097  12.888 -0.0525 -0.5792 -0.4714
  331MPD2    C1 4966   2.260   4.087  12.774  0.0251 -0.0293  0.5289
  331MPD2    C2 4967   2.325   3.966  12.744  0.0238 -0.1521  0.7483
  331MPD2    C3 4968   2.324   3.855  12.825 -0.5354  0.9885 -0.5724
  331MPD2    C4 4969   2.261   3.874  12.948 -0.4909 -0.0779  0.3267
  331MPD2    C5 4970   2.206   3.997  12.980 -0.4895  0.3253 -0.0387
  331MPD2     H 4971   2.369   3.958  12.645 -0.4850 -0.2205  0.5265
  331MPD2    H1 4972   2.254   3.801  13.027  2.8738  0.5826  1.2006
  331MPD2    H2 4973   2.130   4.183  12.907  0.1545 -0.7823  1.1657
  331MPD2    H3 4974   2.161   4.010  13.078 -0.9271 -1.7397  0.0257
  331MPD2     N 4975   2.388   3.737  12.776 -0.2392  0.4594  0.4767
  331MPD2    H5 4976   2.424   3.747  12.682 -1.0977 -1.3000 -0.0292
  331MPD2    N1 4977   2.248   4.175  12.668  0.2294 -0.1911 -0.3973
  331MPD2    H7 4978   2.301   4.145  12.587  1.4729  0.4512  0.1745
  332TMC3    C1 4979   2.469   3.512  12.785  0.2381  0.1404 -0.3862
  332TMC3    C2 4980   2.450   3.493  12.649 -0.2336  0.0430 -0.1594
  332TMC3    C3 4981   2.523   3.399  12.583  0.7068  0.1338 -0.2513
  332TMC3    C4 4982   2.542   3.429  12.862  0.7634 -0.3444  0.0716
  332TMC3    C5 4983   2.603   3.330  12.796  0.1372 -0.4384  0.1847
  332TMC3    C6 4984   2.605   3.321  12.657  0.2614  0.4114 -0.1966
  332TMC3     C 4985   2.400   3.621  12.850 -0.2617 -0.0612 -0.3817
  332TMC3     O 4986   2.386   3.619  12.972  0.1706 -0.2566  0.2594
  332TMC3     H 4987   2.375   3.553  12.599 -0.0146  1.2086  0.9086
  332TMC3    H1 4988   2.565   3.445  12.967  0.1775  1.5332 -0.0928
  332TMC3    H2 4989   2.670   3.242  12.622 -0.4387  0.1681 -0.9292
  332TMC3    C7 4990   2.722   3.290  12.866  0.7113 -0.3657  0.4490
  332TMC3    C8 4991   2.525   3.402  12.441 -0.5134  0.1254 -0.8103
  332TMC3    O1 4992   2.771   3.366  12.948  0.0915 -0.0082  0.2606
  332TMC3    O2 4993   2.464   3.497  12.391 -0.6001  0.0525 -0.0261
  333MPD2     C 4994   2.420   3.299  10.985 -0.0624  0.6144 -0.3660
  333MPD2    C1 4995   2.540   3.225  10.985 -0.4678 -0.0955 -0.7702
  333MPD2    C2 4996   2.539   3.105  11.055 -0.4766 -0.5060  0.5050
  333MPD2    C3 4997   2.421   3.055  11.113 -0.2180 -0.6531  0.0105
  333MPD2    C4 4998   2.300   3.121  11.093 -0.3533 -0.0002  0.1059
  333MPD2    C5 4999   2.311   3.242  11.031  0.5177 -0.0805 -0.0419
  333MPD2     H 5000   2.633   3.054  11.073  0.2023  0.0688 -1.3870
  333MPD2    H1 5001   2.201   3.094  11.129  0.0002 -2.3106 -0.6667
  333MPD2    H2 5002   2.405   3.395  10.937  2.9251  2.1265  1.7696
  333MPD2    H3 5003   2.223   3.306  11.019  1.0610  0.8469  0.8991
  333MPD2     N 5004   2.423   2.932  11.182 -0.5461  0.4027  0.2526
  333MPD2    H5 5005   2.516   2.892  11.190 -1.9757 -3.8074 -3.6788
  333MPD2    N1 5006   2.658   3.281  10.931 -0.2360 -0.0980  0.3237
  333MPD2    H7 5007   2.655   3.381  10.910 -2.5685 -0.0706  0.7309
  334TMC3    C1 5008   2.869   3.318  10.861 -0.4593  0.4411 -0.1415
  334TMC3    C2 5009   2.978   3.289  10.788  0.0997  0.4634 -0.1621
  334TMC3    C3 5010   3.076   3.378  10.781  0.0184 -0.9228  0.0732
  334TMC3    C4 5011   2.852   3.440  10.929  0.4338 -0.5336  0.8200
  334TMC3    C5 5012   2.954   3.529  10.909  0.5702  0.1128 -0.7029
  334TMC3    C6 5013   3.064   3.507  10.836  0.5967  0.4902  0.5677
  334TMC3     C 5014   2.774   3.216  10.893  0.1987  0.0119 -0.1508
  334TMC3     O 5015   2.779   3.096  10.872 -0.3776  0.3211 -0.0486
  334TMC3     H 5016   2.998   3.186  10.763  0.3626  1.0251 -2.2626
  334TMC3    H1 5017   2.778   3.460  11.006  0.4461 -0.4682  0.8152
  334TMC3    H2 5018   3.127   3.589  10.802 -1.3331  1.9942  0.6453
  334TMC3    C7 5019   2.939   3.664  10.958 -1.0452  0.5908  0.3222
  334TMC3    C8 5020   3.166   3.356  10.669  0.3268  0.2505 -0.4411
  334TMC3    O1 5021   3.027   3.750  10.934 -0.1706  0.6802  0.8005
  334TMC3    O2 5022   3.143   3.274  10.583  0.3349  0.5978 -0.1414
  335TMC3    C1 5023   2.405   0.668  17.222  0.2412 -0.0652 -0.5539
  335TMC3    C2 5024   2.353   0.639  17.100  0.0752  0.0589 -0.0368
  335TMC3    C3 5025   2.436   0.628  16.991  0.0873  0.5166  0.5560
  335TMC3    C4 5026   2.536   0.682  17.244 -0.0926 -0.2246 -0.0911
  335TMC3    C5 5027   2.617   0.667  17.137 -0.2652 -0.0361 -0.1238
  335TMC3    C6 5028   2.569   0.651  17.012 -0.6918 -0.7232 -0.0024
  335TMC3     C 5029   2.305   0.715  17.330  0.0543 -0.2453  0.6795
  335TMC3     O 5030   2.190   0.680  17.319 -0.0220 -0.2730  0.5975
  335TMC3     H 5031   2.252   0.599  17.088  0.2816 -0.5343  0.1750
  335TMC3    H1 5032   2.557   0.698  17.349 -0.0508 -1.0747  0.0274
  335TMC3    H2 5033   2.633   0.636  16.925 -0.5675 -0.4804  0.0474
  335TMC3    C7 5034   2.759   0.666  17.160 -0.1485  0.0114 -0.2591
  335TMC3    C8 5035   2.403   0.524  16.900 -0.8183  0.1832  0.3085
  335TMC3    O1 5036   2.831   0.653  17.060  0.4308  0.4555  0.1872
  335TMC3    O2 5037   2.428   0.546  16.781  0.0975 -0.1181  0.1113
  336MPD2     C 5038   2.359   3.234  16.190  0.4518  0.5199  0.3956
  336MPD2    C1 5039   2.327   3.188  16.061  0.2218  0.9033  0.3033
  336MPD2    C2 5040   2.339   3.057  16.032 -0.4532  0.5929  0.3284
  336MPD2    C3 5041   2.393   2.967  16.123  0.5699 -0.1905  0.4609
  336MPD2    C4 5042   2.412   3.007  16.250  0.2643  0.4924  0.2471
  336MPD2    C5 5043   2.398   3.139  16.285 -0.1276 -0.3290  0.9720
  336MPD2     H 5044   2.314   3.026  15.932 -0.1395 -1.5471  0.9168
  336MPD2    H1 5045   2.462   2.940  16.320  0.4015 -0.2238 -0.5409
  336MPD2    H2 5046   2.359   3.337  16.223  0.1413  0.4259  0.6774
  336MPD2    H3 5047   2.434   3.164  16.384  2.4619  2.7865 -0.7182
  336MPD2     N 5048   2.406   2.837  16.082 -0.0951  0.3182 -0.8548
  336MPD2    H5 5049   2.430   2.768  16.152 -0.1998 -0.1096 -1.2371
  336MPD2    N1 5050   2.282   3.271  15.959  0.4343 -0.2227 -0.2339
  336MPD2    H7 5051   2.258   3.223  15.872 -1.2110  1.0606 -0.4910
  337TMC3    C1 5052   2.194   3.446  15.839 -0.5711  0.7639  0.1318
  337TMC3    C2 5053   2.088   3.369  15.798  0.5349 -0.0237 -0.3955
  337TMC3    C3 5054   1.984   3.423  15.718 -0.0555  0.1487  0.2250
  337TMC3    C4 5055   2.197   3.578  15.812  0.0233 -0.6257  0.2824
  337TMC3    C5 5056   2.097   3.623  15.730 -0.2533 -0.1038  0.4209
  337TMC3    C6 5057   1.997   3.550  15.672  0.0515 -0.2308  0.3357
  337TMC3     C 5058   2.267   3.404  15.959 -0.1853 -0.0989 -0.5644
  337TMC3     O 5059   2.310   3.496  16.023 -0.0570 -0.6292 -0.2829
  337TMC3     H 5060   2.078   3.269  15.838  0.6287  0.7606  1.5858
  337TMC3    H1 5061   2.275   3.648  15.841  0.2939 -0.3489 -1.1030
  337TMC3    H2 5062   1.921   3.603  15.615 -1.1332  0.0682  2.1756
  337TMC3    C7 5063   2.124   3.755  15.674  0.1269  0.2701 -0.0684
  337TMC3    C8 5064   1.871   3.342  15.682  1.7215 -0.7774 -0.8245
  337TMC3    O1 5065   2.186   3.831  15.750 -0.1719 -0.5843  0.0329
  337TMC3    O2 5066   1.867   3.225  15.726  0.5925 -0.1241 -0.5314
  338MPD2     C 5067   2.303   2.903   0.727  0.7136  0.4704 -0.5096
  338MPD2    C1 5068   2.232   2.843   0.623 -0.5427 -0.0379 -0.0392
  338MPD2    C2 5069   2.095   2.876   0.611  0.4084  0.5245 -0.4385
  338MPD2    C3 5070   2.039   2.974   0.690  0.5382  0.0239 -0.1347
  338MPD2    C4 5071   2.113   3.034   0.792 -0.1381 -0.0136  0.2659
  338MPD2    C5 5072   2.240   2.991   0.812  0.3773  0.0355 -0.4369
  338MPD2     H 5073   2.032   2.832   0.534 -0.7618  0.4309  0.5696
  338MPD2    H1 5074   2.065   3.099   0.865 -0.4975 -2.3089  2.0884
  338MPD2    H2 5075   2.404   2.875   0.756  1.2063 -0.3616 -2.9712
  338MPD2    H3 5076   2.293   3.058   0.880  2.3697 -2.5859  0.5824
  338MPD2     N 5077   1.902   3.005   0.661  0.3138 -0.1522  0.0851
  338MPD2    H5 5078   1.863   2.951   0.584  1.4044 -0.9512  0.0987
  338MPD2    N1 5079   2.284   2.746   0.535  0.3748 -0.5127 -0.3495
  338MPD2    H7 5080   2.233   2.717   0.452  1.1639  0.4968 -1.1965
  339TMC3    C1 5081   1.696   3.108   0.634  0.5911 -0.8214 -0.0169
  339TMC3    C2 5082   1.632   2.990   0.597 -0.1666  0.5302 -2.1391
  339TMC3    C3 5083   1.525   2.988   0.506 -1.3532  0.2098  0.1975
  339TMC3    C4 5084   1.672   3.215   0.553  0.0910  0.1812  0.5062
  339TMC3    C5 5085   1.575   3.206   0.457 -0.6464  0.1612 -0.5523
  339TMC3    C6 5086   1.491   3.097   0.435  0.2479 -0.1868  0.4631
  339TMC3     C 5087   1.823   3.101   0.706  0.5761  0.2487  0.0458
  339TMC3     O 5088   1.853   3.194   0.786  0.1028 -0.0459  0.0837
  339TMC3     H 5089   1.644   2.901   0.659 -0.5672  2.3768  0.6104
  339TMC3    H1 5090   1.740   3.299   0.554  1.4807 -0.9845  2.4901
  339TMC3    H2 5091   1.400   3.104   0.375  0.1313 -0.2758  0.6297
  339TMC3    C7 5092   1.628   3.248   0.332  0.1028 -0.1585 -1.3683
  339TMC3    C8 5093   1.476   2.866   0.452 -0.4764  0.0681 -0.6032
  339TMC3    O1 5094   1.750   3.266   0.319  0.3626  0.0652 -0.2625
  339TMC3    O2 5095   1.451   2.862   0.333 -0.2800 -0.2137  0.4718
  340MPD2     C 5096   2.400   0.425   9.633  1.1199 -0.0847  0.4794
  340MPD2    C1 5097   2.500   0.362   9.703 -0.0874 -0.4501  0.1557
  340MPD2    C2 5098   2.499   0.381   9.835 -0.0701 -0.3997  0.4878
  340MPD2    C3 5099   2.386   0.426   9.896  0.3017  0.4087 -0.3671
  340MPD2    C4 5100   2.277   0.477   9.828  0.7526 -0.4230 -0.5437
  340MPD2    C5 5101   2.289   0.486   9.692 -0.6733 -0.4645  0.1280
  340MPD2     H 5102   2.581   0.344   9.895  0.4870 -3.3520 -2.1011
  340MPD2    H1 5103   2.192   0.518   9.882  1.7305 -0.0146  0.7047
  340MPD2    H2 5104   2.401   0.418   9.525  0.9904  0.3989  0.4452
  340MPD2    H3 5105   2.216   0.525   9.622 -1.8659 -2.6484  0.1353
  340MPD2     N 5106   2.370   0.413  10.037 -0.5138 -0.0067  0.0059
  340MPD2    H5 5107   2.289   0.458  10.078 -0.8118 -1.2393  0.7738
  340MPD2    N1 5108   2.600   0.297   9.627 -0.3422 -0.3263 -0.4054
  340MPD2    H7 5109   2.590   0.302   9.526  1.7948 -0.2736 -0.6172
  341TMC3    C1 5110   2.783   0.150   9.585  0.3802 -0.4179 -0.2711
  341TMC3    C2 5111   2.712   0.087   9.483  0.4936 -0.5125  1.0330
  341TMC3    C3 5112   2.775   4.722   9.402 -0.5484 -0.1417  0.8356
  341TMC3    C4 5113   2.910   0.104   9.618 -0.6374  0.4261 -0.4019
  341TMC3    C5 5114   2.970   0.018   9.535 -0.0827 -0.3064 -0.7366
  341TMC3    C6 5115   2.905   4.689   9.415 -0.3722 -0.0072  0.3115
  341TMC3     C 5116   2.709   0.231   9.681  0.2510 -0.4391  0.3080
  341TMC3     O 5117   2.759   0.240   9.790  0.1452  0.1647 -0.0430
  341TMC3     H 5118   2.603   0.095   9.486  0.5699  0.9646  0.0097
  341TMC3    H1 5119   2.957   0.131   9.712 -2.4864  0.9291  0.3724
  341TMC3    H2 5120   2.950   4.610   9.356  0.0713 -0.3095  1.0509
  341TMC3    C7 5121   3.097   4.680   9.575 -0.0961 -0.7230 -0.3701
  341TMC3    C8 5122   2.720   4.679   9.279  0.3387  0.2147  0.0990
  341TMC3    O1 5123   3.126   4.571   9.523 -0.8611 -0.0046  0.5208
  341TMC3    O2 5124   2.771   4.599   9.208 -0.0056  0.5169 -0.4277
  342MPD2     C 5125   0.895   4.195  16.996 -0.3385  0.0552 -0.1555
  342MPD2    C1 5126   0.861   4.117  17.106  0.0114  0.1156 -0.2425
  342MPD2    C2 5127   0.819   4.178  17.222 -0.6526  0.1717 -0.2143
  342MPD2    C3 5128   0.822   4.316  17.247  0.6138  0.2192  0.6318
  342MPD2    C4 5129   0.860   4.390  17.137  0.5547  0.1633  0.0251
  342MPD2    C5 5130   0.888   4.332  17.017  0.2242  0.4484 -0.3255
  342MPD2     H 5131   0.791   4.114  17.305  0.8704 -0.2382 -0.0201
  342MPD2    H1 5132   0.880   4.496  17.153 -1.3132  0.6473 -0.8641
  342MPD2    H2 5133   0.932   4.156  16.902 -1.9711  0.2561 -0.8803
  342MPD2    H3 5134   0.921   4.404  16.942  1.6142 -0.1195 -0.2520
  342MPD2     N 5135   0.805   4.370  17.371  0.3782 -0.6313  0.1052
  342MPD2    H5 5136   0.823   4.469  17.363 -1.1082 -0.2320  1.6652
  342MPD2    N1 5137   0.874   3.973  17.111 -0.1712 -0.4599 -0.5152
  342MPD2    H7 5138   0.861   3.929  17.201 -0.6422  1.4553  0.3668
  343TMC3    C1 5139   0.948   3.761  17.050 -0.0720  0.1159 -0.3801
  343TMC3    C2 5140   1.046   3.693  16.988  0.7092 -0.4393  0.4456
  343TMC3    C3 5141   1.046   3.547  16.987 -0.0640  0.0156  0.4070
  343TMC3    C4 5142   0.848   3.699  17.126 -0.0177  0.1931  0.0691
  343TMC3    C5 5143   0.851   3.562  17.126 -0.0942  0.5646 -0.1911
  343TMC3    C6 5144   0.947   3.490  17.063 -0.5176 -0.7869  0.6223
  343TMC3     C 5145   0.920   3.891  17.006 -0.3953 -0.2071  0.2917
  343TMC3     O 5146   0.940   3.926  16.888 -0.4725 -0.5187 -0.6777
  343TMC3     H 5147   1.123   3.748  16.935  0.8835 -1.2672 -0.1639
  343TMC3    H1 5148   0.761   3.757  17.152  1.6770  2.3317  0.9844
  343TMC3    H2 5149   0.935   3.383  17.070 -2.1203 -0.5160  1.8350
  343TMC3    C7 5150   0.745   3.490  17.191  0.3234 -0.0534  0.7258
  343TMC3    C8 5151   1.171   3.484  16.960 -0.7290 -0.5957  0.1084
  343TMC3    O1 5152   0.715   3.377  17.155 -0.0502  0.2108 -0.3076
  343TMC3    O2 5153   1.264   3.552  17.011 -0.2034  0.6232  0.0809
  344MPD2     C 5154   1.839   2.731  10.593 -0.2585 -0.2008 -0.1322
  344MPD2    C1 5155   1.728   2.724  10.512  0.4044 -0.1015  0.1376
  344MPD2    C2 5156   1.719   2.818  10.406  0.0327  0.5662 -0.2069
  344MPD2    C3 5157   1.818   2.913  10.386 -0.2190  0.1399 -0.0549
  344MPD2    C4 5158   1.925   2.919  10.480 -0.1847 -0.2524  0.1735
  344MPD2    C5 5159   1.939   2.829  10.580 -0.7182 -0.0316  0.1461
  344MPD2     H 5160   1.627   2.820  10.347  1.0188  1.2986 -1.7420
  344MPD2    H1 5161   2.008   2.985  10.461  2.0951 -4.2756 -3.7509
  344MPD2    H2 5162   1.861   2.660  10.672 -0.5716 -2.1443 -1.7725
  344MPD2    H3 5163   2.023   2.819  10.649 -1.1652 -0.8411  0.5772
  344MPD2     N 5164   1.836   3.000  10.276  0.6094 -0.0190  0.1639
  344MPD2    H5 5165   1.904   3.074  10.290  0.5338  0.4765 -2.1292
  344MPD2    N1 5166   1.616   2.638  10.538  0.4644  0.3447 -0.2936
  344MPD2    H7 5167   1.531   2.640  10.482 -0.0494  0.5343  0.4865
  345TMC3    C1 5168   1.787   3.108  10.078 -0.2625  0.0044 -0.5754
  345TMC3    C2 5169   1.923   3.139  10.074  0.0183 -0.3856 -0.0845
  345TMC3    C3 5170   1.955   3.231   9.979 -0.1111 -0.4663  0.4514
  345TMC3    C4 5171   1.693   3.162   9.991 -0.1990  0.8401 -0.5373
  345TMC3    C5 5172   1.737   3.267   9.920  0.0652 -0.2445  1.4917
  345TMC3    C6 5173   1.866   3.295   9.896  0.4341  0.2959  0.1046
  345TMC3     C 5174   1.746   3.012  10.174  0.3992 -0.0593  0.6798
  345TMC3     O 5175   1.642   2.948  10.154 -0.7173  0.4036 -0.4774
  345TMC3     H 5176   2.003   3.079  10.116 -0.5054 -1.5601 -0.7754
  345TMC3    H1 5177   1.591   3.135  10.017  0.6357 -0.4216  1.4025
  345TMC3    H2 5178   1.885   3.373   9.823 -0.3635 -0.0582 -0.4828
  345TMC3    C7 5179   1.655   3.382   9.920  0.3115 -0.2851  0.3075
  345TMC3    C8 5180   2.089   3.283   9.978 -0.1022 -0.1037  0.1208
  345TMC3    O1 5181   1.717   3.485   9.922  0.0861 -0.1435  0.7274
  345TMC3    O2 5182   2.153   3.250  10.078 -0.3036 -0.2617 -0.2451
  346MPD2     C 5183   1.706   0.101  14.303 -0.1363 -0.1810 -0.2277
  346MPD2    C1 5184   1.832   0.157  14.280 -0.2393 -0.8852  0.6710
  346MPD2    C2 5185   1.870   0.250  14.380  0.8008  0.2495 -0.0094
  346MPD2    C3 5186   1.791   0.285  14.486  1.0284  0.1347  0.0471
  346MPD2    C4 5187   1.657   0.241  14.491 -0.7170 -0.5866 -0.3041
  346MPD2    C5 5188   1.620   0.144  14.399  0.3983  0.2065  0.7288
  346MPD2     H 5189   1.965   0.302  14.378  1.5854 -1.1650  0.4635
  346MPD2    H1 5190   1.594   0.262  14.578  0.1190 -2.7448  0.8380
  346MPD2    H2 5191   1.666   0.022  14.240 -1.1178 -0.1183  0.3281
  346MPD2    H3 5192   1.521   0.098  14.401  0.8424 -0.8354 -1.0426
  346MPD2     N 5193   1.844   0.357  14.602  0.0644 -0.6238 -0.3837
  346MPD2    H5 5194   1.944   0.346  14.601  0.3257  1.4390  3.7933
  346MPD2    N1 5195   1.921   0.119  14.180  0.1409 -0.3724  0.4100
  346MPD2    H7 5196   2.013   0.160  14.189 -0.6052  1.3332  0.0679
  347TMC3    C1 5197   1.856   0.411  14.832 -0.2440  0.2784  0.1601
  347TMC3    C2 5198   1.985   0.439  14.804  0.4599 -0.6453 -0.0534
  347TMC3    C3 5199   2.073   0.434  14.911  0.0922 -0.3781 -0.4414
  347TMC3    C4 5200   1.812   0.379  14.958 -0.2295  0.3928  0.4826
  347TMC3    C5 5201   1.901   0.370  15.064  0.2668  0.0626 -0.4657
  347TMC3    C6 5202   2.032   0.417  15.043  0.3197  0.3199 -0.5716
  347TMC3     C 5203   1.766   0.401  14.715 -0.4590 -0.1388  0.8139
  347TMC3     O 5204   1.644   0.414  14.721 -0.4050 -0.0742  0.1822
  347TMC3     H 5205   2.025   0.468  14.708  1.1455  2.9012  1.3103
  347TMC3    H1 5206   1.707   0.354  14.972 -0.1233  0.7052  1.7485
  347TMC3    H2 5207   2.108   0.403  15.119 -0.6866  2.8605  0.9054
  347TMC3    C7 5208   1.873   0.282  15.171  1.2198  0.5024  0.0108
  347TMC3    C8 5209   2.211   0.462  14.890  0.2085 -0.2353  0.3251
  347TMC3    O1 5210   1.762   0.228  15.168 -0.0477  0.1203 -0.1521
  347TMC3    O2 5211   2.278   0.506  14.982 -0.0259  0.6076  0.2906
  348MPD2     C 5212   4.477   3.853  12.285  0.2249  0.4691 -0.6088
  348MPD2    C1 5213   4.583   3.944  12.278  0.0948  0.7900  0.3529
  348MPD2    C2 5214   4.580   4.030  12.171  0.3727 -0.2881  0.6345
  348MPD2    C3 5215   4.473   4.024  12.079  0.0107 -0.3494  0.5925
  348MPD2    C4 5216   4.368   3.936  12.095  0.2347  0.2833  0.5099
  348MPD2    C5 5217   4.371   3.851  12.199 -0.4544 -0.3905 -0.0261
  348MPD2     H 5218   4.659   4.104  12.166  0.4441 -0.4818 -1.2508
  348MPD2    H1 5219   4.273   3.944  12.042  0.0359 -2.0974  0.5010
  348MPD2    H2 5220   4.475   3.781  12.365  0.5664 -0.5219 -1.4931
  348MPD2    H3 5221   4.288   3.786  12.223 -0.2388 -1.5177 -2.2925
  348MPD2     N 5222   4.462   4.128  11.987  0.3686  0.8002  0.1983
  348MPD2    H5 5223   4.525   4.206  12.004 -2.2951  3.0769 -0.4399
  348MPD2    N1 5224   4.697   3.940  12.361 -0.1387 -0.0844  0.1802
  348MPD2    H7 5225   0.043   4.015  12.353  1.7475 -1.8161  0.0609
  349TMC3    C1 5226   0.139   3.842  12.511  0.1280 -0.4532 -0.2527
  349TMC3    C2 5227   0.218   3.738  12.483 -0.3511 -0.4581  0.4061
  349TMC3    C3 5228   0.354   3.756  12.464  0.6188  0.2152  0.1748
  349TMC3    C4 5229   0.189   3.967  12.508  0.0580  0.0823  0.0097
  349TMC3    C5 5230   0.320   3.986  12.482 -0.3127 -0.2972 -0.1586
  349TMC3    C6 5231   0.409   3.883  12.467  0.2430 -0.0591 -0.0484
  349TMC3     C 5232   0.004   3.836  12.446 -0.3125  0.1633 -0.1671
  349TMC3     O 5233   4.673   3.726  12.456  0.0628  0.1437  0.5219
  349TMC3     H 5234   0.183   3.636  12.492  2.3095 -1.3762  0.3817
  349TMC3    H1 5235   0.126   4.050  12.537  0.6598  0.1632  1.1073
  349TMC3    H2 5236   0.516   3.903  12.470  0.5558 -1.8284  0.7316
  349TMC3    C7 5237   0.326   4.085  12.376 -0.0987  0.6617 -0.2200
  349TMC3    C8 5238   0.429   3.630  12.471 -0.0325  1.0255  0.1424
  349TMC3    O1 5239   0.215   4.111  12.339  0.0247 -0.4767 -0.0578
  349TMC3    O2 5240   0.380   3.529  12.527  0.6775 -0.1516 -0.6959
  350MPD2     C 5241   4.095   2.971   9.223  0.1836  0.8528  0.3041
  350MPD2    C1 5242   4.060   2.839   9.247  0.6473 -0.4035  0.1032
  350MPD2    C2 5243   4.054   2.799   9.380  0.1580  0.6056 -0.2002
  350MPD2    C3 5244   4.100   2.877   9.487 -0.1260  0.2059 -0.0979
  350MPD2    C4 5245   4.138   3.005   9.460 -0.7499  0.2164  0.1523
  350MPD2    C5 5246   4.144   3.042   9.330 -0.0641 -0.1346  0.1310
  350MPD2     H 5247   4.037   2.694   9.396  2.1849  0.1328 -1.0893
  350MPD2    H1 5248   4.179   3.073   9.533  0.9864 -0.8819  0.1979
  350MPD2    H2 5249   4.104   3.008   9.122 -2.7051 -0.4435 -0.4178
  350MPD2    H3 5250   4.197   3.132   9.302 -0.4612 -0.0923 -0.4761
  350MPD2     N 5251   4.102   2.815   9.614 -0.5091 -0.3333  0.5745
  350MPD2    H5 5252   4.058   2.723   9.613  2.0796 -1.5733  0.5943
  350MPD2    N1 5253   4.022   2.755   9.143  0.0891  0.5232  0.2798
  350MPD2    H7 5254   4.006   2.658   9.168  0.9593  0.3369  0.1345
  351TMC3    C1 5255   3.977   2.657   8.942  0.1978 -0.5635 -0.5559
  351TMC3    C2 5256   4.013   2.535   8.993  0.3433  0.4316 -0.2165
  351TMC3    C3 5257   3.967   2.423   8.936  0.3379  0.9563  0.4181
  351TMC3    C4 5258   3.880   2.666   8.843  0.1333  0.4826 -0.1733
  351TMC3    C5 5259   3.828   2.552   8.793  0.6358  0.0694  0.7879
  351TMC3    C6 5260   3.871   2.427   8.842 -0.6593 -0.2975 -0.0818
  351TMC3     C 5261   3.998   2.782   9.016  0.4988  0.2234  0.0690
  351TMC3     O 5262   3.968   2.884   8.953  0.1560 -0.2617 -0.3458
  351TMC3     H 5263   4.085   2.531   9.074  0.8896 -0.0765 -0.7345
  351TMC3    H1 5264   3.857   2.765   8.804 -1.5371 -0.7555 -2.2593
  351TMC3    H2 5265   3.819   2.338   8.809  2.3192 -2.2146  0.3774
  351TMC3    C7 5266   3.709   2.550   8.713 -0.0108 -0.1823 -1.2257
  351TMC3    C8 5267   4.026   2.305   8.978 -0.1298 -0.2528  0.4976
  351TMC3    O1 5268   3.640   2.447   8.716  0.9103 -0.3653 -0.2512
  351TMC3    O2 5269   4.084   2.299   9.088 -0.1586  0.2344 -0.0957
  352MPD2     C 5270   2.621   0.520   0.837 -0.1200  0.6077 -0.0616
  352MPD2    C1 5271   2.542   0.436   0.920 -0.0840 -0.3986  0.2708
  352MPD2    C2 5272   2.604   0.356   1.010 -0.3832 -0.5790 -0.4224
  352MPD2    C3 5273   2.741   0.339   1.001 -0.0535 -0.7794 -0.4734
  352MPD2    C4 5274   2.818   0.423   0.924  0.6188  0.1867  0.0833
  352MPD2    C5 5275   2.761   0.513   0.840  0.1016 -0.1228  0.2927
  352MPD2     H 5276   2.549   0.288   1.073 -2.2511  0.1000 -1.2997
  352MPD2    H1 5277   2.927   0.423   0.926  0.6298 -1.0471 -0.3035
  352MPD2    H2 5278   2.582   0.585   0.760  0.6122 -2.2431 -2.8569
  352MPD2    H3 5279   2.817   0.573   0.769 -0.6306  0.0896 -0.1034
  352MPD2     N 5280   2.806   0.245   1.081 -0.0033 -0.7892 -0.3462
  352MPD2    H5 5281   2.907   0.240   1.068  0.3153 -0.5393  1.9856
  352MPD2    N1 5282   2.400   0.413   0.898  0.8470  0.3923  0.6096
  352MPD2    H7 5283   2.353   0.448   0.815 -0.1497  0.3487  1.1551
  353TMC3    C1 5284   2.826   0.048   1.221 -0.2502  1.0041  0.3409
  353TMC3    C2 5285   2.935   0.009   1.144  0.4997  0.3341 -0.1334
  353TMC3    C3 5286   2.972   4.603   1.155 -0.1402  0.2876  0.2905
  353TMC3    C4 5287   2.761   4.691   1.317 -0.0332  0.0486  0.5716
  353TMC3    C5 5288   2.801   4.564   1.313 -0.1763 -0.4332 -0.0790
  353TMC3    C6 5289   2.908   4.516   1.243 -0.5223  0.1753  0.4452
  353TMC3     C 5290   2.750   0.167   1.186 -0.0923  0.2462 -0.1606
  353TMC3     O 5291   2.651   0.185   1.248  0.4585  0.1974 -0.0888
  353TMC3     H 5292   2.985   0.079   1.077  1.4886  0.0660  0.3207
  353TMC3    H1 5293   2.684   0.007   1.383 -0.5289  0.5653 -0.3007
  353TMC3    H2 5294   2.914   4.410   1.219  0.1313  0.6931 -1.5919
  353TMC3    C7 5295   2.703   4.461   1.341 -0.3633 -1.0589  0.2208
  353TMC3    C8 5296   3.090   4.565   1.085  0.7861  0.2790  0.0561
  353TMC3    O1 5297   2.707   4.362   1.266 -0.0065  0.3149 -0.1836
  353TMC3    O2 5298   3.148   4.645   1.017 -0.2859 -0.5287 -0.2106
  354TMC3    C1 5299   3.951   0.939  13.228 -0.1540  0.6596  0.4799
  354TMC3    C2 5300   3.997   1.063  13.196 -0.2127 -0.4572 -0.5834
  354TMC3    C3 5301   3.945   1.115  13.083 -0.4507 -0.6842 -1.1197
  354TMC3    C4 5302   3.857   0.872  13.149  0.0236  0.2847  0.8626
  354TMC3    C5 5303   3.813   0.923  13.036  0.2615  0.6253  0.2092
  354TMC3    C6 5304   3.862   1.045  13.001  0.3270  0.1002 -0.0656
  354TMC3     C 5305   4.005   0.881  13.348 -0.5798  0.2081  0.4948
  354TMC3     O 5306   4.020   0.761  13.352  0.4014 -0.2468 -0.2694
  354TMC3     H 5307   4.078   1.117  13.242  2.1931 -3.2972 -1.4769
  354TMC3    H1 5308   3.858   0.764  13.155  0.4531  0.2932  0.9697
  354TMC3    H2 5309   3.833   1.088  12.906 -0.2948 -1.2488 -0.4931
  354TMC3    C7 5310   3.834   0.825  12.931  0.3686 -0.0915  0.7111
  354TMC3    C8 5311   4.019   1.218  13.016 -0.6059 -0.5446  0.2320
  354TMC3    O1 5312   3.778   0.716  12.941  0.0215  0.6941  0.0270
  354TMC3    O2 5313   4.040   1.201  12.901 -0.0424  0.3738 -0.0036
  355MPD2     C 5314   4.018   1.850  11.364 -0.2941 -0.5365 -0.0351
  355MPD2    C1 5315   4.096   1.877  11.251  0.1430  0.7848 -0.3676
  355MPD2    C2 5316   4.232   1.894  11.283 -0.3511 -0.6903 -0.2265
  355MPD2    C3 5317   4.279   1.908  11.411  0.2285 -0.2545 -0.3955
  355MPD2    C4 5318   4.195   1.903  11.519  0.6964  0.3782 -0.0146
  355MPD2    C5 5319   4.063   1.863  11.490  0.3106 -0.2597  0.2004
  355MPD2     H 5320   4.313   1.908  11.212 -1.1620  0.0507 -1.0048
  355MPD2    H1 5321   4.225   1.903  11.623 -1.9488 -1.5683  0.7264
  355MPD2    H2 5322   3.914   1.824  11.353 -0.0420 -0.6687 -2.1648
  355MPD2    H3 5323   3.993   1.856  11.573 -2.1144 -1.6372 -1.9509
  355MPD2     N 5324   4.408   1.949  11.443 -0.2250 -0.4884  0.0201
  355MPD2    H5 5325   4.429   1.970  11.540  0.1482  0.9735 -0.3890
  355MPD2    N1 5326   4.034   1.870  11.120  0.1045 -0.0786 -0.5168
  355MPD2    H7 5327   3.938   1.837  11.130 -0.2812  1.8275  2.2040
  356TMC3    C1 5328   4.628   2.035  11.399 -0.0858 -0.0615  0.8205
  356TMC3    C2 5329   4.717   2.059  11.296 -0.2780  0.1113 -0.0720
  356TMC3    C3 5330   0.086   2.155  11.327 -0.3860  0.4547  0.0080
  356TMC3    C4 5331   4.618   2.100  11.513 -0.1985  0.0913 -0.0781
  356TMC3    C5 5332   4.704   2.203  11.531 -0.3486  0.2488  0.3540
  356TMC3    C6 5333   0.088   2.228  11.446 -0.6138  0.3561  0.6325
  356TMC3     C 5334   4.521   1.941  11.365 -0.8581  0.1347 -0.0757
  356TMC3     O 5335   4.537   1.890  11.256  0.5171  0.3032 -0.1302
  356TMC3     H 5336   4.713   2.004  11.203 -1.2054 -0.0562  0.0701
  356TMC3    H1 5337   4.543   2.077  11.587  0.1826 -1.7701 -0.2669
  356TMC3    H2 5338   0.139   2.323  11.452  1.1075 -0.6091  1.2930
  356TMC3    C7 5339   4.678   2.281  11.648  0.3219  0.1620 -0.3727
  356TMC3    C8 5340   0.167   2.194  11.214 -0.2673 -0.5188 -0.3739
  356TMC3    O1 5341   4.591   2.250  11.726  0.1085 -0.1608  0.0257
  356TMC3    O2 5342   0.114   2.181  11.103 -0.3856 -0.0837  0.8306
  357MPD2     C 5343   3.990   1.861   1.486  0.8830 -0.5265  0.1224
  357MPD2    C1 5344   4.080   1.781   1.549 -0.3249 -0.5011  0.4237
  357MPD2    C2 5345   4.109   1.817   1.680 -0.6050 -0.1067  0.1424
  357MPD2    C3 5346   4.054   1.931   1.743  0.4682  0.5613  0.3359
  357MPD2    C4 5347   3.974   2.010   1.667  0.6528 -0.1656 -0.1468
  357MPD2    C5 5348   3.924   1.971   1.544  0.6703 -0.1700  0.2451
  357MPD2     H 5349   4.179   1.754   1.734 -1.2876 -2.2015 -1.4329
  357MPD2    H1 5350   3.941   2.107   1.702 -2.6391 -1.4568  0.3971
  357MPD2    H2 5351   3.964   1.847   1.382 -0.4387 -1.2151  0.5463
  357MPD2    H3 5352   3.851   2.028   1.487 -0.0952 -1.1150  0.2782
  357MPD2     N 5353   4.098   1.979   1.869  0.5008 -0.7416 -0.2492
  357MPD2    H5 5354   4.083   2.076   1.894  1.1438 -0.5693 -0.5288
  357MPD2    N1 5355   4.146   1.677   1.478 -0.1236 -0.4948 -0.1449
  357MPD2    H7 5356   4.114   1.654   1.384  1.4743  1.9592 -1.2778
  358TMC3    C1 5357   4.333   1.554   1.409 -0.3793 -0.2757  0.2623
  358TMC3    C2 5358   4.276   1.454   1.341  0.0014  0.1633  0.4519
  358TMC3    C3 5359   4.340   1.343   1.294 -0.8250 -0.0788  0.3721
  358TMC3    C4 5360   4.467   1.554   1.424 -0.1686 -0.2095  0.2842
  358TMC3    C5 5361   4.539   1.444   1.378  0.6508  0.1178  0.2162
  358TMC3    C6 5362   4.477   1.337   1.320 -0.1208  0.9412 -0.0649
  358TMC3     C 5363   4.262   1.617   1.515  0.0829 -0.1204  0.2393
  358TMC3     O 5364   4.327   1.637   1.617 -0.2274 -0.0304 -0.4215
  358TMC3     H 5365   4.169   1.449   1.327  0.2261 -3.4877 -0.0241
  358TMC3    H1 5366   4.508   1.639   1.477  1.0745  0.8088 -2.2840
  358TMC3    H2 5367   4.536   1.262   1.270 -2.2439  0.3608 -1.6985
  358TMC3    C7 5368   4.689   1.451   1.401  0.0508  0.2668  0.0263
  358TMC3    C8 5369   4.278   1.249   1.205 -0.2737 -0.4884 -0.6790
  358TMC3    O1 5370   0.003   1.542   1.472 -0.1698  0.6377 -0.0277
  358TMC3    O2 5371   4.189   1.293   1.131 -0.3348 -0.4271  0.7616
  359MPD2     C 5372   0.127   4.488  12.437 -0.6578 -0.1855  0.1256
  359MPD2    C1 5373   0.084   4.604  12.490  0.2225  0.5997  0.0767
  359MPD2    C2 5374   0.017   4.605  12.612 -0.1473  0.4691 -0.2985
  359MPD2    C3 5375   4.702   4.482  12.672 -0.4021  0.1416  1.0415
  359MPD2    C4 5376   0.020   4.365  12.611  0.2155  0.8356  0.5653
  359MPD2    C5 5377   0.099   4.369  12.498  0.0901  0.5000 -0.6573
  359MPD2     H 5378   4.714   4.701  12.656 -0.4580  1.1420 -1.9697
  359MPD2    H1 5379   0.007   4.270  12.662 -0.8651 -0.2783 -1.7601
  359MPD2    H2 5380   0.187   4.488  12.347  0.2925  0.4804  0.7611
  359MPD2    H3 5381   0.137   4.276  12.457 -0.3410 -0.4104  0.9985
  359MPD2     N 5382   4.614   4.475  12.787 -0.3191 -0.6387 -0.0754
  359MPD2    H5 5383   4.595   4.387  12.834 -0.3982 -0.1548  0.8000
  359MPD2    N1 5384   0.092   4.719  12.419 -1.0307  0.0040 -0.1517
  359MPD2    H7 5385   0.069   0.084  12.466  0.9595  2.0569 -2.9665
  360TMC3    C1 5386   0.090   0.147  12.236 -0.5864  0.4431  0.6251
  360TMC3    C2 5387   0.168   0.238  12.297  0.0700 -0.4186 -0.8775
  360TMC3    C3 5388   0.201   0.346  12.225  0.8206 -0.0825  0.2376
  360TMC3    C4 5389   0.049   0.172  12.110 -1.0379  0.1274 -0.4863
  360TMC3    C5 5390   0.076   0.290  12.045  0.1910 -0.1560 -0.5197
  360TMC3    C6 5391   0.155   0.380  12.098 -0.5619  0.1342  0.1128
  360TMC3     C 5392   0.090   0.008  12.279 -0.3352  0.8407 -0.8958
  360TMC3     O 5393   0.052   4.648  12.196 -0.6692 -0.0626  0.3974
  360TMC3     H 5394   0.236   0.210  12.376 -0.0320  1.0915 -0.2639
  360TMC3    H1 5395   0.007   0.098  12.043 -3.2349 -0.6802  1.8231
  360TMC3    H2 5396   0.197   0.463  12.042 -0.2059 -0.0469  0.1112
  360TMC3    C7 5397   0.041   0.311  11.907  0.0408  0.1930 -0.1826
  360TMC3    C8 5398   0.315   0.425  12.280  0.3045 -0.5157 -0.2771
  360TMC3    O1 5399   0.129   0.368  11.844  0.0982 -0.1068  0.0034
  360TMC3    O2 5400   0.328   0.425  12.400  0.3302 -0.1446  0.2438
  361MPD2     C 5401   2.006   4.427  17.302 -0.0945  0.1644  0.2805
  361MPD2    C1 5402   1.939   4.356  17.204  0.2973  0.1424  0.1178
  361MPD2    C2 5403   1.985   4.229  17.169  0.0452  0.4501 -0.6838
  361MPD2    C3 5404   2.102   4.181  17.233 -0.1778 -0.3398 -0.3678
  361MPD2    C4 5405   2.177   4.262  17.319  0.2915  0.0906 -0.1452
  361MPD2    C5 5406   2.123   4.382  17.358 -0.1698  0.3199 -0.2761
  361MPD2     H 5407   1.930   4.164  17.102  0.4783 -0.9845  0.3646
  361MPD2    H1 5408   2.261   4.230  17.380 -1.3441  0.1626  2.1619
  361MPD2    H2 5409   1.985   4.532  17.323  0.2148  0.0973  0.9243
  361MPD2    H3 5410   2.166   4.454  17.427 -0.6695 -0.0690  0.4433
  361MPD2     N 5411   2.155   4.052  17.214 -0.3614  0.6322  0.2032
  361MPD2    H5 5412   2.214   4.015  17.287 -1.0033 -0.8980 -0.0551
  361MPD2    N1 5413   1.819   4.420  17.164  0.2794 -0.2195 -0.1104
  361MPD2    H7 5414   1.804   4.513  17.200 -0.2966 -0.1305 -0.5975
  362TMC3    C1 5415   1.609   4.445  17.062 -0.0377 -0.4835  0.2674
  362TMC3    C2 5416   1.578   4.533  17.160  0.2650 -0.0984 -0.1929
  362TMC3    C3 5417   1.473   4.616  17.139 -0.1397  0.1635  0.5676
  362TMC3    C4 5418   1.544   4.447  16.940 -0.8496  0.1101 -0.3192
  362TMC3    C5 5419   1.452   4.550  16.920 -0.0944 -0.1808  0.2914
  362TMC3    C6 5420   1.406   4.631  17.017 -0.5817 -0.1149 -0.9482
  362TMC3     C 5421   1.733   4.368  17.067  0.6105  0.2651  0.2524
  362TMC3     O 5422   1.742   4.282  16.983 -0.5787  0.0206  0.2754
  362TMC3     H 5423   1.603   4.521  17.265 -0.0510 -1.4294 -0.2775
  362TMC3    H1 5424   1.580   4.375  16.868 -1.4335 -0.5484  0.0520
  362TMC3    H2 5425   1.336   4.712  16.999 -0.9940 -0.7606 -2.2546
  362TMC3    C7 5426   1.391   4.565  16.794 -0.3177  0.4928  0.4517
  362TMC3    C8 5427   1.441   4.703  17.248  0.0234  1.1482 -1.1507
  362TMC3    O1 5428   1.277   4.604  16.791 -0.3005 -0.5103  0.7221
  362TMC3    O2 5429   1.538   0.034  17.304  0.0670  0.8818  0.0156
  363TMC3    C1 5430   0.267   2.095   9.762  0.2194 -0.1389 -0.8262
  363TMC3    C2 5431   0.245   1.996   9.854 -0.0691 -0.8524 -1.2169
  363TMC3    C3 5432   0.113   2.000   9.904  0.1940 -0.8293 -0.1934
  363TMC3    C4 5433   0.177   2.186   9.715 -0.1153 -0.4017 -0.8530
  363TMC3    C5 5434   0.050   2.174   9.751 -0.5949  0.0011 -0.4254
  363TMC3    C6 5435   0.017   2.080   9.845  0.1720 -0.2268  0.3256
  363TMC3     C 5436   0.407   2.115   9.721  0.4373 -0.1448  0.6573
  363TMC3     O 5437   0.428   2.215   9.658  0.1295 -0.6040 -0.0726
  363TMC3     H 5438   0.321   1.935   9.901  1.0930 -0.8150 -3.0554
  363TMC3    H1 5439   0.202   2.251   9.632  0.4129 -1.3271 -1.4106
  363TMC3    H2 5440   4.633   2.065   9.858  0.3647  0.8613  3.2979
  363TMC3    C7 5441   4.665   2.216   9.656 -0.4117 -0.1727 -0.1055
  363TMC3    C8 5442   0.061   1.869   9.946  0.2272  0.5569 -0.2291
  363TMC3    O1 5443   4.696   2.265   9.544  0.5540  0.4743  0.1505
  363TMC3    O2 5444   4.665   1.857   9.950 -0.6543  0.1586 -0.1152
  364MPD2     C 5445   3.524   1.081  10.539  0.5349  0.1048  0.5595
  364MPD2    C1 5446   3.623   1.003  10.490 -0.4965  0.1471  0.1450
  364MPD2    C2 5447   3.636   0.871  10.530  0.6927 -0.2695 -0.2586
  364MPD2    C3 5448   3.555   0.809  10.619  0.1532  0.0764  0.0979
  364MPD2    C4 5449   3.456   0.889  10.669  1.1111 -0.4150 -0.5395
  364MPD2    C5 5450   3.439   1.018  10.632 -0.7988 -0.0538  0.4821
  364MPD2     H 5451   3.710   0.808  10.482  0.4278  0.6037 -1.8011
  364MPD2    H1 5452   3.387   0.855  10.745  0.9234  0.3632 -0.3633
  364MPD2    H2 5453   3.501   1.182  10.508  1.8120  0.7119  1.5575
  364MPD2    H3 5454   3.357   1.080  10.665  0.0181 -0.0267  2.4419
  364MPD2     N 5455   3.568   0.669  10.662  1.0731 -0.1437  0.1042
  364MPD2    H5 5456   3.513   0.640  10.742 -0.1310 -1.5237 -1.2418
  364MPD2    N1 5457   3.711   1.064  10.394 -0.7452 -0.2301 -0.4887
  364MPD2    H7 5458   3.701   1.165  10.387  1.2856 -0.0928 -1.3892
  365TMC3    C1 5459   3.872   1.084  10.227 -0.0358 -0.1209 -0.1716
  365TMC3    C2 5460   3.970   1.018  10.162 -0.2669 -1.3241 -0.0303
  365TMC3    C3 5461   4.062   1.091  10.093 -0.4084 -0.5478  0.3061
  365TMC3    C4 5462   3.865   1.220  10.232 -0.6116 -1.0808  0.1078
  365TMC3    C5 5463   3.956   1.292  10.159 -0.2586  0.1652  0.2199
  365TMC3    C6 5464   4.058   1.229  10.087 -0.0514  0.1537  0.6307
  365TMC3     C 5465   3.791   0.997  10.310 -0.4129 -0.2169 -0.4396
  365TMC3     O 5466   3.793   0.879  10.288  0.4215  0.6559 -0.5107
  365TMC3     H 5467   3.987   0.912  10.179  0.8315 -1.2444 -0.5774
  365TMC3    H1 5468   3.792   1.269  10.295 -1.2752 -1.2071 -0.5689
  365TMC3    H2 5469   4.122   1.292  10.026 -0.5188  0.4702  0.4729
  365TMC3    C7 5470   3.977   1.433  10.175  0.5652  0.3772 -1.0079
  365TMC3    C8 5471   4.189   1.023  10.059  1.9999 -0.4683  0.3235
  365TMC3    O1 5472   4.082   1.484  10.138 -0.2041  0.5661 -0.3419
  365TMC3    O2 5473   4.279   1.103  10.032  0.3686  0.3002 -0.0455
  366MPD2     C 5474   1.839   2.440  15.454 -0.5494 -0.0417  0.9274
  366MPD2    C1 5475   1.892   2.515  15.353 -0.2357 -0.3908  0.6658
  366MPD2    C2 5476   1.942   2.443  15.242  0.3933 -0.2391 -0.0012
  366MPD2    C3 5477   1.963   2.309  15.244  0.5166  0.1163  0.7041
  366MPD2    C4 5478   1.916   2.238  15.347 -0.0092 -0.4958  0.8567
  366MPD2    C5 5479   1.852   2.301  15.450 -0.6312 -0.5895 -0.0123
  366MPD2     H 5480   1.978   2.498  15.156  0.2310 -1.6851 -1.0066
  366MPD2    H1 5481   1.931   2.132  15.362 -0.9085 -0.6443  0.6785
  366MPD2    H2 5482   1.794   2.477  15.544  0.1671  1.5688  0.6192
  366MPD2    H3 5483   1.814   2.248  15.536  0.6796 -2.2942 -0.4787
  366MPD2     N 5484   2.028   2.253  15.134  0.8323 -0.0222  0.3452
  366MPD2    H5 5485   2.043   2.305  15.049  2.0537 -0.2525  0.4126
  366MPD2    N1 5486   1.898   2.652  15.340 -0.7798 -0.4368  0.5230
  366MPD2    H7 5487   1.935   2.688  15.253 -2.0146 -4.2714 -1.5528
  367TMC3    C1 5488   1.932   2.874  15.407 -0.1625 -0.2644 -0.0954
  367TMC3    C2 5489   1.985   2.941  15.513 -0.0148 -0.2466  0.0441
  367TMC3    C3 5490   2.040   3.070  15.481 -0.6112  0.8518 -0.2858
  367TMC3    C4 5491   1.931   2.921  15.280  0.1803  1.1035  0.2021
  367TMC3    C5 5492   1.989   3.042  15.258 -0.2376 -0.2956 -0.1162
  367TMC3    C6 5493   2.050   3.122  15.352  0.5843 -0.3526  0.1618
  367TMC3     C 5494   1.883   2.741  15.444  0.2635  0.1281  0.2289
  367TMC3     O 5495   1.875   2.713  15.561  0.0977 -0.0267  0.2626
  367TMC3     H 5496   1.984   2.902  15.614  1.2019 -1.7236 -0.5289
  367TMC3    H1 5497   1.871   2.871  15.205 -0.8984  1.9867  0.4791
  367TMC3    H2 5498   2.074   3.226  15.333  0.2939 -0.0659  1.4269
  367TMC3    C7 5499   1.965   3.101  15.132 -0.6012  0.4417  0.4036
  367TMC3    C8 5500   2.140   3.111  15.573  0.1395 -0.7677  0.0111
  367TMC3    O1 5501   1.955   3.221  15.122  0.7294  0.0842  0.1439
  367TMC3    O2 5502   2.141   3.057  15.685 -0.2271  0.1868 -0.0256
  368MPD2     C 5503   3.093   3.427  13.172 -0.1984  0.2992 -0.2965
  368MPD2    C1 5504   3.058   3.549  13.126  0.0135  0.4251  0.0845
  368MPD2    C2 5505   3.157   3.642  13.117  0.2074  0.6078 -0.1053
  368MPD2    C3 5506   3.282   3.623  13.171  0.4558  0.0376 -0.2246
  368MPD2    C4 5507   3.316   3.499  13.208  0.0876 -0.1117  0.0179
  368MPD2    C5 5508   3.222   3.396  13.210  0.0290 -0.1177  0.0778
  368MPD2     H 5509   3.135   3.739  13.075  0.1984  0.2234 -0.9927
  368MPD2    H1 5510   3.419   3.485  13.241 -0.5004 -0.2173  1.8159
  368MPD2    H2 5511   3.027   3.342  13.185  0.6695 -0.1015  1.4373
  368MPD2    H3 5512   3.246   3.297  13.247  0.7716 -0.0369 -0.2034
  368MPD2     N 5513   3.384   3.722  13.179  0.7384 -0.2828  0.7586
  368MPD2    H5 5514   3.457   3.715  13.249  1.5620  2.1637  0.1254
  368MPD2    N1 5515   2.929   3.568  13.074  0.3856  0.4495 -0.4096
  368MPD2    H7 5516   2.857   3.497  13.087  1.3829 -0.7401 -1.3546
  369TMC3    C1 5517   2.763   3.687  12.963  0.4981  1.2592 -0.7797
  369TMC3    C2 5518   2.757   3.766  12.848  0.3757 -0.3174  0.0638
  369TMC3    C3 5519   2.682   3.886  12.846  0.5488 -0.3460  0.4464
  369TMC3    C4 5520   2.694   3.721  13.074 -0.1801  0.5142  0.4915
  369TMC3    C5 5521   2.615   3.833  13.068 -0.7236 -0.4738  0.4425
  369TMC3    C6 5522   2.618   3.920  12.958  0.8060  0.1804  0.3116
  369TMC3     C 5523   2.902   3.659  12.983  0.3344  0.1995  0.3721
  369TMC3     O 5524   2.974   3.738  12.922 -0.0972 -0.3201  0.4730
  369TMC3     H 5525   2.802   3.729  12.757  1.7942  1.5880 -0.0082
  369TMC3    H1 5526   2.701   3.666  13.168  1.5416  0.0175  0.0800
  369TMC3    H2 5527   2.568   4.016  12.964  0.3278 -0.0483 -0.0173
  369TMC3    C7 5528   2.523   3.865  13.174 -0.5875 -0.2436 -0.6764
  369TMC3    C8 5529   2.748   3.992  12.771 -0.1961  0.2854 -0.3355
  369TMC3    O1 5530   2.517   3.980  13.216 -0.1491 -0.3900 -0.2848
  369TMC3    O2 5531   2.688   4.091  12.732 -0.4166  0.2677 -0.0142
  370TMC3    C1 5532   2.835   0.359  16.262  0.1342 -0.4716 -0.1450
  370TMC3    C2 5533   2.781   0.335  16.386  0.5388  0.5698  0.4654
  370TMC3    C3 5534   2.705   0.225  16.393  0.4512 -0.3001 -0.4624
  370TMC3    C4 5535   2.817   0.275  16.155 -0.2849 -0.5797  0.1185
  370TMC3    C5 5536   2.727   0.169  16.169  0.0377 -0.1897 -0.6878
  370TMC3    C6 5537   2.670   0.146  16.289  0.1802  0.8409 -0.2704
  370TMC3     C 5538   2.970   0.434  16.263 -0.5736  0.2868  0.2619
  370TMC3     O 5539   3.066   0.387  16.202 -0.1951 -0.0319  0.1404
  370TMC3     H 5540   2.810   0.401  16.467  0.4400  1.3892 -0.1678
  370TMC3    H1 5541   2.878   0.277  16.066  0.0289  0.8235  0.3714
  370TMC3    H2 5542   2.600   0.064  16.299  0.5222  0.6726  0.7105
  370TMC3    C7 5543   2.750   0.054  16.078  0.1630  0.4821 -0.2745
  370TMC3    C8 5544   2.667   0.175  16.518  1.0054  0.1969 -0.6207
  370TMC3    O1 5545   2.720   4.662  16.115  0.1930  0.2712 -0.1727
  370TMC3    O2 5546   2.624   0.061  16.524 -0.3936  0.2240 -0.1050
  371TMC3    C1 5547   3.709   3.191  15.447 -0.1311 -0.5266 -0.7369
  371TMC3    C2 5548   3.581   3.195  15.397  0.9561 -0.1366  0.4538
  371TMC3    C3 5549   3.554   3.297  15.314  0.2967 -0.0320 -0.2740
  371TMC3    C4 5550   3.810   3.270  15.400 -0.2738  0.0472 -0.5960
  371TMC3    C5 5551   3.781   3.366  15.304 -0.2732  0.5147  0.2092
  371TMC3    C6 5552   3.646   3.380  15.261  0.1045 -0.1743 -0.2729
  371TMC3     C 5553   3.765   3.080  15.526 -0.7544  0.0287 -0.4022
  371TMC3     O 5554   3.864   3.104  15.589  0.0395  0.4061 -0.3446
  371TMC3     H 5555   3.496   3.142  15.438  0.3552 -0.7128 -1.5927
  371TMC3    H1 5556   3.912   3.256  15.433 -0.1942  0.2109 -0.7729
  371TMC3    H2 5557   3.614   3.454  15.189 -0.1542 -2.1842 -2.2610
  371TMC3    C7 5558   3.871   3.462  15.262  0.3015 -0.3281  0.3484
  371TMC3    C8 5559   3.424   3.349  15.335  0.0777 -0.3584  0.6945
  371TMC3    O1 5560   3.829   3.542  15.178  0.1238  0.2565 -0.1900
  371TMC3    O2 5561   3.326   3.272  15.332  0.6616  0.1160  1.0473
  372MPD2     C 5562   3.591   4.183  13.308  0.1877  0.0622 -0.1131
  372MPD2    C1 5563   3.648   4.099  13.404  0.2271 -0.0593 -0.0790
  372MPD2    C2 5564   3.561   4.021  13.479  0.2754 -0.3879 -0.0256
  372MPD2    C3 5565   3.427   4.014  13.460 -0.6649  0.0682  0.3489
  372MPD2    C4 5566   3.376   4.107  13.368  0.7048  0.0860  0.1481
  372MPD2    C5 5567   3.460   4.197  13.302 -0.2172  0.6658  0.2701
  372MPD2     H 5568   3.608   3.956  13.551  1.4374  0.1137 -0.3244
  372MPD2    H1 5569   3.268   4.114  13.353  1.0580  0.6629 -2.2237
  372MPD2    H2 5570   3.646   4.260  13.255  0.7716 -0.4881 -0.3026
  372MPD2    H3 5571   3.421   4.279  13.242  0.4648  0.4902 -0.4182
  372MPD2     N 5572   3.349   3.927  13.538 -0.5080 -0.2933 -0.4996
  372MPD2    H5 5573   3.396   3.869  13.606  0.6547  1.4209  0.1563
  372MPD2    N1 5574   3.780   4.106  13.443  0.3686 -0.6297 -0.1253
  372MPD2    H7 5575   3.801   4.056  13.529 -2.5885 -1.5012  0.0863
  373TMC3    C1 5576   3.166   3.813  13.609  0.0571 -0.0281  0.2728
  373TMC3    C2 5577   3.047   3.828  13.662 -0.1448 -0.1559 -0.7321
  373TMC3    C3 5578   2.996   3.713  13.728  0.7956  0.2505  0.2708
  373TMC3    C4 5579   3.241   3.700  13.600  0.2747  0.2929 -0.3320
  373TMC3    C5 5580   3.191   3.592  13.662 -0.1773 -1.0697 -0.7087
  373TMC3    C6 5581   3.070   3.594  13.727  0.0660  0.5348  0.0152
  373TMC3     C 5582   3.212   3.925  13.541 -0.8862 -0.3663  0.3816
  373TMC3     O 5583   3.132   4.002  13.496 -0.3292 -0.0046  0.2135
  373TMC3     H 5584   2.985   3.917  13.660 -1.3817 -0.9702  0.8013
  373TMC3    H1 5585   3.320   3.694  13.526  0.2709  0.2892 -0.3358
  373TMC3    H2 5586   3.018   3.502  13.750  1.4116  0.0077  0.9961
  373TMC3    C7 5587   3.249   3.473  13.610 -0.0888 -0.6144 -0.4159
  373TMC3    C8 5588   2.853   3.719  13.759  0.2081  0.5677 -0.4866
  373TMC3    O1 5589   3.176   3.380  13.592  0.1303 -0.0494 -0.4917
  373TMC3    O2 5590   2.789   3.764  13.661  0.0634  0.6219 -0.2523
  374TMC3    C1 5591   3.907   4.274   9.722 -0.4462  0.5863  0.1818
  374TMC3    C2 5592   4.022   4.327   9.773 -0.0401 -0.0385 -0.0377
  374TMC3    C3 5593   4.083   4.428   9.711 -0.2868 -0.3130  0.2552
  374TMC3    C4 5594   3.854   4.311   9.603 -0.9574 -0.7507  0.0223
  374TMC3    C5 5595   3.907   4.426   9.549  0.0445 -0.0421 -0.1432
  374TMC3    C6 5596   4.026   4.476   9.600 -1.0810 -0.2139 -0.1803
  374TMC3     C 5597   3.860   4.157   9.787 -0.6584  0.1368  0.4005
  374TMC3     O 5598   3.903   4.135   9.904 -0.0069 -0.4576  0.4953
  374TMC3     H 5599   4.065   4.299   9.868  0.6948  0.2930 -0.2719
  374TMC3    H1 5600   3.756   4.275   9.573 -1.4293  0.3597  0.2335
  374TMC3    H2 5601   4.082   4.547   9.540 -2.7706  0.1120 -1.3837
  374TMC3    C7 5602   3.853   4.493   9.433  0.1447 -0.2518  0.0263
  374TMC3    C8 5603   4.200   4.492   9.773  0.2300  0.1218  0.9304
  374TMC3    O1 5604   3.860   4.613   9.444 -0.3567 -0.0190  0.1199
  374TMC3    O2 5605   4.281   4.531   9.692 -0.1563 -0.2671 -0.0776
  375MPD2     C 5606   4.066   0.386  17.137  0.3477  0.5182  0.0129
  375MPD2    C1 5607   3.964   0.368  17.051 -0.0293 -0.4710  0.6429
  375MPD2    C2 5608   3.988   0.293  16.934  0.1662 -0.1654  0.4333
  375MPD2    C3 5609   4.110   0.235  16.897  0.4104  0.1952 -0.1581
  375MPD2    C4 5610   4.203   0.245  16.996  0.9911 -0.9956  0.2130
  375MPD2    C5 5611   4.181   0.314  17.113 -0.5874 -0.3109  0.1337
  375MPD2     H 5612   3.901   0.295  16.869  0.9346  0.5295 -0.5803
  375MPD2    H1 5613   4.297   0.192  16.985 -0.2543 -2.9894 -0.6409
  375MPD2    H2 5614   4.064   0.456  17.220 -1.6713 -0.4699  0.7898
  375MPD2    H3 5615   4.254   0.309  17.193  0.1366  0.3280 -0.4837
  375MPD2     N 5616   4.140   0.162  16.774 -0.0584 -0.3983 -0.6266
  375MPD2    H5 5617   4.227   0.110  16.773 -0.6953 -1.4653 -0.2949
  375MPD2    N1 5618   3.835   0.430  17.058 -0.4403 -0.5812 -0.2345
  375MPD2    H7 5619   3.768   0.407  16.986 -1.4632 -0.5200  0.6913
  376TMC3    C1 5620   4.111   0.090  16.549  0.3818  0.2505  0.0096
  376TMC3    C2 5621   4.227   0.030  16.558 -0.4561  0.2552 -0.6480
  376TMC3    C3 5622   4.270   4.674  16.451 -0.0607  0.9872 -0.0155
  376TMC3    C4 5623   4.025   0.061  16.449  0.6917 -0.8704 -0.2731
  376TMC3    C5 5624   4.073   4.709  16.338  0.0856 -0.4678  0.1775
  376TMC3    C6 5625   4.195   4.650  16.341  0.3564 -0.6574 -0.1144
  376TMC3     C 5626   4.064   0.173  16.662 -0.2472  0.3508 -0.1563
  376TMC3     O 5627   3.964   0.240  16.648 -0.2071  0.7265 -0.0309
  376TMC3     H 5628   4.299   0.060  16.633  0.1560 -1.6094 -0.4875
  376TMC3    H1 5629   3.926   0.104  16.456  0.5134 -1.4983  1.1794
  376TMC3    H2 5630   4.239   4.596  16.257 -1.0297 -0.7750 -0.7518
  376TMC3    C7 5631   3.989   4.708  16.220  0.2376  0.2131 -0.2657
  376TMC3    C8 5632   4.406   4.635  16.444  0.0030  0.5305  0.6641
  376TMC3    O1 5633   3.888   0.057  16.212 -0.2275  0.0210  0.2149
  376TMC3    O2 5634   4.457   4.618  16.335  0.3977  0.4588  0.1485
  377MPD2     C 5635   1.666   4.560  11.965 -0.4190 -0.2043 -0.5312
  377MPD2    C1 5636   1.759   4.482  12.037  0.1840 -0.0186  0.7034
  377MPD2    C2 5637   1.748   4.466  12.176 -0.2083 -0.0790  0.6645
  377MPD2    C3 5638   1.647   4.535  12.243 -0.3991 -0.2625 -0.2550
  377MPD2    C4 5639   1.559   4.614  12.177 -0.2628 -1.1312  0.7373
  377MPD2    C5 5640   1.566   4.620  12.038  0.5757 -0.4152 -0.7248
  377MPD2     H 5641   1.820   4.399  12.222  0.5890 -0.9636 -1.8699
  377MPD2    H1 5642   1.472   4.658  12.224  0.0266 -0.2628  0.4452
  377MPD2    H2 5643   1.675   4.575  11.858 -0.9041 -1.7807 -0.7816
  377MPD2    H3 5644   1.485   4.664  11.980 -0.7067 -0.9316  0.6829
  377MPD2     N 5645   1.632   4.531  12.386  0.0516 -0.5653  0.0355
  377MPD2    H5 5646   1.581   4.603  12.436 -1.0009 -0.9122 -0.5360
  377MPD2    N1 5647   1.865   4.416  11.969 -0.0282  0.1497 -0.3514
  377MPD2    H7 5648   1.853   4.411  11.868  2.5143 -1.5927 -0.5714
  378TMC3    C1 5649   2.053   4.200  11.702  0.7809 -0.4734  0.2981
  378TMC3    C2 5650   1.993   4.229  11.824  0.2891  0.2039 -0.0532
  378TMC3    C3 5651   2.063   4.290  11.926  0.5704 -0.6864 -0.7685
  378TMC3    C4 5652   2.193   4.215  11.679 -0.8785  0.4555  0.0922
  378TMC3    C5 5653   2.253   4.275  11.783  0.8893  0.6720 -0.3883
  378TMC3    C6 5654   2.195   4.315  11.905  0.5239  0.1940 -0.0137
  378TMC3     C 5655   1.966   4.207  11.594  0.4980 -0.4260  0.5362
  378TMC3     O 5656   1.849   4.220  11.628 -0.2003  0.0137 -0.0658
  378TMC3     H 5657   1.886   4.213  11.838  0.1976 -1.1325 -2.1554
  378TMC3    H1 5658   2.239   4.181  11.587 -0.3313 -2.8172  1.5544
  378TMC3    H2 5659   2.259   4.370  11.973  0.0222 -0.5839  1.0919
  378TMC3    C7 5660   2.395   4.259  11.784 -0.1099 -0.0780 -0.0942
  378TMC3    C8 5661   1.983   4.367  12.021  0.4544  0.4777 -0.2071
  378TMC3    O1 5662   2.463   4.339  11.842  0.2250 -0.1139 -0.3968
  378TMC3    O2 5663   2.039   4.404  12.122  0.5116  0.3287  0.8843
  379MPD2     C 5664   3.338   2.711  16.152  0.0467  0.3315 -0.4669
  379MPD2    C1 5665   3.204   2.704  16.200 -0.0071 -0.3787  0.1143
  379MPD2    C2 5666   3.180   2.637  16.318  0.3400 -0.7103 -0.9709
  379MPD2    C3 5667   3.291   2.581  16.391 -0.0652 -0.5710  0.0293
  379MPD2    C4 5668   3.419   2.602  16.342 -0.4364 -0.4769 -0.4398
  379MPD2    C5 5669   3.440   2.659  16.225  0.2334 -0.0170 -0.6975
  379MPD2     H 5670   3.079   2.619  16.352 -0.1304  2.2731 -0.8512
  379MPD2    H1 5671   3.509   2.583  16.400  0.0224 -0.3526 -1.1139
  379MPD2    H2 5672   3.357   2.762  16.057  1.0318 -0.3937 -0.6597
  379MPD2    H3 5673   3.539   2.684  16.188  1.1035 -1.7287  0.4541
  379MPD2     N 5674   3.283   2.491  16.500 -0.0082 -0.4555  0.4059
  379MPD2    H5 5675   3.368   2.449  16.536  0.2390  1.4939  2.0958
  379MPD2    N1 5676   3.105   2.751  16.116 -0.2008  0.2948 -0.1187
  379MPD2    H7 5677   3.130   2.790  16.025 -1.5768  0.6358 -0.3427
  380TMC3    C1 5678   2.913   2.830  16.020  0.2081 -0.0840 -0.4078
  380TMC3    C2 5679   2.932   2.763  15.903  0.1401 -0.2972  0.0507
  380TMC3    C3 5680   2.849   2.781  15.795  0.3503  0.1456 -0.3400
  380TMC3    C4 5681   2.805   2.916  16.026 -0.2954 -0.8573  0.2260
  380TMC3    C5 5682   2.724   2.936  15.918  0.3840  0.2651  0.6994
  380TMC3    C6 5683   2.739   2.865  15.798  0.2122 -0.1127 -0.3520
  380TMC3     C 5684   2.972   2.774  16.144 -0.1097 -0.2746  0.0632
  380TMC3     O 5685   2.900   2.757  16.242 -0.2346 -0.6526  0.6090
  380TMC3     H 5686   3.013   2.691  15.900  1.0644  0.6458  2.7158
  380TMC3    H1 5687   2.788   2.975  16.116  1.7565 -0.5890  0.4523
  380TMC3    H2 5688   2.670   2.862  15.715  0.0042  1.7761 -0.2309
  380TMC3    C7 5689   2.674   3.072  15.896 -0.0445  0.1527  0.5171
  380TMC3    C8 5690   2.875   2.692  15.691  0.5369 -0.3093  1.1502
  380TMC3    O1 5691   2.736   3.170  15.942  0.6406 -0.6189  0.0434
  380TMC3    O2 5692   2.893   2.574  15.713 -0.2178 -0.3396  0.1680
  381TMC3    C1 5693   2.796   3.778  16.068 -0.2100 -0.1667  0.4491
  381TMC3    C2 5694   2.789   3.911  16.034  0.7373  0.0085  0.1652
  381TMC3    C3 5695   2.766   3.999  16.140 -0.3008  0.5667 -0.1581
  381TMC3    C4 5696   2.760   3.739  16.194  0.4360  0.3795  0.3846
  381TMC3    C5 5697   2.728   3.830  16.290  0.0979 -0.4245  0.6221
  381TMC3    C6 5698   2.740   3.961  16.268 -0.2524 -0.7322 -0.6019
  381TMC3     C 5699   2.882   3.701  15.984 -0.1581 -0.7328 -0.7024
  381TMC3     O 5700   2.928   3.752  15.886  0.3140  0.0605  0.9157
  381TMC3     H 5701   2.827   3.947  15.938 -0.6715  0.1212 -0.3564
  381TMC3    H1 5702   2.779   3.637  16.225  2.2306  1.0442  1.4590
  381TMC3    H2 5703   2.772   4.019  16.354  1.2010  0.8581 -2.2005
  381TMC3    C7 5704   2.691   3.774  16.422 -0.1264  1.0772  0.3060
  381TMC3    C8 5705   2.799   4.135  16.110  0.6235 -0.9242  0.2558
  381TMC3    O1 5706   2.711   3.655  16.445 -0.4658  0.0949 -0.0657
  381TMC3    O2 5707   2.851   4.171  16.005 -0.4846 -0.2920 -0.0040
  382MPD2     C 5708   1.254   2.254  16.837 -0.4733  0.1924 -0.2475
  382MPD2    C1 5709   1.340   2.243  16.944 -0.9495 -0.1275 -0.3293
  382MPD2    C2 5710   1.368   2.118  16.984  0.1282 -0.1665  0.3043
  382MPD2    C3 5711   1.328   2.000  16.919  0.0581 -0.6732  0.1747
  382MPD2    C4 5712   1.237   2.016  16.821  0.4715 -0.4701 -0.1294
  382MPD2    C5 5713   1.192   2.139  16.785  0.4491 -0.0253 -0.3999
  382MPD2     H 5714   1.450   2.099  17.053  1.9885  0.3993 -1.7453
  382MPD2    H1 5715   1.189   1.933  16.770  0.8673 -1.5482  1.2519
  382MPD2    H2 5716   1.228   2.350  16.794  1.7117  0.8293 -0.1066
  382MPD2    H3 5717   1.121   2.152  16.704 -1.7605 -1.4996  1.2824
  382MPD2     N 5718   1.362   1.867  16.950 -0.0241  0.0134 -0.0980
  382MPD2    H5 5719   1.319   1.790  16.899 -0.7125 -1.5900  2.9003
  382MPD2    N1 5720   1.393   2.343  17.018 -0.1832  0.0146 -0.3895
  382MPD2    H7 5721   1.446   2.316  17.101 -0.2387 -1.7219 -0.9364
  383TMC3    C1 5722   1.483   1.693  17.055 -0.5966  0.9855 -0.5389
  383TMC3    C2 5723   1.389   1.600  17.071 -0.4829  0.1285  0.4773
  383TMC3    C3 5724   1.421   1.470  17.107 -0.2472 -0.3434 -0.6057
  383TMC3    C4 5725   1.620   1.669  17.083 -0.4386  0.0184 -0.7781
  383TMC3    C5 5726   1.650   1.538  17.118  0.3438 -0.5837  0.3158
  383TMC3    C6 5727   1.556   1.437  17.130  0.4182  0.6208  0.3772
  383TMC3     C 5728   1.451   1.832  17.049  0.6289 -0.2376  0.6876
  383TMC3     O 5729   1.531   1.898  17.116 -0.0333 -0.3073  0.8516
  383TMC3     H 5730   1.284   1.618  17.048 -0.3480  0.2410 -0.0517
  383TMC3    H1 5731   1.693   1.744  17.058 -1.2985  1.0879 -0.0710
  383TMC3    H2 5732   1.585   1.333  17.141 -2.7872 -0.1658  1.1717
  383TMC3    C7 5733   1.791   1.498  17.117 -0.6938 -1.0494  0.5763
  383TMC3    C8 5734   1.309   1.380  17.104 -0.1936  0.0724  0.2631
  383TMC3    O1 5735   1.864   1.550  17.039  0.2365 -0.5895 -0.1788
  383TMC3    O2 5736   1.204   1.414  17.051  0.2741  0.4468 -0.1140
  384MPD2     C 5737   3.281   2.831  11.747 -0.5760 -0.5000 -0.5670
  384MPD2    C1 5738   3.381   2.761  11.814 -0.2779 -0.3664  0.2108
  384MPD2    C2 5739   3.474   2.695  11.737 -0.4772  0.1037  0.1364
  384MPD2    C3 5740   3.469   2.685  11.602 -0.0800  0.3672 -0.2781
  384MPD2    C4 5741   3.367   2.754  11.538  0.3277 -0.1564  0.0492
  384MPD2    C5 5742   3.281   2.829  11.610 -0.2454 -0.3063  0.6502
  384MPD2     H 5743   3.547   2.635  11.790 -0.0485  0.0603 -0.4907
  384MPD2    H1 5744   3.346   2.754  11.432  2.0477  1.9884 -0.2913
  384MPD2    H2 5745   3.197   2.877  11.797  1.9442  0.9857  2.2714
  384MPD2    H3 5746   3.199   2.875  11.556 -0.7277 -0.2820  1.4009
  384MPD2     N 5747   3.564   2.611  11.532  0.7995  0.6599 -0.0851
  384MPD2    H5 5748   3.632   2.561  11.588 -1.1255 -0.3450  1.3580
  384MPD2    N1 5749   3.387   2.747  11.956 -0.5590 -0.1070 -0.0347
  384MPD2    H7 5750   3.470   2.697  11.987 -0.0285  1.8739  1.6869
  385TMC3    C1 5751   3.663   2.484  11.381 -0.4025 -0.6621  0.4689
  385TMC3    C2 5752   3.615   2.363  11.329 -0.6720  1.0739  0.3460
  385TMC3    C3 5753   3.679   2.248  11.380 -0.1529  0.2597  0.5703
  385TMC3    C4 5754   3.767   2.496  11.471  0.2738 -0.3107  0.4804
  385TMC3    C5 5755   3.812   2.380  11.530 -0.2662 -0.6068  0.5617
  385TMC3    C6 5756   3.760   2.260  11.494 -0.0193  0.3403  0.8554
  385TMC3     C 5757   3.574   2.591  11.394 -0.3994  0.0322  0.3285
  385TMC3     O 5758   3.486   2.620  11.313  0.0091 -0.2420  0.5983
  385TMC3     H 5759   3.522   2.365  11.274 -0.7608 -1.4048  0.4275
  385TMC3    H1 5760   3.810   2.590  11.503  1.0887 -1.1553  1.8650
  385TMC3    H2 5761   3.789   2.168  11.543 -0.8095 -1.1037 -1.4153
  385TMC3    C7 5762   3.807   2.404  11.674  0.2667  0.4134  0.0807
  385TMC3    C8 5763   3.599   2.126  11.378 -0.4876 -0.3326 -0.2931
  385TMC3    O1 5764   3.751   2.507  11.705  0.1563  0.3242  0.0456
  385TMC3    O2 5765   3.597   2.062  11.481 -0.7419 -0.4404 -0.1639
  386TMC3    C1 5766   4.028   4.702  12.070 -0.2819 -0.6044  0.2949
  386TMC3    C2 5767   3.938   4.617  12.006  0.5925  0.1122  0.1941
  386TMC3    C3 5768   3.824   4.663  11.956 -0.5325  0.0600  0.3231
  386TMC3    C4 5769   3.984   0.108  12.099 -0.3071  0.5739  0.2753
  386TMC3    C5 5770   3.862   0.150  12.051  0.4035 -0.0164 -0.4216
  386TMC3    C6 5771   3.793   0.074  11.965  0.1461  0.4623 -0.6445
  386TMC3     C 5772   4.156   4.660  12.124  0.0032 -0.3490 -0.1296
  386TMC3     O 5773   4.229   0.032  12.149 -0.3125 -0.6041  0.5522
  386TMC3     H 5774   3.978   4.518  11.987 -0.0568  0.3211 -2.1633
  386TMC3    H1 5775   4.032   0.180  12.164  0.1640 -0.1216  0.6994
  386TMC3    H2 5776   3.697   0.113  11.934 -0.4843 -1.1345 -0.6511
  386TMC3    C7 5777   3.760   0.195  12.153  0.3678 -0.5296 -0.2021
  386TMC3    C8 5778   3.734   4.579  11.903  0.1430 -0.5333  0.2373
  386TMC3    O1 5779   3.771   0.135  12.259  0.2270 -1.0724  0.1411
  386TMC3    O2 5780   3.633   4.639  11.867  0.1987 -0.0316 -0.4420
  387MPD2     C 5781   1.062   0.155   9.720 -0.1401  0.3633  0.3656
  387MPD2    C1 5782   1.183   0.127   9.785 -0.3740 -0.2170  0.1221
  387MPD2    C2 5783   1.225   4.720   9.801  0.1378  1.1928 -0.2873
  387MPD2    C3 5784   1.141   4.617   9.764 -0.3234 -0.0854 -0.4843
  387MPD2    C4 5785   1.012   4.645   9.713  0.1419 -0.3235 -0.1952
  387MPD2    C5 5786   0.973   0.048   9.691 -0.1849  0.1465 -0.2176
  387MPD2     H 5787   1.322   4.706   9.847 -0.3143  0.5776  0.4695
  387MPD2    H1 5788   0.942   4.563   9.708 -1.7170  1.2513 -0.3303
  387MPD2    H2 5789   1.025   0.255   9.698  0.4206  0.1354 -1.6281
  387MPD2    H3 5790   0.874   0.072   9.655  0.8083  1.7842 -1.8283
  387MPD2     N 5791   1.190   4.489   9.795 -0.0939 -0.4818  0.2690
  387MPD2    H5 5792   1.278   4.490   9.845 -0.1327 -0.8104  0.3439
  387MPD2    N1 5793   1.275   0.221   9.830  0.0643 -0.2535 -0.5502
  387MPD2    H7 5794   1.361   0.185   9.871  0.7488 -0.2480 -1.9875
  388TMC3    C1 5795   1.394   0.414   9.830 -0.4067 -0.2697 -1.1663
  388TMC3    C2 5796   1.402   0.503   9.926 -0.3986 -0.0046 -0.1514
  388TMC3    C3 5797   1.527   0.520   9.988  0.0433 -0.7454  0.3545
  388TMC3    C4 5798   1.498   0.332   9.794 -0.2708  0.0893 -0.3324
  388TMC3    C5 5799   1.623   0.364   9.844 -0.0460  0.0475 -1.0558
  388TMC3    C6 5800   1.640   0.453   9.949  0.3853 -0.4767  1.0778
  388TMC3     C 5801   1.269   0.354   9.809 -0.3741 -0.7021  0.1283
  388TMC3     O 5802   1.176   0.426   9.774  0.3036 -0.0337 -0.0044
  388TMC3     H 5803   1.314   0.550   9.967  0.3044  1.8722 -0.8070
  388TMC3    H1 5804   1.490   0.268   9.707  0.1313  0.5981 -0.7432
  388TMC3    H2 5805   1.738   0.471   9.992  0.1943  2.5077  0.2984
  388TMC3    C7 5806   1.727   0.260   9.854  0.3319  0.5087  0.4058
  388TMC3    C8 5807   1.548   0.616  10.093 -0.1073  0.5259 -0.6398
  388TMC3    O1 5808   1.836   0.296   9.807  0.0612  0.4847 -0.0580
  388TMC3    O2 5809   1.659   0.594  10.147  0.3316  0.1519 -0.1341
  389MPD2     C 5810   0.984   2.965  10.837  0.2551  0.4823 -0.2813
  389MPD2    C1 5811   0.859   2.990  10.788  0.1933  0.8527  0.2382
  389MPD2    C2 5812   0.754   2.957  10.877  0.3817  0.4181  0.2930
  389MPD2    C3 5813   0.777   2.913  11.009  0.3636 -0.4072  0.7595
  389MPD2    C4 5814   0.902   2.903  11.051 -0.5120  0.3013 -0.1000
  389MPD2    C5 5815   1.002   2.915  10.963 -0.2888 -0.3068  0.5949
  389MPD2     H 5816   0.652   2.969  10.842 -0.1814  0.7883  2.0640
  389MPD2    H1 5817   0.928   2.883  11.154 -1.1924 -1.1465 -0.2066
  389MPD2    H2 5818   1.072   2.980  10.775  0.3989 -2.4529 -0.7940
  389MPD2    H3 5819   1.100   2.914  11.010  0.0654 -0.6044 -0.1589
  389MPD2     N 5820   0.671   2.881  11.100 -0.2744  0.1896 -0.6355
  389MPD2    H5 5821   0.697   2.880  11.199  2.8396  0.3835 -1.4477
  389MPD2    N1 5822   0.837   3.044  10.659 -0.3671 -0.5290 -0.4999
  389MPD2    H7 5823   0.908   3.040  10.586 -0.4697  0.3403 -0.6391
  390TMC3    C1 5824   0.454   2.831  11.180 -0.6518  0.4628 -0.4969
  390TMC3    C2 5825   0.349   2.743  11.165 -0.1859  0.3852  0.1466
  390TMC3    C3 5826   0.273   2.700  11.268  0.5664 -0.7012  0.3959
  390TMC3    C4 5827   0.469   2.889  11.305 -0.3605  0.1066  0.2063
  390TMC3    C5 5828   0.393   2.853  11.411  0.4721 -0.4609  0.1600
  390TMC3    C6 5829   0.292   2.756  11.399 -0.4261 -0.2157  0.6095
  390TMC3     C 5830   0.544   2.858  11.064  0.0554 -0.2136  0.7207
  390TMC3     O 5831   0.504   2.823  10.955  0.1503 -0.4521 -0.1640
  390TMC3     H 5832   0.326   2.692  11.072 -0.1412 -0.8562  0.8157
  390TMC3    H1 5833   0.547   2.962  11.321  0.6354 -1.2527  1.5458
  390TMC3    H2 5834   0.250   2.714  11.489  0.4063 -0.1482  1.0241
  390TMC3    C7 5835   0.411   2.913  11.534 -0.8252  0.0832  0.3883
  390TMC3    C8 5836   0.166   2.618  11.232 -0.3168 -0.0453 -0.1400
  390TMC3    O1 5837   0.527   2.944  11.552  0.1641  0.4821 -0.9408
  390TMC3    O2 5838   0.162   2.564  11.126  0.3744  0.4683  0.4748
  391MPD2     C 5839   3.981   4.253  11.336  0.0142  0.1984  0.2928
  391MPD2    C1 5840   4.093   4.331  11.355 -0.2657 -0.3439  0.3331
  391MPD2    C2 5841   4.154   4.400  11.252  0.1256 -0.6596 -0.1039
  391MPD2    C3 5842   4.113   4.380  11.123 -0.0752  0.2165  0.4578
  391MPD2    C4 5843   4.010   4.291  11.102 -0.1110 -0.2079  0.3866
  391MPD2    C5 5844   3.946   4.237  11.208 -0.3498 -0.6859  0.4489
  391MPD2     H 5845   4.248   4.452  11.266 -0.0656  0.0381 -1.4875
  391MPD2    H1 5846   3.969   4.261  11.006  3.1473 -0.0361 -1.0960
  391MPD2    H2 5847   3.937   4.197  11.417  0.1954  1.6672  1.4141
  391MPD2    H3 5848   3.861   4.177  11.177 -0.8882  0.4300 -0.2364
  391MPD2     N 5849   4.182   4.447  11.019  0.7077  0.1703 -0.2625
  391MPD2    H5 5850   4.242   4.523  11.051 -1.4312  1.8296 -0.2441
  391MPD2    N1 5851   4.131   4.337  11.486 -0.2334 -0.4167 -0.0827
  391MPD2    H7 5852   4.084   4.279  11.555 -1.1440 -0.4324 -0.7247
  392TMC3    C1 5853   4.260   4.478  10.803  0.0224 -0.1458  1.0110
  392TMC3    C2 5854   4.233   4.483  10.670 -0.0587  0.4473  0.0014
  392TMC3    C3 5855   4.317   4.531  10.579  0.0953 -0.3728  0.3636
  392TMC3    C4 5856   4.393   4.491  10.844 -0.1968  0.1830 -0.3751
  392TMC3    C5 5857   4.478   4.551  10.748 -0.2237 -0.4844 -0.2122
  392TMC3    C6 5858   4.441   4.573  10.618 -0.7563 -0.3696 -0.6155
  392TMC3     C 5859   4.170   4.413  10.886 -0.0415 -0.1823  0.4620
  392TMC3     O 5860   4.102   4.330  10.825 -0.1528  0.0338 -0.8649
  392TMC3     H 5861   4.134   4.448  10.641 -0.0174  0.8022 -0.5818
  392TMC3    H1 5862   4.432   4.463  10.941  2.5593 -0.2038 -1.6210
  392TMC3    H2 5863   4.511   4.623  10.552  0.5193  0.7088  1.5720
  392TMC3    C7 5864   4.582   4.628  10.806  0.8020 -0.4299 -0.3028
  392TMC3    C8 5865   4.279   4.523  10.441  0.4928  0.1961  0.1947
  392TMC3    O1 5866   4.580   4.634  10.928 -0.3152  0.6103  0.1461
  392TMC3    O2 5867   4.167   4.480  10.420 -0.3367 -0.2514  0.1981
  393TMC3    C1 5868   3.427   2.179   9.308  0.7227 -0.5232  0.3688
  393TMC3    C2 5869   3.417   2.080   9.214  0.7081  0.2630 -0.0930
  393TMC3    C3 5870   3.468   1.951   9.233 -0.6217 -0.3213 -0.5887
  393TMC3    C4 5871   3.485   2.149   9.431  0.3759  0.4769  0.1962
  393TMC3    C5 5872   3.543   2.024   9.446  0.1337  0.3463 -0.5536
  393TMC3    C6 5873   3.541   1.931   9.347  0.7098  0.3676 -0.0998
  393TMC3     C 5874   3.409   2.314   9.274  0.5162 -0.2891 -0.2656
  393TMC3     O 5875   3.405   2.387   9.372 -0.2925 -0.0524  0.4616
  393TMC3     H 5876   3.354   2.096   9.127 -0.9345  0.7609  1.1764
  393TMC3    H1 5877   3.487   2.213   9.519 -0.1690 -0.2051  0.7017
  393TMC3    H2 5878   3.588   1.836   9.370 -1.6682 -0.5924  0.8066
  393TMC3    C7 5879   3.597   1.976   9.577 -0.2640 -0.3118 -0.2385
  393TMC3    C8 5880   3.475   1.843   9.133  0.6960  0.6693  0.2277
  393TMC3    O1 5881   3.583   1.857   9.610 -0.1670 -0.2132  0.0453
  393TMC3    O2 5882   3.536   1.742   9.169  0.0866  0.1006  0.6192
  394TMC3    C1 5883   0.727   3.124  10.478  0.2436 -0.3504 -0.2053
  394TMC3    C2 5884   0.615   3.120  10.399 -0.3225 -0.1385 -0.3685
  394TMC3    C3 5885   0.623   3.148  10.267  0.3684  0.0059  0.7525
  394TMC3    C4 5886   0.844   3.179  10.437 -0.6587  0.3271 -0.5810
  394TMC3    C5 5887   0.836   3.231  10.313 -0.6077  0.4085 -0.1210
  394TMC3    C6 5888   0.736   3.214  10.221  0.1506 -0.3080 -0.0541
  394TMC3     C 5889   0.714   3.087  10.619 -0.1228 -0.5836  0.1505
  394TMC3     O 5890   0.603   3.085  10.669 -0.0226  0.3217  0.2356
  394TMC3     H 5891   0.524   3.074  10.435 -0.2147 -0.3461 -0.3588
  394TMC3    H1 5892   0.933   3.203  10.494 -0.3288  0.5146 -1.1801
  394TMC3    H2 5893   0.754   3.234  10.116  1.0382  0.4428  0.2403
  394TMC3    C7 5894   0.960   3.273  10.253 -0.4845  0.2718  0.5793
  394TMC3    C8 5895   0.567   3.042  10.183 -0.9045  0.1593  0.0248
  394TMC3    O1 5896   0.965   3.384  10.203  0.0704  0.1289 -0.1824
  394TMC3    O2 5897   0.519   2.941  10.238 -0.5194 -0.0659  0.0198
  395TMC3    C1 5898   0.200   0.122  14.618  0.2704  0.1964 -0.0468
  395TMC3    C2 5899   0.068   0.082  14.642  0.0547  0.4214 -0.6342
  395TMC3    C3 5900   4.719   0.145  14.736 -0.0119 -0.3276 -0.5050
  395TMC3    C4 5901   0.253   0.234  14.677 -0.5001 -0.5109 -0.0443
  395TMC3    C5 5902   0.175   0.302  14.771 -0.1531 -0.5702 -0.1269
  395TMC3    C6 5903   0.052   0.253  14.799  0.8194  0.0943 -0.0275
  395TMC3     C 5904   0.280   0.043  14.526  0.0347 -0.1257 -0.1452
  395TMC3     O 5905   0.320   0.099  14.427 -0.2088  0.1059  0.4844
  395TMC3     H 5906   0.020   0.008  14.579  1.3733 -1.8769  1.0692
  395TMC3    H1 5907   0.358   0.257  14.670 -0.3070 -0.9739  1.3418
  395TMC3    H2 5908   4.710   0.295  14.875 -0.2188  0.7550 -1.2713
  395TMC3    C7 5909   0.231   0.424  14.832 -0.3176  0.0822 -0.5480
  395TMC3    C8 5910   4.665   0.055  14.828  0.2145  0.1945  0.0944
  395TMC3    O1 5911   0.349   0.405  14.864 -0.0364  0.6064  0.3635
  395TMC3    O2 5912   4.668   0.087  14.947 -0.3843 -0.3483 -0.5172
  396MPD2     C 5913   0.034   1.700   0.011 -0.5684 -0.3875 -0.8430
  396MPD2    C1 5914   0.103   1.679  17.584 -0.4978  0.4189 -0.5098
  396MPD2    C2 5915   0.121   1.782  17.493 -0.1186  0.6076  0.2296
  396MPD2    C3 5916   0.086   1.909  17.527 -0.9044 -0.2558 -0.3085
  396MPD2    C4 5917   0.014   1.930  17.644 -0.3940 -0.1771 -0.5731
  396MPD2    C5 5918   4.716   1.828   0.037 -0.8013  0.2851 -0.3556
  396MPD2     H 5919   0.163   1.755  17.396 -0.3466  0.4772  0.1674
  396MPD2    H1 5920   4.700   2.029  17.668  0.3192  0.2128 -1.0735
  396MPD2    H2 5921   0.013   1.616   0.077  0.2187 -1.4910 -2.0111
  396MPD2    H3 5922   4.679   1.852   0.136  0.6052 -2.1728  0.7535
  396MPD2     N 5923   0.111   2.011  17.430 -0.3687 -1.0641  0.1037
  396MPD2    H5 5924   0.170   1.988  17.351 -2.0511 -0.4131 -1.3569
  396MPD2    N1 5925   0.137   1.545  17.561  0.8372 -0.2594  0.3597
  396MPD2    H7 5926   0.112   1.478  17.633 -2.4851 -0.5969 -1.1024
  397TMC3    C1 5927   0.181   1.345  17.445 -0.0400 -0.5533 -0.0294
  397TMC3    C2 5928   0.249   1.294  17.339 -0.1422 -0.2749  0.4090
  397TMC3    C3 5929   0.191   1.187  17.272  0.1260  0.0688 -0.1811
  397TMC3    C4 5930   0.064   1.287  17.489  0.5157 -0.3253 -0.3745
  397TMC3    C5 5931   0.031   1.162  17.441 -0.3922 -0.0653  0.2183
  397TMC3    C6 5932   0.086   1.119  17.322  0.2169  0.5162 -0.3565
  397TMC3     C 5933   0.175   1.492  17.444 -0.3237 -0.1955 -0.4575
  397TMC3     O 5934   0.208   1.549  17.342  0.5856  0.1314  0.9921
  397TMC3     H 5935   0.316   1.371  17.301 -2.4404 -0.0344 -3.2270
  397TMC3    H1 5936   0.013   1.323  17.578 -0.9131 -0.2897 -1.2071
  397TMC3    H2 5937   0.058   1.022  17.283  0.2636  0.7876 -1.0650
  397TMC3    C7 5938   4.694   1.068  17.524  0.0657  0.7092  0.4232
  397TMC3    C8 5939   0.202   1.195  17.126 -0.1830  0.1377  0.2479
  397TMC3    O1 5940   4.652   0.969  17.468  0.1489  0.3029  0.8395
  397TMC3    O2 5941   0.127   1.125  17.062  0.4436  0.2675  0.3200
  398MPD2     C 5942   2.696   2.170   0.072 -0.3382  0.3529 -0.1435
  398MPD2    C1 5943   2.817   2.187   0.136  0.5904  0.6206  0.7053
  398MPD2    C2 5944   2.860   2.316   0.158  0.0708  0.6249 -0.0674
  398MPD2    C3 5945   2.792   2.425   0.115  0.0310  0.3817  0.0465
  398MPD2    C4 5946   2.677   2.403   0.034  0.2119 -0.4070  0.1640
  398MPD2    C5 5947   2.629   2.275   0.014  0.0960 -0.1579 -0.0921
  398MPD2     H 5948   2.947   2.331   0.221  0.9982  1.8107 -1.6302
  398MPD2    H1 5949   2.613   2.483  17.691  1.4938  0.4425 -0.2076
  398MPD2    H2 5950   2.652   2.073   0.049  0.1716  0.5078 -1.7646
  398MPD2    H3 5951   2.534   2.257  17.656 -0.4520 -3.6910  2.1891
  398MPD2     N 5952   2.841   2.551   0.139  0.3595 -0.1094 -0.0534
  398MPD2    H5 5953   2.922   2.553   0.200 -0.3515  2.0279  0.8253
  398MPD2    N1 5954   2.903   2.080   0.179 -0.2206  0.1455 -0.1103
  398MPD2    H7 5955   2.993   2.109   0.214  0.7739 -1.4207 -1.3279
  399TMC3    C1 5956   2.991   1.852   0.171  0.4707 -0.3142  0.1039
  399TMC3    C2 5957   3.123   1.893   0.144  0.5218  0.8924 -0.9799
  399TMC3    C3 5958   3.216   1.787   0.121 -0.0130 -0.0911  0.1062
  399TMC3    C4 5959   2.959   1.719   0.167 -0.4038 -0.7800 -0.5161
  399TMC3    C5 5960   3.053   1.622   0.147  0.3614  0.1328  0.2966
  399TMC3    C6 5961   3.183   1.655   0.114  0.4007  0.2445 -0.8697
  399TMC3     C 5962   2.875   1.943   0.171  0.0617  0.0314 -0.1803
  399TMC3     O 5963   2.764   1.893   0.158  0.2720 -0.6016  0.4125
  399TMC3     H 5964   3.161   1.989   0.179 -2.8141  1.9716 -0.3818
  399TMC3    H1 5965   2.856   1.687   0.179 -0.7110  0.1711 -0.6600
  399TMC3    H2 5966   3.255   1.575   0.102  0.7496  0.3326  0.6243
  399TMC3    C7 5967   3.005   1.487   0.123  0.3711  0.3299  0.1445
  399TMC3    C8 5968   3.359   1.820   0.145 -0.4978  0.1071 -0.3785
  399TMC3    O1 5969   2.903   1.452   0.187  0.2107 -0.7748 -0.1232
  399TMC3    O2 5970   3.386   1.937   0.132 -0.5670 -0.1033 -0.2522
  400TMC3    C1 5971   1.222   1.045  16.805  0.4252 -0.7179 -0.0396
  400TMC3    C2 5972   1.142   0.940  16.781  0.7732  0.0715  0.2146
  400TMC3    C3 5973   1.023   0.964  16.722 -0.7357 -0.5854  0.1841
  400TMC3    C4 5974   1.196   1.179  16.770 -0.8816  0.2473  0.1727
  400TMC3    C5 5975   1.082   1.195  16.710  0.2079 -0.5276  0.4980
  400TMC3    C6 5976   0.994   1.092  16.682 -0.2160  0.1988 -0.4118
  400TMC3     C 5977   1.349   1.007  16.864 -0.6294  0.0144 -0.0527
  400TMC3     O 5978   1.360   0.888  16.897  0.7427  0.3199  0.4851
  400TMC3     H 5979   1.194   0.845  16.784 -2.7171 -1.8636 -2.2029
  400TMC3    H1 5980   1.263   1.259  16.799 -2.3444  1.4744  0.1770
  400TMC3    H2 5981   0.898   1.110  16.636  0.1985  1.5691 -0.7573
  400TMC3    C7 5982   1.040   1.322  16.655  0.4653 -0.7052  0.5324
  400TMC3    C8 5983   0.944   0.859  16.662 -0.1155  0.2961 -0.1307
  400TMC3    O1 5984   0.952   1.318  16.573 -0.0368 -0.0401  0.0195
  400TMC3    O2 5985   0.887   0.882  16.554  0.4366  0.2595 -0.0438
  401MPD2     C 5986   0.521   0.671   1.334 -0.0717 -1.4147 -0.5978
  401MPD2    C1 5987   0.596   0.577   1.397 -0.3002 -0.5699  0.5216
  401MPD2    C2 5988   0.630   0.462   1.328 -0.0984 -0.9695  0.5072
  401MPD2    C3 5989   0.592   0.434   1.195 -0.4222  0.3929  0.1698
  401MPD2    C4 5990   0.510   0.530   1.135  0.2582 -0.2151  0.0864
  401MPD2    C5 5991   0.483   0.645   1.200 -0.5831 -0.2217 -0.8165
  401MPD2     H 5992   0.699   0.395   1.377  0.1632 -2.6094 -2.1258
  401MPD2    H1 5993   0.470   0.516   1.035  2.5712  2.1250 -1.1699
  401MPD2    H2 5994   0.494   0.769   1.372 -0.9797 -1.6088 -0.7348
  401MPD2    H3 5995   0.418   0.715   1.149  0.2181  2.2682  1.5919
  401MPD2     N 5996   0.644   0.319   1.139 -0.3864  0.2420  0.3679
  401MPD2    H5 5997   0.695   0.254   1.198  1.5267  2.4660  1.1953
  401MPD2    N1 5998   0.645   0.591   1.530  0.1634  0.1960  0.0750
  401MPD2    H7 5999   0.694   0.512   1.569  0.1065  0.0192 -0.2065
  402TMC3    C1 6000   0.657   0.145   0.969 -0.0941 -0.5471  0.8501
  402TMC3    C2 6001   0.675   0.055   1.079  0.6088 -0.9409  1.4629
  402TMC3    C3 6002   0.755   4.669   1.061  0.0442  0.2142  0.0239
  402TMC3    C4 6003   0.719   0.123   0.853  0.5752 -0.6087 -0.2969
  402TMC3    C5 6004   0.803   0.015   0.841  0.2445 -0.0452 -0.1373
  402TMC3    C6 6005   0.818   4.646   0.939  0.2436 -0.7460 -0.6300
  402TMC3     C 6006   0.620   0.285   1.004 -0.1409 -0.7418 -0.0725
  402TMC3     O 6007   0.598   0.363   0.910 -0.4239  0.1492  0.4125
  402TMC3     H 6008   0.631   0.065   1.178 -0.9609 -2.9799  0.9625
  402TMC3    H1 6009   0.718   0.205   0.782 -0.3633  1.0680  1.6511
  402TMC3    H2 6010   0.866   4.551   0.918 -0.1887 -0.9457 -0.7167
  402TMC3    C7 6011   0.821   4.699   0.701 -0.4760  0.5966 -0.2706
  402TMC3    C8 6012   0.700   4.546   1.122  0.7220  0.3009 -0.7888
  402TMC3    O1 6013   0.746   0.028   0.619  0.0747  0.0003  0.3668
  402TMC3    O2 6014   0.749   4.446   1.060  0.2611  0.5565 -0.5309
  403MPD2     C 6015   2.872   2.437  13.310  0.7145 -0.3371 -0.1245
  403MPD2    C1 6016   2.905   2.325  13.377  0.2582 -0.6479 -0.3838
  403MPD2    C2 6017   2.979   2.342  13.486  0.2854  0.3210  0.4606
  403MPD2    C3 6018   3.052   2.457  13.511 -0.2283  0.4335  0.1761
  403MPD2    C4 6019   3.003   2.571  13.448  0.4495  0.4059 -0.8162
  403MPD2    C5 6020   2.907   2.563  13.348 -0.1451  0.1079 -0.5958
  403MPD2     H 6021   2.989   2.252  13.547 -1.3359 -0.5559 -0.5718
  403MPD2    H1 6022   3.041   2.668  13.479 -0.0494  0.9297 -1.8384
  403MPD2    H2 6023   2.802   2.432  13.227  0.8684  0.9766 -0.3292
  403MPD2    H3 6024   2.879   2.649  13.287 -0.1321  1.3337  1.1421
  403MPD2     N 6025   3.147   2.460  13.618  0.2145 -0.6169 -0.6623
  403MPD2    H5 6026   3.172   2.369  13.655 -0.7903 -0.5288  0.2392
  403MPD2    N1 6027   2.866   2.201  13.320 -0.0328  0.4018 -0.1521
  403MPD2    H7 6028   2.792   2.209  13.251 -0.4885  1.5413  0.4759
  404TMC3    C1 6029   2.837   1.969  13.299 -0.1016 -0.4461  0.0005
  404TMC3    C2 6030   2.847   1.855  13.378  0.9298 -0.0201 -0.2949
  404TMC3    C3 6031   2.815   1.737  13.311 -0.2163 -0.6748 -0.5314
  404TMC3    C4 6032   2.822   1.968  13.164 -0.0819  0.2335  0.1391
  404TMC3    C5 6033   2.811   1.846  13.100  0.2773 -0.3948  0.9910
  404TMC3    C6 6034   2.796   1.733  13.171  0.2715 -0.1517 -0.7055
  404TMC3     C 6035   2.908   2.077  13.364  0.2210  0.1587 -0.0722
  404TMC3     O 6036   2.983   2.051  13.459  0.4502 -0.3577 -0.3142
  404TMC3     H 6037   2.888   1.857  13.478  0.9164 -0.3712 -0.2817
  404TMC3    H1 6038   2.845   2.058  13.107 -1.4622  0.3668 -0.2122
  404TMC3    H2 6039   2.786   1.636  13.124  0.3909  0.3090 -1.6750
  404TMC3    C7 6040   2.802   1.849  12.952  0.1138  0.3993 -0.0978
  404TMC3    C8 6041   2.796   1.617  13.387  0.6632  0.3276  0.2484
  404TMC3    O1 6042   2.844   1.953  12.901  0.4252  0.4950  0.1815
  404TMC3    O2 6043   2.805   1.504  13.336  0.0919  0.3220  0.8673
  405MPD2     C 6044   3.378   3.144  14.549  0.6141 -0.0999  0.6812
  405MPD2    C1 6045   3.333   3.018  14.511 -0.0747 -0.0804  0.0371
  405MPD2    C2 6046   3.231   3.009  14.417  0.4703  0.9469  0.0564
  405MPD2    C3 6047   3.193   3.113  14.337 -0.8283 -0.2312 -0.4734
  405MPD2    C4 6048   3.256   3.232  14.361 -0.4190 -0.1767 -0.0292
  405MPD2    C5 6049   3.339   3.252  14.473  0.5450  0.5923  0.2732
  405MPD2     H 6050   3.185   2.912  14.401  1.9080  0.7505 -2.9520
  405MPD2    H1 6051   3.227   3.313  14.295  0.6858  0.1489 -0.1156
  405MPD2    H2 6052   3.454   3.150  14.626  2.0548 -2.6206 -0.5623
  405MPD2    H3 6053   3.366   3.354  14.495  1.2222  0.0082  2.1768
  405MPD2     N 6054   3.102   3.094  14.232 -0.3034  0.0751  0.1375
  405MPD2    H5 6055   3.041   3.012  14.236  0.2259 -0.3323 -0.1298
  405MPD2    N1 6056   3.383   2.903  14.572  0.2414  0.2291  0.2963
  405MPD2    H7 6057   3.443   2.908  14.653  0.7839  1.3182 -0.1694
  406TMC3    C1 6058   2.800   3.056  13.959  0.3204 -0.7028 -0.0835
  406TMC3    C2 6059   2.810   2.926  13.943  0.2181 -0.0783  0.8619
  406TMC3    C3 6060   2.931   2.873  13.979 -1.0051  0.2951 -1.2065
  406TMC3    C4 6061   2.897   3.149  13.996  0.1220 -0.8727 -0.2652
  406TMC3    C5 6062   3.015   3.088  14.028  0.2228 -0.1143 -0.0911
  406TMC3    C6 6063   3.035   2.951  14.014  0.1216  0.2795 -0.8368
  406TMC3     C 6064   2.665   3.106  13.958  0.0556 -0.3663 -1.6720
  406TMC3     O 6065   2.645   3.204  13.885 -0.6655  0.4547  0.1860
  406TMC3     H 6066   2.729   2.867  13.902  0.4728  0.5391 -0.4991
  406TMC3    H1 6067   2.874   3.249  14.030  0.0048 -2.1372  3.3705
  406TMC3    H2 6068   3.127   2.917  14.060 -0.3460 -0.7122 -0.6363
  406TMC3    C7 6069   3.096   3.161  14.113  0.0866 -0.1959 -0.1773
  406TMC3    C8 6070   2.928   2.736  14.016 -0.3874 -0.2936 -0.3601
  406TMC3    O1 6071   3.176   3.239  14.066  0.1153  0.2036 -0.1904
  406TMC3    O2 6072   2.816   2.693  14.026 -0.6673  0.4045 -0.4235
  407MPD2     C 6073   0.585   4.194   9.694 -0.4118 -0.8754 -0.3041
  407MPD2    C1 6074   0.703   4.255   9.717  0.0424  0.6923 -0.8227
  407MPD2    C2 6075   0.717   4.344   9.821 -0.4011  0.8946  0.5013
  407MPD2    C3 6076   0.608   4.392   9.894 -0.3065  0.4682  0.5392
  407MPD2    C4 6077   0.486   4.330   9.869  0.4519  0.0499 -0.0180
  407MPD2    C5 6078   0.476   4.233   9.768 -0.1600  0.0623 -0.0643
  407MPD2     H 6079   0.817   4.381   9.839 -0.7035  1.8929  0.1322
  407MPD2    H1 6080   0.400   4.351   9.932 -0.1676  0.4100 -0.9885
  407MPD2    H2 6081   0.563   4.128   9.611  0.5899  0.4040 -1.5667
  407MPD2    H3 6082   0.376   4.195   9.751 -0.7274  1.2056  0.7170
  407MPD2     N 6083   0.625   4.486   9.996 -0.0921 -0.2248  0.1857
  407MPD2    H5 6084   0.717   4.524  10.019  0.9608 -2.2610 -0.6556
  407MPD2    N1 6085   0.816   4.216   9.644  0.0583 -0.3767  0.0881
  407MPD2    H7 6086   0.897   4.277   9.653 -1.8160  1.8053  1.7811
  408TMC3    C1 6087   0.944   4.131   9.469  0.3844  0.0033 -0.5362
  408TMC3    C2 6088   1.031   4.029   9.494  0.4925 -0.2782  0.9272
  408TMC3    C3 6089   1.166   4.059   9.482 -0.2269 -0.0774 -0.3251
  408TMC3    C4 6090   0.986   4.267   9.443 -0.7102 -0.2063  0.0262
  408TMC3    C5 6091   1.116   4.281   9.419  0.4183  0.3582 -0.3011
  408TMC3    C6 6092   1.210   4.177   9.433  0.2197  0.1726 -0.8588
  408TMC3     C 6093   0.822   4.115   9.547  0.4780  0.9664 -0.1051
  408TMC3     O 6094   0.756   4.016   9.534 -0.4048 -0.2493  0.5737
  408TMC3     H 6095   0.993   3.937   9.536  0.0319 -0.0471  1.0117
  408TMC3    H1 6096   0.916   4.349   9.435 -0.4374  0.0333  0.1128
  408TMC3    H2 6097   1.315   4.201   9.419  1.0930 -2.9873  0.4563
  408TMC3    C7 6098   1.170   4.414   9.431 -0.5673  0.1650  0.8679
  408TMC3    C8 6099   1.252   3.960   9.552  0.6973  0.3972  0.5289
  408TMC3    O1 6100   1.287   4.424   9.464 -0.0462 -0.3149 -0.2958
  408TMC3    O2 6101   1.204   3.854   9.584 -0.3558 -0.1760 -0.1278
  409MPD2     C 6102   0.356   0.218  16.934  0.1263 -0.3885 -0.0984
  409MPD2    C1 6103   0.425   0.283  17.039  0.2582 -0.4547  0.0364
  409MPD2    C2 6104   0.472   0.412  17.020  0.2792 -0.8197 -0.0183
  409MPD2    C3 6105   0.455   0.478  16.890  0.4990 -0.2296 -0.0131
  409MPD2    C4 6106   0.394   0.406  16.791  0.4456 -0.3702  0.1963
  409MPD2    C5 6107   0.345   0.279  16.809  0.7926 -0.4569 -0.2601
  409MPD2     H 6108   0.511   0.462  17.108  0.0756 -1.6727  0.5525
  409MPD2    H1 6109   0.372   0.448  16.693  0.4595  0.2751  0.4729
  409MPD2    H2 6110   0.314   0.119  16.949 -2.9894  1.1822  1.4711
  409MPD2    H3 6111   0.287   0.235  16.728 -0.8920  0.1233  0.6333
  409MPD2     N 6112   0.490   0.615  16.867  0.2553 -0.5313 -0.0848
  409MPD2    H5 6113   0.460   0.661  16.781  2.8335  0.5351 -0.4004
  409MPD2    N1 6114   0.455   0.222  17.158 -0.5301 -0.2520 -0.1771
  409MPD2    H7 6115   0.511   0.273  17.225 -1.9631  1.2744 -0.1444
  410TMC3    C1 6116   0.609   0.822  16.908  0.1069 -0.1724  0.1260
  410TMC3    C2 6117   0.703   0.888  16.981 -0.3892  0.2080  0.6058
  410TMC3    C3 6118   0.748   1.014  16.938  0.0416 -0.0117  0.0095
  410TMC3    C4 6119   0.573   0.867  16.784  0.0233 -0.1088  0.4246
  410TMC3    C5 6120   0.621   0.994  16.751 -0.3827  0.1619 -0.8149
  410TMC3    C6 6121   0.704   1.070  16.823  0.3708 -0.2324 -0.5027
  410TMC3     C 6122   0.563   0.690  16.954  0.0157  0.7444  0.1029
  410TMC3     O 6123   0.604   0.654  17.064 -0.9805 -0.1312  0.1182
  410TMC3     H 6124   0.732   0.842  17.075  0.5534  3.5855  1.9389
  410TMC3    H1 6125   0.490   0.826  16.728  0.5576  0.9023 -1.1211
  410TMC3    H2 6126   0.753   1.162  16.791 -1.5231  0.6545 -0.8243
  410TMC3    C7 6127   0.584   1.039  16.613 -0.0486 -0.4122 -0.2001
  410TMC3    C8 6128   0.857   1.085  16.999  0.3129  0.3499  0.6030
  410TMC3    O1 6129   0.539   0.956  16.542 -0.1398 -0.9312  0.5342
  410TMC3    O2 6130   0.886   1.198  16.961 -0.8466 -0.0604 -0.5359
  411MPD2     C 6131   0.685   0.961  14.773  0.2609 -0.6408  0.5202
  411MPD2    C1 6132   0.610   1.021  14.677  0.7313  0.0665 -0.3425
  411MPD2    C2 6133   0.544   0.940  14.582  0.1126  0.3451 -0.2229
  411MPD2    C3 6134   0.563   0.804  14.583 -0.5239  0.2028 -0.9155
  411MPD2    C4 6135   0.665   0.757  14.657  0.0464  0.3215  0.1303
  411MPD2    C5 6136   0.725   0.833  14.754 -0.0758 -0.2763 -0.5264
  411MPD2     H 6137   0.464   0.981  14.522 -0.6564  0.3868  0.8198
  411MPD2    H1 6138   0.679   0.649  14.655 -2.1205  0.1026 -2.2955
  411MPD2    H2 6139   0.733   1.010  14.857  1.3734 -1.5721  0.4135
  411MPD2    H3 6140   0.780   0.784  14.833 -0.9559  2.2123  1.6247
  411MPD2     N 6141   0.488   0.714  14.507 -0.0510  0.1619 -0.1962
  411MPD2    H5 6142   0.501   0.613  14.512  0.3614  0.1896 -0.7039
  411MPD2    N1 6143   0.560   1.157  14.686 -1.1181 -0.3007  0.0599
  411MPD2    H7 6144   0.480   1.172  14.625 -1.3258 -0.6918  0.2344
  412TMC3    C1 6145   0.295   0.635  14.401  0.6366  0.0444  0.3196
  412TMC3    C2 6146   0.176   0.657  14.343 -0.1955 -0.1751  0.2232
  412TMC3    C3 6147   0.112   0.549  14.283  0.0107 -0.1947  0.2102
  412TMC3    C4 6148   0.357   0.515  14.380  0.2225 -0.3779  0.2417
  412TMC3    C5 6149   0.296   0.407  14.311 -0.4354 -0.2709  0.4351
  412TMC3    C6 6150   0.165   0.427  14.268 -0.2328 -0.4773  0.5548
  412TMC3     C 6151   0.376   0.746  14.434 -1.0831 -0.1849 -0.9489
  412TMC3     O 6152   0.326   0.855  14.403  0.4808  0.0581 -0.1474
  412TMC3     H 6153   0.123   0.750  14.361 -0.3233 -0.3921  0.9792
  412TMC3    H1 6154   0.459   0.484  14.397  0.7064  1.1137  0.0431
  412TMC3    H2 6155   0.118   0.347  14.212 -0.2387  0.3276 -0.5925
  412TMC3    C7 6156   0.377   0.344  14.204 -1.1431 -0.1570 -0.3401
  412TMC3    C8 6157   0.048   0.585  14.157 -0.5838 -0.1740  0.7397
  412TMC3    O1 6158   0.475   0.281  14.233 -0.1520  0.2358  0.2525
  412TMC3    O2 6159   0.079   0.513  14.063  0.5735 -0.1473  0.0082
  413MPD2     C 6160   2.422   4.484  15.427 -0.0949  0.6581 -0.0065
  413MPD2    C1 6161   2.333   4.447  15.329 -0.1280 -1.0680  0.1575
  413MPD2    C2 6162   2.384   4.336  15.265  0.0396 -0.5582 -0.5299
  413MPD2    C3 6163   2.510   4.278  15.279 -0.3454  0.2250 -0.2884
  413MPD2    C4 6164   2.604   4.331  15.372  0.3844 -0.1497 -0.3200
  413MPD2    C5 6165   2.552   4.433  15.447  0.2842 -0.0663 -0.6164
  413MPD2     H 6166   2.317   4.303  15.186 -1.5727  1.8317 -0.1688
  413MPD2    H1 6167   2.689   4.273  15.407 -0.2471 -0.4619  0.6696
  413MPD2    H2 6168   2.391   4.552  15.506 -0.5245 -1.0562  1.3162
  413MPD2    H3 6169   2.615   4.472  15.526 -1.0701  1.4673 -0.2825
  413MPD2     N 6170   2.541   4.174  15.192  0.0148 -0.8389  0.0397
  413MPD2    H5 6171   2.462   4.150  15.132  0.4350  0.4043 -1.0002
  413MPD2    N1 6172   2.202   4.497  15.318 -0.8139 -0.9919 -0.6268
  413MPD2    H7 6173   2.159   4.554  15.390 -0.0709  1.5397 -2.1911
  414TMC3    C1 6174   2.654   4.024  15.056 -0.1528 -0.0073  0.4274
  414TMC3    C2 6175   2.760   3.934  15.041  0.4450 -0.3507 -0.8204
  414TMC3    C3 6176   2.755   3.872  14.919 -0.1796  0.9690 -0.4443
  414TMC3    C4 6177   2.572   4.057  14.955 -0.4185 -0.7308  0.3097
  414TMC3    C5 6178   2.581   3.997  14.835 -0.1003  1.3204  0.6802
  414TMC3    C6 6179   2.672   3.896  14.816  0.2594  0.2029  0.7263
  414TMC3     C 6180   2.660   4.113  15.175 -0.0040 -0.0788 -0.5669
  414TMC3     O 6181   2.763   4.120  15.240 -0.1157 -0.3692 -0.1517
  414TMC3     H 6182   2.829   3.911  15.122  2.1308  3.3187 -1.2147
  414TMC3    H1 6183   2.516   4.149  14.956  1.5283  0.4178  2.8077
  414TMC3    H2 6184   2.688   3.849  14.720 -0.4059 -0.8735  1.1476
  414TMC3    C7 6185   2.495   4.052  14.730  0.7971 -0.1389  0.3788
  414TMC3    C8 6186   2.871   3.799  14.885  0.1481  0.2708  0.9084
  414TMC3    O1 6187   2.381   4.064  14.765 -0.1645 -0.0975  0.1269
  414TMC3    O2 6188   2.859   3.713  14.795  0.0831 -0.6094 -0.3627
  415TMC3    C1 6189   3.299   1.229   9.444 -0.2310 -0.0077  0.0956
  415TMC3    C2 6190   3.416   1.243   9.372 -0.6408  0.4216 -0.5740
  415TMC3    C3 6191   3.527   1.167   9.413  0.7099  0.5244  0.0859
  415TMC3    C4 6192   3.292   1.145   9.550  0.6409 -0.8046  0.5824
  415TMC3    C5 6193   3.403   1.067   9.585  0.4870  0.8058  0.0337
  415TMC3    C6 6194   3.520   1.077   9.516 -0.0629 -0.7895  0.0945
  415TMC3     C 6195   3.174   1.296   9.410 -0.0318 -0.4620 -0.1054
  415TMC3     O 6196   3.070   1.247   9.452  0.1424  0.2667 -0.0991
  415TMC3     H 6197   3.414   1.289   9.274  0.4313 -1.0907 -1.3048
  415TMC3    H1 6198   3.195   1.143   9.599  1.4728  1.6900  2.3367
  415TMC3    H2 6199   3.599   1.007   9.543 -1.4777 -2.8573 -1.1165
  415TMC3    C7 6200   3.382   0.965   9.685  0.0822  0.6081  0.3529
  415TMC3    C8 6201   3.653   1.172   9.348 -0.2352  0.1961 -0.2004
  415TMC3    O1 6202   3.467   0.879   9.699 -0.2569 -0.6547 -0.2742
  415TMC3    O2 6203   3.713   1.064   9.336 -0.3121  0.1585  0.1873
  416MPD2     C 6204   0.376   1.201  11.395 -0.6219 -0.2395 -1.1661
  416MPD2    C1 6205   0.253   1.195  11.335  0.7878 -0.3845  0.3180
  416MPD2    C2 6206   0.223   1.077  11.264 -0.1813 -0.6846  0.1437
  416MPD2    C3 6207   0.311   0.969  11.251 -0.5603  0.3626 -0.4897
  416MPD2    C4 6208   0.431   0.977  11.317  0.6070 -0.4114 -0.0092
  416MPD2    C5 6209   0.458   1.093  11.382  0.3980  0.7663  0.2396
  416MPD2     H 6210   0.122   1.068  11.226 -0.6224 -1.1819  1.4312
  416MPD2    H1 6211   0.501   0.896  11.304 -0.0474 -1.5092  3.2699
  416MPD2    H2 6212   0.422   1.288  11.442 -0.6986 -0.0958 -1.3562
  416MPD2    H3 6213   0.560   1.103  11.417 -0.3107 -2.8564  3.2923
  416MPD2     N 6214   0.276   0.847  11.191  0.0745  0.4074  0.2695
  416MPD2    H5 6215   0.322   0.758  11.209 -0.6615 -0.0024  0.0855
  416MPD2    N1 6216   0.160   1.302  11.363  0.3383  0.3605  0.1378
  416MPD2    H7 6217   0.188   1.375  11.428 -2.9095 -1.4007  3.5001
  417TMC3    C1 6218   4.689   1.436  11.340 -0.9763 -0.2661  0.5014
  417TMC3    C2 6219   4.688   1.459  11.472 -0.0674  0.6632 -0.0430
  417TMC3    C3 6220   4.571   1.521  11.521  0.0617 -0.3394  0.3406
  417TMC3    C4 6221   4.583   1.473  11.261 -0.0526  0.2326  0.1003
  417TMC3    C5 6222   4.479   1.548  11.312  0.1253 -0.5565 -0.6493
  417TMC3    C6 6223   4.470   1.570  11.447 -0.6554 -0.4380 -0.6359
  417TMC3     C 6224   0.040   1.317  11.298  0.1567  0.5363 -0.2598
  417TMC3     O 6225   4.717   1.253  11.206  0.0702 -0.1809 -0.3735
  417TMC3     H 6226   0.047   1.430  11.538 -1.1831 -0.0956  1.0037
  417TMC3    H1 6227   4.575   1.448  11.156 -1.9744  0.0835  0.2691
  417TMC3    H2 6228   4.379   1.619  11.482 -0.2951 -1.0275  1.1153
  417TMC3    C7 6229   4.361   1.559  11.222  0.6796 -0.4978 -0.0192
  417TMC3    C8 6230   4.552   1.515  11.665  0.2267  0.5301  0.1414
  417TMC3    O1 6231   4.379   1.575  11.100  0.0899  0.4359  0.2448
  417TMC3    O2 6232   4.470   1.594  11.703  0.0628 -0.0654  0.3988
  418TMC3    C1 6233   3.069   2.908   0.049 -0.3711  0.2155 -0.3684
  418TMC3    C2 6234   2.970   2.820   0.016 -0.1852 -0.3298 -0.0012
  418TMC3    C3 6235   2.896   2.771   0.115  0.0010  0.1500  0.7300
  418TMC3    C4 6236   3.087   2.942   0.180 -0.2420  0.1714 -0.1966
  418TMC3    C5 6237   3.016   2.887   0.283 -0.9203  0.3579  0.2018
  418TMC3    C6 6238   2.923   2.791   0.248  0.2565  0.0663 -0.9992
  418TMC3     C 6239   3.157   2.960  17.636  0.1191  0.5693 -0.0514
  418TMC3     O 6240   3.235   3.052  17.660 -0.3245 -0.1842 -0.9718
  418TMC3     H 6241   2.924   2.829  17.610 -1.6251  0.2340  0.7203
  418TMC3    H1 6242   3.179   2.993   0.207  0.0922 -0.6906  0.3076
  418TMC3    H2 6243   2.858   2.752   0.325  2.5717  1.1311  1.4809
  418TMC3    C7 6244   3.111   2.822   0.379 -0.7215 -0.5729  0.5786
  418TMC3    C8 6245   2.803   2.668   0.081 -0.2249  0.0081  0.2103
  418TMC3    O1 6246   3.078   2.705   0.398  0.0786 -0.0289 -0.3233
  418TMC3    O2 6247   2.725   2.681  17.677  0.2626  0.1641 -0.2986
  419MPD2     C 6248   2.169   0.445  12.694  0.2349  0.5148 -0.5085
  419MPD2    C1 6249   2.067   0.539  12.668  0.0837 -0.1740 -0.2464
  419MPD2    C2 6250   2.047   0.641  12.758  0.4261 -0.4330 -0.2038
  419MPD2    C3 6251   2.127   0.655  12.871 -0.6120  0.6062 -0.5828
  419MPD2    C4 6252   2.239   0.577  12.879 -0.1980 -0.3721 -0.4270
  419MPD2    C5 6253   2.252   0.472  12.795 -0.2212  0.3243  0.0798
  419MPD2     H 6254   1.977   0.718  12.729  0.3846  0.3061  1.8533
  419MPD2    H1 6255   2.314   0.590  12.956 -1.1881  3.7560 -0.1439
  419MPD2    H2 6256   2.200   0.368  12.625 -0.2601  0.2233 -0.4084
  419MPD2    H3 6257   2.320   0.390  12.814 -2.4665 -0.9372  2.6731
  419MPD2     N 6258   2.085   0.758  12.965 -0.4741 -0.3725 -0.3336
  419MPD2    H5 6259   1.995   0.801  12.946 -0.8064  0.3703  2.9993
  419MPD2    N1 6260   1.985   0.524  12.555 -0.5299 -0.5162 -0.1420
  419MPD2    H7 6261   1.902   0.581  12.547  0.0038 -0.0311 -2.0508
  420TMC3    C1 6262   2.083   0.880  13.166 -0.7674 -0.3782 -0.2975
  420TMC3    C2 6263   1.978   0.950  13.120 -0.1564 -0.8214 -0.3045
  420TMC3    C3 6264   1.918   1.042  13.200 -0.0921  1.2884 -0.9631
  420TMC3    C4 6265   2.140   0.905  13.285  0.3474 -0.7302 -0.4255
  420TMC3    C5 6266   2.079   1.001  13.366 -0.2684 -0.8748 -0.1346
  420TMC3    C6 6267   1.972   1.067  13.321 -0.3346 -0.5879  0.0792
  420TMC3     C 6268   2.149   0.787  13.083  0.5250 -0.6311  0.0523
  420TMC3     O 6269   2.243   0.727  13.134 -0.1251 -0.0641  0.3616
  420TMC3     H 6270   1.937   0.947  13.019 -0.6454 -0.6014 -0.1091
  420TMC3    H1 6271   2.238   0.863  13.305  0.7904  1.1742  1.4929
  420TMC3    H2 6272   1.926   1.133  13.393  0.7361  0.4122 -0.1616
  420TMC3    C7 6273   2.147   1.042  13.484 -0.0536 -0.0565  0.3082
  420TMC3    C8 6274   1.793   1.099  13.156  0.0531  0.2327  0.0407
  420TMC3    O1 6275   2.221   0.957  13.530 -0.3513  0.3431 -0.1307
  420TMC3    O2 6276   1.759   1.082  13.039  0.0147  0.3134  0.2188
  421TMC3    C1 6277   3.295   2.541  13.784 -0.2496  0.7711  0.6495
  421TMC3    C2 6278   3.297   2.642  13.872 -0.2977 -0.0540  0.3356
  421TMC3    C3 6279   3.412   2.637  13.960 -0.0798  0.1949  0.2286
  421TMC3    C4 6280   3.394   2.448  13.766  0.0035  0.1642 -0.2305
  421TMC3    C5 6281   3.501   2.455  13.847 -0.2487  0.2603  0.2515
  421TMC3    C6 6282   3.516   2.545  13.947 -0.1958 -0.2894 -0.1691
  421TMC3     C 6283   3.209   2.573  13.679  0.7884  0.1061 -0.1669
  421TMC3     O 6284   3.192   2.693  13.655  0.1794 -0.0791 -0.5751
  421TMC3     H 6285   3.219   2.715  13.887 -0.7087 -0.4780  0.2641
  421TMC3    H1 6286   3.386   2.363  13.700 -1.5635  1.1613 -1.3342
  421TMC3    H2 6287   3.597   2.531  14.016  1.8782  1.8139 -2.1765
  421TMC3    C7 6288   3.611   2.367  13.827  0.8030  0.6804  1.0098
  421TMC3    C8 6289   3.430   2.752  14.034  0.4843  0.1089 -0.4946
  421TMC3    O1 6290   3.710   2.438  13.820  0.2782  0.2237 -0.1470
  421TMC3    O2 6291   3.324   2.805  14.068 -0.4289 -0.1100  0.7131
  422TMC3    C1 6292   0.992   3.696  12.650 -0.3389 -0.2136  0.1739
  422TMC3    C2 6293   0.983   3.801  12.737 -0.2683 -0.0154 -0.1303
  422TMC3    C3 6294   0.906   3.783  12.850  0.0231 -0.2686 -0.4536
  422TMC3    C4 6295   0.909   3.583  12.668 -0.2697 -0.3044  0.0935
  422TMC3    C5 6296   0.817   3.578  12.773 -0.3441 -0.2296 -0.7389
  422TMC3    C6 6297   0.831   3.675  12.870  0.0153 -1.2595  0.7521
  422TMC3     C 6298   1.093   3.699  12.546  0.4698 -0.1865 -0.2808
  422TMC3     O 6299   1.159   3.805  12.533 -0.3857 -0.4718  0.3315
  422TMC3     H 6300   1.046   3.888  12.731  0.3327 -0.6021 -2.4151
  422TMC3    H1 6301   0.909   3.507  12.590 -1.4091  0.3164 -0.5208
  422TMC3    H2 6302   0.779   3.663  12.965 -1.6961  1.0245  0.0906
  422TMC3    C7 6303   0.771   3.449  12.819 -0.5703 -0.1219 -0.3747
  422TMC3    C8 6304   0.949   3.865  12.966 -0.1770  0.4844  0.1462
  422TMC3    O1 6305   0.834   3.352  12.787 -0.0885 -0.0931 -0.2050
  422TMC3    O2 6306   0.999   3.973  12.939 -0.7655  0.2174 -0.0337
  423MPD2     C 6307   2.336   4.475   0.730 -0.0044  0.6526  0.8890
  423MPD2    C1 6308   2.352   4.595   0.672 -0.1223  0.3461 -0.2958
  423MPD2    C2 6309   2.447   4.608   0.573 -0.2359 -0.5258  0.7559
  423MPD2    C3 6310   2.520   4.498   0.535 -0.0672 -0.9014 -0.2099
  423MPD2    C4 6311   2.513   4.383   0.608  1.0381 -0.3539 -0.2532
  423MPD2    C5 6312   2.417   4.374   0.705 -0.2902  0.3863  0.5051
  423MPD2     H 6313   2.448   4.692   0.505 -0.1918  0.3211  1.7994
  423MPD2    H1 6314   2.571   4.294   0.586  0.6883 -0.3495 -1.2172
  423MPD2    H2 6315   2.262   4.467   0.809 -1.4676  0.0509 -0.5448
  423MPD2    H3 6316   2.418   4.281   0.759 -2.6223 -1.1068 -2.0130
  423MPD2     N 6317   2.606   4.486   0.422 -0.0466 -0.1620 -0.5456
  423MPD2    H5 6318   2.636   4.390   0.415  3.1787  1.0699 -3.4710
  423MPD2    N1 6319   2.280   4.708   0.707  0.2354  0.4242  0.3303
  423MPD2    H7 6320   2.304   0.075   0.666 -0.0478  0.3385 -0.0311
  424TMC3    C1 6321   2.127   0.128   0.820 -0.2958 -0.9026 -0.3776
  424TMC3    C2 6322   2.230   0.215   0.838 -1.1327  0.2722  0.3154
  424TMC3    C3 6323   2.199   0.314   0.920 -0.4500 -0.0760  0.3631
  424TMC3    C4 6324   2.007   0.139   0.890  0.3298 -0.2956  0.7949
  424TMC3    C5 6325   1.988   0.229   0.987  0.3144  0.0907  0.0252
  424TMC3    C6 6326   2.088   0.314   1.006  0.2787 -1.2379 -0.0697
  424TMC3     C 6327   2.172   4.709   0.792 -0.0915  0.8703 -0.6571
  424TMC3     O 6328   2.113   4.623   0.854 -0.0207 -0.4327 -0.0007
  424TMC3     H 6329   2.328   0.194   0.798 -1.0630 -1.2594  1.2864
  424TMC3    H1 6330   1.934   0.059   0.889 -0.8924  0.8215 -0.1763
  424TMC3    H2 6331   2.078   0.383   1.090  1.0107 -2.6483  1.1812
  424TMC3    C7 6332   1.848   0.244   1.026  0.8218 -0.0090  0.1967
  424TMC3    C8 6333   2.312   0.357   0.989  0.4792  0.2832 -0.1162
  424TMC3    O1 6334   1.778   0.146   1.005  0.1939  0.0460 -0.6526
  424TMC3    O2 6335   2.321   0.328   1.105  0.7441  0.0549  0.2960
  425MPD2     C 6336   1.568   4.517  17.621  0.0613 -0.0717 -0.7731
  425MPD2    C1 6337   1.499   4.433  17.545 -0.7757 -0.3067  0.8341
  425MPD2    C2 6338   1.362   4.438  17.554 -0.2473 -0.2639 -0.2590
  425MPD2    C3 6339   1.297   4.520  17.640  0.2317  0.4782 -0.0262
  425MPD2    C4 6340   1.366   4.612   0.019 -0.3465 -0.5473  0.3076
  425MPD2    C5 6341   1.505   4.598   0.014  0.3597 -0.0383 -1.3978
  425MPD2     H 6342   1.296   4.370  17.503  0.5680  1.0863 -3.1067
  425MPD2    H1 6343   1.319   4.684   0.085 -2.7622  0.1320 -2.1975
  425MPD2    H2 6344   1.676   4.501  17.623 -0.0012 -0.1838  2.1167
  425MPD2    H3 6345   1.559   4.677   0.066  0.9263 -0.3830 -1.4712
  425MPD2     N 6346   1.159   4.488  17.644  0.0140  0.1582  0.1487
  425MPD2    H5 6347   1.123   4.410  17.591 -0.3180  0.7412 -0.4779
  425MPD2    N1 6348   1.572   4.340  17.459  0.2525 -0.2748  0.6480
  425MPD2    H7 6349   1.672   4.331  17.470  0.5366  0.8744 -1.0286
  426TMC3    C1 6350   1.596   4.150  17.319 -0.6856  0.2888  0.2915
  426TMC3    C2 6351   1.573   4.110  17.191  0.6496 -0.6457  0.0358
  426TMC3    C3 6352   1.645   4.008  17.145  0.2409  0.0939  0.4518
  426TMC3    C4 6353   1.697   4.109  17.397  0.5011 -0.2336  0.4525
  426TMC3    C5 6354   1.751   3.999  17.350 -0.7096  0.1830 -0.4783
  426TMC3    C6 6355   1.741   3.948  17.228  0.1927  0.1138  0.2553
  426TMC3     C 6356   1.510   4.258  17.370 -0.5222 -0.0516 -0.2839
  426TMC3     O 6357   1.408   4.273  17.307  0.1387  0.0092  0.1307
  426TMC3     H 6358   1.494   4.164  17.139 -0.3652  0.1405  2.3965
  426TMC3    H1 6359   1.717   4.150  17.496 -3.0293  1.9141  0.2756
  426TMC3    H2 6360   1.793   3.854  17.208 -0.5957 -0.1153 -0.6798
  426TMC3    C7 6361   1.817   3.911  17.455  1.2033 -1.0266 -0.0948
  426TMC3    C8 6362   1.607   3.939  17.022  0.1772 -0.0438  0.5732
  426TMC3    O1 6363   1.902   3.833  17.418  0.1479  0.2407  0.2878
  426TMC3    O2 6364   1.693   3.875  16.959 -0.0679  0.0125  0.2953
  427MPD2     C 6365   4.649   1.414  14.822  0.4588 -0.1905 -0.3967
  427MPD2    C1 6366   4.606   1.348  14.939  0.0604 -0.1265  0.1299
  427MPD2    C2 6367   4.491   1.384  15.008 -0.3326 -0.4596 -0.3632
  427MPD2    C3 6368   4.407   1.479  14.952  0.3953 -0.1888 -0.5793
  427MPD2    C4 6369   4.450   1.538  14.838 -0.3750 -0.0939  0.0952
  427MPD2    C5 6370   4.568   1.517  14.779  0.1297  0.3561  0.0962
  427MPD2     H 6371   4.468   1.341  15.105 -0.6889  0.9000  0.1565
  427MPD2    H1 6372   4.395   1.624  14.802 -0.6483 -0.6261 -0.7665
  427MPD2    H2 6373   0.022   1.393  14.776  1.7436  0.9616  1.7345
  427MPD2    H3 6374   4.600   1.582  14.698 -0.1051 -0.1820 -0.4285
  427MPD2     N 6375   4.279   1.515  15.000  0.3429  0.6424  0.0538
  427MPD2    H5 6376   4.225   1.578  14.941 -1.9778 -1.3337  0.0876
  427MPD2    N1 6377   4.681   1.251  14.992 -0.3664  0.7877 -0.4002
  427MPD2    H7 6378   4.642   1.209  15.076  2.1970 -2.6184 -0.8552
  428TMC3    C1 6379   0.150   1.141  15.070 -0.2474 -0.4595 -0.3043
  428TMC3    C2 6380   0.080   1.023  15.078 -0.6356 -0.0697 -0.3236
  428TMC3    C3 6381   0.121   0.936  15.174 -0.0863 -0.6808  0.1187
  428TMC3    C4 6382   0.251   1.175  15.151 -0.2672 -0.3564 -0.1177
  428TMC3    C5 6383   0.272   1.097  15.258  0.4052 -0.7240 -0.4564
  428TMC3    C6 6384   0.208   0.980  15.269  0.5046  0.8320 -0.2650
  428TMC3     C 6385   0.097   1.233  14.972 -0.6357  0.6632  0.7424
  428TMC3     O 6386   0.181   1.313  14.934  0.1223 -0.3624 -0.6245
  428TMC3     H 6387   0.015   0.988  14.999 -0.0650 -0.5435 -0.5841
  428TMC3    H1 6388   0.281   1.280  15.144 -1.0501 -0.4349 -4.9555
  428TMC3    H2 6389   0.216   0.914  15.355 -0.0439  0.0567 -0.8122
  428TMC3    C7 6390   0.379   1.132  15.350 -0.0553 -0.0796 -0.1908
  428TMC3    C8 6391   0.074   0.794  15.186  0.2975 -0.4839  0.4454
  428TMC3    O1 6392   0.378   1.081  15.460  0.4803 -0.0307  0.7342
  428TMC3    O2 6393   0.120   0.721  15.271  0.5091 -0.3992 -0.4680
  429MPD2     C 6394   0.464   1.585  17.651 -0.2281 -0.0585 -0.3035
  429MPD2    C1 6395   0.584   1.527  17.609 -0.3790  0.3693 -0.3833
  429MPD2    C2 6396   0.668   1.615  17.541 -0.1535 -0.0418  0.6150
  429MPD2    C3 6397   0.639   1.752  17.517 -0.0881 -0.7220  0.1320
  429MPD2    C4 6398   0.517   1.798  17.570 -0.9035 -0.0040  0.4864
  429MPD2    C5 6399   0.435   1.721  17.643  0.2903 -0.8762  0.9426
  429MPD2     H 6400   0.765   1.587  17.501  0.4764  0.5913  1.6979
  429MPD2    H1 6401   0.492   1.903  17.557  0.5667  0.3149  0.2195
  429MPD2    H2 6402   0.392   1.533   0.021  2.0934 -1.5937  1.0521
  429MPD2    H3 6403   0.351   1.769  17.691 -0.8650  0.4713 -2.4156
  429MPD2     N 6404   0.735   1.818  17.442  0.5566  0.0578  0.5733
  429MPD2    H5 6405   0.817   1.764  17.415  0.0793  2.1680 -5.0227
  429MPD2    N1 6406   0.616   1.395  17.647 -0.0308 -0.5387  0.1524
  429MPD2    H7 6407   0.694   1.358  17.594 -0.5817 -3.3124  1.2999
  430TMC3    C1 6408   0.843   1.983  17.326 -0.0211  0.3784 -0.0257
  430TMC3    C2 6409   0.825   2.100  17.259 -0.1354 -0.2501 -0.6578
  430TMC3    C3 6410   0.908   2.121  17.149 -0.1499 -0.5206 -0.4078
  430TMC3    C4 6411   0.953   1.905  17.310  0.7121 -0.9464 -0.9869
  430TMC3    C5 6412   1.033   1.933  17.197 -0.0714 -0.6437  0.1629
  430TMC3    C6 6413   1.016   2.043  17.125 -0.3002  0.0756 -0.3255
  430TMC3     C 6414   0.740   1.953  17.422 -0.2567  0.2753  0.0316
  430TMC3     O 6415   0.655   2.034  17.453  0.2259  0.0932 -0.4777
  430TMC3     H 6416   0.741   2.165  17.278  0.1608 -0.8686  2.6102
  430TMC3    H1 6417   0.962   1.810  17.363  1.3445  0.6296  1.6968
  430TMC3    H2 6418   1.087   2.074  17.050  0.2806  1.1927  0.6895
  430TMC3    C7 6419   1.043   1.812  17.110 -0.2257 -0.7191  0.4496
  430TMC3    C8 6420   0.845   2.144  17.024 -0.9594  0.6206  0.2070
  430TMC3    O1 6421   1.081   1.713  17.160 -0.5433  0.0529  0.0569
  430TMC3    O2 6422   0.890   2.101  16.921  0.3165 -0.1103 -0.1475
  431MPD2     C 6423   1.675   1.186  12.576  0.1365 -0.4966  0.6048
  431MPD2    C1 6424   1.773   1.174  12.480  0.6309  0.0779 -0.4897
  431MPD2    C2 6425   1.761   1.061  12.395  0.3362 -0.4007  0.2541
  431MPD2    C3 6426   1.681   0.955  12.424 -0.2720 -0.3985  0.2512
  431MPD2    C4 6427   1.582   0.969  12.522  0.2819  0.3192  0.5223
  431MPD2    C5 6428   1.569   1.091  12.590  0.0805  0.4114  0.1729
  431MPD2     H 6429   1.824   1.066  12.308  0.4849 -0.0231  0.3834
  431MPD2    H1 6430   1.512   0.888  12.541 -2.0873  1.9678 -1.1445
  431MPD2    H2 6431   1.661   1.270  12.643  0.8957 -0.8092  1.1405
  431MPD2    H3 6432   1.498   1.110  12.669 -1.6586 -2.2844 -0.7429
  431MPD2     N 6433   1.708   0.835  12.351  0.1987 -0.4537 -0.2540
  431MPD2    H5 6434   1.787   0.852  12.290 -0.2221  1.2801 -0.3200
  431MPD2    N1 6435   1.859   1.282  12.446  1.0365  0.3229 -0.0646
  431MPD2    H7 6436   1.920   1.284  12.365  2.3795  2.1994  0.9736
  432TMC3    C1 6437   1.731   0.603  12.295 -0.6116 -0.3798  0.4205
  432TMC3    C2 6438   1.777   0.629  12.171  0.4055  0.1322  0.3482
  432TMC3    C3 6439   1.860   0.529  12.131 -0.2858  0.1591  0.1319
  432TMC3    C4 6440   1.790   0.520  12.387 -0.0210 -0.7656  0.3922
  432TMC3    C5 6441   1.901   0.451  12.351 -0.0563 -0.5013 -0.4579
  432TMC3    C6 6442   1.932   0.456  12.217  0.7438 -0.1468 -0.0218
  432TMC3     C 6443   1.653   0.708  12.370  0.5582  0.1725  0.1087
  432TMC3     O 6444   1.581   0.674  12.464 -0.0884  0.1569 -0.1418
  432TMC3     H 6445   1.741   0.702  12.098 -1.0562 -1.0856 -0.1455
  432TMC3    H1 6446   1.755   0.518  12.489  0.8036 -0.9203  0.6723
  432TMC3    H2 6447   2.022   0.407  12.180  1.2621  1.6547 -1.1526
  432TMC3    C7 6448   2.012   0.449  12.443 -0.3443 -0.4766 -1.4267
  432TMC3    C8 6449   1.926   0.557  12.007  0.2761 -0.4073 -0.6500
  432TMC3    O1 6450   2.116   0.405  12.402 -0.0704  0.7699  0.4160
  432TMC3    O2 6451   1.986   0.462  11.952  0.6046 -0.0122  0.1992
  433MPD2     C 6452   0.644   0.311  10.940  0.6395 -0.0539  0.3685
  433MPD2    C1 6453   0.616   0.200  11.017 -1.1203 -0.2072  0.1562
  433MPD2    C2 6454   0.663   0.191  11.146 -0.2054  0.2290  0.1003
  433MPD2    C3 6455   0.739   0.294  11.201  0.1942 -0.3042 -0.8239
  433MPD2    C4 6456   0.765   0.407  11.125 -0.3066 -0.1111 -0.1192
  433MPD2    C5 6457   0.714   0.418  11.000 -0.7899  0.9150  0.3037
  433MPD2     H 6458   0.648   0.106  11.211  2.1971 -1.6750 -1.8322
  433MPD2    H1 6459   0.820   0.489  11.170  0.6663 -0.8861  0.1163
  433MPD2    H2 6460   0.601   0.330  10.843  0.5116  2.7324  0.9919
  433MPD2    H3 6461   0.724   0.511  10.945  0.8071 -1.5004 -3.4944
  433MPD2     N 6462   0.775   0.275  11.333  0.5180 -0.4061 -0.1093
  433MPD2    H5 6463   0.747   0.190  11.380 -0.8850  0.2621  0.2546
  433MPD2    N1 6464   0.548   0.095  10.947 -0.7417 -0.4748 -0.1225
  433MPD2    H7 6465   0.554   0.098  10.846  2.7910 -1.3655  0.0704
  434TMC3    C1 6466   0.496   4.591  10.935  0.4854  0.6999 -0.2933
  434TMC3    C2 6467   0.541   4.483  11.000 -0.3300  0.1124  0.1262
  434TMC3    C3 6468   0.626   4.397  10.942  0.3503 -0.2121  0.5427
  434TMC3    C4 6469   0.509   4.604  10.797 -0.7912 -0.0656 -0.7960
  434TMC3    C5 6470   0.588   4.512  10.734 -0.9731  0.1901 -0.0599
  434TMC3    C6 6471   0.653   4.412  10.808  0.2047  0.3152 -0.3165
  434TMC3     C 6472   0.502   4.705  11.015  0.1487  0.2123  0.5783
  434TMC3     O 6473   0.471   4.705  11.133  0.3710 -0.3636  0.3599
  434TMC3     H 6474   0.525   4.473  11.107  1.7000 -0.3042  0.3781
  434TMC3    H1 6475   0.465   4.680  10.734  1.3878  1.5203 -0.3944
  434TMC3    H2 6476   0.699   4.333  10.750  1.5431 -1.6103  3.3388
  434TMC3    C7 6477   0.548   4.482  10.596 -0.1776  1.0387  0.7743
  434TMC3    C8 6478   0.718   4.313  11.024 -0.3591  0.3269  0.0238
  434TMC3    O1 6479   0.474   4.559  10.540 -0.4690 -0.3434  0.7356
  434TMC3    O2 6480   0.677   4.276  11.131 -0.5319 -0.3929 -0.0184
  435MPD2     C 6481   2.883   0.465  15.458 -0.4404 -0.0712  0.1670
  435MPD2    C1 6482   2.862   0.459  15.594 -0.2786 -0.0681 -0.7060
  435MPD2    C2 6483   2.946   0.383  15.675 -0.4345  0.0048  0.3437
  435MPD2    C3 6484   3.040   0.299  15.619  0.4990 -0.2463  0.2648
  435MPD2    C4 6485   3.052   0.301  15.484 -0.9864 -0.1075  0.2737
  435MPD2    C5 6486   2.964   0.377  15.404 -0.3803 -0.0528  0.3930
  435MPD2     H 6487   2.936   0.392  15.783 -1.2915  0.0058  0.2603
  435MPD2    H1 6488   3.121   0.236  15.431  0.6797  1.0566  0.9821
  435MPD2    H2 6489   2.821   0.514  15.384 -2.3176  1.0455  2.4904
  435MPD2    H3 6490   2.981   0.391  15.298 -0.2139  0.9551  0.5503
  435MPD2     N 6491   3.116   0.206  15.699 -0.1293  0.0985  0.0710
  435MPD2    H5 6492   3.108   0.215  15.800  1.4288 -2.0094  0.3797
  435MPD2    N1 6493   2.761   0.531  15.655  0.1232  0.3852  0.6010
  435MPD2    H7 6494   2.750   0.519  15.755 -0.6045  1.3613  0.6402
  436TMC3    C1 6495   2.480   0.663  15.887  0.3356 -0.2573 -0.1945
  436TMC3    C2 6496   2.592   0.641  15.817 -0.5190 -0.5197 -0.1837
  436TMC3    C3 6497   2.591   0.686  15.690 -0.3314 -0.3181  1.2683
  436TMC3    C4 6498   2.366   0.714  15.825 -0.2796 -0.1361 -0.6681
  436TMC3    C5 6499   2.378   0.751  15.686  0.0271 -0.7271  0.7394
  436TMC3    C6 6500   2.494   0.739  15.619  0.3368  0.4113  0.2864
  436TMC3     C 6501   2.480   0.614  16.026 -0.5197  0.2558  0.0619
  436TMC3     O 6502   2.592   0.569  16.063  0.0347  0.5204  0.6343
  436TMC3     H 6503   2.680   0.609  15.871  0.6865  3.1491  0.0363
  436TMC3    H1 6504   2.273   0.722  15.880 -1.0277 -0.6791 -1.8529
  436TMC3    H2 6505   2.499   0.775  15.517  1.6627 -1.2295 -0.2415
  436TMC3    C7 6506   2.261   0.815  15.630  0.0978  0.6673 -0.0458
  436TMC3    C8 6507   2.689   0.630  15.596  0.1933 -0.4575  0.0324
  436TMC3    O1 6508   2.276   0.907  15.551  0.1835  0.4942 -0.1823
  436TMC3    O2 6509   2.675   0.670  15.481 -0.2156 -0.3026 -0.5205
  437TMC3    C1 6510   1.451   2.150  12.557 -0.3070 -0.4870 -0.4972
  437TMC3    C2 6511   1.341   2.233  12.542 -0.5266 -0.0703  0.2399
  437TMC3    C3 6512   1.342   2.335  12.450 -0.6125  0.7560  0.2184
  437TMC3    C4 6513   1.554   2.152  12.469 -0.0115  0.3264  0.1653
  437TMC3    C5 6514   1.554   2.261  12.386 -0.4135  0.6330  0.4895
  437TMC3    C6 6515   1.456   2.354  12.373  1.1835  0.1636 -0.3127
  437TMC3     C 6516   1.445   2.031  12.635  0.4681 -0.2759 -0.9390
  437TMC3     O 6517   1.337   1.975  12.638  0.1906 -0.0387 -0.5277
  437TMC3     H 6518   1.256   2.227  12.609  0.0770  0.3609  1.0437
  437TMC3    H1 6519   1.637   2.083  12.475  0.3636  0.6808 -1.0767
  437TMC3    H2 6520   1.473   2.445  12.316 -0.5878  1.8033  1.7776
  437TMC3    C7 6521   1.677   2.293  12.315  0.0874 -0.1662 -0.3471
  437TMC3    C8 6522   1.237   2.430  12.465 -0.2864 -0.2559  0.3838
  437TMC3    O1 6523   1.652   2.356  12.213 -0.1853 -0.3747  0.3395
  437TMC3    O2 6524   1.130   2.392  12.505 -0.3507 -0.1234 -0.6225
  438MPD2     C 6525   3.563   2.909  16.498 -0.2348 -0.2592 -0.6000
  438MPD2    C1 6526   3.597   2.812  16.596  0.5477 -0.4238  0.3326
  438MPD2    C2 6527   3.490   2.760  16.666  0.2792 -0.2890 -0.6473
  438MPD2    C3 6528   3.355   2.805  16.653 -0.4677 -0.8066 -0.3147
  438MPD2    C4 6529   3.328   2.903  16.563  0.1151  0.2143 -0.6148
  438MPD2    C5 6530   3.430   2.941  16.476  0.4527 -0.3503 -0.6209
  438MPD2     H 6531   3.514   2.691  16.746 -0.3800  0.1306 -0.0830
  438MPD2    H1 6532   3.224   2.920  16.536 -0.3637  0.0022  1.1085
  438MPD2    H2 6533   3.631   2.953  16.425  0.7482  0.0494  0.5046
  438MPD2    H3 6534   3.404   2.991  16.384 -2.1031  1.3091  0.9922
  438MPD2     N 6535   3.246   2.765  16.736 -0.0149  0.0339 -0.5734
  438MPD2    H5 6536   3.160   2.817  16.719  0.2451  0.0293 -1.8528
  438MPD2    N1 6537   3.723   2.750  16.602  0.1399 -0.6307  0.5132
  438MPD2    H7 6538   3.732   2.674  16.668 -0.6356  0.3461  1.7351
  439TMC3    C1 6539   3.941   2.741  16.617  0.6257  0.3683  0.4977
  439TMC3    C2 6540   3.963   2.606  16.594  1.0263 -0.0163 -0.1371
  439TMC3    C3 6541   4.095   2.560  16.600  0.7530  0.1788 -0.5203
  439TMC3    C4 6542   4.039   2.828  16.659 -0.1221  0.0518  1.2228
  439TMC3    C5 6543   4.160   2.771  16.682  0.3844  0.4840 -0.3237
  439TMC3    C6 6544   4.187   2.642  16.651 -0.0064 -0.7146 -0.0501
  439TMC3     C 6545   3.835   2.806  16.550 -0.2710  0.1123 -0.6889
  439TMC3     O 6546   3.855   2.910  16.486  0.2885 -0.3992  0.0475
  439TMC3     H 6547   3.896   2.538  16.544 -0.4865 -0.6977  2.8807
  439TMC3    H1 6548   4.021   2.934  16.673 -1.4824 -0.1989  1.3958
  439TMC3    H2 6549   4.289   2.610  16.668 -0.1508 -2.0971 -1.6467
  439TMC3    C7 6550   4.269   2.845  16.749 -0.4861 -0.2383 -0.2961
  439TMC3    C8 6551   4.140   2.433  16.556 -0.2362 -0.2188  0.2657
  439TMC3    O1 6552   4.368   2.776  16.779 -0.0344  0.1143 -0.3966
  439TMC3    O2 6553   4.242   2.386  16.604  0.8604  0.0173 -0.1176
  440MPD2     C 6554   2.517   3.171  14.517 -0.9423  0.5128 -0.2248
  440MPD2    C1 6555   2.568   3.258  14.607 -0.1525  0.1489  0.2184
  440MPD2    C2 6556   2.689   3.225  14.665  0.7887 -0.3866 -0.3661
  440MPD2    C3 6557   2.759   3.112  14.627  0.0262  0.1781  0.0546
  440MPD2    C4 6558   2.706   3.030  14.534  0.5987 -0.3872 -0.7775
  440MPD2    C5 6559   2.587   3.065  14.475 -0.2939  0.0883 -0.1426
  440MPD2     H 6560   2.734   3.284  14.744  1.0166 -2.5594  1.1339
  440MPD2    H1 6561   2.740   2.934  14.497 -2.1156 -1.0165 -1.6525
  440MPD2    H2 6562   2.421   3.182  14.467 -1.8653 -1.2400  1.1711
  440MPD2    H3 6563   2.546   3.001  14.398  0.0242 -0.0546 -0.1935
  440MPD2     N 6564   2.883   3.069  14.684 -0.8442 -0.1461  0.2330
  440MPD2    H5 6565   2.908   2.973  14.665 -1.8486 -0.3813  0.1292
  440MPD2    N1 6566   2.500   3.379  14.648 -0.1292 -0.3785  0.0991
  440MPD2    H7 6567   2.553   3.432  14.717  0.3441  1.4209 -1.6632
  441TMC3    C1 6568   3.089   3.098  14.799  0.0478 -0.4505 -0.0048
  441TMC3    C2 6569   3.177   3.197  14.811 -0.2084 -0.1599  0.4072
  441TMC3    C3 6570   3.268   3.199  14.917 -0.0986  0.1237 -0.7329
  441TMC3    C4 6571   3.089   2.997  14.891 -0.1909 -0.1423  0.4904
  441TMC3    C5 6572   3.170   3.003  15.002 -0.3989  0.0914 -0.3811
  441TMC3    C6 6573   3.270   3.102  15.009  0.1853  0.2974 -0.1226
  441TMC3     C 6574   2.960   3.154  14.759 -0.3456  0.2967  0.9551
  441TMC3     O 6575   2.948   3.270  14.798  0.0661  0.1967  0.2781
  441TMC3     H 6576   3.169   3.266  14.728 -0.5380 -1.3262 -0.5288
  441TMC3    H1 6577   3.009   2.925  14.886  1.6964 -2.4640  3.0661
  441TMC3    H2 6578   3.335   3.108  15.095 -1.5206  2.7286  1.0026
  441TMC3    C7 6579   3.112   2.952  15.126  0.8144  0.1398 -0.5611
  441TMC3    C8 6580   3.332   3.324  14.949  0.7260 -0.1998  0.1099
  441TMC3    O1 6581   3.127   3.021  15.226 -0.2585 -0.5307  0.0022
  441TMC3    O2 6582   3.411   3.339  15.038  0.0492 -0.3933 -0.2684
  442MPD2     C 6583   1.042   4.006  16.359  0.6861 -0.1056 -0.3674
  442MPD2    C1 6584   0.930   3.947  16.418 -0.5201 -0.2919 -0.4252
  442MPD2    C2 6585   0.900   3.813  16.380  0.0806  0.0158 -0.4071
  442MPD2    C3 6586   0.964   3.750  16.279  0.3309  0.5238  0.0806
  442MPD2    C4 6587   1.066   3.822  16.216  0.2712 -0.1742  0.5479
  442MPD2    C5 6588   1.115   3.940  16.266 -0.6896  0.2377 -0.3524
  442MPD2     H 6589   0.810   3.760  16.411  0.9842 -1.6211 -0.6128
  442MPD2    H1 6590   1.119   3.781  16.130  0.8506  2.2528 -0.2570
  442MPD2    H2 6591   1.063   4.112  16.368 -0.2772 -0.0356  1.0225
  442MPD2    H3 6592   1.193   3.989  16.208 -0.9000  0.2973 -0.5864
  442MPD2     N 6593   0.936   3.623  16.226 -0.4316  0.2915  0.6827
  442MPD2    H5 6594   1.003   3.595  16.155 -3.5858  0.0568 -2.1619
  442MPD2    N1 6595   0.846   4.013  16.507  0.8065  0.0891  0.0282
  442MPD2    H7 6596   0.769   3.959  16.546  0.9392  2.0028  2.9025
  443TMC3    C1 6597   0.739   4.203  16.611 -0.1701  1.0053 -0.1655
  443TMC3    C2 6598   0.694   4.317  16.568 -0.2225 -0.6562 -0.2870
  443TMC3    C3 6599   0.595   4.391  16.639 -0.1044 -0.3478 -0.6407
  443TMC3    C4 6600   0.691   4.137  16.721 -0.2508 -0.2879 -0.1046
  443TMC3    C5 6601   0.596   4.212  16.789  0.3080 -0.9104  0.3661
  443TMC3    C6 6602   0.559   4.338  16.754 -1.1713 -0.3632 -0.0163
  443TMC3     C 6603   0.838   4.148  16.518 -0.1136 -0.5145  0.6666
  443TMC3     O 6604   0.904   4.230  16.463 -0.2260  0.3589 -0.4327
  443TMC3     H 6605   0.715   4.355  16.469  1.3434  0.3221  0.4147
  443TMC3    H1 6606   0.711   4.031  16.731 -0.7817 -0.2023  1.8932
  443TMC3    H2 6607   0.470   4.382  16.799 -0.4725  0.1574  0.8608
  443TMC3    C7 6608   0.545   4.151  16.906  0.1443  0.5469 -0.1795
  443TMC3    C8 6609   0.472   4.418  16.559 -0.2582  0.1783 -0.0210
  443TMC3    O1 6610   0.541   4.028  16.911 -0.3760  0.8711 -0.1406
  443TMC3    O2 6611   0.375   4.354  16.595 -0.1445  0.7877 -0.3782
  444MPD2     C 6612   1.405   3.315  16.935  1.2610 -0.3710  0.0458
  444MPD2    C1 6613   1.282   3.278  16.883 -0.6324  0.5916 -0.4112
  444MPD2    C2 6614   1.279   3.158  16.808 -0.1920  0.9897  0.4836
  444MPD2    C3 6615   1.397   3.088  16.783  0.2963  0.5484  0.3480
  444MPD2    C4 6616   1.516   3.126  16.847 -0.1760 -0.1245  0.0109
  444MPD2    C5 6617   1.514   3.232  16.923  0.4261  0.9791 -0.4125
  444MPD2     H 6618   1.195   3.143  16.741  0.9381  0.5878 -0.8388
  444MPD2    H1 6619   1.609   3.070  16.849 -0.5528 -0.7958 -1.1807
  444MPD2    H2 6620   1.415   3.407  16.991 -0.5420 -0.0953 -0.0608
  444MPD2    H3 6621   1.616   3.252  16.953  0.0463 -1.0858  2.2213
  444MPD2     N 6622   1.392   2.979  16.690  0.0773 -0.0573  0.6503
  444MPD2    H5 6623   1.298   2.956  16.660 -0.6555  0.7148  2.3783
  444MPD2    N1 6624   1.169   3.361  16.895 -0.1033 -0.5802 -0.0867
  444MPD2    H7 6625   1.081   3.339  16.850  0.4648 -0.3456 -1.3015
  445TMC3    C1 6626   1.477   2.815  16.520 -0.3910  0.0228 -0.4700
  445TMC3    C2 6627   1.376   2.731  16.536 -0.0966  0.2192 -1.4191
  445TMC3    C3 6628   1.365   2.623  16.457  0.3751 -0.3142  0.3543
  445TMC3    C4 6629   1.566   2.800  16.426 -0.4573  1.0612 -0.5861
  445TMC3    C5 6630   1.547   2.701  16.337 -0.2480 -0.0015  0.1161
  445TMC3    C6 6631   1.446   2.608  16.348  0.0590  0.2604 -0.5800
  445TMC3     C 6632   1.504   2.921  16.623 -0.3159 -0.2045  0.3610
  445TMC3     O 6633   1.619   2.966  16.632 -0.1303  0.4132 -0.0479
  445TMC3     H 6634   1.305   2.751  16.616  1.6660 -1.0407  0.4412
  445TMC3    H1 6635   1.651   2.868  16.422 -0.5984  1.2806  0.0952
  445TMC3    H2 6636   1.432   2.533  16.271 -1.4310 -0.5155  0.4442
  445TMC3    C7 6637   1.668   2.644  16.284  0.1534  0.4532 -0.8234
  445TMC3    C8 6638   1.241   2.549  16.475  0.0524 -0.0378  0.1586
  445TMC3    O1 6639   1.696   2.672  16.169  0.1127  0.3116  0.2068
  445TMC3    O2 6640   1.150   2.590  16.545  0.4957 -0.0230 -0.0845
  446MPD2     C 6641   0.466   4.108  11.558 -0.1041  0.3174  1.1060
  446MPD2    C1 6642   0.442   4.189  11.449  0.4167  0.5319  0.0119
  446MPD2    C2 6643   0.539   4.279  11.410  0.4850  0.1044  0.5866
  446MPD2    C3 6644   0.658   4.289  11.474 -0.2857  0.2023  0.5181
  446MPD2    C4 6645   0.681   4.207  11.586  0.0686  1.0427  0.4118
  446MPD2    C5 6646   0.588   4.109  11.622 -0.6718  0.2253  0.9895
  446MPD2     H 6647   0.515   4.358  11.340  0.4212 -1.4869 -1.1870
  446MPD2    H1 6648   0.780   4.204  11.631 -0.3836 -2.4123  1.2425
  446MPD2    H2 6649   0.393   4.029  11.578 -1.3545  1.3414  0.5713
  446MPD2    H3 6650   0.603   4.036  11.701 -0.1937  0.8455  1.4698
  446MPD2     N 6651   0.747   4.387  11.426  0.7311  0.5169  0.2550
  446MPD2    H5 6652   0.706   4.436  11.346  0.0730  0.2418  0.4254
  446MPD2    N1 6653   0.319   4.166  11.388  0.0070 -0.3954  0.0655
  446MPD2    H7 6654   0.262   4.093  11.429 -0.7159  0.3087  0.3094
  447TMC3    C1 6655   0.947   4.493  11.365 -0.7162  0.2443  0.4144
  447TMC3    C2 6656   0.876   4.568  11.281  0.8076 -0.0450 -0.4720
  447TMC3    C3 6657   0.944   4.664  11.214 -0.4271 -0.2501  0.7400
  447TMC3    C4 6658   1.081   4.516  11.396  0.1705  0.8494  0.1996
  447TMC3    C5 6659   1.144   4.620  11.338  0.1804 -0.9883 -1.1219
  447TMC3    C6 6660   1.071   4.696  11.253  0.6600  0.7208  0.3746
  447TMC3     C 6661   0.887   4.392  11.451  0.7048  0.5936 -0.2288
  447TMC3     O 6662   0.952   4.316  11.516 -0.6795  0.0028 -0.3140
  447TMC3     H 6663   0.776   4.548  11.244  0.7298  0.8679 -0.7514
  447TMC3    H1 6664   1.132   4.444  11.459  0.8382  0.9144 -0.2591
  447TMC3    H2 6665   1.121   0.059  11.209 -1.2645  1.2134 -0.8399
  447TMC3    C7 6666   1.279   4.595  11.290  0.3841  0.0083 -0.3154
  447TMC3    C8 6667   0.923   4.669  11.072  0.7312  0.6714 -0.0249
  447TMC3    O1 6668   1.315   4.651  11.187 -0.4959  0.0121 -0.3041
  447TMC3    O2 6669   0.808   4.650  11.035  0.6142  0.6418  0.1176
  448TMC3    C1 6670   3.801   0.096  17.245  0.3809 -0.5993 -0.6994
  448TMC3    C2 6671   3.869   0.015  17.169  0.3519  1.2996 -0.4897
  448TMC3    C3 6672   3.999   4.720  17.195  0.6348 -0.0161 -0.1545
  448TMC3    C4 6673   3.857   0.164  17.347  0.1153  0.5070  0.2945
  448TMC3    C5 6674   3.991   0.137  17.368  0.0091 -0.1591  0.1239
  448TMC3    C6 6675   4.071   0.053  17.296 -0.4202  0.4456 -0.4473
  448TMC3     C 6676   3.674   0.145  17.195  0.0611 -0.4267  0.7695
  448TMC3     O 6677   3.651   0.109  17.080  0.3049  0.8409 -0.5734
  448TMC3     H 6678   3.811   4.674  17.103  0.1632  0.4409  0.4872
  448TMC3    H1 6679   3.809   0.247  17.397 -1.8684 -0.3668 -0.1533
  448TMC3    H2 6680   4.177   0.031  17.302  0.1223  2.6582 -1.7125
  448TMC3    C7 6681   4.061   0.232  17.463  0.0578 -0.2007  0.7205
  448TMC3    C8 6682   4.077   4.628  17.113 -0.6815 -0.0432  0.4024
  448TMC3    O1 6683   4.002   0.328  17.506  0.0685  0.6315  0.0138
  448TMC3    O2 6684   4.178   4.575  17.164  0.2531  0.5389 -0.7535
  449MPD2     C 6685   0.505   2.800  13.738 -0.2743 -0.6631  0.2311
  449MPD2    C1 6686   0.430   2.740  13.644 -0.9041  0.1764  0.4571
  449MPD2    C2 6687   0.346   2.630  13.673  0.1434 -0.8447 -0.4350
  449MPD2    C3 6688   0.350   2.570  13.795 -0.6372 -0.5606 -0.1830
  449MPD2    C4 6689   0.433   2.628  13.890 -0.6645 -0.9143 -0.7841
  449MPD2    C5 6690   0.520   2.731  13.860  0.0078 -0.4493  0.2833
  449MPD2     H 6691   0.278   2.593  13.597 -0.2330  2.1227 -1.5309
  449MPD2    H1 6692   0.434   2.578  13.986  2.5039 -2.7129 -1.7440
  449MPD2    H2 6693   0.554   2.895  13.721 -1.3816 -0.1707 -0.1978
  449MPD2    H3 6694   0.580   2.782  13.934  0.2340  0.9846 -0.8963
  449MPD2     N 6695   0.254   2.469  13.818  0.3339  0.2114  0.1407
  449MPD2    H5 6696   0.210   2.443  13.730  2.0867 -0.4423 -0.5494
  449MPD2    N1 6697   0.410   2.796  13.515  1.0123  0.0177  0.0199
  449MPD2    H7 6698   0.333   2.761  13.458  1.2058 -0.6755  0.1857
  450TMC3    C1 6699   0.414   2.926  13.324 -0.5582 -0.0847 -0.4907
  450TMC3    C2 6700   0.460   2.872  13.211  0.4366 -0.2128  0.8379
  450TMC3    C3 6701   0.368   2.814  13.121 -0.1081  0.3359 -0.2833
  450TMC3    C4 6702   0.282   2.931  13.336 -0.2736 -0.3165  0.2300
  450TMC3    C5 6703   0.188   2.887  13.249  0.0489  0.5549  0.6832
  450TMC3    C6 6704   0.232   2.836  13.130  0.4831 -0.1018 -0.0329
  450TMC3     C 6705   0.475   2.902  13.453 -1.0571  0.1036  1.0374
  450TMC3     O 6706   0.565   2.976  13.493 -0.0437  0.0513  0.0380
  450TMC3     H 6707   0.562   2.835  13.215  0.4265 -0.4597 -1.0467
  450TMC3    H1 6708   0.246   2.976  13.428  1.2998  1.1441  0.1224
  450TMC3    H2 6709   0.168   2.791  13.054 -0.5101 -0.7592  1.1909
  450TMC3    C7 6710   0.100   2.790  13.325 -0.0204 -0.1595  0.2051
  450TMC3    C8 6711   0.393   2.675  13.102 -0.0203  0.0585  0.2249
  450TMC3    O1 6712   0.124   2.777  13.445  0.3092  0.2995  0.6958
  450TMC3    O2 6713   0.294   2.599  13.098  0.3270 -0.1057  0.3266
  451MPD2     C 6714   1.332   1.379   1.517  0.0814 -0.1333 -0.6896
  451MPD2    C1 6715   1.344   1.427   1.392 -0.3568  0.1428  0.2924
  451MPD2    C2 6716   1.429   1.370   1.299  0.5514 -0.2389  0.1980
  451MPD2    C3 6717   1.501   1.259   1.329 -0.7650  0.5649 -0.0212
  451MPD2    C4 6718   1.472   1.194   1.445  0.1521  0.6483 -0.0664
  451MPD2    C5 6719   1.392   1.259   1.541  0.7989 -0.1539 -0.7092
  451MPD2     H 6720   1.434   1.415   1.200  1.1945 -0.8700 -0.0625
  451MPD2    H1 6721   1.523   1.102   1.470  3.3959  1.3079 -4.2819
  451MPD2    H2 6722   1.287   1.431   1.601  1.7759  0.0556  0.1037
  451MPD2    H3 6723   1.372   1.207   1.634 -1.3988  0.6480 -0.7344
  451MPD2     N 6724   1.595   1.197   1.243  0.0203  0.4123  0.4385
  451MPD2    H5 6725   1.650   1.119   1.278  1.6155  1.4383  0.2326
  451MPD2    N1 6726   1.266   1.545   1.366 -0.3595  0.1605 -0.7360
  451MPD2    H7 6727   1.206   1.575   1.443 -1.1589 -0.2855 -1.1912
  452TMC3    C1 6728   1.698   1.145   1.042  0.0303  0.4015 -0.2025
  452TMC3    C2 6729   1.816   1.133   1.106 -0.0528  0.2083 -0.3130
  452TMC3    C3 6730   1.919   1.073   1.041 -0.1529  0.0362 -0.7385
  452TMC3    C4 6731   1.681   1.108   0.913  0.2058 -0.1257 -0.3101
  452TMC3    C5 6732   1.794   1.058   0.850  0.1197  0.6172  0.4632
  452TMC3    C6 6733   1.920   1.037   0.909  0.6858  0.1548  0.1260
  452TMC3     C 6734   1.589   1.215   1.102 -0.8791 -0.2225  0.4702
  452TMC3     O 6735   1.510   1.277   1.033 -0.1787 -0.5594 -0.2285
  452TMC3     H 6736   1.830   1.178   1.204  0.3725 -1.2213  0.2881
  452TMC3    H1 6737   1.593   1.136   0.855 -0.0860  0.5479  0.4498
  452TMC3    H2 6738   2.006   0.991   0.863 -0.4983 -1.3017 -0.6218
  452TMC3    C7 6739   1.777   1.025   0.710 -0.6288 -0.1660  0.0246
  452TMC3    C8 6740   2.043   1.077   1.114 -0.6039 -0.6687  0.2711
  452TMC3    O1 6741   1.660   1.009   0.673  0.6112  0.3391  0.3718
  452TMC3    O2 6742   2.028   1.081   1.231 -0.3283  0.0095  0.0476
  453TMC3    C1 6743   2.996   3.126  11.716  0.2213 -0.1161  0.0782
  453TMC3    C2 6744   2.908   3.021  11.740  0.1380  0.3664 -0.5682
  453TMC3    C3 6745   2.871   2.951  11.631 -1.0981  0.5344  0.3989
  453TMC3    C4 6746   3.059   3.139  11.591 -0.9857 -0.1421  0.8794
  453TMC3    C5 6747   3.026   3.056  11.490 -1.4258 -0.2311  0.3233
  453TMC3    C6 6748   2.930   2.963  11.506 -0.3601 -0.0776  0.3133
  453TMC3     C 6749   3.052   3.208  11.824 -0.4313 -0.7265 -0.4448
  453TMC3     O 6750   3.092   3.318  11.786 -0.8288  0.0875 -0.3707
  453TMC3     H 6751   2.853   3.002  11.832 -1.9794 -0.4698 -2.0137
  453TMC3    H1 6752   3.132   3.217  11.572 -2.2153  1.3938  2.4626
  453TMC3    H2 6753   2.909   2.881  11.439  1.8113  0.0301 -0.5052
  453TMC3    C7 6754   3.100   3.072  11.371 -0.5581  0.5313  0.1158
  453TMC3    C8 6755   2.775   2.850  11.654 -0.1776  0.4505  1.3792
  453TMC3    O1 6756   3.212   3.121  11.378  0.2357  0.2916 -0.0478
  453TMC3    O2 6757   2.703   2.824  11.557  0.4510  0.1514 -0.0546
  454MPD2     C 6758   2.050   2.822  16.347  0.1057 -0.2085  0.0101
  454MPD2    C1 6759   2.033   2.941  16.277  0.2718 -0.0999 -0.3709
  454MPD2    C2 6760   1.960   3.047  16.337  0.0414  0.9062 -0.0360
  454MPD2    C3 6761   1.907   3.022  16.461  0.1347  0.1066 -0.7210
  454MPD2    C4 6762   1.924   2.907  16.533  0.3825  0.0376  0.0946
  454MPD2    C5 6763   1.987   2.804  16.471  0.3598 -0.1170 -0.4388
  454MPD2     H 6764   1.944   3.139  16.282  1.1241 -0.4042 -2.5749
  454MPD2    H1 6765   1.869   2.892  16.626 -0.3611  1.5508 -0.1003
  454MPD2    H2 6766   2.102   2.744  16.292  0.7107  0.5140 -0.4416
  454MPD2    H3 6767   1.963   2.707  16.513 -1.5470  0.1803 -0.8395
  454MPD2     N 6768   1.812   3.110  16.505 -1.0178 -0.3123  0.2445
  454MPD2    H5 6769   1.753   3.072  16.578 -1.4574  0.3094  0.2159
  454MPD2    N1 6770   2.060   2.951  16.137 -0.3215 -0.6438  0.2921
  454MPD2    H7 6771   2.042   3.041  16.094 -0.9317 -0.8360  0.1449
  455TMC3    C1 6772   1.674   3.294  16.487 -0.0695 -0.2628 -1.4342
  455TMC3    C2 6773   1.654   3.387  16.584  0.9708  0.1250  0.5355
  455TMC3    C3 6774   1.525   3.425  16.607 -0.7201  0.2726  0.7946
  455TMC3    C4 6775   1.569   3.247  16.409  0.4944  0.1357 -0.4589
  455TMC3    C5 6776   1.441   3.291  16.435  0.0894  0.4690 -0.2832
  455TMC3    C6 6777   1.410   3.381  16.538  0.3490  0.0937 -0.0903
  455TMC3     C 6778   1.806   3.240  16.462 -0.9908  0.5904 -0.1163
  455TMC3     O 6779   1.898   3.317  16.443 -0.0151  0.1790 -0.2466
  455TMC3     H 6780   1.743   3.424  16.632  3.0136 -0.7817 -2.5297
  455TMC3    H1 6781   1.608   3.175  16.339 -0.2318 -0.8983  0.2059
  455TMC3    H2 6782   1.313   3.423  16.564 -0.8941 -0.7265 -3.4365
  455TMC3    C7 6783   1.340   3.197  16.405 -0.3182  0.5756  0.4945
  455TMC3    C8 6784   1.527   3.541  16.684 -0.3151 -0.0720  1.0643
  455TMC3    O1 6785   1.235   3.209  16.462 -0.5934  0.2162  0.0301
  455TMC3    O2 6786   1.624   3.569  16.752 -0.5036 -0.1245  0.2414
  456MPD2     C 6787   4.130   3.387  16.491  0.1523  0.0033  0.3552
  456MPD2    C1 6788   4.264   3.361  16.516  0.1788  0.3406  0.4415
  456MPD2    C2 6789   4.333   3.450  16.599  0.2620  0.3464  0.1120
  456MPD2    C3 6790   4.268   3.557  16.655  0.2170 -0.7285  0.7358
  456MPD2    C4 6791   4.136   3.568  16.638 -0.3685  0.1550 -0.0644
  456MPD2    C5 6792   4.064   3.484  16.559 -0.1239 -0.0969  0.1584
  456MPD2     H 6793   4.440   3.436  16.611  0.6456  1.8738 -1.5412
  456MPD2    H1 6794   4.072   3.648  16.675  0.4647  0.3467  0.9803
  456MPD2    H2 6795   4.071   3.325  16.424  0.3076 -3.9342  3.8814
  456MPD2    H3 6796   3.960   3.503  16.533 -0.2643 -3.2209 -1.5424
  456MPD2     N 6797   4.344   3.656  16.726  0.3508 -0.0782  0.7225
  456MPD2    H5 6798   4.445   3.648  16.731  0.4877  0.9415 -0.3728
  456MPD2    N1 6799   4.331   3.242  16.463 -0.6460  0.0159  0.2371
  456MPD2    H7 6800   4.278   3.173  16.411  0.0574 -0.2682 -0.1035
  457TMC3    C1 6801   4.394   3.868  16.819 -0.5346  0.2285  0.9013
  457TMC3    C2 6802   4.368   4.002  16.805  0.2410  0.1748 -0.4071
  457TMC3    C3 6803   4.428   4.098  16.883 -0.1301  0.2629  0.1210
  457TMC3    C4 6804   4.480   3.819  16.911  0.2376 -0.0808 -1.2698
  457TMC3    C5 6805   4.552   3.909  16.987  0.2271  0.6732 -0.4287
  457TMC3    C6 6806   4.512   4.049  16.977  0.4784  0.0085 -0.0798
  457TMC3     C 6807   4.295   3.782  16.745  0.5077 -0.6221 -0.3279
  457TMC3     O 6808   4.192   3.837  16.698 -0.4860 -0.6042 -0.0077
  457TMC3     H 6809   4.294   4.032  16.732 -2.4821 -2.7842  1.1535
  457TMC3    H1 6810   4.500   3.713  16.925 -0.2936  0.2173  1.7952
  457TMC3    H2 6811   4.560   4.127  17.035 -0.1022 -1.8401  2.8738
  457TMC3    C7 6812   4.605   3.865  17.115  0.6164 -0.2777 -0.7437
  457TMC3    C8 6813   4.364   4.223  16.903  0.7629 -0.6932 -0.2025
  457TMC3    O1 6814   4.576   3.750  17.158 -0.8698 -0.3969 -0.3209
  457TMC3    O2 6815   4.379   4.279  17.012  0.0724  0.2241 -0.1386
  458MPD2     C 6816   2.168   2.206  12.211  0.5496  0.6267 -0.4794
  458MPD2    C1 6817   2.153   2.196  12.350  0.2208  0.6845  0.6518
  458MPD2    C2 6818   2.028   2.230  12.402 -0.1134 -0.2717 -0.3106
  458MPD2    C3 6819   1.920   2.258  12.317  0.2013 -0.3321  0.0758
  458MPD2    C4 6820   1.939   2.272  12.186 -0.6292  0.0503 -0.5686
  458MPD2    C5 6821   2.064   2.239  12.131  1.0040 -1.1494  0.8986
  458MPD2     H 6822   2.024   2.223  12.510  2.5084 -0.5908 -0.2219
  458MPD2    H1 6823   1.866   2.295  12.108 -0.8802  0.1730 -0.2988
  458MPD2    H2 6824   2.266   2.202  12.165  0.5325 -2.0971 -0.2613
  458MPD2    H3 6825   2.080   2.237  12.024  0.8629 -1.4157  0.8820
  458MPD2     N 6826   1.793   2.252  12.374 -0.0024  0.2243  0.2339
  458MPD2    H5 6827   1.797   2.215  12.469  0.8457 -2.4324 -0.8348
  458MPD2    N1 6828   2.267   2.164  12.432  0.1586 -0.5837 -0.6492
  458MPD2    H7 6829   2.353   2.148  12.381  1.1813 -3.4150  1.9825
  459TMC3    C1 6830   2.395   2.110  12.619  0.9231 -0.2745 -0.9381
  459TMC3    C2 6831   2.502   2.184  12.581  0.2450  0.1600  0.0782
  459TMC3    C3 6832   2.604   2.181  12.674 -0.7398 -0.1175 -0.2696
  459TMC3    C4 6833   2.385   2.041  12.735  0.6323  0.1643 -0.3296
  459TMC3    C5 6834   2.485   2.051  12.824 -0.0370 -0.0797  0.4488
  459TMC3    C6 6835   2.600   2.124  12.801 -0.3035  0.0025 -0.0804
  459TMC3     C 6836   2.265   2.144  12.567  0.2417 -0.3699 -0.1051
  459TMC3     O 6837   2.169   2.125  12.643 -0.5048  0.3339  0.3607
  459TMC3     H 6838   2.501   2.241  12.489  2.5338 -0.9010 -0.6092
  459TMC3    H1 6839   2.294   1.994  12.770  0.2490  0.5687 -0.7740
  459TMC3    H2 6840   2.673   2.126  12.881  0.8369  1.3838 -1.1671
  459TMC3    C7 6841   2.443   1.998  12.957 -1.1067 -0.0259 -0.0481
  459TMC3    C8 6842   2.735   2.232  12.628  0.6989  0.2959  0.4570
  459TMC3    O1 6843   2.367   1.897  12.962  0.5569  0.1593  0.3344
  459TMC3    O2 6844   2.734   2.309  12.533  0.2947  0.8914 -0.2693
  460MPD2     C 6845   1.181   4.624  10.813 -0.1897  0.5659  0.3441
  460MPD2    C1 6846   1.056   4.654  10.866  0.3834  0.4675  0.3500
  460MPD2    C2 6847   0.945   4.655  10.771 -0.6561  0.3714  0.1290
  460MPD2    C3 6848   0.966   4.645  10.637 -0.6724 -0.1163 -0.4566
  460MPD2    C4 6849   1.091   4.626  10.590 -0.1311  0.0968  0.0708
  460MPD2    C5 6850   1.196   4.611  10.678 -0.1122 -0.4580 -0.4153
  460MPD2     H 6851   0.842   4.671  10.802 -0.2241  0.2951  1.6270
  460MPD2    H1 6852   1.112   4.607  10.486 -0.9229  1.1636 -0.2927
  460MPD2    H2 6853   1.273   4.606  10.868  1.1491  2.8131 -1.1327
  460MPD2    H3 6854   1.292   4.576  10.642 -0.5491 -1.1609 -0.8939
  460MPD2     N 6855   0.860   4.663  10.544 -0.6869 -0.1400 -0.9207
  460MPD2    H5 6856   0.771   4.694  10.583 -0.1600  1.8989 -1.3625
  460MPD2    N1 6857   1.041   4.678  10.999  0.0921  0.3138 -0.7024
  460MPD2    H7 6858   1.126   4.676  11.055 -0.2338  1.1961 -0.1832
  461TMC3    C1 6859   0.753   4.682  10.332  0.4179 -0.4000 -0.0456
  461TMC3    C2 6860   0.704   4.592  10.237 -0.0513  0.5420  0.0166
  461TMC3    C3 6861   0.590   4.630  10.171  0.4512  0.3484  0.0527
  461TMC3    C4 6862   0.697   0.084  10.352 -0.4423  0.1541 -0.1996
  461TMC3    C5 6863   0.586   0.109  10.276 -0.5914  0.2740  0.1903
  461TMC3    C6 6864   0.527   0.027  10.192 -0.0549  0.2255 -0.2272
  461TMC3     C 6865   0.868   4.637  10.409 -0.4069 -0.2655  0.3334
  461TMC3     O 6866   0.942   4.562  10.348 -0.0034 -0.4183  0.0654
  461TMC3     H 6867   0.747   4.494  10.224 -1.8406 -0.0004 -1.7273
  461TMC3    H1 6868   0.730   0.160  10.423 -0.6783  1.6222 -1.6775
  461TMC3    H2 6869   0.443   0.065  10.135  0.4596  0.1436 -1.0407
  461TMC3    C7 6870   0.531   0.245  10.298  0.4237  0.5288 -0.3195
  461TMC3    C8 6871   0.529   4.550  10.071 -0.2539 -0.3596 -0.5218
  461TMC3    O1 6872   0.605   0.339  10.332  0.5445 -0.3023  0.0039
  461TMC3    O2 6873   0.410   4.557  10.051 -0.0940  0.3205  0.1506
  462TMC3    C1 6874   0.737   1.790   0.201  0.2226 -0.2564 -0.3522
  462TMC3    C2 6875   0.826   1.776   0.096 -0.3846  0.3479  0.5849
  462TMC3    C3 6876   0.898   1.663   0.089  0.4092 -0.9081  0.5172
  462TMC3    C4 6877   0.719   1.697   0.291  0.1719  0.3796  0.2744
  462TMC3    C5 6878   0.809   1.589   0.278 -0.3560 -0.1264 -0.4290
  462TMC3    C6 6879   0.907   1.568   0.184 -0.2111  0.1986  0.0922
  462TMC3     C 6880   0.629   1.885   0.193 -0.2205  0.7466  0.0423
  462TMC3     O 6881   0.528   1.845   0.251  0.1764  0.2967  0.2303
  462TMC3     H 6882   0.814   1.840   0.010  0.5331 -1.2157 -0.7004
  462TMC3    H1 6883   0.656   1.711   0.378  1.7809  0.3917  1.4432
  462TMC3    H2 6884   0.946   1.467   0.172  0.8402  0.3315  2.4623
  462TMC3    C7 6885   0.765   1.469   0.350 -0.1590  0.3164  0.1177
  462TMC3    C8 6886   0.995   1.662  17.671 -0.0577 -0.2534 -1.0043
  462TMC3    O1 6887   0.853   1.396   0.393 -0.5717 -0.3942  0.0717
  462TMC3    O2 6888   1.020   1.767  17.610  0.6541 -0.6403  0.0432
  463MPD2     C 6889   1.502   0.496   1.898 -0.0593  0.0058 -0.0240
  463MPD2    C1 6890   1.529   0.423   1.782  0.0816  0.6004 -0.3791
  463MPD2    C2 6891   1.644   0.452   1.712  0.2284 -0.2053 -0.3701
  463MPD2    C3 6892   1.728   0.560   1.751 -0.3054 -0.8706 -0.3218
  463MPD2    C4 6893   1.699   0.627   1.867  0.2172  0.1556  1.0203
  463MPD2    C5 6894   1.590   0.599   1.939 -0.2483  0.9313 -0.9190
  463MPD2     H 6895   1.664   0.389   1.625 -0.1046 -1.8920  0.7664
  463MPD2    H1 6896   1.755   0.715   1.899  1.0686 -0.7983  2.1283
  463MPD2    H2 6897   1.407   0.482   1.947 -0.9688 -1.9977 -2.3583
  463MPD2    H3 6898   1.560   0.669   2.017 -0.2289  0.2221 -0.2739
  463MPD2     N 6899   1.841   0.600   1.675 -0.3735  0.3389  0.3483
  463MPD2    H5 6900   1.881   0.690   1.700  1.9854 -1.5450  3.4391
  463MPD2    N1 6901   1.447   0.317   1.731 -0.5856  0.1364 -0.2935
  463MPD2    H7 6902   1.463   0.275   1.640  1.8390  0.4659 -0.0089
  464TMC3    C1 6903   1.291   0.151   1.726  0.3852  0.7151  0.8040
  464TMC3    C2 6904   1.284   0.160   1.591 -0.3344  0.2932 -0.7417
  464TMC3    C3 6905   1.267   0.047   1.521  0.2740 -0.4228  0.1943
  464TMC3    C4 6906   1.280   0.030   1.789 -0.1328 -0.2487 -0.1722
  464TMC3    C5 6907   1.284   4.643   1.709  0.3895  0.0317 -0.4225
  464TMC3    C6 6908   1.268   4.647   1.571 -0.2696  0.5053 -0.0172
  464TMC3     C 6909   1.342   0.266   1.799  0.1753  0.5411  0.3986
  464TMC3     O 6910   1.319   0.267   1.917 -0.2787  0.2318 -0.4588
  464TMC3     H 6911   1.288   0.257   1.542 -1.5108 -1.6420 -4.7250
  464TMC3    H1 6912   1.315   0.030   1.892 -1.6483  0.2119  0.3406
  464TMC3    H2 6913   1.262   4.559   1.508  0.0482  1.4551 -1.3609
  464TMC3    C7 6914   1.232   4.524   1.772  0.1218  0.1418 -0.0120
  464TMC3    C8 6915   1.247   0.054   1.377  0.0002 -0.3903  0.2625
  464TMC3    O1 6916   1.195   4.523   1.890 -0.0762  0.7099  0.0670
  464TMC3    O2 6917   1.301   4.689   1.310 -0.3907  0.1723  0.8147
  465MPD2     C 6918   3.815   3.228  16.528  0.6730 -0.2316 -0.1871
  465MPD2    C1 6919   3.742   3.281  16.632 -0.3737 -0.6280 -0.4080
  465MPD2    C2 6920   3.606   3.310  16.605  0.2371  0.1543 -0.4381
  465MPD2    C3 6921   3.545   3.290  16.481  1.0252 -0.0053  0.1037
  465MPD2    C4 6922   3.630   3.257  16.373  0.2703 -0.4570  0.6501
  465MPD2    C5 6923   3.758   3.223  16.400  0.0143 -0.7144  0.1447
  465MPD2     H 6924   3.542   3.343  16.686  1.8965 -1.1115  1.3884
  465MPD2    H1 6925   3.602   3.260  16.268  0.4821 -2.4612  0.5343
  465MPD2    H2 6926   3.915   3.192  16.546  1.0786  0.9972  0.0285
  465MPD2    H3 6927   3.822   3.178  16.325  1.7072  2.1801 -0.1764
  465MPD2     N 6928   3.407   3.322  16.477  0.0262 -0.2475  0.1025
  465MPD2    H5 6929   3.366   3.342  16.568  1.4651  0.4487  0.6028
  465MPD2    N1 6930   3.796   3.312  16.752 -0.4299 -0.4893 -0.1105
  465MPD2    H7 6931   3.740   3.358  16.823  1.3290  1.6102 -0.0987
  466TMC3    C1 6932   3.046   3.365  16.580 -0.0756  0.2211 -0.1963
  466TMC3    C2 6933   3.009   3.487  16.528 -0.3212 -0.9296 -0.1065
  466TMC3    C3 6934   3.078   3.536  16.413  0.4195 -0.0305 -0.1495
  466TMC3    C4 6935   3.150   3.304  16.520  0.0737  0.8051 -0.5761
  466TMC3    C5 6936   3.200   3.348  16.396  0.4537 -0.3347 -0.5774
  466TMC3    C6 6937   3.151   3.460  16.335 -0.1738 -0.1842  0.2305
  466TMC3     C 6938   3.038   3.366  16.727 -0.2590  0.6380 -0.6704
  466TMC3     O 6939   3.142   3.335  16.784 -0.0978  0.1476  0.4594
  466TMC3     H 6940   2.929   3.544  16.573 -1.4384 -1.4190 -1.4592
  466TMC3    H1 6941   3.205   3.224  16.569  0.7735  1.4724 -0.2731
  466TMC3    H2 6942   3.201   3.503  16.249  1.8152  0.3497  1.6641
  466TMC3    C7 6943   3.332   3.313  16.364  0.5223 -0.2206  0.4207
  466TMC3    C8 6944   3.072   3.674  16.376 -0.1736 -0.0923 -1.0334
  466TMC3    O1 6945   3.363   3.305  16.244  0.3760  0.3395  0.1695
  466TMC3    O2 6946   3.110   3.698  16.260  0.0518 -0.7058 -0.2037
  467TMC3    C1 6947   3.820   1.625  13.534  0.8419 -0.5520 -0.3333
  467TMC3    C2 6948   3.813   1.646  13.400 -0.3138 -0.0175 -0.6490
  467TMC3    C3 6949   3.721   1.731  13.344 -0.2496  0.0579  0.3581
  467TMC3    C4 6950   3.736   1.696  13.610  0.5623  0.2840 -0.2062
  467TMC3    C5 6951   3.649   1.783  13.551 -0.3217  0.0451 -0.2939
  467TMC3    C6 6952   3.648   1.810  13.417 -0.2549  0.1105  0.7389
  467TMC3     C 6953   3.925   1.542  13.583 -0.1109  0.7937  0.2874
  467TMC3     O 6954   4.022   1.527  13.513 -0.0805 -0.1088 -0.3871
  467TMC3     H 6955   3.875   1.580  13.341  0.5496 -0.1562  0.4141
  467TMC3    H1 6956   3.743   1.700  13.718  1.1587 -0.2139 -0.2250
  467TMC3    H2 6957   3.576   1.873  13.366 -0.0226  1.1376  1.6774
  467TMC3    C7 6958   3.517   1.795  13.605  0.0019 -0.1828 -0.1921
  467TMC3    C8 6959   3.730   1.739  13.196  0.2587 -0.2642 -0.0470
  467TMC3    O1 6960   3.453   1.893  13.564  0.4005 -0.0853 -0.4251
  467TMC3    O2 6961   3.696   1.849  13.144  0.1651  0.0897 -0.6768
  468MPD2     C 6962   2.686   4.033  11.207 -0.4690  0.9315  0.3615
  468MPD2    C1 6963   2.817   4.017  11.184 -0.6885 -0.8695  0.1164
  468MPD2    C2 6964   2.858   3.905  11.107  0.2619  0.2410  0.1527
  468MPD2    C3 6965   2.772   3.812  11.066 -0.2108 -0.0081 -0.2367
  468MPD2    C4 6966   2.640   3.832  11.096  0.3875 -0.2500 -0.8472
  468MPD2    C5 6967   2.596   3.942  11.161 -0.0040  0.3003 -0.8629
  468MPD2     H 6968   2.965   3.898  11.088  0.6865  2.2987  1.7030
  468MPD2    H1 6969   2.570   3.754  11.067 -0.3318 -0.0968  0.5116
  468MPD2    H2 6970   2.644   4.110  11.271  0.4529  1.3300  0.4896
  468MPD2    H3 6971   2.489   3.953  11.176  0.4002  2.1027  0.6228
  468MPD2     N 6972   2.812   3.690  11.004 -0.0545 -0.2613 -0.2557
  468MPD2    H5 6973   2.745   3.617  10.981 -2.3181  2.1599 -1.4260
  468MPD2    N1 6974   2.916   4.099  11.236  0.2522 -0.0302 -0.2553
  468MPD2    H7 6975   3.011   4.065  11.223  0.4381  0.2041  0.4743
  469TMC3    C1 6976   3.035   4.270  11.343 -0.6844 -0.5692 -0.4913
  469TMC3    C2 6977   3.115   4.198  11.428 -0.4918 -0.5450  0.4961
  469TMC3    C3 6978   3.232   4.264  11.469 -0.4345  0.1172  0.1589
  469TMC3    C4 6979   3.061   4.403  11.304 -0.2041 -0.3959 -0.3092
  469TMC3    C5 6980   3.175   4.462  11.349  0.6804  0.8914  0.4755
  469TMC3    C6 6981   3.266   4.392  11.425  0.3542  0.1421 -0.1145
  469TMC3     C 6982   2.907   4.226  11.284  0.2915 -0.3750 -0.5740
  469TMC3     O 6983   2.813   4.303  11.277 -0.0425 -0.3332 -0.1307
  469TMC3     H 6984   3.083   4.101  11.465  0.7285 -0.4914  1.6872
  469TMC3    H1 6985   2.995   4.440  11.226 -0.0693 -1.5256 -0.9676
  469TMC3    H2 6986   3.364   4.437  11.440  1.6365 -1.8900 -2.3828
  469TMC3    C7 6987   3.214   4.568  11.267 -0.5192  0.3749 -0.4202
  469TMC3    C8 6988   3.313   4.200  11.574 -0.2315 -0.1452 -0.6248
  469TMC3    O1 6989   3.151   4.593  11.168 -0.3546 -0.4004 -0.6015
  469TMC3    O2 6990   3.300   4.077  11.585  0.1158  0.1938  0.4470
  470TMC3    C1 6991   0.326   1.446   0.711 -0.7159  0.0739  1.1774
  470TMC3    C2 6992   0.237   1.548   0.705 -0.3878 -0.1268 -0.6315
  470TMC3    C3 6993   0.281   1.677   0.682 -0.4062 -0.4052 -0.7307
  470TMC3    C4 6994   0.463   1.466   0.690  0.1670  0.2790  0.1640
  470TMC3    C5 6995   0.507   1.591   0.669  0.8586 -0.0515 -0.0222
  470TMC3    C6 6996   0.417   1.693   0.655  0.5755 -0.0507  0.2934
  470TMC3     C 6997   0.271   1.315   0.748  1.2218  0.6911 -0.0674
  470TMC3     O 6998   0.152   1.296   0.739  0.1538 -0.3094  0.4989
  470TMC3     H 6999   0.137   1.537   0.745 -0.1722 -0.9041 -0.3019
  470TMC3    H1 7000   0.537   1.388   0.679  0.5398  0.8518 -1.4341
  470TMC3    H2 7001   0.453   1.796   0.661  0.0652  0.0862  1.0857
  470TMC3    C7 7002   0.645   1.627   0.656  0.1709 -0.2532 -0.4618
  470TMC3    C8 7003   0.226   1.779   0.773 -0.1213 -0.1919  0.4739
  470TMC3    O1 7004   0.676   1.734   0.607  0.1715  0.8407  0.3693
  470TMC3    O2 7005   0.300   1.860   0.831 -0.5120  0.3007 -0.5170
  471MPD2     C 7006   0.441   2.278  16.745  0.3651  0.0856 -0.3188
  471MPD2    C1 7007   0.543   2.195  16.716  0.9889  0.0804 -0.1527
  471MPD2    C2 7008   0.643   2.180  16.816 -0.2209 -0.0609 -0.0819
  471MPD2    C3 7009   0.643   2.252  16.936 -0.1917  0.6765 -1.4165
  471MPD2    C4 7010   0.539   2.336  16.961  0.2206  0.6536 -0.0431
  471MPD2    C5 7011   0.443   2.351  16.865  0.1318 -0.4446  0.2421
  471MPD2     H 7012   0.713   2.099  16.802  1.3785  1.3146 -0.0723
  471MPD2    H1 7013   0.528   2.391  17.053 -2.1408 -2.1205  1.3470
  471MPD2    H2 7014   0.359   2.289  16.675 -0.0588 -0.6234  0.0678
  471MPD2    H3 7015   0.364   2.420  16.891  1.6153  1.5101 -0.5116
  471MPD2     N 7016   0.735   2.224  17.041  0.1790 -0.7754 -0.5842
  471MPD2    H5 7017   0.721   2.271  17.129  1.8104 -0.1795 -0.6306
  471MPD2    N1 7018   0.553   2.108  16.600 -0.1424  0.5530  0.0336
  471MPD2    H7 7019   0.640   2.056  16.605  0.3938  1.2153 -2.2056
  472TMC3    C1 7020   0.506   1.988  16.407 -0.0250  0.3754  0.0581
  472TMC3    C2 7021   0.484   2.002  16.269  0.7624  0.4363 -0.7222
  472TMC3    C3 7022   0.537   1.908  16.185 -0.7840 -0.9533  0.2093
  472TMC3    C4 7023   0.591   1.890  16.453 -0.0109 -0.0733 -0.5466
  472TMC3    C5 7024   0.646   1.795  16.366 -0.8457 -0.7595  0.6728
  472TMC3    C6 7025   0.623   1.815  16.229 -0.1702  0.2730  0.1740
  472TMC3     C 7026   0.470   2.106  16.492  0.1351 -0.7202 -0.3642
  472TMC3     O 7027   0.372   2.174  16.462 -0.2479  0.4797 -0.2630
  472TMC3     H 7028   0.432   2.088  16.227  0.0903  1.8392  2.9606
  472TMC3    H1 7029   0.604   1.874  16.560  1.1819  2.3164 -0.3433
  472TMC3    H2 7030   0.663   1.746  16.155 -0.8059 -1.7883  1.7421
  472TMC3    C7 7031   0.652   1.659  16.422 -0.1982 -0.4751  0.6517
  472TMC3    C8 7032   0.429   1.858  16.105  0.4500 -0.1913 -0.4933
  472TMC3    O1 7033   0.609   1.648  16.535  0.2987  0.5648  0.4188
  472TMC3    O2 7034   0.358   1.940  16.046 -0.5068  0.0109 -0.5619
  473MPD2     C 7035   1.077   3.847  14.005 -0.1050  0.1530  0.1362
  473MPD2    C1 7036   1.068   3.968  13.939 -0.8800  0.6326  0.1977
  473MPD2    C2 7037   1.120   4.079  14.000 -0.0442 -0.0700 -0.3562
  473MPD2    C3 7038   1.184   4.070  14.123 -0.1941  0.2696  0.6031
  473MPD2    C4 7039   1.199   3.947  14.182  0.4374  0.2735  0.2835
  473MPD2    C5 7040   1.147   3.836  14.121  0.1090  0.1108 -0.0490
  473MPD2     H 7041   1.124   4.174  13.949 -2.8478 -1.0165 -2.3661
  473MPD2    H1 7042   1.248   3.928  14.277 -1.6076  1.2160  1.5118
  473MPD2    H2 7043   1.056   3.753  13.956 -1.2906  0.3808  0.1992
  473MPD2    H3 7044   1.171   3.744  14.173  1.1294 -0.5587 -1.7381
  473MPD2     N 7045   1.223   4.184  14.202 -0.4745 -0.3514  0.3515
  473MPD2    H5 7046   1.269   4.165  14.291 -0.6670  1.0821  0.7526
  473MPD2    N1 7047   1.008   3.986  13.814  0.1363 -0.5665  0.0233
  473MPD2    H7 7048   1.020   4.075  13.767  1.6572 -0.5543  0.4291
  474TMC3    C1 7049   1.189   4.384  14.298  0.5331 -0.2341  0.3567
  474TMC3    C2 7050   1.080   4.457  14.339  0.3206  1.3222 -0.2721
  474TMC3    C3 7051   1.085   4.527  14.458  0.9814 -0.0212  0.8954
  474TMC3    C4 7052   1.310   4.398  14.368 -0.1982 -0.8421 -0.1561
  474TMC3    C5 7053   1.318   4.472  14.484  0.5836 -0.0784  0.2645
  474TMC3    C6 7054   1.204   4.533  14.538 -0.1363 -0.2991  0.3654
  474TMC3     C 7055   1.181   4.312  14.175 -0.4185 -0.3322 -0.0271
  474TMC3     O 7056   1.126   4.361  14.076  0.0986 -0.0114 -0.4558
  474TMC3     H 7057   0.998   4.480  14.271 -1.6524  1.3041  2.0750
  474TMC3    H1 7058   1.403   4.361  14.326 -0.4500  0.1152 -1.5538
  474TMC3    H2 7059   1.211   4.601  14.622  4.6875 -2.0209  1.3241
  474TMC3    C7 7060   1.447   4.509  14.527 -0.3718 -0.2814  0.3544
  474TMC3    C8 7061   0.974   4.595  14.502 -0.4123  0.2795  0.0178
  474TMC3    O1 7062   1.544   4.526  14.445 -0.2658  0.3797  0.1505
  474TMC3    O2 7063   0.868   4.534  14.514 -0.1453 -0.2771  0.8763
  475MPD2     C 7064   3.956   2.093   9.940 -0.2204  0.2063  0.0519
  475MPD2    C1 7065   3.916   2.211   9.877  0.3958  0.5034  0.3664
  475MPD2    C2 7066   3.819   2.205   9.779 -0.6056  0.1478  0.4601
  475MPD2    C3 7067   3.765   2.084   9.738  0.0028 -0.0732  0.5093
  475MPD2    C4 7068   3.793   1.973   9.814 -0.9084 -0.1291  0.3963
  475MPD2    C5 7069   3.893   1.973   9.908 -0.8132  0.5190  0.1125
  475MPD2     H 7070   3.783   2.297   9.734 -1.2827  0.4319  1.6125
  475MPD2    H1 7071   3.742   1.880   9.794  0.1668 -0.4821 -0.7118
  475MPD2    H2 7072   4.036   2.099  10.013 -0.7076 -0.7434  0.6667
  475MPD2    H3 7073   3.928   1.880   9.952 -1.8386  0.2608  0.3774
  475MPD2     N 7074   3.667   2.084   9.631 -0.3688  0.5501 -0.0047
  475MPD2    H5 7075   3.664   2.167   9.572 -0.4732  0.4025 -0.2061
  475MPD2    N1 7076   3.978   2.332   9.917  0.7897  0.3166 -0.0510
  475MPD2    H7 7077   4.043   2.323   9.994  0.9597  0.3625 -0.1911
  476TMC3    C1 7078   4.054   2.556   9.884 -0.0452 -0.7412 -0.2602
  476TMC3    C2 7079   4.038   2.670   9.807  0.0894  0.2510  0.1294
  476TMC3    C3 7080   4.124   2.778   9.841 -0.0187 -0.0679 -0.2581
  476TMC3    C4 7081   4.160   2.539   9.964 -0.2758  0.2007 -0.2635
  476TMC3    C5 7082   4.247   2.643   9.981 -0.5092 -0.3118 -0.6141
  476TMC3    C6 7083   4.225   2.766   9.928  0.1426 -0.4416  0.1662
  476TMC3     C 7084   3.959   2.458   9.855 -0.7866 -0.0250  0.4110
  476TMC3     O 7085   3.895   2.489   9.756  0.1535 -0.2143  0.4784
  476TMC3     H 7086   3.951   2.699   9.750  1.5855  1.5371 -1.4807
  476TMC3    H1 7087   4.195   2.448  10.010  1.1513  1.3316  0.9023
  476TMC3    H2 7088   4.287   2.853   9.944 -1.4428  0.3325  2.0071
  476TMC3    C7 7089   4.339   2.624  10.090 -0.5230  0.2043 -0.2488
  476TMC3    C8 7090   4.142   2.868   9.737  0.1722 -0.8590 -0.4835
  476TMC3    O1 7091   4.384   2.516  10.123 -0.0516  0.4099 -0.0802
  476TMC3    O2 7092   4.206   2.975   9.753 -0.2266 -0.4181  0.1761
  477MPD2     C 7093   1.237   3.321  11.583  0.4163 -0.2697  0.4246
  477MPD2    C1 7094   1.262   3.431  11.656  0.0581 -0.3896  0.0575
  477MPD2    C2 7095   1.357   3.418  11.755  0.6358 -1.1021 -0.0919
  477MPD2    C3 7096   1.422   3.300  11.776  0.2459  0.0058 -0.2733
  477MPD2    C4 7097   1.389   3.192  11.700  0.3493  0.4991  0.0684
  477MPD2    C5 7098   1.289   3.198  11.609 -0.2826 -0.2427  1.0233
  477MPD2     H 7099   1.384   3.498  11.823 -1.3111 -0.6318  0.1079
  477MPD2    H1 7100   1.439   3.097  11.714 -0.9887 -0.3446 -0.7726
  477MPD2    H2 7101   1.186   3.333  11.488 -2.4908 -1.0459  1.8823
  477MPD2    H3 7102   1.261   3.117  11.543 -0.1744 -0.1792  0.8987
  477MPD2     N 7103   1.525   3.292  11.878  1.0332 -0.1911  0.1028
  477MPD2    H5 7104   1.534   3.381  11.927 -0.4478 -2.2173  4.0490
  477MPD2    N1 7105   1.199   3.554  11.618 -0.0126 -0.4682  0.3493
  477MPD2    H7 7106   1.153   3.556  11.527  0.0719 -1.7366  0.2666
  478TMC3    C1 7107   1.134   3.778  11.642  0.8357 -1.3158 -0.5596
  478TMC3    C2 7108   1.080   3.864  11.739 -0.2848  0.4145 -0.7348
  478TMC3    C3 7109   1.070   3.999  11.717  0.4388  0.6735  0.3308
  478TMC3    C4 7110   1.184   3.825  11.525 -0.5468  0.0134  0.0236
  478TMC3    C5 7111   1.164   3.958  11.501  0.3025  0.4784 -0.4824
  478TMC3    C6 7112   1.115   4.048  11.595 -0.2603  0.2410  0.2172
  478TMC3     C 7113   1.207   3.669  11.694  0.4054 -0.3299 -0.1160
  478TMC3     O 7114   1.240   3.675  11.811  0.3079  0.1576  0.4060
  478TMC3     H 7115   1.057   3.821  11.836  1.9474 -1.1068 -0.8825
  478TMC3    H1 7116   1.228   3.758  11.451 -0.9342 -0.1087 -0.0942
  478TMC3    H2 7117   1.119   4.151  11.562  0.5746 -0.5117 -1.9610
  478TMC3    C7 7118   1.189   4.012  11.366 -0.4561  0.1141 -0.1733
  478TMC3    C8 7119   1.053   4.094  11.826 -0.1140 -0.3050  0.1626
  478TMC3    O1 7120   1.264   3.954  11.285  0.1527  1.0731 -0.0848
  478TMC3    O2 7121   1.038   4.047  11.934 -0.3544  0.6685  0.1800
  479MPD2     C 7122   0.690   1.309  15.277 -0.0774 -0.0926  0.4279
  479MPD2    C1 7123   0.604   1.234  15.354 -0.5579 -0.0630 -0.2598
  479MPD2    C2 7124   0.632   1.212  15.491  0.4270 -0.2067 -0.4301
  479MPD2    C3 7125   0.745   1.265  15.546  0.3568  0.6983 -0.2654
  479MPD2    C4 7126   0.831   1.339  15.466  0.1266  0.3994 -0.1355
  479MPD2    C5 7127   0.803   1.356  15.336 -0.4349 -0.8697  0.2455
  479MPD2     H 7128   0.572   1.144  15.550 -1.2269  1.4030 -0.2767
  479MPD2    H1 7129   0.923   1.376  15.508 -0.0205  0.0905  0.4632
  479MPD2    H2 7130   0.666   1.326  15.173 -0.3228  1.0878  0.6714
  479MPD2    H3 7131   0.876   1.405  15.273 -0.8876  1.0672  1.2261
  479MPD2     N 7132   0.770   1.277  15.686 -0.0545 -0.1346  0.3144
  479MPD2    H5 7133   0.866   1.309  15.697 -0.2184 -0.3687  2.2750
  479MPD2    N1 7134   0.479   1.203  15.293  0.4004 -0.2573  0.1076
  479MPD2    H7 7135   0.468   1.220  15.194 -0.1249  1.1591  0.4120
  480TMC3    C1 7136   0.369   1.121  15.891  0.0932  0.0567 -0.9395
  480TMC3    C2 7137   0.278   1.199  15.828 -0.5115  0.2372  0.1830
  480TMC3    C3 7138   0.328   1.297  15.743  0.2562  0.8059 -0.3778
  480TMC3    C4 7139   0.501   1.127  15.859 -0.2453 -0.1215  0.1355
  480TMC3    C5 7140   0.546   1.225  15.773  0.0747  0.2300  0.6789
  480TMC3    C6 7141   0.462   1.320  15.714 -0.1639 -0.1094 -0.0677
  480TMC3     C 7142   0.333   1.021  15.986  0.1489 -0.0432 -0.0765
  480TMC3     O 7143   0.422   0.986  16.067  0.1703 -0.5919  0.5135
  480TMC3     H 7144   0.173   1.192  15.856 -1.2476  1.7839 -2.1256
  480TMC3    H1 7145   0.584   1.083  15.913  0.3617  1.6573  0.6450
  480TMC3    H2 7146   0.509   1.405  15.666  1.4242 -1.5331 -1.0436
  480TMC3    C7 7147   0.686   1.264  15.789 -0.5274 -0.7896  0.3183
  480TMC3    C8 7148   0.230   1.351  15.649 -0.5271 -0.5077  0.4140
  480TMC3    O1 7149   0.714   1.289  15.904 -0.6045  0.4353 -0.4264
  480TMC3    O2 7150   0.117   1.306  15.670  0.2843  0.2426 -0.0820
  481MPD2     C 7151   2.660   0.981  14.707 -0.4947 -0.3416 -0.4151
  481MPD2    C1 7152   2.524   0.940  14.707  0.0067  1.0617 -0.0285
  481MPD2    C2 7153   2.461   0.905  14.821  0.1999  0.1023 -0.4775
  481MPD2    C3 7154   2.534   0.892  14.935 -0.1976  0.5231 -0.4541
  481MPD2    C4 7155   2.670   0.921  14.933 -0.2245  0.3890  0.6317
  481MPD2    C5 7156   2.726   0.972  14.822  0.1158  0.4121 -0.4314
  481MPD2     H 7157   2.360   0.865  14.821  0.0465  0.4879  0.6880
  481MPD2    H1 7158   2.719   0.929  15.030 -0.2082 -2.3263  0.8515
  481MPD2    H2 7159   2.710   1.018  14.619 -0.3663 -0.3666 -0.3521
  481MPD2    H3 7160   2.829   1.007  14.818  0.1895  0.3987  1.2219
  481MPD2     N 7161   2.471   0.848  15.055  0.3929  0.0903  0.0836
  481MPD2    H5 7162   2.533   0.832  15.134 -2.0487 -1.2035  1.7484
  481MPD2    N1 7163   2.466   0.936  14.582  0.4523 -0.2203 -0.4195
  481MPD2    H7 7164   2.543   0.922  14.517  0.3761 -1.1348 -0.3129
  482TMC3    C1 7165   2.320   0.880  14.416  0.2555  0.7715 -0.1876
  482TMC3    C2 7166   2.391   0.779  14.355 -0.2851  0.3394  0.8093
  482TMC3    C3 7167   2.383   0.778  14.222 -0.5690  0.1829 -0.3907
  482TMC3    C4 7168   2.245   0.969  14.342 -0.1727  0.0750  1.1340
  482TMC3    C5 7169   2.243   0.962  14.203 -0.0830  0.4960  0.0779
  482TMC3    C6 7170   2.311   0.858  14.139 -0.6940 -1.1593 -0.2858
  482TMC3     C 7171   2.336   0.920  14.552  0.1529 -0.7336 -0.2348
  482TMC3     O 7172   2.231   0.927  14.620  0.2025  0.2458  0.0187
  482TMC3     H 7173   2.438   0.703  14.417 -1.5412  0.2097  1.5915
  482TMC3    H1 7174   2.210   1.059  14.392 -0.7389 -0.2203  1.2580
  482TMC3    H2 7175   2.292   0.821  14.039 -0.8856 -2.4981  0.2580
  482TMC3    C7 7176   2.186   1.074  14.129  0.1997  0.0131 -0.6453
  482TMC3    C8 7177   2.400   0.653  14.163 -0.0661 -0.3736  0.6171
  482TMC3    O1 7178   2.145   1.164  14.202  0.0119 -0.0105 -0.3884
  482TMC3    O2 7179   2.364   0.558  14.229 -0.0748 -0.3160 -0.4760
  483TMC3    C1 7180   0.810   0.701   1.654 -1.0608 -0.1163 -0.3199
  483TMC3    C2 7181   0.903   0.775   1.587  0.9213  0.6888 -0.5084
  483TMC3    C3 7182   1.010   0.710   1.521  0.3690 -0.4439  0.5865
  483TMC3    C4 7183   0.848   0.573   1.695 -0.5477  0.9759  0.5159
  483TMC3    C5 7184   0.953   0.505   1.643  0.0024  0.0347 -0.3485
  483TMC3    C6 7185   1.036   0.578   1.554  0.0243  0.0547 -0.3258
  483TMC3     C 7186   0.685   0.718   1.581 -0.6903 -0.5474  0.1276
  483TMC3     O 7187   0.654   0.833   1.554  0.0704  0.0895  0.3396
  483TMC3     H 7188   0.886   0.879   1.561 -0.3779 -0.1164 -2.8509
  483TMC3    H1 7189   0.771   0.522   1.750 -2.1919  1.1420 -1.6278
  483TMC3    H2 7190   1.125   0.532   1.512 -0.3891 -0.8702 -0.1811
  483TMC3    C7 7191   0.967   0.364   1.645 -0.3319  0.2067 -0.5645
  483TMC3    C8 7192   1.022   0.750   1.381 -0.2991 -0.3387 -1.1413
  483TMC3    O1 7193   1.006   0.302   1.547 -0.3533  0.0086  0.1673
  483TMC3    O2 7194   0.931   0.816   1.340 -0.1595  0.1779  0.1029
  484MPD2     C 7195   3.048   2.050  12.648 -0.0497  0.2423  0.4705
  484MPD2    C1 7196   2.968   2.155  12.620  0.4152  0.3686  0.2853
  484MPD2    C2 7197   3.020   2.244  12.528 -0.3838 -0.0507  0.6816
  484MPD2    C3 7198   3.142   2.233  12.463  0.0963  0.3070  0.0179
  484MPD2    C4 7199   3.220   2.124  12.498 -0.4782  0.5643  0.2117
  484MPD2    C5 7200   3.172   2.034  12.587  0.3616 -0.0539  0.7465
  484MPD2     H 7201   2.976   2.342  12.512  0.1461  0.5866  3.0240
  484MPD2    H1 7202   3.313   2.109  12.444 -1.4975 -2.5409 -0.6737
  484MPD2    H2 7203   3.015   1.979  12.723 -2.0959  2.3276  1.5382
  484MPD2    H3 7204   3.241   1.954  12.611 -1.8264 -2.0765  0.2482
  484MPD2     N 7205   3.206   2.336  12.392 -0.4809 -0.6796  0.5214
  484MPD2    H5 7206   3.300   2.316  12.360 -0.7188  1.6273 -1.6107
  484MPD2    N1 7207   2.839   2.161  12.684 -0.2437  0.2505  0.0771
  484MPD2    H7 7208   2.826   2.093  12.758 -0.8372 -0.6875 -0.8774
  485TMC3    C1 7209   3.257   2.536  12.277  0.2517  0.0019  0.4075
  485TMC3    C2 7210   3.389   2.499  12.281 -0.4766  0.0895  0.4958
  485TMC3    C3 7211   3.487   2.588  12.240 -0.2801 -0.2826  0.3602
  485TMC3    C4 7212   3.222   2.664  12.232  1.0345 -0.1017  0.1663
  485TMC3    C5 7213   3.320   2.745  12.179  1.1205 -0.2652  0.1476
  485TMC3    C6 7214   3.450   2.714  12.199 -0.0556 -0.2059  0.0355
  485TMC3     C 7215   3.157   2.457  12.346  0.5439  0.0107 -0.9457
  485TMC3     O 7216   3.045   2.511  12.370  0.2325 -0.1962  0.2880
  485TMC3     H 7217   3.413   2.407  12.334 -1.0730 -1.1886 -1.4412
  485TMC3    H1 7218   3.117   2.692  12.228  1.4107  1.7332  2.8048
  485TMC3    H2 7219   3.526   2.777  12.156 -0.1740  0.5141  0.8841
  485TMC3    C7 7220   3.287   2.790  12.045 -0.0765 -0.3289 -0.3361
  485TMC3    C8 7221   3.582   2.531  12.153  0.1491 -0.7589 -0.1162
  485TMC3    O1 7222   3.171   2.827  12.027 -0.0534  0.3926  1.1267
  485TMC3    O2 7223   3.622   2.597  12.056 -0.1771  0.4471  0.1685
  486MPD2     C 7224   4.631   1.397  12.852  0.3339  0.7629  0.4681
  486MPD2    C1 7225   4.623   1.402  12.716 -0.5240 -0.1966 -0.0912
  486MPD2    C2 7226   4.625   1.526  12.653  0.0209 -0.3538 -0.1556
  486MPD2    C3 7227   4.653   1.635  12.728  0.2207 -0.1788 -0.4216
  486MPD2    C4 7228   4.650   1.631  12.869  0.2387 -0.4696  0.0676
  486MPD2    C5 7229   4.639   1.510  12.925 -0.0234  0.4105  0.1306
  486MPD2     H 7230   4.627   1.524  12.545  1.8516 -0.6784 -0.1187
  486MPD2    H1 7231   4.658   1.715  12.936 -0.3080 -2.8323  3.1030
  486MPD2    H2 7232   4.633   1.302  12.903 -1.9291  0.0807 -0.7289
  486MPD2    H3 7233   4.645   1.496  13.032  2.7275 -0.9912 -0.1966
  486MPD2     N 7234   4.679   1.747  12.646 -0.2877 -0.1719  1.3542
  486MPD2    H5 7235   4.680   1.733  12.546  1.7350  0.9135  1.2187
  486MPD2    N1 7236   4.628   1.279  12.651  0.4485  0.8835  0.4576
  486MPD2    H7 7237   4.638   1.196  12.708  0.2094 -0.5957 -1.6653
  487TMC3    C1 7238   4.614   1.122  12.477 -0.1612 -0.1104 -0.3555
  487TMC3    C2 7239   4.502   1.065  12.440 -0.7499 -0.2482 -0.1200
  487TMC3    C3 7240   4.490   0.927  12.435 -0.3616  0.3279  0.5100
  487TMC3    C4 7241   4.717   1.042  12.516 -0.2626 -0.1240 -0.7389
  487TMC3    C5 7242   4.699   0.912  12.515  0.2532  0.1273 -0.0764
  487TMC3    C6 7243   4.602   0.852  12.451  0.1215 -0.7445 -0.3490
  487TMC3     C 7244   4.600   1.258  12.521 -0.1950 -0.3653 -0.6590
  487TMC3     O 7245   4.556   1.333  12.438  0.3186 -0.1833 -0.3871
  487TMC3     H 7246   4.411   1.125  12.438  0.6186  1.8720  2.4048
  487TMC3    H1 7247   0.066   1.089  12.582 -1.1173 -0.6075  0.5324
  487TMC3    H2 7248   4.585   0.745  12.452  0.8778 -0.8534  0.4351
  487TMC3    C7 7249   4.714   0.856  12.645 -0.0584  0.0050  0.5673
  487TMC3    C8 7250   4.361   0.856  12.434 -0.1245  0.1514  0.3478
  487TMC3    O1 7251   0.060   0.919  12.726  0.1762 -0.0497  0.2734
  487TMC3    O2 7252   4.368   0.752  12.371  0.2003  0.4398 -0.1252
  488MPD2     C 7253   0.185   3.349  16.577  0.5410  0.8426 -0.3930
  488MPD2    C1 7254   0.246   3.467  16.604  0.2502  0.7766 -0.5267
  488MPD2    C2 7255   0.236   3.519  16.732  0.4080 -0.0855 -0.8985
  488MPD2    C3 7256   0.161   3.459  16.829 -0.4773 -0.2576 -1.5193
  488MPD2    C4 7257   0.102   3.338  16.801  0.6821 -0.4951 -0.3694
  488MPD2    C5 7258   0.118   3.284  16.672 -0.0927 -0.2407 -0.7994
  488MPD2     H 7259   0.278   3.610  16.773  1.0426 -0.4618 -0.7109
  488MPD2    H1 7260   0.040   3.285  16.872 -0.5329  1.7684  0.2178
  488MPD2    H2 7261   0.195   3.305  16.479  0.9719  0.1886 -0.0542
  488MPD2    H3 7262   0.077   3.189  16.642 -0.9685 -0.4898  1.2080
  488MPD2     N 7263   0.151   3.527  16.954  0.1071 -0.3759  0.7028
  488MPD2    H5 7264   0.186   3.623  16.960  0.4947 -0.3141 -2.6662
  488MPD2    N1 7265   0.317   3.538  16.506 -0.2033 -0.1193 -0.1867
  488MPD2    H7 7266   0.345   3.631  16.536 -1.1448 -0.3685  1.4663
  489TMC3    C1 7267   0.138   3.548  17.185  0.7987 -0.1690  0.0784
  489TMC3    C2 7268   0.252   3.615  17.178  0.4228  0.2001  0.1056
  489TMC3    C3 7269   0.297   3.675  17.286  0.5943 -0.2032 -0.7510
  489TMC3    C4 7270   0.071   3.528  17.302 -0.4223 -0.5170 -0.4195
  489TMC3    C5 7271   0.126   3.577  17.419  0.4960  0.2376  0.2141
  489TMC3    C6 7272   0.237   3.663  17.411  0.3841  0.1280 -0.1774
  489TMC3     C 7273   0.087   3.479  17.064  0.4707 -0.1118 -0.2843
  489TMC3     O 7274   0.018   3.377  17.082  0.4768  0.2342 -0.1667
  489TMC3     H 7275   0.317   3.613  17.091 -1.4855  0.4147 -1.3330
  489TMC3    H1 7276   4.705   3.466  17.294 -0.0141 -0.8830 -2.1212
  489TMC3    H2 7277   0.277   3.712  17.499  1.4041 -1.2307  0.0984
  489TMC3    C7 7278   0.113   3.504  17.544 -0.9433  0.2732 -0.0590
  489TMC3    C8 7279   0.402   3.772  17.271  0.8994 -0.7140  0.3135
  489TMC3    O1 7280   0.159   3.560  17.643 -0.3605 -0.1119  0.0670
  489TMC3    O2 7281   0.498   3.752  17.199  0.1951  0.2818  0.2621
  490MPD2     C 7282   0.903   3.530  17.631  1.0032 -0.2143 -0.3679
  490MPD2    C1 7283   0.958   3.437  17.544  0.2593  0.5553 -0.9013
  490MPD2    C2 7284   1.078   3.457  17.477 -0.3525  0.1052 -0.1148
  490MPD2    C3 7285   1.145   3.576  17.503  0.2701 -0.0491  0.8051
  490MPD2    C4 7286   1.081   3.670  17.574 -0.0291  0.7156 -0.0357
  490MPD2    C5 7287   0.963   3.651  17.640  0.1314 -0.4765  0.9200
  490MPD2     H 7288   1.112   3.378  17.412 -0.8301 -0.9164  0.8744
  490MPD2    H1 7289   1.121   3.771  17.582 -0.5696  0.7932  1.8108
  490MPD2    H2 7290   0.808   3.521  17.684 -0.8336  5.5881 -2.6158
  490MPD2    H3 7291   0.919   3.730   0.008  0.5964  0.2490  0.3143
  490MPD2     N 7292   1.281   3.603  17.474  0.3145 -0.0880  0.7079
  490MPD2    H5 7293   1.321   3.693  17.495  2.7942 -1.0598  0.1209
  490MPD2    N1 7294   0.890   3.315  17.525  0.3796  0.0619  0.0244
  490MPD2    H7 7295   0.923   3.256  17.450 -1.4884  0.1454 -0.8435
  491TMC3    C1 7296   0.773   3.127  17.574 -0.0057  0.7715 -0.4871
  491TMC3    C2 7297   0.800   3.051  17.682 -0.1878 -0.3022 -0.4003
  491TMC3    C3 7298   0.776   2.919  17.676 -0.1423 -0.0136  1.1698
  491TMC3    C4 7299   0.711   3.082  17.461  0.2602  0.8419 -0.2510
  491TMC3    C5 7300   0.683   2.941  17.464 -0.6625  0.2427 -0.1434
  491TMC3    C6 7301   0.700   2.869  17.577  0.5809 -0.3151  0.6722
  491TMC3     C 7302   0.795   3.262  17.611 -0.1799  1.5140 -0.5098
  491TMC3     O 7303   0.768   3.288   0.038 -0.0848  0.1740 -0.4791
  491TMC3     H 7304   0.859   3.096   0.069  0.8344 -1.5671 -0.4495
  491TMC3    H1 7305   0.699   3.140  17.371 -0.9057  2.4786  0.9614
  491TMC3    H2 7306   0.665   2.769  17.600 -1.1179 -0.4043 -2.2956
  491TMC3    C7 7307   0.564   2.895  17.397 -0.4814  0.6506  0.6298
  491TMC3    C8 7308   0.794   2.847   0.108 -0.1157  0.0715 -0.1316
  491TMC3    O1 7309   0.489   2.827  17.462 -0.0621  0.5066 -0.2894
  491TMC3    O2 7310   0.807   2.916   0.208  0.3416 -0.1919 -0.0982
  492MPD2     C 7311   1.431   2.274  11.229 -0.6645 -0.4115 -0.9128
  492MPD2    C1 7312   1.323   2.267  11.143  0.0883  0.7383 -0.5027
  492MPD2    C2 7313   1.196   2.259  11.196 -0.2645  0.2121 -0.1905
  492MPD2    C3 7314   1.187   2.251  11.338  0.2183  0.0745 -0.1345
  492MPD2    C4 7315   1.302   2.253  11.421  0.3502 -0.3617  0.2274
  492MPD2    C5 7316   1.421   2.264  11.362  0.8585 -0.1506 -0.4224
  492MPD2     H 7317   1.110   2.260  11.130 -1.3717 -1.8146  1.2392
  492MPD2    H1 7318   1.293   2.263  11.529  0.8085 -1.3077  0.3610
  492MPD2    H2 7319   1.523   2.300  11.177  0.7640  0.3103  1.9955
  492MPD2    H3 7320   1.511   2.268  11.423 -0.0295 -0.3579  0.8827
  492MPD2     N 7321   1.061   2.254  11.408 -0.0960 -0.0128  0.5175
  492MPD2    H5 7322   1.073   2.246  11.509 -0.5511 -1.2737  0.4819
  492MPD2    N1 7323   1.355   2.289  11.004 -0.0672  0.3962 -0.1815
  492MPD2    H7 7324   1.453   2.309  10.984  0.6711 -1.9445  1.1200
  493TMC3    C1 7325   1.326   2.343  10.777 -0.3381 -0.0316  0.3292
  493TMC3    C2 7326   1.437   2.429  10.777 -0.3527  0.1745  0.1017
  493TMC3    C3 7327   1.474   2.476  10.654 -0.7891  0.4366  0.3128
  493TMC3    C4 7328   1.276   2.290  10.665 -0.0878 -0.1064  0.4681
  493TMC3    C5 7329   1.312   2.345  10.546  0.5927  0.1590  0.0338
  493TMC3    C6 7330   1.406   2.444  10.536 -0.1220  0.4153 -0.1907
  493TMC3     C 7331   1.266   2.294  10.900 -0.6606  0.4617  0.2598
  493TMC3     O 7332   1.147   2.257  10.888 -0.6539 -0.4062  0.2453
  493TMC3     H 7333   1.480   2.467  10.869 -0.9601  2.8162 -0.7026
  493TMC3    H1 7334   1.211   2.204  10.677 -1.3242  0.6598 -0.7606
  493TMC3    H2 7335   1.443   2.481  10.441 -0.4733  0.6513 -0.2368
  493TMC3    C7 7336   1.222   2.329  10.436  0.5168  0.9151 -0.2440
  493TMC3    C8 7337   1.596   2.558  10.654 -0.3559  0.0254 -1.0450
  493TMC3    O1 7338   1.115   2.275  10.459  0.8035  0.0842  0.0219
  493TMC3    O2 7339   1.664   2.554  10.755  0.4052 -0.1471 -0.3148
  494TMC3    C1 7340   2.063   4.456   0.488  0.5870  0.6159 -0.5414
  494TMC3    C2 7341   2.069   4.330   0.544 -0.5277  0.6024 -0.1956
  494TMC3    C3 7342   2.173   4.248   0.498 -0.6022 -0.8735  0.1416
  494TMC3    C4 7343   2.152   4.503   0.394  0.5031 -0.2225 -0.0989
  494TMC3    C5 7344   2.250   4.417   0.348  0.1283 -0.1096 -0.0271
  494TMC3    C6 7345   2.266   4.291   0.403 -0.7583 -0.1690 -0.4294
  494TMC3     C 7346   1.944   4.534   0.508 -0.4273  0.8400 -0.5255
  494TMC3     O 7347   1.847   4.467   0.554 -0.3579 -0.7010  0.6387
  494TMC3     H 7348   1.993   4.294   0.613  0.3161 -2.6478 -0.9334
  494TMC3    H1 7349   2.137   4.599   0.345  0.1250 -0.5782 -0.6812
  494TMC3    H2 7350   2.352   4.231   0.377 -1.9299 -2.2692  0.5621
  494TMC3    C7 7351   2.331   4.448   0.228  0.2375 -0.6435  0.2898
  494TMC3    C8 7352   2.201   4.135   0.589  0.1508 -1.0421  0.5060
  494TMC3    O1 7353   2.382   4.353   0.173  0.2976 -0.3483  0.2183
  494TMC3    O2 7354   2.155   4.149   0.699 -0.2173  0.2100  0.0728
  495TMC3    C1 7355   0.516   1.362  14.790  0.8723  1.1389  0.5775
  495TMC3    C2 7356   0.422   1.391  14.694  0.0132  0.0481 -0.4724
  495TMC3    C3 7357   0.338   1.496  14.717 -0.3593 -0.5193 -0.9289
  495TMC3    C4 7358   0.533   1.438  14.900 -0.5397  0.0984  1.1595
  495TMC3    C5 7359   0.451   1.547  14.916 -0.4016  0.4094 -0.1985
  495TMC3    C6 7360   0.357   1.586  14.821 -0.1106 -0.6628 -0.3186
  495TMC3     C 7361   0.604   1.248  14.777  0.1523  0.1628  0.7208
  495TMC3     O 7362   0.707   1.246  14.843 -0.1164 -0.2327 -0.5032
  495TMC3     H 7363   0.428   1.341  14.598 -1.6384  2.0245 -1.5870
  495TMC3    H1 7364   0.603   1.399  14.974  0.3754 -0.4913 -0.0250
  495TMC3    H2 7365   0.293   1.670  14.845  0.1775 -0.5626  0.0916
  495TMC3    C7 7366   0.420   1.569  15.057 -0.3110  0.3093 -0.5445
  495TMC3    C8 7367   0.248   1.531  14.612  0.3059 -0.2380  0.0796
  495TMC3    O1 7368   0.512   1.541  15.135 -0.0557  0.6722  0.3289
  495TMC3    O2 7369   0.240   1.652  14.588 -0.4082  0.9822 -0.3610
  496MPD2     C 7370   2.043   1.819  15.052 -0.0394 -0.1793 -0.5724
  496MPD2    C1 7371   2.161   1.762  15.008 -0.5012  0.7319 -0.7971
  496MPD2    C2 7372   2.218   1.664  15.089 -0.0103  0.6566 -0.0073
  496MPD2    C3 7373   2.155   1.612  15.202 -0.4797  0.2269  0.3302
  496MPD2    C4 7374   2.031   1.662  15.238  0.6348  0.5684  0.7411
  496MPD2    C5 7375   1.979   1.770  15.167 -0.3033 -0.1096  0.6296
  496MPD2     H 7376   2.309   1.622  15.048 -0.0694 -0.2575  0.8154
  496MPD2    H1 7377   1.987   1.623  15.329 -0.9253  0.3208 -0.1200
  496MPD2    H2 7378   1.999   1.907  15.005  1.0811  0.4585 -0.4462
  496MPD2    H3 7379   1.889   1.824  15.191 -2.0542 -1.7015 -2.3335
  496MPD2     N 7380   2.219   1.521  15.294  0.0660  0.2368  0.1853
  496MPD2    H5 7381   2.162   1.488  15.371  1.6803 -0.6234  1.0059
  496MPD2    N1 7382   2.216   1.811  14.889  0.1375  0.0116 -0.2188
  496MPD2    H7 7383   2.148   1.860  14.831  0.5710 -1.3828 -1.9183
  497TMC3    C1 7384   2.412   1.420  15.396 -0.0131  0.4737  0.1556
  497TMC3    C2 7385   2.540   1.378  15.389  0.4803 -0.6083 -0.2165
  497TMC3    C3 7386   2.615   1.353  15.501  0.1903  0.1141 -0.3612
  497TMC3    C4 7387   2.354   1.420  15.517 -0.2681 -0.1072  0.3018
  497TMC3    C5 7388   2.431   1.401  15.628 -0.7767  1.0285 -0.2585
  497TMC3    C6 7389   2.564   1.367  15.624 -0.3811 -0.4264 -0.1282
  497TMC3     C 7390   2.354   1.492  15.285 -0.8708  0.2001  0.7240
  497TMC3     O 7391   2.435   1.521  15.194 -0.3443 -0.3980  0.8057
  497TMC3     H 7392   2.586   1.350  15.294 -0.5088  1.4660 -1.2932
  497TMC3    H1 7393   2.256   1.465  15.528 -1.3302 -1.8163 -2.1194
  497TMC3    H2 7394   2.623   1.336  15.710  1.1868  1.2341 -0.6098
  497TMC3    C7 7395   2.366   1.407  15.759 -0.6512  0.4135  0.3748
  497TMC3    C8 7396   2.687   1.229  15.485 -0.0227  0.9429  0.3324
  497TMC3    O1 7397   2.246   1.428  15.765  0.0891 -0.0212 -0.0228
  497TMC3    O2 7398   2.645   1.154  15.399  0.8182  0.4275 -0.3407
  498MPD2     C 7399   3.961   1.437   9.020 -0.3220 -0.2260 -0.3538
  498MPD2    C1 7400   3.851   1.514   9.053  0.8252 -0.1366  0.8447
  498MPD2    C2 7401   3.761   1.464   9.149  0.0180 -0.4172  0.1441
  498MPD2    C3 7402   3.772   1.344   9.209 -0.7855  0.3564 -0.2285
  498MPD2    C4 7403   3.876   1.262   9.168  0.4710  0.0110 -0.1063
  498MPD2    C5 7404   3.968   1.309   9.078 -0.1460 -0.9489  0.0812
  498MPD2     H 7405   3.679   1.527   9.182 -0.0284 -0.5066  0.1979
  498MPD2    H1 7406   3.874   1.159   9.202 -1.6074  0.1492  0.1599
  498MPD2    H2 7407   4.040   1.463   8.950 -0.4741  1.7163  0.2093
  498MPD2    H3 7408   4.053   1.246   9.053 -0.3169  0.0123 -2.8565
  498MPD2     N 7409   3.669   1.298   9.287 -0.2795 -0.6294  0.3060
  498MPD2    H5 7410   3.600   1.369   9.311  1.0170  0.9237 -0.6265
  498MPD2    N1 7411   3.826   1.641   8.997  0.7789 -0.1537  0.4488
  498MPD2    H7 7412   3.753   1.702   9.033  1.2944  1.8964 -1.9663
  499TMC3    C1 7413   3.842   1.810   8.833 -0.6812  0.4489 -0.4032
  499TMC3    C2 7414   3.825   1.836   8.704  1.1972 -0.1248 -1.0643
  499TMC3    C3 7415   3.761   1.951   8.681 -0.2160  0.1230  0.7759
  499TMC3    C4 7416   3.807   1.896   8.936  0.0408  0.1992 -0.3128
  499TMC3    C5 7417   3.750   2.015   8.901  0.5836  0.2043 -0.2678
  499TMC3    C6 7418   3.717   2.042   8.776 -0.0855 -0.2521 -0.1142
  499TMC3     C 7419   3.885   1.679   8.875  0.2859  0.6101  0.3182
  499TMC3     O 7420   3.939   1.612   8.793  0.6417 -0.2505 -0.2820
  499TMC3     H 7421   3.846   1.762   8.627  0.2309 -1.8180  0.3032
  499TMC3    H1 7422   3.832   1.876   9.040  2.3065  2.1138 -0.4889
  499TMC3    H2 7423   3.685   2.143   8.754 -2.3363 -1.2219 -1.2439
  499TMC3    C7 7424   3.721   2.125   8.998  0.2661 -0.0522  0.2724
  499TMC3    C8 7425   3.792   2.007   8.547  0.3260  0.4939  0.0700
  499TMC3    O1 7426   3.649   2.215   8.965 -0.1754  0.0220 -0.0154
  499TMC3    O2 7427   3.868   1.937   8.483 -0.1064 -0.1477 -0.0028
  500MPD2     C 7428   0.242   3.229  10.275 -0.4668  0.2313 -0.0241
  500MPD2    C1 7429   0.246   3.347  10.201  0.0354 -0.3873 -0.5694
  500MPD2    C2 7430   0.147   3.373  10.104 -0.0636  0.7848 -0.7384
  500MPD2    C3 7431   0.034   3.290  10.095 -0.7512 -0.6008 -0.6942
  500MPD2    C4 7432   0.023   3.181  10.191 -0.1768 -1.0128  0.1807
  500MPD2    C5 7433   0.131   3.154  10.276 -0.3890  0.0640  0.1092
  500MPD2     H 7434   0.161   3.459  10.040  0.5734  1.8371  0.8236
  500MPD2    H1 7435   4.659   3.115  10.186 -1.5853  0.7325  1.6354
  500MPD2    H2 7436   0.319   3.197  10.344 -0.5742  1.5203  0.7040
  500MPD2    H3 7437   0.119   3.071  10.345 -0.3294 -0.7498 -0.8551
  500MPD2     N 7438   4.645   3.310  10.011 -0.1981 -0.3310  0.3000
  500MPD2    H5 7439   4.563   3.260  10.042 -0.5237  0.7459  1.1861
  500MPD2    N1 7440   0.356   3.430  10.219  0.1989 -0.4675 -1.4232
  500MPD2    H7 7441   0.377   3.503  10.151  1.4429  1.5567  1.1244
  501TMC3    C1 7442   0.545   3.530  10.326 -0.5378  0.3436 -0.6558
  501TMC3    C2 7443   0.534   3.637  10.244 -0.0069 -0.5638  0.3341
  501TMC3    C3 7444   0.636   3.724  10.249 -0.4419  0.3418 -0.4720
  501TMC3    C4 7445   0.653   3.509  10.409  0.8191  0.0530 -0.2949
  501TMC3    C5 7446   0.749   3.607  10.417  0.2110 -0.5115 -0.2270
  501TMC3    C6 7447   0.741   3.717  10.337 -0.5449  0.3670  0.5096
  501TMC3     C 7448   0.439   3.433  10.329  0.3238 -0.0264 -0.7075
  501TMC3     O 7449   0.432   3.369  10.433 -0.1940  0.3370 -0.0878
  501TMC3     H 7450   0.442   3.655  10.190  0.6832  1.3704 -0.1606
  501TMC3    H1 7451   0.679   3.414  10.454 -1.0767 -0.5386 -0.4929
  501TMC3    H2 7452   0.829   3.780  10.326  0.8760 -1.0563  3.6431
  501TMC3    C7 7453   0.877   3.569  10.478 -0.1189 -0.2173  0.0644
  501TMC3    C8 7454   0.612   3.861  10.209 -0.3821  0.5313  0.1868
  501TMC3    O1 7455   0.885   3.459  10.539 -0.3418 -0.2525  0.6150
  501TMC3    O2 7456   0.537   3.872  10.110 -0.5390 -0.4337 -0.0316
  502TMC3    C1 7457   4.596   2.368  15.347  0.6100  0.5075  0.1020
  502TMC3    C2 7458   4.597   2.473  15.255 -0.0986  0.1319  0.1871
  502TMC3    C3 7459   4.496   2.562  15.249  0.0323  0.0222 -0.5079
  502TMC3    C4 7460   4.487   2.360  15.435 -0.1778 -0.7211  0.0007
  502TMC3    C5 7461   4.389   2.452  15.417 -0.4633 -0.2445  0.7644
  502TMC3    C6 7462   4.386   2.551  15.322  0.2639  0.8558 -0.1621
  502TMC3     C 7463   4.718   2.294  15.382  0.5403 -0.3108  0.1797
  502TMC3     O 7464   0.091   2.294  15.304  0.2930 -0.5418  0.2469
  502TMC3     H 7465   4.677   2.479  15.182  0.5941 -0.1011  0.9179
  502TMC3    H1 7466   4.473   2.276  15.502 -0.3221 -0.9390 -0.3037
  502TMC3    H2 7467   4.307   2.622  15.299 -1.9294 -1.0635  1.3518
  502TMC3    C7 7468   4.284   2.434  15.520  0.2685 -0.1100  0.2792
  502TMC3    C8 7469   4.516   2.665  15.148 -0.2592 -0.1040 -0.0118
  502TMC3    O1 7470   4.322   2.387  15.632 -0.1786  0.0468  0.2416
  502TMC3    O2 7471   4.601   2.649  15.063  0.4128 -0.5536  0.9657
  503MPD2     C 7472   2.171   3.336  16.750 -0.1452  0.7530 -0.4522
  503MPD2    C1 7473   2.189   3.314  16.888 -0.4000  0.8065 -0.3042
  503MPD2    C2 7474   2.205   3.184  16.935 -0.2224 -0.1008  0.6607
  503MPD2    C3 7475   2.180   3.080  16.849 -0.3779 -0.0590 -0.0400
  503MPD2    C4 7476   2.157   3.099  16.714 -0.0191 -0.4781  0.4615
  503MPD2    C5 7477   2.157   3.228  16.671 -0.2139  0.0502  0.1577
  503MPD2     H 7478   2.231   3.164  17.038  0.2415 -2.0361  0.1656
  503MPD2    H1 7479   2.133   3.022  16.642 -3.6132  1.9330 -0.9152
  503MPD2    H2 7480   2.168   3.435  16.706 -1.3027  1.1582  0.5303
  503MPD2    H3 7481   2.128   3.240  16.567 -2.3640  1.6073  0.9375
  503MPD2     N 7482   2.194   2.952  16.911  0.1482 -0.2568 -0.7163
  503MPD2    H5 7483   2.201   2.947  17.012  1.3287 -0.3572 -0.8095
  503MPD2    N1 7484   2.205   3.417  16.984 -0.5073 -0.5804  0.0660
  503MPD2    H7 7485   2.198   3.395  17.083  3.3341  1.2648  0.7280
  504TMC3    C1 7486   2.207   2.720  16.902 -0.4439 -0.0522  0.3891
  504TMC3    C2 7487   2.139   2.717  17.022 -0.0623 -0.4677 -0.3587
  504TMC3    C3 7488   2.162   2.615  17.113 -0.2970  0.0499  0.4571
  504TMC3    C4 7489   2.295   2.620  16.876  0.3132  0.1198 -0.1852
  504TMC3    C5 7490   2.318   2.522  16.973  0.5759 -0.8119 -0.3317
  504TMC3    C6 7491   2.249   2.511  17.091 -0.4746 -0.8428  0.0252
  504TMC3     C 7492   2.224   2.844  16.831 -0.4737 -0.1071 -0.2578
  504TMC3     O 7493   2.295   2.847  16.727  0.1418  0.0894  0.2049
  504TMC3     H 7494   2.065   2.793  17.044 -0.7479 -0.9061 -1.1559
  504TMC3    H1 7495   2.349   2.628  16.782 -0.2243  0.0670 -0.5013
  504TMC3    H2 7496   2.256   2.430  17.162  3.8408 -0.6263 -0.1467
  504TMC3    C7 7497   2.409   2.416  16.928 -0.6683 -0.3823  0.3138
  504TMC3    C8 7498   2.063   2.607  17.220 -0.1577 -0.0231  0.2496
  504TMC3    O1 7499   2.444   2.414  16.814 -0.4624 -0.1701  0.4971
  504TMC3    O2 7500   1.949   2.643  17.192 -0.4487 -0.0999  0.2382
  505MPD2     C 7501   2.569   0.687   9.479 -0.6257 -0.2219  0.0595
  505MPD2    C1 7502   2.507   0.786   9.556  0.4482 -0.7114 -0.0001
  505MPD2    C2 7503   2.465   0.898   9.501 -0.2930  0.2809 -0.1359
  505MPD2    C3 7504   2.503   0.929   9.368 -0.4796  0.6130  0.3524
  505MPD2    C4 7505   2.578   0.830   9.296  0.2758  1.0229 -0.5909
  505MPD2    C5 7506   2.606   0.706   9.350  0.1237 -0.0265 -0.0299
  505MPD2     H 7507   2.412   0.974   9.557 -1.5265 -0.5012 -0.2594
  505MPD2    H1 7508   2.615   0.840   9.194 -1.1216  0.9289 -1.1171
  505MPD2    H2 7509   2.599   0.594   9.526 -0.9796 -0.6766 -0.6165
  505MPD2    H3 7510   2.669   0.640   9.291 -2.3168 -0.6395 -1.9454
  505MPD2     N 7511   2.467   1.044   9.295 -0.4304  0.6905 -0.1805
  505MPD2    H5 7512   2.505   1.050   9.201  1.5352 -2.5646  0.4248
  505MPD2    N1 7513   2.488   0.757   9.693  0.0661  0.2294 -0.3445
  505MPD2    H7 7514   2.511   0.663   9.725 -0.2598  0.1640 -0.3016
  506TMC3    C1 7515   2.443   0.812   9.914 -0.0021 -0.1530  0.1846
  506TMC3    C2 7516   2.562   0.749   9.938 -0.8512  0.6003 -0.0015
  506TMC3    C3 7517   2.651   0.810  10.018  0.3406 -0.0917  0.2979
  506TMC3    C4 7518   2.408   0.923   9.985  0.0412  0.4611  0.8995
  506TMC3    C5 7519   2.500   0.983  10.066  0.2761 -0.0746 -0.4727
  506TMC3    C6 7520   2.624   0.933  10.079  0.5592 -0.3564  0.1261
  506TMC3     C 7521   2.413   0.833   9.777 -0.2406 -0.0895  0.0403
  506TMC3     O 7522   2.346   0.932   9.761  0.7159  0.4561 -0.2968
  506TMC3     H 7523   2.572   0.650   9.894  1.4797  0.5653  0.6313
  506TMC3    H1 7524   2.308   0.965   9.979  0.3339  1.3297  2.0632
  506TMC3    H2 7525   2.700   0.977  10.141 -0.1300  0.5617  0.3120
  506TMC3    C7 7526   2.500   1.133  10.067 -0.6678  0.1030  0.1410
  506TMC3    C8 7527   2.780   0.761  10.026 -0.6806 -0.2336 -0.6057
  506TMC3    O1 7528   2.561   1.200  10.152  0.3944  0.0026  0.3060
  506TMC3    O2 7529   2.801   0.642  10.025  0.5656  0.7103  0.3872
  507TMC3    C1 7530   3.269   2.562  14.761  0.1002 -0.0507  1.2231
  507TMC3    C2 7531   3.316   2.447  14.712  0.1272  0.3317  0.2161
  507TMC3    C3 7532   3.396   2.448  14.601  0.1698 -0.4109  0.0799
  507TMC3    C4 7533   3.305   2.680  14.700  0.5741  0.4869 -0.3918
  507TMC3    C5 7534   3.400   2.676  14.595 -0.0006  0.4697  0.9509
  507TMC3    C6 7535   3.443   2.562  14.538 -0.1976 -0.8331 -0.0288
  507TMC3     C 7536   3.136   2.564  14.818 -0.8525 -0.6202  0.3929
  507TMC3     O 7537   3.094   2.659  14.879 -0.0562 -0.0642  0.4161
  507TMC3     H 7538   3.284   2.359  14.766 -1.5818  0.4402 -0.6136
  507TMC3    H1 7539   3.255   2.774  14.723 -0.4907 -0.0752 -0.4156
  507TMC3    H2 7540   3.529   2.560  14.474  0.4642 -0.0972  0.8287
  507TMC3    C7 7541   3.395   2.784  14.505  0.0740 -0.0812 -0.1292
  507TMC3    C8 7542   3.327   2.372  14.494 -0.5840 -0.3836 -0.2692
  507TMC3    O1 7543   3.371   2.758  14.389 -0.2304 -0.3061  0.3140
  507TMC3    O2 7544   3.271   2.270  14.535 -0.3285 -0.6526 -0.1777
  508MPD2     C 7545   4.105   4.641  15.870  0.3787  0.1934  0.4714
  508MPD2    C1 7546   4.039   4.709  15.977  0.2131  0.4774 -0.3906
  508MPD2    C2 7547   3.960   0.094  15.943  0.3244  0.0356 -0.2130
  508MPD2    C3 7548   3.965   0.154  15.819  0.1324 -0.2293 -0.8336
  508MPD2    C4 7549   4.043   0.099  15.720  0.8151  0.3041 -0.5931
  508MPD2    C5 7550   4.104   4.701  15.743  0.2088 -0.2131 -0.0393
  508MPD2     H 7551   3.898   0.142  16.018  1.4636 -0.2968  0.9467
  508MPD2    H1 7552   4.034   0.136  15.618  1.3513 -0.5900 -0.9641
  508MPD2    H2 7553   4.153   4.546  15.886 -1.3323 -0.8530 -0.6010
  508MPD2    H3 7554   4.142   4.647  15.658  0.5787  1.3206 -0.8406
  508MPD2     N 7555   3.881   0.268  15.801 -0.0801  0.0829  0.4207
  508MPD2    H5 7556   3.833   0.306  15.882  1.0545 -1.0705  1.6260
  508MPD2    N1 7557   4.055   4.657  16.110 -0.0225 -0.0166 -0.2525
  508MPD2    H7 7558   4.127   4.588  16.127 -0.5669 -0.0604  1.8131
  509TMC3    C1 7559   3.712   0.646  15.621  0.5976  0.1153 -0.1226
  509TMC3    C2 7560   3.743   0.717  15.727 -0.6384 -0.1981  0.0316
  509TMC3    C3 7561   3.818   0.663  15.828 -0.0337 -0.0527 -0.1421
  509TMC3    C4 7562   3.744   0.516  15.601  0.7022 -0.1731  0.0283
  509TMC3    C5 7563   3.800   0.458  15.709 -0.4880  0.4041  0.4626
  509TMC3    C6 7564   3.845   0.527  15.822 -0.1098  0.4672  0.1256
  509TMC3     C 7565   3.629   0.709  15.518  0.1116  0.6944 -0.2697
  509TMC3     O 7566   3.594   0.630  15.429  0.1690  0.1893 -0.3958
  509TMC3     H 7567   3.704   0.817  15.739 -1.6469 -0.3105 -2.5192
  509TMC3    H1 7568   3.691   0.459  15.525 -0.3642  1.9783 -0.8436
  509TMC3    H2 7569   3.903   0.486  15.904 -3.2370 -0.7521  1.7472
  509TMC3    C7 7570   3.853   0.323  15.684  0.7159 -0.2515  0.3170
  509TMC3    C8 7571   3.919   0.737  15.903  0.4485  0.3086 -0.1836
  509TMC3    O1 7572   3.876   0.286  15.569  0.1069 -0.2968  0.2229
  509TMC3    O2 7573   3.991   0.671  15.976  0.3088 -0.3832  0.5175
  510MPD2     C 7574   2.017   2.173  14.379  0.0074  0.5453 -0.3778
  510MPD2    C1 7575   2.026   2.074  14.477 -0.4606 -0.4680 -0.7557
  510MPD2    C2 7576   2.131   1.995  14.472 -0.1717  0.7641  0.5248
  510MPD2    C3 7577   2.244   2.017  14.389  0.2033 -0.4685 -0.2285
  510MPD2    C4 7578   2.240   2.130  14.312 -0.5956  0.3102  0.4366
  510MPD2    C5 7579   2.128   2.208  14.313 -0.1361 -0.0830  0.6393
  510MPD2     H 7580   2.141   1.914  14.543  0.1217  1.8578  1.7312
  510MPD2    H1 7581   2.330   2.168  14.265  1.8445 -0.8418  4.1718
  510MPD2    H2 7582   1.932   2.241  14.378  0.6657  1.3484 -1.0951
  510MPD2    H3 7583   2.120   2.301  14.258 -1.6103 -0.4702  0.1929
  510MPD2     N 7584   2.331   1.911  14.375  0.6159  0.0038  0.2731
  510MPD2    H5 7585   2.313   1.835  14.439 -0.0878  0.3479  0.4750
  510MPD2    N1 7586   1.916   2.049  14.565 -0.0715 -0.0997  0.5958
  510MPD2    H7 7587   1.822   2.073  14.534 -0.3812  0.7106  2.1820
  511TMC3    C1 7588   1.798   1.967  14.751 -0.3791  0.5993  0.0808
  511TMC3    C2 7589   1.789   1.991  14.878 -0.0601 -0.2832 -0.9263
  511TMC3    C3 7590   1.685   1.945  14.957 -0.3514 -0.2091 -0.2183
  511TMC3    C4 7591   1.699   1.890  14.693  0.0424  0.6005  0.0308
  511TMC3    C5 7592   1.604   1.831  14.770  0.8712  0.5982  0.0156
  511TMC3    C6 7593   1.583   1.872  14.896 -0.1685  0.3682 -0.2240
  511TMC3     C 7594   1.926   1.999  14.688  0.2686  0.3245  0.7220
  511TMC3     O 7595   2.022   1.983  14.760 -0.0404 -0.6821 -0.2737
  511TMC3     H 7596   1.862   2.058  14.921  0.1960 -1.4388  0.4457
  511TMC3    H1 7597   1.728   1.852  14.595 -0.1963  0.7251 -0.0880
  511TMC3    H2 7598   1.491   1.848  14.948 -0.4450  2.3118  0.2146
  511TMC3    C7 7599   1.516   1.729  14.714 -0.0160  0.8365  0.2110
  511TMC3    C8 7600   1.658   1.987  15.091  0.2365  0.0755  0.3370
  511TMC3    O1 7601   1.501   1.734  14.594 -1.0275  0.7702  0.4278
  511TMC3    O2 7602   1.688   2.104  15.120 -0.1204 -0.3797  0.2099
  512TMC3    C1 7603   1.501   0.739  13.111  0.2455  0.4409 -0.3540
  512TMC3    C2 7604   1.494   0.862  13.049 -0.9403  0.1942  0.0318
  512TMC3    C3 7605   1.427   0.860  12.929  0.1540  0.3798  0.1432
  512TMC3    C4 7606   1.450   0.622  13.056  0.3422 -0.4660 -0.1146
  512TMC3    C5 7607   1.372   0.628  12.948 -0.4662  0.3833  0.4481
  512TMC3    C6 7608   1.365   0.745  12.881  0.8851 -0.8380 -0.2683
  512TMC3     C 7609   1.606   0.732  13.208 -1.1073  0.1813  0.0873
  512TMC3     O 7610   1.674   0.633  13.199 -0.1516  0.0812  0.5078
  512TMC3     H 7611   1.544   0.953  13.080 -1.2315  1.1245 -2.2240
  512TMC3    H1 7612   1.471   0.531  13.110  1.7149 -1.3934 -2.2387
  512TMC3    H2 7613   1.302   0.750  12.793 -0.2817  0.2098  0.6270
  512TMC3    C7 7614   1.285   0.521  12.912 -0.4682  0.0436 -0.1908
  512TMC3    C8 7615   1.339   0.973  12.897 -0.1354 -0.3485  0.2950
  512TMC3    O1 7616   1.205   0.552  12.826 -0.6919  0.3171  0.4321
  512TMC3    O2 7617   1.300   0.983  12.781  0.0168 -0.4165 -0.0529
  513MPD2     C 7618   2.748   1.061  13.283  0.6056  0.0315  0.0588
  513MPD2    C1 7619   2.793   0.993  13.170  0.1908  0.1499 -0.0449
  513MPD2    C2 7620   2.921   1.012  13.131 -0.1651  0.0451 -0.4347
  513MPD2    C3 7621   3.010   1.089  13.201 -0.1084  0.1025 -0.1270
  513MPD2    C4 7622   2.976   1.145  13.324 -0.8127  0.1603 -0.9113
  513MPD2    C5 7623   2.840   1.132  13.359 -0.2262 -0.0238  0.2453
  513MPD2     H 7624   2.960   0.948  13.053 -3.9309 -1.5518 -0.9934
  513MPD2    H1 7625   3.044   1.211  13.378  0.5141 -0.4603 -1.8238
  513MPD2    H2 7626   2.644   1.054  13.313  1.4542 -0.1496  3.0049
  513MPD2    H3 7627   2.801   1.184  13.445 -0.7924 -0.3948  0.2119
  513MPD2     N 7628   3.150   1.081  13.163  0.2564  0.6370  0.1056
  513MPD2    H5 7629   3.165   1.007  13.095 -0.4436 -0.8210  1.5242
  513MPD2    N1 7630   2.699   0.915  13.093  0.1326 -0.5010 -0.1129
  513MPD2    H7 7631   2.605   0.907  13.129  0.3198 -2.9697 -0.1896
  514TMC3    C1 7632   2.605   0.790  12.916  0.3148  0.7717  0.6414
  514TMC3    C2 7633   2.594   0.825  12.786  0.5941  0.5425  0.0930
  514TMC3    C3 7634   2.574   0.728  12.695 -0.4943 -0.4651  0.1388
  514TMC3    C4 7635   2.626   0.661  12.954  0.0327  0.3853 -0.1050
  514TMC3    C5 7636   2.617   0.561  12.855 -0.4288  0.5823 -0.8179
  514TMC3    C6 7637   2.568   0.595  12.733  0.2042 -0.7442  0.4028
  514TMC3     C 7638   2.720   0.866  12.966 -0.0826 -0.1951  0.4275
  514TMC3     O 7639   2.810   0.887  12.886  0.0744 -0.2969  0.1423
  514TMC3     H 7640   2.627   0.921  12.748 -1.5180  1.3076  0.1725
  514TMC3    H1 7641   2.670   0.633  13.049 -1.1541  0.1598  0.3786
  514TMC3    H2 7642   2.583   0.523  12.654 -2.4166  1.2437 -1.8840
  514TMC3    C7 7643   2.738   0.485  12.842  0.1966 -0.2526  0.2523
  514TMC3    C8 7644   2.655   0.745  12.579 -0.0895  0.7380  0.0814
  514TMC3    O1 7645   2.748   0.400  12.756  0.4130 -0.5350 -0.3257
  514TMC3    O2 7646   2.735   0.658  12.553  0.4918  1.1561 -0.4665
  515MPD2     C 7647   1.178   2.801  14.972  0.2437 -0.1457 -0.4741
  515MPD2    C1 7648   1.089   2.868  14.887  0.3040  0.0095 -0.0575
  515MPD2    C2 7649   1.109   3.006  14.869  0.8524  0.2763  0.3530
  515MPD2    C3 7650   1.209   3.070  14.944 -0.8731 -0.5403  0.4627
  515MPD2    C4 7651   1.272   3.005  15.045  0.1029 -0.2599 -0.7992
  515MPD2    C5 7652   1.256   2.868  15.056  0.3901  0.1177 -0.5440
  515MPD2     H 7653   1.048   3.061  14.798 -0.8929  1.8506  3.0856
  515MPD2    H1 7654   1.345   3.058  15.104  1.1707 -0.8779 -1.5512
  515MPD2    H2 7655   1.171   2.693  14.980 -0.2270 -0.1694 -1.1765
  515MPD2    H3 7656   1.319   2.820  15.130  0.3272  0.7202 -0.0979
  515MPD2     N 7657   1.250   3.206  14.928  0.2035 -0.4325  0.3030
  515MPD2    H5 7658   1.321   3.245  14.989  0.6566 -1.1267  0.2215
  515MPD2    N1 7659   0.988   2.804  14.814  0.0813  0.0433  0.4490
  515MPD2    H7 7660   0.933   2.857  14.748  0.5252 -0.5485 -0.3915
  516TMC3    C1 7661   0.836   2.637  14.747 -0.7993 -0.2341  0.0974
  516TMC3    C2 7662   0.812   2.698  14.629 -0.7088 -0.0446 -0.3633
  516TMC3    C3 7663   0.694   2.661  14.568  0.3985 -0.7551  0.2962
  516TMC3    C4 7664   0.750   2.547  14.802  0.3504  1.1485 -0.6325
  516TMC3    C5 7665   0.639   2.505  14.729 -0.4670  0.3619  1.0838
  516TMC3    C6 7666   0.606   2.556  14.606  0.1614 -0.2468  0.9883
  516TMC3     C 7667   0.949   2.670  14.832 -0.0519 -0.2793  0.1037
  516TMC3     O 7668   0.983   2.590  14.919 -0.0571 -0.0772  0.2554
  516TMC3     H 7669   0.886   2.765  14.588 -0.8508  1.9167  2.5996
  516TMC3    H1 7670   0.772   2.511  14.902  1.2288  2.5914 -0.3138
  516TMC3    H2 7671   0.520   2.522  14.550  1.3147 -0.8553 -0.4134
  516TMC3    C7 7672   0.573   2.379  14.767 -0.6054  0.2043 -0.4791
  516TMC3    C8 7673   0.666   2.724  14.436  0.6163 -0.0895  0.2326
  516TMC3    O1 7674   0.587   2.346  14.885  0.3174  0.2474 -0.0646
  516TMC3    O2 7675   0.551   2.700  14.395  0.1737  0.3569 -0.3312
  517MPD2     C 7676   0.442   0.158   0.157  0.3029 -0.4940  0.3415
  517MPD2    C1 7677   0.546   0.116   0.232  0.4600 -0.1452 -0.6761
  517MPD2    C2 7678   0.585   0.201   0.335  0.1917 -0.4332  0.5571
  517MPD2    C3 7679   0.506   0.310   0.373  0.5984  0.4798  0.1766
  517MPD2    C4 7680   0.396   0.335   0.308 -0.0504  0.1110  1.1805
  517MPD2    C5 7681   0.373   0.265   0.193  0.2891 -0.4601 -0.1743
  517MPD2     H 7682   0.671   0.174   0.394  1.3345 -0.9599 -1.3411
  517MPD2    H1 7683   0.342   0.427   0.325 -1.0335 -0.1425 -0.5217
  517MPD2    H2 7684   0.418   0.113   0.062  1.9029 -2.6866  0.9689
  517MPD2    H3 7685   0.287   0.295   0.133 -0.7196 -3.5458 -0.2527
  517MPD2     N 7686   0.529   0.402   0.477  0.2763  0.0633 -0.6071
  517MPD2    H5 7687   0.459   0.463   0.518  1.0917  1.3869 -1.2095
  517MPD2    N1 7688   0.635   0.018   0.189  0.4431  0.1873 -0.0265
  517MPD2    H7 7689   0.729   0.020   0.227  0.7258  0.4144 -0.7453
  518TMC3    C1 7690   0.708   4.566   0.054  0.1123  0.1847  0.1334
  518TMC3    C2 7691   0.677   4.474  17.649  0.5750  0.2722  0.5260
  518TMC3    C3 7692   0.775   4.395  17.598 -0.2253  0.5574 -0.1121
  518TMC3    C4 7693   0.840   4.586   0.079 -0.8995  0.3453 -0.3868
  518TMC3    C5 7694   0.937   4.520   0.013 -0.1897 -0.1572 -0.2583
  518TMC3    C6 7695   0.907   4.412  17.628 -0.3400  0.0940  0.4906
  518TMC3     C 7696   0.601   4.642   0.099 -0.1938 -0.4383  0.2976
  518TMC3     O 7697   0.488   4.620   0.058 -0.2137  0.6717  0.0595
  518TMC3     H 7698   0.578   4.469  17.604  0.4044 -3.0053  1.2270
  518TMC3    H1 7699   0.871   4.667   0.145  0.3890 -0.7431  0.3337
  518TMC3    H2 7700   0.977   4.347  17.577  1.5468  1.6995  1.0065
  518TMC3    C7 7701   1.071   4.567   0.021 -0.1866  0.6433  0.0970
  518TMC3    C8 7702   0.750   4.309  17.485  1.1977 -0.2119 -0.5316
  518TMC3    O1 7703   1.094   4.657   0.099  0.2150  0.0790  0.5170
  518TMC3    O2 7704   0.713   4.194  17.517 -0.1539 -0.1502  1.0968
  519MPD2     C 7705   2.186   2.840  13.917 -0.3372 -0.8996  0.2242
  519MPD2    C1 7706   2.092   2.748  13.967  0.7645 -0.0573  0.2137
  519MPD2    C2 7707   2.115   2.611  13.976  0.0355 -1.4530  0.5727
  519MPD2    C3 7708   2.229   2.565  13.911  0.7675  0.8260 -0.1791
  519MPD2    C4 7709   2.325   2.656  13.866  0.4251 -0.4735 -0.1534
  519MPD2    C5 7710   2.308   2.792  13.877  0.4948 -0.6596  1.1604
  519MPD2     H 7711   2.041   2.543  14.017 -0.8060  0.2642  1.9038
  519MPD2    H1 7712   2.417   2.619  13.822  0.6814 -0.2066  0.1644
  519MPD2    H2 7713   2.167   2.946  13.924  1.1115 -0.6353  0.2432
  519MPD2    H3 7714   2.400   2.850  13.867  0.7852 -0.7902  3.1818
  519MPD2     N 7715   2.257   2.421  13.894  0.7261 -0.2958  0.8006
  519MPD2    H5 7716   2.346   2.404  13.850 -0.9547  1.8237 -3.3913
  519MPD2    N1 7717   1.970   2.796  14.010 -0.3291  0.2452 -0.9084
  519MPD2    H7 7718   1.962   2.896  13.994 -0.7322  0.8713  3.3649
  520TMC3    C1 7719   2.237   2.184  13.929 -0.4774 -0.2694 -0.9257
  520TMC3    C2 7720   2.145   2.088  13.942 -0.6840 -0.2111  0.3754
  520TMC3    C3 7721   2.181   1.959  13.932 -0.5000  0.2794 -0.3343
  520TMC3    C4 7722   2.373   2.159  13.913 -0.0460 -0.2054  0.2544
  520TMC3    C5 7723   2.409   2.027  13.911  0.2593 -0.4436 -0.0985
  520TMC3    C6 7724   2.311   1.926  13.913 -0.1550 -0.2087 -0.2807
  520TMC3     C 7725   2.177   2.319  13.937  0.0419  0.2532 -0.4912
  520TMC3     O 7726   2.069   2.327  13.989  0.0039 -0.4041  0.4289
  520TMC3     H 7727   2.044   2.116  13.972 -0.3275  0.9076  0.5469
  520TMC3    H1 7728   2.444   2.241  13.924  1.4279 -1.2395 -1.6011
  520TMC3    H2 7729   2.351   1.825  13.923  0.1528 -0.1149 -0.5940
  520TMC3    C7 7730   2.553   1.992  13.895 -0.0737  0.6519 -0.0602
  520TMC3    C8 7731   2.083   1.855  13.934 -0.4902  0.2539  0.3558
  520TMC3    O1 7732   2.593   1.881  13.927 -0.2438 -0.3134  0.4915
  520TMC3    O2 7733   2.124   1.743  13.939  0.4536 -0.6135 -0.0284
  521MPD2     C 7734   2.930   0.638  17.488  0.2249 -0.2157 -0.1353
  521MPD2    C1 7735   2.916   0.664  17.351  0.2938  0.0778 -0.0622
  521MPD2    C2 7736   3.030   0.689  17.272  0.0019  0.3163  0.0503
  521MPD2    C3 7737   3.149   0.707  17.343  0.6279  0.2324 -0.0919
  521MPD2    C4 7738   3.159   0.695  17.483 -0.3979  0.1320 -0.2071
  521MPD2    C5 7739   3.047   0.650  17.553 -0.3885 -0.3301  0.0132
  521MPD2     H 7740   3.032   0.691  17.164 -0.7806  1.4434  0.0535
  521MPD2    H1 7741   3.244   0.712  17.548  0.2415 -1.2407 -0.6694
  521MPD2    H2 7742   2.843   0.608  17.544 -0.9402  0.6317 -1.4666
  521MPD2    H3 7743   3.043   0.632  17.660 -0.9433  1.8541  0.3443
  521MPD2     N 7744   3.268   0.727  17.265 -0.1968  0.4370  0.5160
  521MPD2    H5 7745   3.255   0.748  17.167 -0.2465 -0.2797  0.3694
  521MPD2    N1 7746   2.790   0.650  17.291 -0.6167 -0.3070 -0.1737
  521MPD2    H7 7747   2.714   0.647  17.358 -0.6775 -1.2369 -0.2929
  522TMC3    C1 7748   3.500   0.730  17.224 -0.5675  0.6986  0.3837
  522TMC3    C2 7749   3.607   0.644  17.246 -0.1786 -0.2139  0.2207
  522TMC3    C3 7750   3.672   0.596  17.133  0.2880  0.2099  0.0111
  522TMC3    C4 7751   3.485   0.785  17.098 -0.1163  0.2497 -0.3903
  522TMC3    C5 7752   3.560   0.746  16.997 -0.2771  0.5889 -0.0679
  522TMC3    C6 7753   3.644   0.642  17.011 -0.0440  0.4394 -0.3382
  522TMC3     C 7754   3.393   0.720  17.317 -0.2471 -0.0248  0.0292
  522TMC3     O 7755   3.427   0.689  17.429 -0.4940  0.7689  0.3855
  522TMC3     H 7756   3.634   0.611  17.345 -0.9645 -0.1204  0.4598
  522TMC3    H1 7757   3.418   0.870  17.094 -2.7144 -1.7908 -0.2167
  522TMC3    H2 7758   3.688   0.602  16.920 -0.2755 -2.2656  0.7347
  522TMC3    C7 7759   3.565   0.819  16.877  1.1919  0.3115  0.2235
  522TMC3    C8 7760   3.795   0.522  17.154 -0.2549 -1.0987 -0.4955
  522TMC3    O1 7761   3.673   0.824  16.817 -0.3361  0.4122 -0.3098
  522TMC3    O2 7762   3.844   0.540  17.264  0.0508  0.0747 -0.9418
  523MPD2     C 7763   0.200   0.354  10.232 -0.3497 -0.0691  0.8400
  523MPD2    C1 7764   0.329   0.369  10.277  0.0276  0.4361  0.3033
  523MPD2    C2 7765   0.383   0.495  10.279 -0.4400 -0.4498  0.4456
  523MPD2    C3 7766   0.310   0.608  10.243  0.7303 -1.0057 -0.2585
  523MPD2    C4 7767   0.182   0.588  10.201  0.0063 -0.2878  0.6887
  523MPD2    C5 7768   0.126   0.463  10.194  0.1165  0.5782 -0.0537
  523MPD2     H 7769   0.477   0.524  10.324 -1.0075  2.3185 -0.1327
  523MPD2    H1 7770   0.110   0.665  10.175 -0.1585 -0.6786 -0.0019
  523MPD2    H2 7771   0.155   0.256  10.224 -0.0880  0.0001 -1.2800
  523MPD2    H3 7772   0.031   0.443  10.146 -1.0871  2.0865  1.7467
  523MPD2     N 7773   0.351   0.742  10.242 -0.4447 -0.3980 -0.5068
  523MPD2    H5 7774   0.280   0.806  10.207 -1.1604 -0.5432  0.6744
  523MPD2    N1 7775   0.398   0.247  10.291 -0.1524 -0.2894  0.3343
  523MPD2    H7 7776   0.343   0.163  10.281 -0.6199 -0.1965  1.9875
  524TMC3    C1 7777   0.480   0.930  10.292 -1.0009 -0.4338  0.4304
  524TMC3    C2 7778   0.548   0.999  10.384  0.1249 -0.0434 -0.8565
  524TMC3    C3 7779   0.532   1.133  10.392 -0.6617 -0.4291  0.6281
  524TMC3    C4 7780   0.408   0.993  10.192 -0.1268  0.9054 -0.9544
  524TMC3    C5 7781   0.399   1.131  10.198 -0.3378 -0.2403  0.7690
  524TMC3    C6 7782   0.449   1.203  10.306  0.4658  0.2344 -0.0012
  524TMC3     C 7783   0.477   0.786  10.292 -0.3360  0.3177  0.0542
  524TMC3     O 7784   0.567   0.726  10.346  0.3014  0.2989 -0.1330
  524TMC3     H 7785   0.602   0.950  10.464 -1.1854  0.0374  0.0752
  524TMC3    H1 7786   0.373   0.936  10.108 -1.2702  0.0213  0.1284
  524TMC3    H2 7787   0.416   1.306  10.309  0.9683  0.3467  1.6264
  524TMC3    C7 7788   0.318   1.193  10.091 -0.2322  0.8138  1.2974
  524TMC3    C8 7789   0.592   1.204  10.499  0.0564  1.1847  0.7334
  524TMC3    O1 7790   0.255   1.108  10.029  0.5511  0.3676 -0.0060
  524TMC3    O2 7791   0.665   1.145  10.577 -0.4227 -0.3075 -0.5512
  525MPD2     C 7792   3.568   2.178  14.475  0.5648 -0.2166  0.1564
  525MPD2    C1 7793   3.644   2.234  14.573  0.2616 -0.2801 -0.0797
  525MPD2    C2 7794   3.724   2.333  14.540 -0.6669  0.3545  0.1634
  525MPD2    C3 7795   3.741   2.380  14.407  0.3737  0.4801 -0.3615
  525MPD2    C4 7796   3.668   2.322  14.310  0.9885  0.3154  0.2515
  525MPD2    C5 7797   3.582   2.220  14.349  0.9402 -0.2510  0.0365
  525MPD2     H 7798   3.792   2.371  14.615 -1.3681  0.5978  0.6743
  525MPD2    H1 7799   3.672   2.362  14.209  0.6973 -1.2888 -0.3961
  525MPD2    H2 7800   3.497   2.098  14.497  0.4479 -0.0988  0.2079
  525MPD2    H3 7801   3.517   2.182  14.271  3.7340 -2.7357 -1.0674
  525MPD2     N 7802   3.811   2.505  14.394  0.2991 -0.0452 -0.2643
  525MPD2    H5 7803   3.840   2.551  14.480 -0.3310 -1.4408  0.7156
  525MPD2    N1 7804   3.648   2.186  14.701 -0.2237  0.7705 -0.3577
  525MPD2    H7 7805   3.713   2.232  14.764  1.2172  0.2709 -1.4872
  526TMC3    C1 7806   3.616   2.024  14.873 -0.1686 -0.0686  0.9437
  526TMC3    C2 7807   3.535   2.009  14.978 -0.0476  0.7161 -0.5981
  526TMC3    C3 7808   3.587   2.009  15.106 -0.2408 -0.2644  0.4163
  526TMC3    C4 7809   3.756   2.011  14.899 -0.0807 -0.0912 -0.2959
  526TMC3    C5 7810   3.799   1.977  15.023 -0.3272  0.1183 -0.1083
  526TMC3    C6 7811   3.716   1.995  15.135  1.0858 -0.6909 -0.4125
  526TMC3     C 7812   3.570   2.087  14.752  0.5216  0.0541 -0.2289
  526TMC3     O 7813   3.453   2.059  14.732 -0.2998 -0.2713 -0.6972
  526TMC3     H 7814   3.430   2.030  14.964  0.1219  3.1755  1.8817
  526TMC3    H1 7815   3.819   2.005  14.811 -1.4737  1.7618 -1.4283
  526TMC3    H2 7816   3.740   1.982  15.239 -0.6006  0.2391  0.1019
  526TMC3    C7 7817   3.940   1.952  15.059  0.4462  0.1289 -0.9033
  526TMC3    C8 7818   3.489   2.044  15.207  0.7810 -0.6404 -0.5458
  526TMC3    O1 7819   3.964   1.913  15.169  0.2311 -0.1021  0.5347
  526TMC3    O2 7820   3.525   2.106  15.303 -0.8697  0.3160 -0.1368
  527MPD2     C 7821   1.473   0.401   1.336 -0.3313 -0.3203  0.6966
  527MPD2    C1 7822   1.565   0.505   1.336  0.3455  0.4485 -0.0831
  527MPD2    C2 7823   1.675   0.485   1.255  0.1959 -0.2408  0.0160
  527MPD2    C3 7824   1.696   0.368   1.179 -0.1384  0.1564 -0.4896
  527MPD2    C4 7825   1.601   0.264   1.183  0.2580  0.0640 -0.0306
  527MPD2    C5 7826   1.488   0.287   1.259 -0.3025 -0.1028 -0.3795
  527MPD2     H 7827   1.750   0.562   1.251 -1.1515  0.9533 -2.1879
  527MPD2    H1 7828   1.596   0.178   1.118 -0.4554  0.2413 -0.2081
  527MPD2    H2 7829   1.378   0.404   1.390 -0.9754 -0.6768 -0.4239
  527MPD2    H3 7830   1.406   0.217   1.268 -1.2162  1.2371  1.7105
  527MPD2     N 7831   1.812   0.356   1.100 -0.0923  0.3426  0.1125
  527MPD2    H5 7832   1.873   0.436   1.104 -1.0616  1.0833  0.0779
  527MPD2    N1 7833   1.560   0.626   1.408  0.0983  0.1253  0.5606
  527MPD2    H7 7834   1.635   0.692   1.391 -0.1777  0.0518 -0.9591
  528TMC3    C1 7835   1.473   0.771   1.570  0.1611 -0.3912 -0.4909
  528TMC3    C2 7836   1.599   0.829   1.592 -0.2487  0.0088 -0.3585
  528TMC3    C3 7837   1.617   0.900   1.706  0.5617  0.0406 -0.0143
  528TMC3    C4 7838   1.380   0.789   1.667 -0.2378  0.4968  0.0953
  528TMC3    C5 7839   1.400   0.862   1.779 -0.1590 -0.5448  0.5007
  528TMC3    C6 7840   1.527   0.911   1.807  0.8087  0.5809  0.4581
  528TMC3     C 7841   1.445   0.663   1.478 -0.1211  0.2933  0.1278
  528TMC3     O 7842   1.348   0.594   1.497  0.1259  0.6323  0.1322
  528TMC3     H 7843   1.675   0.823   1.515 -0.0152 -0.0664 -0.1232
  528TMC3    H1 7844   1.279   0.756   1.647  0.5055 -1.5001 -0.3649
  528TMC3    H2 7845   1.553   0.954   1.903  0.2601 -1.3472  1.4633
  528TMC3    C7 7846   1.300   0.850   1.876 -0.3076  0.3053 -0.2551
  528TMC3    C8 7847   1.743   0.968   1.730 -0.0737  0.0445  0.1852
  528TMC3    O1 7848   1.234   0.747   1.871  0.0664 -0.2745 -0.5467
  528TMC3    O2 7849   1.839   0.901   1.688 -0.3918  0.1709  0.3550
  529MPD2     C 7850   0.144   0.294   1.024 -0.4453  0.4221  0.3206
  529MPD2    C1 7851   0.206   0.186   0.978 -0.6910  0.7157 -0.3265
  529MPD2    C2 7852   0.198   0.162   0.843 -0.0401  0.0675 -0.5351
  529MPD2    C3 7853   0.138   0.254   0.752 -0.1169  0.1693  0.4217
  529MPD2    C4 7854   0.068   0.356   0.803 -0.7047 -0.0937 -0.1154
  529MPD2    C5 7855   0.062   0.368   0.939 -0.6213  0.1836 -0.3277
  529MPD2     H 7856   0.245   0.074   0.803  0.2959 -0.2003  0.4456
  529MPD2    H1 7857   0.002   0.424   0.751  3.1261  1.5123 -2.7941
  529MPD2    H2 7858   0.142   0.324   1.128  0.8551 -3.0569  1.3279
  529MPD2    H3 7859   0.003   0.443   0.990 -2.3097 -2.1463  1.1725
  529MPD2     N 7860   0.133   0.223   0.612  0.0636  0.0966 -0.3909
  529MPD2    H5 7861   0.071   0.283   0.559 -0.7255  1.1090  1.6858
  529MPD2    N1 7862   0.245   0.078   1.056 -0.7174 -0.8530 -0.2359
  529MPD2    H7 7863   0.267   4.715   1.005 -3.1220 -1.3629 -0.4171
  530TMC3    C1 7864   0.277   4.661   1.238 -0.0596 -0.5285 -0.3014
  530TMC3    C2 7865   0.235   4.649   1.371  0.4492 -0.1053  0.7046
  530TMC3    C3 7866   0.175   4.533   1.410  0.1151 -0.2705 -0.2600
  530TMC3    C4 7867   0.256   4.562   1.151  0.0752 -0.6295  0.8972
  530TMC3    C5 7868   0.185   4.455   1.190  0.3488 -0.0908 -0.2969
  530TMC3    C6 7869   0.136   4.440   1.314 -0.1584 -0.5313 -1.4295
  530TMC3     C 7870   0.272   0.076   1.190  0.5378  0.8667  0.1209
  530TMC3     O 7871   0.259   0.171   1.269  0.3618  0.0452 -0.2391
  530TMC3     H 7872   0.268   4.708   1.456 -3.2974  0.1654  1.9838
  530TMC3    H1 7873   0.290   4.564   1.048 -0.0350 -0.1212  0.8703
  530TMC3    H2 7874   0.074   4.358   1.348  0.1380  0.8409  2.4059
  530TMC3    C7 7875   0.107   4.399   1.086 -0.3863 -0.1754 -0.0734
  530TMC3    C8 7876   0.167   4.500   1.551  0.2813  0.1799 -0.3246
  530TMC3    O1 7877   0.077   4.475   0.996  0.7076  0.0225  0.1442
  530TMC3    O2 7878   0.164   4.593   1.627  0.0835  0.0166  0.1806
  531MPD2     C 7879   3.248   0.470  12.864 -0.3050 -0.0875  0.0035
  531MPD2    C1 7880   3.208   0.592  12.915 -0.0021 -0.6416  0.8027
  531MPD2    C2 7881   3.072   0.617  12.931  0.1833 -0.6036 -0.0599
  531MPD2    C3 7882   2.982   0.525  12.875 -0.7637 -0.6591  0.1791
  531MPD2    C4 7883   3.025   0.410  12.806 -0.5564  0.7445  0.1445
  531MPD2    C5 7884   3.154   0.389  12.805 -0.0476 -0.8948 -0.2865
  531MPD2     H 7885   3.027   0.709  12.968  3.4106  0.5240  0.9850
  531MPD2    H1 7886   2.959   0.336  12.762  1.3429 -0.8810 -0.0011
  531MPD2    H2 7887   3.354   0.447  12.863 -0.4105 -0.5032 -1.2054
  531MPD2    H3 7888   3.190   0.308  12.742  2.0803  0.2578 -0.5410
  531MPD2     N 7889   2.849   0.556  12.894 -0.3623 -0.0960 -0.5124
  531MPD2    H5 7890   2.835   0.635  12.957  0.9426 -0.9204  0.7978
  531MPD2    N1 7891   3.308   0.674  12.961 -0.0870  0.1474 -0.5420
  531MPD2    H7 7892   3.403   0.640  12.955  0.5023  2.0872 -1.9904
  532TMC3    C1 7893   3.402   0.867  13.050 -0.4267 -0.7967 -0.0859
  532TMC3    C2 7894   3.373   1.001  13.056 -0.1980 -0.1604  0.2799
  532TMC3    C3 7895   3.384   1.073  13.172  0.0803  0.1688 -0.5026
  532TMC3    C4 7896   3.469   0.812  13.155 -0.6142  0.0172  0.2416
  532TMC3    C5 7897   3.487   0.888  13.262 -0.3893 -0.2793  1.0588
  532TMC3    C6 7898   3.450   1.025  13.276 -0.2320  0.8342  0.7859
  532TMC3     C 7899   3.288   0.804  12.995  0.2949 -0.9593 -0.5806
  532TMC3     O 7900   3.184   0.866  13.001  0.1748 -0.4389  0.1061
  532TMC3     H 7901   3.324   1.042  12.968 -1.6988  0.2402  1.2955
  532TMC3    H1 7902   3.505   0.710  13.146 -1.8946 -0.2706 -1.7033
  532TMC3    H2 7903   3.439   1.072  13.373 -1.0976  1.7702  0.2268
  532TMC3    C7 7904   3.576   0.844  13.375 -0.9469 -0.5015  0.4273
  532TMC3    C8 7905   3.265   1.142  13.214 -0.7280  0.3991  0.1402
  532TMC3    O1 7906   3.594   0.926  13.462  0.8748 -0.2921  0.4204
  532TMC3    O2 7907   3.262   1.227  13.302  0.3715  0.2920  0.6593
  533TMC3    C1 7908   3.836   2.706  14.281 -0.2636 -0.2637  0.1570
  533TMC3    C2 7909   3.954   2.770  14.259  0.2903  0.2514 -0.0010
  533TMC3    C3 7910   4.000   2.870  14.344  0.1981  0.8397 -0.8368
  533TMC3    C4 7911   3.756   2.754  14.384  0.1597 -0.6325 -0.2664
  533TMC3    C5 7912   3.797   2.862  14.456  0.1828  0.2865 -0.1400
  533TMC3    C6 7913   3.914   2.925  14.438 -1.0857 -0.6295 -0.0920
  533TMC3     C 7914   3.845   2.562  14.275 -0.0243  0.0654 -0.1523
  533TMC3     O 7915   3.863   2.510  14.164 -0.3644  0.2304 -0.1243
  533TMC3     H 7916   4.023   2.717  14.195 -1.3441  0.9444 -2.3253
  533TMC3    H1 7917   3.657   2.714  14.403 -0.3431  0.9114  0.3351
  533TMC3    H2 7918   3.954   2.999  14.506 -2.7279 -1.3244  1.6186
  533TMC3    C7 7919   3.754   2.849  14.591 -0.3445 -0.1204  0.9037
  533TMC3    C8 7920   4.136   2.913  14.345 -0.1155  0.7066  0.8543
  533TMC3    O1 7921   3.740   2.738  14.634  0.2084 -0.4677 -0.8121
  533TMC3    O2 7922   4.159   2.963  14.454 -0.1722 -0.0184 -0.1949
  534MPD2     C 7923   1.109   4.252   1.841  0.3127  0.0921 -1.2307
  534MPD2    C1 7924   1.184   4.278   1.730 -1.0288 -0.4071 -0.0522
  534MPD2    C2 7925   1.211   4.181   1.639  0.8713 -0.0011 -0.5436
  534MPD2    C3 7926   1.155   4.051   1.663 -0.1347 -0.1107 -0.2294
  534MPD2    C4 7927   1.079   4.023   1.776 -0.1686  0.4048  0.5747
  534MPD2    C5 7928   1.055   4.125   1.866  0.3411 -0.1988  0.2278
  534MPD2     H 7929   1.267   4.199   1.548  0.9578 -0.1624 -0.5215
  534MPD2    H1 7930   1.048   3.922   1.804 -0.0814  0.4507  0.8360
  534MPD2    H2 7931   1.089   4.323   1.921 -3.0137 -2.3361  0.0933
  534MPD2    H3 7932   0.993   4.113   1.955  0.0886 -3.5935 -0.3921
  534MPD2     N 7933   1.181   3.950   1.572 -0.1374  0.0172  0.0183
  534MPD2    H5 7934   1.120   3.871   1.589  0.8215 -1.4006 -3.0932
  534MPD2    N1 7935   1.238   4.409   1.696 -0.1826  0.2286 -0.2955
  534MPD2    H7 7936   1.287   4.426   1.609 -1.5197 -0.3339 -1.1444
  535TMC3    C1 7937   1.300   3.812   1.425 -0.0346 -0.1832  0.2020
  535TMC3    C2 7938   1.186   3.751   1.373  0.2879  0.2992 -0.2090
  535TMC3    C3 7939   1.208   3.671   1.263 -0.3008 -0.1418 -0.2164
  535TMC3    C4 7940   1.423   3.785   1.373 -0.0201  0.0904 -0.0508
  535TMC3    C5 7941   1.441   3.689   1.289  0.2475 -0.1929 -0.2750
  535TMC3    C6 7942   1.338   3.638   1.223  0.2829 -0.5878  1.0640
  535TMC3     C 7943   1.290   3.942   1.492  0.0704  0.4666  0.1261
  535TMC3     O 7944   1.384   4.020   1.486 -0.2814  0.5317  0.4604
  535TMC3     H 7945   1.088   3.788   1.400 -0.2115 -1.6619  0.6335
  535TMC3    H1 7946   1.507   3.850   1.395  1.4718 -1.7178 -0.3642
  535TMC3    H2 7947   1.335   3.561   1.147 -1.6909 -0.7011  1.2430
  535TMC3    C7 7948   1.575   3.666   1.221 -0.1641  0.0081 -0.2936
  535TMC3    C8 7949   1.093   3.641   1.183 -0.5416  0.4558 -0.7209
  535TMC3    O1 7950   1.569   3.621   1.107  0.2946  0.6198  0.0818
  535TMC3    O2 7951   1.002   3.721   1.201  0.3026 -0.1408  0.3664
  536MPD2     C 7952   0.343   1.906  16.866 -0.0408  0.2826  0.0023
  536MPD2    C1 7953   0.241   1.996  16.864  0.5098 -0.5214 -0.8307
  536MPD2    C2 7954   0.178   2.009  16.743 -0.3903 -0.3870 -0.3019
  536MPD2    C3 7955   0.205   1.922  16.633  0.0921  1.0484 -0.1973
  536MPD2    C4 7956   0.293   1.813  16.647 -0.3321 -0.4113  0.3661
  536MPD2    C5 7957   0.365   1.810  16.763  0.3184 -0.4353 -0.3410
  536MPD2     H 7958   0.106   2.087  16.721 -0.3846 -0.2134  0.2990
  536MPD2    H1 7959   0.314   1.744  16.567  3.1299  0.4304  0.5663
  536MPD2    H2 7960   0.405   1.906  16.956 -3.8702 -1.8785  2.6305
  536MPD2    H3 7961   0.426   1.725  16.790  0.0788 -1.0148 -1.5850
  536MPD2     N 7962   0.140   1.950  16.515  0.1951  0.3624 -0.0454
  536MPD2    H5 7963   0.091   2.039  16.513  0.9997  0.7887 -1.1987
  536MPD2    N1 7964   0.209   2.065  16.977  0.2722  0.4925 -0.2863
  536MPD2    H7 7965   0.247   2.032  17.065 -2.2225  0.0482  0.6190
  537TMC3    C1 7966   0.103   2.237  17.102 -0.1667  0.0369 -0.2355
  537TMC3    C2 7967   0.084   2.372  17.093 -0.3506  0.5524  0.6546
  537TMC3    C3 7968   0.089   2.433  17.220  0.1335  0.2756 -0.4451
  537TMC3    C4 7969   0.108   2.156  17.206 -0.7915 -0.5340  0.1309
  537TMC3    C5 7970   0.094   2.217  17.324 -0.3895 -0.1775 -0.2620
  537TMC3    C6 7971   0.083   2.353  17.336 -0.8407 -0.9711  0.3379
  537TMC3     C 7972   0.126   2.178  16.973 -0.1927 -0.7037 -0.4654
  537TMC3     O 7973   0.068   2.239  16.879 -0.0245  0.1743 -0.0538
  537TMC3     H 7974   0.105   2.427  17.002  2.1628  1.6953  1.9087
  537TMC3    H1 7975   0.108   2.048  17.193  3.0101 -0.6209  0.8092
  537TMC3    H2 7976   0.074   2.402  17.433 -2.4931 -0.5594 -0.0154
  537TMC3    C7 7977   0.073   2.139  17.444 -0.2517 -0.0811  0.4063
  537TMC3    C8 7978   0.183   2.547  17.235 -0.2493  0.8327 -0.0350
  537TMC3    O1 7979   0.024   2.193  17.540  0.2986 -0.3322 -0.3509
  537TMC3    O2 7980   0.233   2.551  17.346 -0.4448  0.1490  0.4448
  538TMC3    C1 7981   1.168   0.828  10.849 -0.3012 -0.5302  0.7111
  538TMC3    C2 7982   1.145   0.848  10.716 -0.4507  0.0328  0.3232
  538TMC3    C3 7983   1.024   0.822  10.664  0.4424  0.2076  0.3603
  538TMC3    C4 7984   1.070   0.776  10.928  0.1426  0.4196 -0.3416
  538TMC3    C5 7985   0.948   0.769  10.875 -0.8759 -0.5317  0.4777
  538TMC3    C6 7986   0.914   0.801  10.746  0.2316  0.4864 -0.6663
  538TMC3     C 7987   1.304   0.784  10.876  0.6044  0.8681 -0.3897
  538TMC3     O 7988   1.384   0.809  10.789  0.1608 -0.0057 -0.2302
  538TMC3     H 7989   1.221   0.903  10.662  0.8956 -0.8564  1.3122
  538TMC3    H1 7990   1.089   0.736  11.027  2.4494 -0.3745 -1.0959
  538TMC3    H2 7991   0.816   0.791  10.702  1.5692 -0.1163 -3.5014
  538TMC3    C7 7992   0.843   0.794  10.963  0.3610  0.5516  0.0528
  538TMC3    C8 7993   1.037   0.752  10.542 -0.6478 -0.1434  0.6351
  538TMC3    O1 7994   0.728   0.787  10.916 -0.0363  0.2332 -0.5216
  538TMC3    O2 7995   0.936   0.730  10.475 -1.0713  0.3711 -0.5904
  539MPD2     C 7996   1.004   4.313  12.016 -0.3843  0.0073 -0.0203
  539MPD2    C1 7997   0.998   4.326  11.878 -0.1628  0.7723  0.1896
  539MPD2    C2 7998   0.976   4.453  11.827  0.6633 -0.2171  0.3134
  539MPD2    C3 7999   0.961   4.562  11.912 -0.2556  0.7439 -0.5673
  539MPD2    C4 8000   0.953   4.544  12.046  0.2242  0.0895 -0.4266
  539MPD2    C5 8001   0.974   4.421  12.099 -0.5396  0.0528  0.6674
  539MPD2     H 8002   0.958   4.452  11.720  0.4607 -0.1726  0.3473
  539MPD2    H1 8003   0.929   4.629  12.109  1.2573 -1.0878  1.5486
  539MPD2    H2 8004   1.024   4.220  12.068 -0.6872 -1.4198 -2.4415
  539MPD2    H3 8005   0.984   4.411  12.206 -1.8310 -0.2851  0.7534
  539MPD2     N 8006   0.921   4.687  11.856  0.4495  0.3749  0.2818
  539MPD2    H5 8007   0.874   0.034  11.914 -1.3364 -2.4156  2.1924
  539MPD2    N1 8008   1.023   4.220  11.790  0.2014 -0.2402  0.1794
  539MPD2    H7 8009   1.027   4.235  11.690  0.8744  2.5571  0.6332
  540TMC3    C1 8010   0.931   0.148  11.698  0.3131  0.1290  0.7169
  540TMC3    C2 8011   0.912   0.183  11.568  0.7149  0.4335 -0.1064
  540TMC3    C3 8012   0.879   0.312  11.540  0.3697 -0.0213  0.2414
  540TMC3    C4 8013   0.922   0.234  11.805  0.1180 -0.7563 -0.1240
  540TMC3    C5 8014   0.897   0.363  11.769  0.1173 -0.0310 -0.3160
  540TMC3    C6 8015   0.869   0.405  11.644 -0.2322 -0.1191 -0.2741
  540TMC3     C 8016   0.938   0.003  11.721  0.3769  0.9432  0.2872
  540TMC3     O 8017   0.987   4.667  11.625  0.5226 -0.1327  0.5176
  540TMC3     H 8018   0.940   0.116  11.488 -1.8208 -0.8568  0.0914
  540TMC3    H1 8019   0.944   0.207  11.908 -1.1253 -1.8653 -0.1475
  540TMC3    H2 8020   0.838   0.506  11.623  1.3892 -0.0474 -2.3958
  540TMC3    C7 8021   0.803   0.417  11.859 -0.2039 -0.5101 -0.2479
  540TMC3    C8 8022   0.854   0.364  11.408  0.2117 -0.0858 -0.2238
  540TMC3    O1 8023   0.705   0.475  11.810 -0.2943  0.3124  0.1569
  540TMC3    O2 8024   0.910   0.466  11.375 -0.0637  0.6587  0.1585
  541MPD2     C 8025   4.177   1.513  13.157  0.2911  0.1292  0.3258
  541MPD2    C1 8026   4.141   1.425  13.060 -0.1599 -0.6374 -0.0188
  541MPD2    C2 8027   4.195   1.445  12.937  0.1161  0.7503  0.2732
  541MPD2    C3 8028   4.257   1.567  12.906  0.1177  0.5088 -0.0349
  541MPD2    C4 8029   4.274   1.668  12.998  0.3155 -0.2112  0.6182
  541MPD2    C5 8030   4.241   1.632  13.126 -0.9485  0.4792 -0.3144
  541MPD2     H 8031   4.189   1.371  12.858 -0.5476 -0.4929  1.4900
  541MPD2    H1 8032   4.318   1.764  12.974  2.0416 -0.4278  3.0130
  541MPD2    H2 8033   4.137   1.494  13.256  1.8252 -1.4295  0.6511
  541MPD2    H3 8034   4.270   1.705  13.201  1.0608  0.5039 -1.0961
  541MPD2     N 8035   4.300   1.607  12.771 -0.2987  0.3075  0.0199
  541MPD2    H5 8036   4.357   1.691  12.769  0.3694 -0.1674 -0.5900
  541MPD2    N1 8037   4.069   1.315  13.104  0.3321  0.6307 -0.3397
  541MPD2    H7 8038   4.045   1.307  13.202  2.6224  1.0776  0.2399
  542TMC3    C1 8039   4.314   1.620  12.538  0.5814 -0.6199  0.3136
  542TMC3    C2 8040   4.320   1.566  12.410  0.5404 -0.0643  0.2592
  542TMC3    C3 8041   4.349   1.649  12.308  0.8859 -0.6358  0.3293
  542TMC3    C4 8042   4.323   1.756  12.562 -0.6390  0.2661  0.2438
  542TMC3    C5 8043   4.335   1.841  12.451  0.5219  0.5634  0.1466
  542TMC3    C6 8044   4.338   1.786  12.322  0.3248  0.3210 -0.1489
  542TMC3     C 8045   4.297   1.534  12.657 -0.3018  0.1115 -0.0088
  542TMC3     O 8046   4.271   1.417  12.639  0.3036  0.0202 -0.3604
  542TMC3     H 8047   4.317   1.458  12.405  1.1355 -0.0507 -0.3256
  542TMC3    H1 8048   4.319   1.809  12.656 -0.2863  0.7206  0.0020
  542TMC3    H2 8049   4.341   1.855  12.238 -1.0048  1.7763  0.9812
  542TMC3    C7 8050   4.326   1.984  12.476  0.1731 -0.2884 -0.0618
  542TMC3    C8 8051   4.399   1.591  12.186 -0.3352  0.4190  0.1666
  542TMC3    O1 8052   4.359   2.018  12.589  0.0438 -0.4769 -0.3379
  542TMC3    O2 8053   4.385   1.657  12.084 -0.2361  0.0962 -0.3735
  543TMC3    C1 8054   3.130   2.649  16.906  0.8525 -0.0242  0.1681
  543TMC3    C2 8055   3.128   2.526  16.968 -0.2870 -0.0696  0.1689
  543TMC3    C3 8056   3.071   2.517  17.085 -0.6679 -0.6155  0.8076
  543TMC3    C4 8057   3.063   2.752  16.960  0.8472 -0.0737 -0.0117
  543TMC3    C5 8058   2.986   2.726  17.071  0.7065 -0.7648  0.7322
  543TMC3    C6 8059   3.000   2.615  17.146  0.3414  0.1580  0.4729
  543TMC3     C 8060   3.254   2.668  16.839  0.4350  0.4406  0.1199
  543TMC3     O 8061   3.344   2.589  16.859  0.0354  0.3400 -0.0309
  543TMC3     H 8062   3.195   2.449  16.934 -1.7986 -1.1832 -0.2800
  543TMC3    H1 8063   3.062   2.851  16.917  2.1080 -0.6015 -1.2377
  543TMC3    H2 8064   2.941   2.595  17.235 -0.0231 -0.6998  0.0356
  543TMC3    C7 8065   2.919   2.847  17.121  0.2953 -0.5576  0.0129
  543TMC3    C8 8066   3.105   2.398  17.157 -0.6721 -0.3515 -0.3658
  543TMC3    O1 8067   2.936   2.948  17.057  0.5040  0.3086  0.7808
  543TMC3    O2 8068   3.214   2.351  17.134 -0.2081 -0.2506  0.0747
  544MPD2     C 8069   3.012   1.995  17.462  1.1049 -0.2350 -0.0756
  544MPD2    C1 8070   3.128   2.028  17.397  0.5920 -0.2829 -0.2859
  544MPD2    C2 8071   3.137   2.146  17.321  0.5601  0.0981  0.0817
  544MPD2    C3 8072   3.024   2.224  17.317  0.4775 -0.6609 -0.1795
  544MPD2    C4 8073   2.912   2.187  17.390 -0.9896 -0.3774 -0.3075
  544MPD2    C5 8074   2.906   2.073  17.467 -0.2613 -0.8863 -0.0561
  544MPD2     H 8075   3.226   2.168  17.264  1.0659 -1.2295  0.3649
  544MPD2    H1 8076   2.826   2.253  17.395 -1.1522 -0.5991 -0.1859
  544MPD2    H2 8077   3.004   1.909  17.528 -1.8343  0.8226  0.9615
  544MPD2    H3 8078   2.818   2.040  17.521 -1.5463  4.0751  0.9188
  544MPD2     N 8079   3.012   2.350  17.250 -0.1034 -0.0648  0.5839
  544MPD2    H5 8080   2.924   2.399  17.240 -0.4827 -1.3850 -2.4962
  544MPD2    N1 8081   3.234   1.943  17.421 -0.2662  0.2079  0.5528
  544MPD2    H7 8082   3.208   1.853  17.459 -0.5139 -0.5389 -1.3887
  545TMC3    C1 8083   3.461   1.874  17.433  0.6366 -0.3641 -1.1370
  545TMC3    C2 8084   3.595   1.895  17.402  0.2813 -0.4088  0.1032
  545TMC3    C3 8085   3.684   1.792  17.409 -0.5320  0.2650 -0.5472
  545TMC3    C4 8086   3.426   1.758  17.498 -0.2105 -0.6823 -0.3599
  545TMC3    C5 8087   3.516   1.665  17.515 -0.0252 -0.1126 -0.9333
  545TMC3    C6 8088   3.647   1.673  17.467  0.4804  0.2242 -0.9474
  545TMC3     C 8089   3.369   1.983  17.411 -0.0481 -0.3651 -0.1489
  545TMC3     O 8090   3.417   2.093  17.392  0.0650 -0.0038  0.1084
  545TMC3     H 8091   3.622   1.987  17.351 -0.0814  0.1928  0.9944
  545TMC3    H1 8092   3.325   1.748  17.535 -0.4494 -2.1757 -1.4132
  545TMC3    H2 8093   3.720   1.595  17.482  0.4165  0.1597 -0.9730
  545TMC3    C7 8094   3.469   1.534  17.570  0.0719  0.6464  0.1997
  545TMC3    C8 8095   3.822   1.809  17.382 -0.0967 -0.6595 -0.6604
  545TMC3    O1 8096   3.348   1.515  17.582  0.2429 -0.6170 -0.2582
  545TMC3    O2 8097   3.896   1.728  17.429  0.5479  0.3567  0.1115
  546MPD2     C 8098   0.451   3.398  17.609  0.0975 -0.1074 -0.1852
  546MPD2    C1 8099   0.450   3.346  17.478  1.0581 -0.4408  0.6047
  546MPD2    C2 8100   0.536   3.390  17.380  0.5465  0.0113  0.2213
  546MPD2    C3 8101   0.615   3.504  17.398  0.0787  0.4947  0.1125
  546MPD2    C4 8102   0.606   3.561  17.521  0.5498  0.2391  0.2195
  546MPD2    C5 8103   0.529   3.510  17.623  0.3357  0.0379  0.0470
  546MPD2     H 8104   0.535   3.330  17.289  0.9602 -0.2757  0.4054
  546MPD2    H1 8105   0.652   3.658  17.539  0.3613  0.2999  0.3732
  546MPD2    H2 8106   0.383   3.369  17.688  1.9597  0.0281  1.4530
  546MPD2    H3 8107   0.515   3.562   0.025  0.3911 -2.0258  1.1859
  546MPD2     N 8108   0.704   3.558  17.299  0.1889 -0.5064 -0.2611
  546MPD2    H5 8109   0.757   3.641  17.325  0.8552 -0.4298 -1.8915
  546MPD2    N1 8110   0.349   3.250  17.465  0.3547 -0.3098  0.2306
  546MPD2    H7 8111   0.297   3.224  17.548  0.6501  0.5284  0.6776
  547TMC3    C1 8112   0.210   3.108  17.327 -0.1133  0.4255 -0.5147
  547TMC3    C2 8113   0.120   3.104  17.222 -0.1915  0.3493  0.2506
  547TMC3    C3 8114   0.035   2.998  17.210  0.2670  0.1272 -0.1718
  547TMC3    C4 8115   0.219   3.004  17.420 -0.3511 -0.7719  0.1160
  547TMC3    C5 8116   0.128   2.904  17.407 -0.3840  0.0585  0.0692
  547TMC3    C6 8117   0.034   2.904  17.308  0.1220 -0.4251 -0.6834
  547TMC3     C 8118   0.309   3.214  17.338 -0.1597 -0.1899 -0.2813
  547TMC3     O 8119   0.324   3.276  17.233  0.6307  0.0636  0.0135
  547TMC3     H 8120   0.124   3.184  17.149 -0.0746  0.1840  0.0744
  547TMC3    H1 8121   0.298   3.003  17.495  0.4475 -2.4214 -0.7279
  547TMC3    H2 8122   4.691   2.817  17.305 -1.5351  0.8117 -0.6384
  547TMC3    C7 8123   0.132   2.805  17.508 -0.0318  1.2506  0.3968
  547TMC3    C8 8124   4.656   2.992  17.101  0.2128 -0.2860 -0.1030
  547TMC3    O1 8125   0.024   2.744  17.532  0.5296 -0.1863  0.6104
  547TMC3    O2 8126   4.625   2.882  17.054  0.4128  0.1841 -0.1237
  548MPD2     C 8127   0.334   3.350  12.251 -0.3470  0.0685  0.7903
  548MPD2    C1 8128   0.307   3.223  12.302  0.2651 -0.7383 -0.1086
  548MPD2    C2 8129   0.397   3.124  12.285  0.0178  0.4883 -0.3746
  548MPD2    C3 8130   0.512   3.147  12.214 -0.2036  0.0045  0.2885
  548MPD2    C4 8131   0.548   3.276  12.165 -0.5212  0.1169  0.6479
  548MPD2    C5 8132   0.454   3.373  12.186 -0.7695  0.4229 -0.3503
  548MPD2     H 8133   0.376   3.023  12.319 -2.0817  1.2318  0.5035
  548MPD2    H1 8134   0.643   3.297  12.116 -1.4294  0.9468 -0.7683
  548MPD2    H2 8135   0.260   3.429  12.253  2.2549  2.5074 -0.0176
  548MPD2    H3 8136   0.468   3.473  12.147  1.2525  1.0300  2.0057
  548MPD2     N 8137   0.583   3.030  12.179  0.5383 -0.2679  0.0021
  548MPD2    H5 8138   0.532   2.945  12.202 -0.5213 -0.3170 -2.4665
  548MPD2    N1 8139   0.183   3.198  12.364  1.2036  0.0477 -0.2847
  548MPD2    H7 8140   0.138   3.287  12.388 -0.8307 -1.4725  1.5686
  549TMC3    C1 8141   4.720   3.092  12.450  0.4762  0.0778  0.3434
  549TMC3    C2 8142   4.651   3.205  12.428 -0.8555  0.4138 -0.0538
  549TMC3    C3 8143   4.529   3.216  12.489 -0.2533  0.0390 -0.1470
  549TMC3    C4 8144   4.678   2.993  12.533 -0.0367 -0.1364  0.6742
  549TMC3    C5 8145   4.562   3.014  12.603  0.1828  0.3978  0.0928
  549TMC3    C6 8146   4.489   3.124  12.591 -0.3297 -0.6580  0.4474
  549TMC3     C 8147   0.128   3.076  12.388  0.4126  0.4274 -0.1837
  549TMC3     O 8148   0.162   2.962  12.361 -0.3380  0.2248 -0.1303
  549TMC3     H 8149   4.688   3.274  12.354 -1.3761  2.2205  1.3672
  549TMC3    H1 8150   0.025   2.913  12.554  1.6900  1.0385 -0.5675
  549TMC3    H2 8151   4.396   3.138  12.645 -0.9733 -1.4262 -0.4543
  549TMC3    C7 8152   4.500   2.907  12.678  0.0694  0.7360  0.0556
  549TMC3    C8 8153   4.427   3.302  12.436 -0.0844  0.4954  0.1041
  549TMC3    O1 8154   4.422   2.934  12.768  1.0245 -0.3295  0.4898
  549TMC3    O2 8155   4.311   3.275  12.456 -0.5536  0.4273 -0.1985
  550TMC3    C1 8156   3.414   0.943  11.982 -0.0159 -0.2265  0.0718
  550TMC3    C2 8157   3.449   0.935  12.112  0.4904  0.4907  0.0577
  550TMC3    C3 8158   3.428   1.050  12.191  0.4165  0.3239 -0.4757
  550TMC3    C4 8159   3.368   1.063  11.921 -0.1758 -0.2586  1.0363
  550TMC3    C5 8160   3.348   1.170  12.006 -0.1745  0.1725 -0.2090
  550TMC3    C6 8161   3.380   1.167  12.140 -0.8058  0.3628 -0.0655
  550TMC3     C 8162   3.429   0.814  11.906  0.1330  0.0971  0.1197
  550TMC3     O 8163   3.446   0.710  11.966  0.0565  0.1055  0.3317
  550TMC3     H 8164   3.484   0.843  12.158 -0.1054 -0.5064 -1.4725
  550TMC3    H1 8165   3.342   1.068  11.816  1.4992 -0.1194  0.6359
  550TMC3    H2 8166   3.354   1.254  12.199 -1.5533 -0.2192  0.4644
  550TMC3    C7 8167   3.254   1.277  11.964  0.1724  0.4356 -0.0099
  550TMC3    C8 8168   3.358   1.023  12.313  0.1959  0.7772 -0.2449
  550TMC3    O1 8169   3.182   1.324  12.053  0.1176 -0.2342  0.2290
  550TMC3    O2 8170   3.339   1.115  12.389  0.2983 -0.6728 -0.4172
  551TMC3    C1 8171   1.353   3.404  13.271  0.4839 -0.6823 -0.1341
  551TMC3    C2 8172   1.443   3.444  13.176 -0.5264  0.0577  0.0812
  551TMC3    C3 8173   1.519   3.560  13.197 -0.9605  0.6527  0.3846
  551TMC3    C4 8174   1.336   3.480  13.383  0.2088 -0.3437 -0.2685
  551TMC3    C5 8175   1.420   3.588  13.406 -0.2643 -0.6188  0.4041
  551TMC3    C6 8176   1.515   3.631  13.318  0.2515 -0.3977  0.0321
  551TMC3     C 8177   1.242   3.327  13.212 -0.4333  0.5431  0.7207
  551TMC3     O 8178   1.228   3.306  13.098  0.2750  0.3329 -0.1261
  551TMC3     H 8179   1.447   3.387  13.084  2.2338  2.2853 -1.1619
  551TMC3    H1 8180   1.267   3.453  13.463 -0.0670 -0.0297 -0.4037
  551TMC3    H2 8181   1.580   3.713  13.345  2.5809 -2.6619  1.2738
  551TMC3    C7 8182   1.405   3.653  13.535 -0.3338 -0.2170  0.0116
  551TMC3    C8 8183   1.620   3.596  13.104 -0.6683  0.1212 -0.1844
  551TMC3    O1 8184   1.391   3.583  13.632 -0.2802  0.4029 -0.1209
  551TMC3    O2 8185   1.658   3.515  13.020  0.0524 -0.0927  0.0934
  552MPD2     C 8186   3.282   1.063  13.625 -0.4509 -0.2602 -0.5237
  552MPD2    C1 8187   3.324   0.951  13.695 -0.0230 -0.3882 -0.4721
  552MPD2    C2 8188   3.376   0.979  13.823  0.3641 -0.2871 -0.5807
  552MPD2    C3 8189   3.397   1.106  13.870 -0.8096 -0.3880  0.3728
  552MPD2    C4 8190   3.350   1.216  13.796 -0.3717 -0.1086 -0.8872
  552MPD2    C5 8191   3.294   1.193  13.678 -0.1363  0.2122  1.0681
  552MPD2     H 8192   3.413   0.893  13.877 -0.8731 -0.3644  0.1229
  552MPD2    H1 8193   3.363   1.319  13.824 -0.4810 -1.0400  2.6301
  552MPD2    H2 8194   3.228   1.052  13.531 -1.3539  0.2375 -0.0580
  552MPD2    H3 8195   3.251   1.276  13.622  0.5492  0.0490  0.3023
  552MPD2     N 8196   3.459   1.140  13.995  0.2017 -0.6276  0.2553
  552MPD2    H5 8197   3.465   1.240  14.014 -0.6645 -0.5353  0.0361
  552MPD2    N1 8198   3.323   0.821  13.642 -0.8836  0.2878  0.1432
  552MPD2    H7 8199   3.370   0.753  13.701  0.6959  0.8588 -0.4774
  553TMC3    C1 8200   3.285   0.639  13.493  0.8181 -0.2721  0.0300
  553TMC3    C2 8201   3.256   0.604  13.365 -0.4187  0.0480  0.0071
  553TMC3    C3 8202   3.214   0.477  13.333  0.3937 -0.2560 -0.1948
  553TMC3    C4 8203   3.283   0.545  13.590  0.5781  0.0062 -0.2063
  553TMC3    C5 8204   3.247   0.418  13.557  0.0493  0.0871 -0.1820
  553TMC3    C6 8205   3.198   0.388  13.433  0.3918  0.2533  0.3833
  553TMC3     C 8206   3.272   0.781  13.522 -0.0620  0.1810 -0.8151
  553TMC3     O 8207   3.207   0.850  13.441  0.5626  0.1137  0.0545
  553TMC3     H 8208   3.257   0.679  13.287  0.1591  0.5754  0.5241
  553TMC3    H1 8209   3.292   0.570  13.696 -1.6865 -0.9718  0.2114
  553TMC3    H2 8210   3.187   0.283  13.408  2.4805  0.4550 -1.3265
  553TMC3    C7 8211   3.302   0.307  13.634  0.2798  0.2592 -0.1217
  553TMC3    C8 8212   3.300   0.425  13.234  0.6562 -0.0213  0.0295
  553TMC3    O1 8213   3.266   0.194  13.598 -0.4993  0.5929  0.3121
  553TMC3    O2 8214   3.410   0.481  13.231  0.2004 -0.3101 -0.7275
  554TMC3    C1 8215   4.368   4.273  11.820 -0.3756  0.6681  0.1344
  554TMC3    C2 8216   4.264   4.287  11.725  0.0632 -0.2191 -0.2602
  554TMC3    C3 8217   4.245   4.411  11.685  0.3811 -0.2451  0.1014
  554TMC3    C4 8218   4.453   4.370  11.861 -0.2700  0.0887  0.1230
  554TMC3    C5 8219   4.424   4.494  11.814  0.2621 -0.1473 -0.2676
  554TMC3    C6 8220   4.313   4.520  11.741 -0.2375 -0.1491  0.1274
  554TMC3     C 8221   4.373   4.140  11.885  0.3950  0.1394  0.2157
  554TMC3     O 8222   4.286   4.063  11.847 -0.1198 -0.1805  0.1316
  554TMC3     H 8223   4.222   4.195  11.685  1.1563 -0.9782  0.3348
  554TMC3    H1 8224   4.541   4.362  11.924 -0.5570  1.7273  0.7340
  554TMC3    H2 8225   4.306   4.618  11.695 -0.7606  0.5144  1.6516
  554TMC3    C7 8226   4.540   4.567  11.765 -0.1390  0.7945 -0.1761
  554TMC3    C8 8227   4.225   4.430  11.537 -0.5345 -0.0101 -0.0422
  554TMC3    O1 8228   4.540   4.600  11.647 -0.4115  0.7193 -0.4995
  554TMC3    O2 8229   4.289   4.515  11.481  0.0727 -0.5362  0.2025
  555TMC3    C1 8230   4.185   4.194  14.861 -0.3207 -0.6773  0.4316
  555TMC3    C2 8231   4.261   4.290  14.934 -0.0535 -0.3318 -0.0948
  555TMC3    C3 8232   4.246   4.277  15.067  0.2138  0.7199 -0.3403
  555TMC3    C4 8233   4.126   4.087  14.916  0.9702 -1.0770  0.3377
  555TMC3    C5 8234   4.120   4.086  15.048  0.1121 -0.3411  0.1282
  555TMC3    C6 8235   4.177   4.175  15.129 -1.0495 -0.0027 -0.0091
  555TMC3     C 8236   4.215   4.189  14.717  0.4324 -0.9065 -0.0698
  555TMC3     O 8237   4.193   4.090  14.651 -0.1148  1.1011  0.5814
  555TMC3     H 8238   4.332   4.359  14.891 -1.2273 -0.2531 -1.8932
  555TMC3    H1 8239   4.084   4.008  14.855  0.0731 -1.0229  0.8868
  555TMC3    H2 8240   4.151   4.169  15.234  0.4774 -1.2897  0.2916
  555TMC3    C7 8241   4.079   3.962  15.110 -0.2496  0.0092 -0.8220
  555TMC3    C8 8242   4.336   4.352  15.150 -0.6638  0.4384  0.7334
  555TMC3    O1 8243   3.992   3.904  15.045 -0.0035 -0.5871 -0.4288
  555TMC3    O2 8244   4.317   4.471  15.156 -0.0178  0.0091 -0.1219
  556MPD2     C 8245   2.280   0.452  10.988 -0.1043 -0.1314  0.6126
  556MPD2    C1 8246   2.171   0.529  10.951 -0.2883 -1.0631  0.3282
  556MPD2    C2 8247   2.084   0.478  10.862 -0.4043  0.0728 -0.2725
  556MPD2    C3 8248   2.093   0.354  10.815  1.0336 -0.5152 -0.1122
  556MPD2    C4 8249   2.202   0.273  10.848  0.7178 -0.7471 -0.7490
  556MPD2    C5 8250   2.299   0.320  10.941 -0.1564 -0.1901  0.4556
  556MPD2     H 8251   2.010   0.545  10.820 -0.2357 -0.0362 -0.7460
  556MPD2    H1 8252   2.214   0.172  10.811  0.6686 -0.6025 -1.1651
  556MPD2    H2 8253   2.353   0.496  11.055  0.0335  2.5605 -1.3072
  556MPD2    H3 8254   2.387   0.260  10.963 -0.6371 -0.8481  0.5758
  556MPD2     N 8255   1.990   0.315  10.728 -0.0371 -0.3283 -0.3261
  556MPD2    H5 8256   1.919   0.385  10.710  1.2062  1.1470  0.5538
  556MPD2    N1 8257   2.151   0.663  10.997  0.7858  0.0136 -0.3871
  556MPD2    H7 8258   2.062   0.711  10.986  0.9922  0.3324 -0.6705
  557TMC3    C1 8259   1.863   0.197  10.579  0.5421 -0.0529 -0.0678
  557TMC3    C2 8260   1.893   0.132  10.466  0.2744  0.5132 -0.1966
  557TMC3    C3 8261   1.816   0.165  10.355 -0.9087  0.2396 -0.1045
  557TMC3    C4 8262   1.777   0.305  10.580 -0.0649  0.1335 -0.3110
  557TMC3    C5 8263   1.708   0.331  10.463 -0.7224  0.4548  0.1134
  557TMC3    C6 8264   1.729   0.275  10.347  0.4469 -0.1638  0.1861
  557TMC3     C 8265   1.966   0.189  10.681  0.2472 -0.0430  0.4690
  557TMC3     O 8266   2.036   0.090  10.697 -0.8457 -0.1437 -0.5591
  557TMC3     H 8267   1.957   0.044  10.464 -1.1525 -0.5209  0.1672
  557TMC3    H1 8268   1.753   0.356  10.673  0.3441  0.7798 -0.5572
  557TMC3    H2 8269   1.679   0.311  10.258  0.9071  0.6974  0.2801
  557TMC3    C7 8270   1.587   0.413  10.470 -0.0475  0.5030 -0.4966
  557TMC3    C8 8271   1.884   0.132  10.234 -0.1054 -0.6748  0.5167
  557TMC3    O1 8272   1.595   0.508  10.545 -0.8481  0.3767 -0.0057
  557TMC3    O2 8273   1.882   0.223  10.157 -0.1948 -0.1036 -0.3329
  558TMC3    C1 8274   4.504   3.435   9.879  0.3530 -0.1376 -0.2658
  558TMC3    C2 8275   4.412   3.445   9.980  0.2445  0.2804  0.1697
  558TMC3    C3 8276   4.283   3.465   9.940  0.6344  0.0407  0.8537
  558TMC3    C4 8277   4.473   3.435   9.746  0.2682 -0.5118  0.1441
  558TMC3    C5 8278   4.336   3.451   9.714 -0.6799 -0.2260  0.0258
  558TMC3    C6 8279   4.234   3.458   9.810 -0.1765 -0.3072  0.0851
  558TMC3     C 8280   4.638   3.406   9.911 -0.1210  0.4273 -0.8858
  558TMC3     O 8281   0.002   3.453   9.837  0.5329 -0.0012 -0.4133
  558TMC3     H 8282   4.445   3.453  10.083 -0.0332  0.4055  0.2479
  558TMC3    H1 8283   4.553   3.425   9.674 -0.0041 -1.4663 -0.0259
  558TMC3    H2 8284   4.129   3.472   9.787  0.0099 -1.4687 -1.4937
  558TMC3    C7 8285   4.297   3.482   9.575 -0.2293  0.4074 -0.2399
  558TMC3    C8 8286   4.172   3.455  10.038 -0.7627 -0.1026  0.2410
  558TMC3    O1 8287   4.395   3.519   9.507  0.1256 -0.3578  0.0941
  558TMC3    O2 8288   4.061   3.504  10.015 -0.5012  0.3950 -0.2707
  559MPD2     C 8289   4.368   4.177  10.486 -0.7641 -0.5062 -0.5431
  559MPD2    C1 8290   4.298   4.159  10.606  0.4723  0.5422  0.0744
  559MPD2    C2 8291   4.362   4.161  10.725 -0.2346 -0.1744 -0.1111
  559MPD2    C3 8292   4.500   4.168  10.736 -0.2770 -0.9188  0.1710
  559MPD2    C4 8293   4.567   4.195  10.619  0.0390  0.6102 -0.5796
  559MPD2    C5 8294   4.498   4.205  10.500  0.8128 -0.0985 -0.2986
  559MPD2     H 8295   4.306   4.149  10.817 -0.0474  3.5330  0.4689
  559MPD2    H1 8296   4.673   4.218  10.613  0.3084 -0.5009 -0.0341
  559MPD2    H2 8297   4.319   4.191  10.390 -2.4560 -0.1540  0.3801
  559MPD2    H3 8298   4.557   4.225  10.412  0.0684 -3.2113 -1.4761
  559MPD2     N 8299   4.557   4.169  10.868 -0.3336  0.5392 -0.3656
  559MPD2    H5 8300   4.501   4.132  10.943  1.5853 -0.1629  0.7271
  559MPD2    N1 8301   4.159   4.140  10.598  0.1710  0.0869 -0.2048
  559MPD2    H7 8302   4.096   4.147  10.677 -0.2873  1.8743 -0.7331
  560TMC3    C1 8303   4.711   4.186  11.047 -0.4554  0.4544 -0.4524
  560TMC3    C2 8304   4.662   4.055  11.085  0.3587 -0.6331  0.4060
  560TMC3    C3 8305   4.720   3.993  11.194  0.0967 -0.5889 -0.8850
  560TMC3    C4 8306   0.099   4.239  11.114 -0.0860  0.3936  0.5883
  560TMC3    C5 8307   0.152   4.174  11.222 -0.2761  0.9543 -0.5633
  560TMC3    C6 8308   0.108   4.049  11.263  0.4161  0.0643  0.4501
  560TMC3     C 8309   4.678   4.217  10.909  0.3308 -0.7601 -0.0299
  560TMC3     O 8310   0.030   4.283  10.842  0.0518 -0.4281  0.1770
  560TMC3     H 8311   4.583   4.009  11.027  0.6528 -0.5364 -0.0731
  560TMC3    H1 8312   0.141   4.333  11.080 -2.8843  2.2744  2.2853
  560TMC3    H2 8313   0.154   3.999  11.347  0.2703 -0.6520  0.1121
  560TMC3    C7 8314   0.273   4.236  11.280 -0.5741 -0.9149  0.5520
  560TMC3    C8 8315   4.711   3.844  11.191 -0.2441 -0.0383 -0.3101
  560TMC3    O1 8316   0.319   4.332  11.219 -0.3913  0.4059  0.0676
  560TMC3    O2 8317   4.603   3.797  11.161  0.6330 -0.0466 -0.3926
  561TMC3    C1 8318   2.499   2.564  11.364 -0.3730 -0.1036 -0.6434
  561TMC3    C2 8319   2.406   2.506  11.442 -0.2039  0.6038  0.8914
  561TMC3    C3 8320   2.278   2.564  11.450  0.1703 -0.7685 -0.5336
  561TMC3    C4 8321   2.471   2.672  11.285 -0.4866  0.1587  0.4507
  561TMC3    C5 8322   2.354   2.736  11.302  0.1868  0.6496 -0.3558
  561TMC3    C6 8323   2.253   2.683  11.382 -0.1677  0.4373 -0.2249
  561TMC3     C 8324   2.639   2.530  11.402  0.2978 -0.3139 -0.1809
  561TMC3     O 8325   2.650   2.443  11.484 -0.5525  0.2205 -0.5501
  561TMC3     H 8326   2.434   2.430  11.515 -0.6422 -1.0585 -0.6805
  561TMC3    H1 8327   2.543   2.712  11.214 -1.7592  1.6933  0.0281
  561TMC3    H2 8328   2.152   2.721  11.370  0.1460  1.7352  1.2138
  561TMC3    C7 8329   2.318   2.869  11.241  0.4303 -0.1112 -0.3642
  561TMC3    C8 8330   2.212   2.540  11.572  0.6656  0.1943 -0.0822
  561TMC3    O1 8331   2.195   2.896  11.246  0.0872 -0.0734 -0.2215
  561TMC3    O2 8332   2.229   2.422  11.609 -0.0501 -0.1731 -0.2186
  562TMC3    C1 8333   3.743   4.503  16.021 -0.2419  0.1588 -0.2468
  562TMC3    C2 8334   3.678   4.618  15.989  0.3330 -0.3492 -0.0559
  562TMC3    C3 8335   3.654   4.640  15.860 -0.1498  0.1348 -0.3683
  562TMC3    C4 8336   3.786   4.418  15.929  0.2016  0.1682  1.6564
  562TMC3    C5 8337   3.765   4.450  15.801  0.3673 -0.5246  1.4557
  562TMC3    C6 8338   3.700   4.562  15.759  0.2011 -0.6456  0.7345
  562TMC3     C 8339   3.728   4.437  16.153  0.0813  0.5414  0.3939
  562TMC3     O 8340   3.719   4.313  16.168  0.3439 -0.2606 -0.3073
  562TMC3     H 8341   3.636   4.683  16.065  0.7262  0.7406 -0.7888
  562TMC3    H1 8342   3.844   4.335  15.965 -0.7041 -0.3893  1.8353
  562TMC3    H2 8343   3.658   4.567  15.659 -1.2858  2.2224  1.5029
  562TMC3    C7 8344   3.794   4.356  15.696 -0.2340  0.3845 -0.5452
  562TMC3    C8 8345   3.598   0.048  15.834 -0.9965 -0.2594  0.9718
  562TMC3    O1 8346   3.788   4.389  15.581  0.0005 -0.3539 -0.2584
  562TMC3    O2 8347   3.559   0.111  15.928 -0.0811  0.6808 -0.3835
  563MPD2     C 8348   1.365   1.428  15.646  0.3101  0.6869  0.3492
  563MPD2    C1 8349   1.359   1.406  15.777  0.7632 -0.1250 -0.4099
  563MPD2    C2 8350   1.478   1.381  15.839  0.2444 -0.3398 -0.3784
  563MPD2    C3 8351   1.595   1.394  15.775 -0.1545  0.1325  0.1053
  563MPD2    C4 8352   1.599   1.424  15.643  0.2899  0.2291  0.0846
  563MPD2    C5 8353   1.483   1.448  15.579  0.2999 -0.7884 -0.5133
  563MPD2     H 8354   1.462   1.358  15.944  3.3037 -0.6744  0.0273
  563MPD2    H1 8355   1.692   1.453  15.596  0.1585  0.6171  0.0632
  563MPD2    H2 8356   1.270   1.441  15.595  0.5781  0.9394 -0.0906
  563MPD2    H3 8357   1.489   1.473  15.474 -0.9172  1.6317 -0.0050
  563MPD2     N 8358   1.714   1.362  15.849  0.2397  0.1427 -0.1166
  563MPD2    H5 8359   1.703   1.377  15.949  0.7335  0.7795 -0.1560
  563MPD2    N1 8360   1.235   1.397  15.851  0.0324 -0.6455 -0.4824
  563MPD2    H7 8361   1.145   1.386  15.805  0.0710  0.1176 -0.7341
  564TMC3    C1 8362   1.107   1.347  16.042  0.6041 -0.0129  0.4894
  564TMC3    C2 8363   1.048   1.241  15.977 -1.4438 -0.6038 -0.6435
  564TMC3    C3 8364   0.959   1.173  16.056 -0.5057 -0.0969  0.2121
  564TMC3    C4 8365   1.085   1.368  16.179 -0.3695  0.0366  0.6726
  564TMC3    C5 8366   1.023   1.272  16.250 -0.4769 -0.5053  0.0020
  564TMC3    C6 8367   0.938   1.186  16.188  0.1662 -0.1885  0.6462
  564TMC3     C 8368   1.226   1.402  15.990  0.2757 -0.3614  0.2284
  564TMC3     O 8369   1.299   1.467  16.065  0.2576 -0.0421 -0.1679
  564TMC3     H 8370   1.075   1.207  15.877 -0.2367 -0.1744 -0.4720
  564TMC3    H1 8371   1.153   1.432  16.233  0.5901  0.3231 -0.8637
  564TMC3    H2 8372   0.854   1.140  16.240  0.0092 -1.7866 -1.0274
  564TMC3    C7 8373   1.112   1.188  16.334  0.8016  0.6080 -1.0118
  564TMC3    C8 8374   0.904   1.042  16.019 -0.4758  0.4103  0.3747
  564TMC3    O1 8375   1.201   1.247  16.395 -0.5077  0.3899 -0.4683
  564TMC3    O2 8376   0.862   0.975  16.113  0.2699  0.5159 -0.5181
  565TMC3    C1 8377   1.759   2.026   9.997  0.0812 -0.4928 -0.1483
  565TMC3    C2 8378   1.779   1.926  10.089  0.8788  1.0227 -0.6026
  565TMC3    C3 8379   1.756   1.797  10.042  0.4647 -0.3146  0.5312
  565TMC3    C4 8380   1.721   2.004   9.864 -0.0068 -0.8090 -0.8925
  565TMC3    C5 8381   1.727   1.874   9.825  0.5914  0.6036  0.6350
  565TMC3    C6 8382   1.733   1.764   9.911  0.1389 -0.2051 -0.3329
  565TMC3     C 8383   1.790   2.168  10.029  0.1332  0.1232  1.2991
  565TMC3     O 8384   1.780   2.244   9.938  0.2380  0.0964  0.6597
  565TMC3     H 8385   1.807   1.953  10.191 -0.5549 -0.3098  0.1500
  565TMC3    H1 8386   1.713   2.086   9.794 -1.5522  0.6161  0.9402
  565TMC3    H2 8387   1.749   1.669   9.863  4.0951 -0.3494  1.2615
  565TMC3    C7 8388   1.719   1.843   9.679  0.7370  0.8316 -0.4142
  565TMC3    C8 8389   1.767   1.686  10.136  0.4320 -0.2233 -0.1855
  565TMC3    O1 8390   1.661   1.738   9.648  0.1869 -0.1433  0.5093
  565TMC3    O2 8391   1.847   1.714  10.226  0.4305  0.0726  0.4481
  566MPD2     C 8392   2.967   3.477  14.219 -0.0964  0.5330 -0.2138
  566MPD2    C1 8393   3.051   3.558  14.143 -0.4187  0.3202 -0.1322
  566MPD2    C2 8394   2.996   3.613  14.025 -0.7882 -0.1650 -0.5169
  566MPD2    C3 8395   2.862   3.591  13.986 -0.0331 -0.7955 -0.6219
  566MPD2    C4 8396   2.785   3.508  14.063 -0.0815 -0.0916 -0.6818
  566MPD2    C5 8397   2.834   3.455  14.182  0.1634  0.2815 -1.1233
  566MPD2     H 8398   3.043   3.696  13.972 -0.4109  0.0065  0.0825
  566MPD2    H1 8399   2.688   3.473  14.028 -0.8150  2.1061 -0.8782
  566MPD2    H2 8400   3.003   3.437  14.313 -0.6622  1.2769  0.3099
  566MPD2    H3 8401   2.774   3.385  14.239 -0.5551  2.3329  0.6776
  566MPD2     N 8402   2.805   3.639  13.860 -0.1860 -0.3973  0.3254
  566MPD2    H5 8403   2.711   3.608  13.837 -0.8443  0.2357  2.1657
  566MPD2    N1 8404   3.189   3.575  14.176  0.1468 -0.5617 -0.3116
  566MPD2    H7 8405   3.220   3.529  14.261 -0.5585 -1.0138 -0.2994
  567TMC3    C1 8406   3.425   3.606  14.141  0.1434  0.1521  0.0514
  567TMC3    C2 8407   3.520   3.618  14.043  0.1611  0.6519 -0.2200
  567TMC3    C3 8408   3.644   3.556  14.054 -0.1520 -0.2625  0.3169
  567TMC3    C4 8409   3.455   3.536  14.252 -0.0967 -0.0996  0.3472
  567TMC3    C5 8410   3.574   3.474  14.263 -1.0441  0.2130  0.9826
  567TMC3    C6 8411   3.670   3.481  14.163  0.2924  0.0567  0.4571
  567TMC3     C 8412   3.289   3.643  14.104 -0.6759  0.2391  1.0198
  567TMC3     O 8413   3.285   3.714  14.005  0.4184 -0.1916 -0.2093
  567TMC3     H 8414   3.501   3.684  13.959  0.2101 -0.4618 -1.0972
  567TMC3    H1 8415   3.377   3.513  14.323 -0.6909  1.5345  0.2001
  567TMC3    H2 8416   3.769   3.441  14.183 -0.3345 -1.4740  0.5196
  567TMC3    C7 8417   3.629   3.462  14.393 -0.2643  0.3626 -0.9565
  567TMC3    C8 8418   3.742   3.586  13.952 -0.0453  0.1593  0.2032
  567TMC3    O1 8419   3.738   3.412  14.411  0.3376 -0.2579 -0.5080
  567TMC3    O2 8420   3.695   3.635  13.850 -0.3586  0.2233  0.1492
  568MPD2     C 8421   1.556   4.524  16.457  0.4287 -0.9272 -0.2493
  568MPD2    C1 8422   1.454   4.555  16.542 -0.7589  0.2007  0.5756
  568MPD2    C2 8423   1.337   4.617  16.496 -0.2691 -0.0906  0.6377
  568MPD2    C3 8424   1.332   4.646  16.362 -0.9403  0.1789 -0.1189
  568MPD2    C4 8425   1.432   4.616  16.278 -0.0095  0.2213  0.1701
  568MPD2    C5 8426   1.547   4.553  16.332  0.1631  0.2068 -0.1611
  568MPD2     H 8427   1.255   4.641  16.563  0.9369 -1.0535  2.4557
  568MPD2    H1 8428   1.430   4.639  16.172  0.7634 -0.0620  0.0995
  568MPD2    H2 8429   1.653   4.489  16.492  1.3628  1.7546 -0.1808
  568MPD2    H3 8430   1.631   4.533  16.266  0.5530 -2.6067  1.1832
  568MPD2     N 8431   1.213   4.721  16.325 -0.0205  0.2994 -0.1431
  568MPD2    H5 8432   1.149   0.036  16.395 -0.2438 -0.2520 -0.0470
  568MPD2    N1 8433   1.471   4.535  16.683 -0.9949  0.2909 -0.6402
  568MPD2    H7 8434   1.562   4.498  16.710  0.4447  2.5343 -2.4373
  569TMC3    C1 8435   1.066   0.117  16.178  0.3266 -0.0305  0.4010
  569TMC3    C2 8436   0.979   0.137  16.274 -0.2745  0.2655 -0.2563
  569TMC3    C3 8437   0.906   0.256  16.265 -0.8730 -0.0428  0.5139
  569TMC3    C4 8438   1.090   0.208  16.074 -0.1915  0.0413 -0.1159
  569TMC3    C5 8439   1.002   0.313  16.062  0.7042 -0.3730  0.0190
  569TMC3    C6 8440   0.915   0.341  16.161 -0.2971  0.2145  0.4113
  569TMC3     C 8441   1.176   0.027  16.200  0.7985 -0.3518  0.1514
  569TMC3     O 8442   1.240   0.008  16.099  0.2793 -0.0693 -0.2385
  569TMC3     H 8443   0.973   0.071  16.360 -1.2727  0.7434  0.0374
  569TMC3    H1 8444   1.168   0.188  16.002  1.1335 -1.1321  1.6452
  569TMC3    H2 8445   0.838   0.416  16.147  3.0453  3.0562 -2.7775
  569TMC3    C7 8446   1.049   0.405  15.964  0.1398 -0.2289  0.1912
  569TMC3    C8 8447   0.811   0.281  16.372  0.1014  0.5416 -0.0335
  569TMC3    O1 8448   1.151   0.384  15.905 -0.6261  0.3131 -0.1483
  569TMC3    O2 8449   0.764   0.184  16.431 -0.4239  0.4704 -0.1724
  570TMC3    C1 8450   0.400   3.603  16.295  0.5216  0.3506 -0.3398
  570TMC3    C2 8451   0.471   3.559  16.188 -0.5375 -0.0271 -0.0591
  570TMC3    C3 8452   0.528   3.658  16.119 -0.2195  0.9584  0.5138
  570TMC3    C4 8453   0.376   3.737  16.326 -0.2018 -0.4243 -0.3187
  570TMC3    C5 8454   0.439   3.830  16.251 -0.0449 -0.0126  0.2419
  570TMC3    C6 8455   0.524   3.792  16.151  0.4274 -0.0910 -0.2714
  570TMC3     C 8456   0.346   3.495  16.378 -0.0063 -0.1048 -0.0242
  570TMC3     O 8457   0.357   3.381  16.337  0.3883 -0.1865 -0.2223
  570TMC3     H 8458   0.501   3.455  16.181  0.7245  0.4795 -1.9388
  570TMC3    H1 8459   0.329   3.772  16.417  1.4318  0.6831  0.0865
  570TMC3    H2 8460   0.576   3.864  16.090  0.9604 -0.2566 -0.0186
  570TMC3    C7 8461   0.435   3.964  16.292  0.1109 -0.2417  0.6889
  570TMC3    C8 8462   0.636   3.631  16.026 -0.0616  0.2690  0.0497
  570TMC3    O1 8463   0.418   3.987  16.410  0.1186 -0.3854 -0.0204
  570TMC3    O2 8464   0.715   3.715  15.996 -0.1777 -0.0147 -0.2892
  571MPD2     C 8465   4.278   0.572   0.281 -0.2538 -0.3302  0.3434
  571MPD2    C1 8466   4.196   0.488   0.212 -0.3454 -0.1463 -0.0182
  571MPD2    C2 8467   4.103   0.555   0.129  0.4923 -0.3096  0.0306
  571MPD2    C3 8468   4.093   0.692   0.130 -0.5760  0.7471 -0.4180
  571MPD2    C4 8469   4.167   0.772   0.216  0.4649  0.4931 -1.1391
  571MPD2    C5 8470   4.261   0.704   0.290  0.9390  0.0190 -0.1865
  571MPD2     H 8471   4.026   0.501   0.075  0.5052 -0.3681  0.0703
  571MPD2    H1 8472   4.156   0.877   0.237 -0.8140 -0.2376  1.8504
  571MPD2    H2 8473   4.356   0.521   0.336  0.6314  0.7819  0.1237
  571MPD2    H3 8474   4.322   0.766   0.354  0.1577  1.2890 -0.6711
  571MPD2     N 8475   3.984   0.747   0.054 -0.1577  0.1480  0.6912
  571MPD2    H5 8476   3.923   0.686   0.001 -0.0494  1.4363 -0.9072
  571MPD2    N1 8477   4.217   0.352   0.231  0.0252 -0.1515  0.1077
  571MPD2    H7 8478   4.299   0.318   0.280 -0.2151 -0.5710  0.2163
  572TMC3    C1 8479   3.816   0.898  17.686 -0.0148  0.5860  0.2107
  572TMC3    C2 8480   3.715   0.810   0.020 -0.4694  0.1855  0.2387
  572TMC3    C3 8481   3.587   0.856  17.689  0.3558  0.3164  0.0818
  572TMC3    C4 8482   3.802   1.014  17.610  0.4073 -0.1186 -0.2308
  572TMC3    C5 8483   3.669   1.039  17.565 -0.6564  0.2012 -0.3766
  572TMC3    C6 8484   3.563   0.970  17.617  0.1563  0.2497 -0.1366
  572TMC3     C 8485   3.951   0.882   0.048 -1.0961  0.3247  0.0819
  572TMC3     O 8486   4.023   0.981   0.050 -0.2012  0.9484  0.4474
  572TMC3     H 8487   3.739   0.730   0.089 -0.3540  0.7445  0.8435
  572TMC3    H1 8488   3.883   1.084  17.590  2.0761 -1.8097  0.6005
  572TMC3    H2 8489   3.463   0.998  17.586 -0.0248  1.4338  1.5134
  572TMC3    C7 8490   3.627   1.144  17.470 -0.3912 -0.6794  0.0577
  572TMC3    C8 8491   3.488   0.773   0.061 -0.6017  0.5532 -0.6608
  572TMC3    O1 8492   3.506   1.171  17.475  0.0801  0.2393 -0.1246
  572TMC3    O2 8493   3.512   0.655   0.079  0.4067  0.1073  0.4860
  573MPD2     C 8494   4.362   0.900   1.150 -0.2023 -0.4789  0.5255
  573MPD2    C1 8495   4.311   1.017   1.117  0.4791  0.1190 -0.7994
  573MPD2    C2 8496   4.246   1.036   1.001 -0.6665  0.3300 -0.4236
  573MPD2    C3 8497   4.254   0.936   0.904 -0.2318  0.1159 -0.6694
  573MPD2    C4 8498   4.314   0.817   0.935  0.7082  0.2549  0.2283
  573MPD2    C5 8499   4.378   0.800   1.055  0.6556  0.2636  0.0114
  573MPD2     H 8500   4.209   1.132   0.964  1.1657  1.7954  1.5907
  573MPD2    H1 8501   4.314   0.727   0.875 -0.2443 -0.8754  1.9029
  573MPD2    H2 8502   4.402   0.893   1.251  1.1579 -3.5124 -0.2337
  573MPD2    H3 8503   4.414   0.700   1.078 -3.0616 -1.1712 -0.4430
  573MPD2     N 8504   4.211   0.955   0.774  0.3736 -0.5497 -0.2817
  573MPD2    H5 8505   4.236   0.890   0.701  1.7492  0.2125 -0.4873
  573MPD2    N1 8506   4.332   1.123   1.213 -0.2653  1.2516  0.2932
  573MPD2    H7 8507   4.383   1.097   1.297  0.1861 -1.2560 -0.7378
  574TMC3    C1 8508   4.105   1.044   0.586 -0.0287  0.1153 -0.3099
  574TMC3    C2 8509   3.973   1.058   0.543  0.0097 -0.2273 -0.2668
  574TMC3    C3 8510   3.956   1.098   0.414 -0.6796 -0.3978 -0.7952
  574TMC3    C4 8511   4.209   1.056   0.500  0.6928  0.2349 -0.0680
  574TMC3    C5 8512   4.183   1.101   0.380 -0.1121 -0.0310 -0.2693
  574TMC3    C6 8513   4.061   1.112   0.328 -0.2081  0.5597  0.0061
  574TMC3     C 8514   4.125   1.059   0.725 -0.3884  0.5310 -0.6081
  574TMC3     O 8515   4.069   1.155   0.775  0.5975 -0.6229 -0.4916
  574TMC3     H 8516   3.898   1.068   0.620 -1.4459  0.4726 -1.7953
  574TMC3    H1 8517   4.309   1.058   0.543  1.5551  1.6698 -2.1575
  574TMC3    H2 8518   4.036   1.140   0.226 -5.5474  0.2061  1.1875
  574TMC3    C7 8519   4.296   1.174   0.321  0.0810 -0.4487 -0.6459
  574TMC3    C8 8520   3.814   1.099   0.367  0.3309  0.4572  0.8559
  574TMC3    O1 8521   4.359   1.246   0.397  0.3334  0.4813 -0.0032
  574TMC3    O2 8522   3.733   1.027   0.433 -0.0769 -0.0331 -0.2733
  575TMC3    C1 8523   2.113   1.183  10.784  0.5247  0.2478 -0.0021
  575TMC3    C2 8524   2.156   1.055  10.763  0.5399  0.0286 -1.0513
  575TMC3    C3 8525   2.133   1.009  10.637  0.2070 -0.0851 -0.2411
  575TMC3    C4 8526   2.044   1.257  10.696  0.2460  0.2972  0.1458
  575TMC3    C5 8527   2.002   1.192  10.582  0.0937  0.7164 -0.8012
  575TMC3    C6 8528   2.058   1.073  10.546 -0.1186 -0.2638  0.4529
  575TMC3     C 8529   2.181   1.240  10.896 -0.7481  0.0002 -0.2187
  575TMC3     O 8530   2.223   1.165  10.983 -0.0428  0.1177 -0.6054
  575TMC3     H 8531   2.211   0.995  10.835  1.4800  2.9674  0.6723
  575TMC3    H1 8532   2.010   1.360  10.705  0.3135  0.4162 -0.9745
  575TMC3    H2 8533   2.047   1.034  10.446 -0.8319 -0.0619  0.4448
  575TMC3    C7 8534   1.956   1.286  10.484 -0.5703  0.1945 -0.7110
  575TMC3    C8 8535   2.158   0.866  10.619 -0.4818  0.2259  0.2610
  575TMC3    O1 8536   1.982   1.409  10.491  0.4324 -0.3950 -0.5847
  575TMC3    O2 8537   2.251   0.820  10.688  0.0208 -0.4483 -0.2386
  576MPD2     C 8538   1.520   3.261  12.602 -0.0354  0.1180  0.1777
  576MPD2    C1 8539   1.563   3.372  12.534 -0.2468 -0.1735 -0.3698
  576MPD2    C2 8540   1.517   3.497  12.569  0.4432  0.0052  0.0208
  576MPD2    C3 8541   1.431   3.509  12.678 -0.1971 -0.3836  0.8544
  576MPD2    C4 8542   1.401   3.401  12.757  0.1341  0.7004 -0.1906
  576MPD2    C5 8543   1.443   3.273  12.714 -0.4592 -0.3786 -0.1392
  576MPD2     H 8544   1.567   3.576  12.513  0.9571 -1.7417 -1.9841
  576MPD2    H1 8545   1.351   3.393  12.853  0.4647  0.8934 -0.0000
  576MPD2    H2 8546   1.533   3.157  12.577  1.0685  0.7573 -1.9608
  576MPD2    H3 8547   1.424   3.178  12.764 -1.2288  0.4835  1.1918
  576MPD2     N 8548   1.404   3.644  12.717 -0.0779 -0.7336  0.0140
  576MPD2    H5 8549   1.451   3.719  12.666 -1.9521  0.2842 -0.2057
  576MPD2    N1 8550   1.642   3.355  12.415 -0.1941 -0.1087 -1.2961
  576MPD2    H7 8551   1.661   3.436  12.356  0.4731 -1.3932 -2.8508
  577TMC3    C1 8552   1.768   3.257  12.241 -0.4997  0.1160 -0.4640
  577TMC3    C2 8553   1.877   3.171  12.229  0.0197  0.6887  0.3828
  577TMC3    C3 8554   1.900   3.108  12.113 -0.2822 -0.2856  0.5950
  577TMC3    C4 8555   1.681   3.270  12.134  0.0305 -0.1229 -0.4546
  577TMC3    C5 8556   1.714   3.207  12.012 -0.1770  0.2460  0.2384
  577TMC3    C6 8557   1.827   3.139  11.998 -0.0021 -0.5203 -0.2609
  577TMC3     C 8558   1.712   3.242  12.378  0.3889 -0.1924 -0.2094
  577TMC3     O 8559   1.724   3.132  12.434  0.1335 -0.2983 -0.2561
  577TMC3     H 8560   1.939   3.151  12.316 -1.1184  2.3660  1.5548
  577TMC3    H1 8561   1.577   3.293  12.154 -0.3365 -1.0472 -1.3143
  577TMC3    H2 8562   1.846   3.111  11.895 -0.4855 -1.3095 -0.1282
  577TMC3    C7 8563   1.614   3.190  11.905  0.0599  0.2164  0.7214
  577TMC3    C8 8564   1.971   2.982  12.108  0.2436  0.3460 -0.2502
  577TMC3    O1 8565   1.634   3.094  11.832  0.2043  0.0565 -0.3987
  577TMC3    O2 8566   2.005   2.936  12.216 -0.3323 -0.3881 -0.7380
  578MPD2     C 8567   0.529   4.434   1.407 -0.4261  0.5733  0.3175
  578MPD2    C1 8568   0.557   4.433   1.274  0.8825 -0.4859  0.4311
  578MPD2    C2 8569   0.537   4.321   1.197 -0.6291 -0.4024 -0.2145
  578MPD2    C3 8570   0.490   4.207   1.267  0.1834 -0.3067 -0.1755
  578MPD2    C4 8571   0.469   4.205   1.404  0.1515  0.6080 -0.2355
  578MPD2    C5 8572   0.483   4.325   1.469 -0.0512  0.4589 -0.8465
  578MPD2     H 8573   0.561   4.318   1.091 -0.8948  1.2572 -0.3151
  578MPD2    H1 8574   0.440   4.116   1.459  3.3983 -0.7473 -0.7535
  578MPD2    H2 8575   0.559   4.520   1.467  0.8665 -0.6984  1.4912
  578MPD2    H3 8576   0.468   4.322   1.576  2.4991  4.1338 -0.3801
  578MPD2     N 8577   0.468   4.087   1.188  0.5808  0.5153  0.6366
  578MPD2    H5 8578   0.457   4.107   1.089 -0.5632  1.7874  1.0286
  578MPD2    N1 8579   0.616   4.551   1.221 -0.2558  0.1167 -0.3928
  578MPD2    H7 8580   0.615   4.630   1.286  1.3714  1.2800 -1.7858
  579TMC3    C1 8581   0.397   3.866   1.127  0.5916 -0.0661  0.2717
  579TMC3    C2 8582   0.469   3.746   1.095 -0.0504 -0.7869 -0.3215
  579TMC3    C3 8583   0.434   3.670   0.990  0.2638 -0.1220  0.2123
  579TMC3    C4 8584   0.297   3.913   1.049  0.0707 -0.8021 -0.4758
  579TMC3    C5 8585   0.253   3.825   0.949  0.1821 -0.4326 -0.0250
  579TMC3    C6 8586   0.324   3.709   0.917  0.2552  0.6604 -0.2032
  579TMC3     C 8587   0.453   3.955   1.231  0.3978 -0.1349 -0.1422
  579TMC3     O 8588   0.497   3.908   1.334  0.6667 -0.2291  0.0245
  579TMC3     H 8589   0.552   3.729   1.163  0.8941 -4.8165 -2.4808
  579TMC3    H1 8590   0.242   4.006   1.064  2.2329  0.7247 -1.9626
  579TMC3    H2 8591   0.305   3.657   0.824  0.0410  0.2972  0.0466
  579TMC3    C7 8592   0.140   3.874   0.868  0.0120 -0.4930  0.2819
  579TMC3    C8 8593   0.531   3.589   0.915  0.5655 -0.6832  0.7188
  579TMC3    O1 8594   0.113   3.996   0.860  0.4536  0.6901 -0.1186
  579TMC3    O2 8595   0.522   3.582   0.793 -0.7093  0.5445 -0.1586
  580TMC3    C1 8596   4.331   3.046  12.126  0.5540  0.1738  0.3172
  580TMC3    C2 8597   4.442   3.118  12.103 -0.4772  0.6526 -0.4160
  580TMC3    C3 8598   4.560   3.061  12.117 -0.2402 -0.5124  0.0631
  580TMC3    C4 8599   4.339   2.919  12.171  1.0210 -0.5335  0.0554
  580TMC3    C5 8600   4.464   2.865  12.185  0.4449 -0.0795 -0.3970
  580TMC3    C6 8601   4.576   2.932  12.154 -0.1246  0.5436 -0.4672
  580TMC3     C 8602   4.199   3.099  12.089  0.6304 -0.7226  0.2342
  580TMC3     O 8603   4.104   3.043  12.136  0.2111 -0.3572 -0.1062
  580TMC3     H 8604   4.446   3.220  12.065  0.3749  0.4536 -0.8385
  580TMC3    H1 8605   4.254   2.860  12.201  0.0023  1.3880  0.9430
  580TMC3    H2 8606   4.676   2.890  12.154  0.7950  2.7581  0.9613
  580TMC3    C7 8607   4.477   2.724  12.216  0.2041 -0.6906  0.6313
  580TMC3    C8 8608   4.667   3.130  12.040 -0.2782  0.1658  0.8938
  580TMC3    O1 8609   4.586   2.704  12.271  0.0837 -0.0147  0.5180
  580TMC3    O2 8610   4.711   3.241  12.073 -0.3923 -0.4455  0.5177
  581MPD2     C 8611   2.068   2.571  14.498 -0.3264  0.2815  0.0961
  581MPD2    C1 8612   2.024   2.541  14.625 -0.2335 -0.1127  0.5499
  581MPD2    C2 8613   1.884   2.563  14.662  0.4972  0.9830 -0.0644
  581MPD2    C3 8614   1.796   2.629  14.575  0.6474  0.1129  0.3590
  581MPD2    C4 8615   1.853   2.660  14.452  0.7991  0.5734 -0.2508
  581MPD2    C5 8616   1.981   2.635  14.410 -0.5930 -1.1588 -1.1213
  581MPD2     H 8617   1.847   2.544  14.762 -1.5444  0.6592 -0.8859
  581MPD2    H1 8618   1.796   2.711  14.376  0.2648  0.1384 -0.1407
  581MPD2    H2 8619   2.163   2.537  14.459 -0.8446 -0.0719 -0.8482
  581MPD2    H3 8620   2.013   2.649  14.307 -0.0695  1.3706 -0.6139
  581MPD2     N 8621   1.659   2.645  14.611  0.1346 -0.9763 -0.3699
  581MPD2    H5 8622   1.638   2.610  14.704  0.3162 -2.6729 -0.9640
  581MPD2    N1 8623   2.116   2.478  14.710 -0.4021  0.1649 -0.4836
  581MPD2    H7 8624   2.211   2.469  14.674 -0.3391  0.2913 -0.3483
  582TMC3    C1 8625   2.182   2.317  14.875  0.5746 -0.5391 -0.6119
  582TMC3    C2 8626   2.301   2.374  14.921 -0.4763 -0.2443  1.2555
  582TMC3    C3 8627   2.369   2.311  15.018 -0.7037 -0.3082  1.0064
  582TMC3    C4 8628   2.134   2.201  14.928  0.2129  0.1173 -0.4687
  582TMC3    C5 8629   2.199   2.142  15.030 -0.2001 -0.0151 -0.1805
  582TMC3    C6 8630   2.319   2.194  15.065 -0.0913  0.4862 -0.3297
  582TMC3     C 8631   2.082   2.409  14.822 -0.4354  0.2790  0.7285
  582TMC3     O 8632   1.969   2.368  14.857  0.4153  0.2903  0.4065
  582TMC3     H 8633   2.325   2.477  14.898  0.5523 -0.8728 -0.4204
  582TMC3    H1 8634   2.032   2.170  14.909  0.1564 -1.8598  2.9890
  582TMC3    H2 8635   2.363   2.151  15.154 -0.3921  0.2861 -0.2765
  582TMC3    C7 8636   2.102   2.131  15.140 -0.1230  1.3907  0.1150
  582TMC3    C8 8637   2.448   2.392  15.111 -0.1748 -0.0604 -0.6386
  582TMC3    O1 8638   2.127   2.070  15.240 -0.7092  0.3561  0.0011
  582TMC3    O2 8639   2.422   2.516  15.129  0.9690 -0.1025  0.2673
  583MPD2     C 8640   2.696   3.751  16.720  0.7281  0.4973 -0.1795
  583MPD2    C1 8641   2.638   3.860  16.652  0.1115  0.8220 -0.1559
  583MPD2    C2 8642   2.589   3.967  16.727 -0.1123 -0.2368 -0.9192
  583MPD2    C3 8643   2.594   3.971  16.868  0.3206  0.0410  0.1714
  583MPD2    C4 8644   2.644   3.857  16.931  0.1089 -0.5259 -0.2831
  583MPD2    C5 8645   2.701   3.761  16.857 -0.3248 -0.3090 -0.0400
  583MPD2     H 8646   2.548   4.053  16.676 -1.3988 -1.1015 -1.3246
  583MPD2    H1 8647   2.645   3.847  17.039 -2.1198  0.1222 -0.1923
  583MPD2    H2 8648   2.745   3.667  16.672 -0.7884 -0.6474  0.2730
  583MPD2    H3 8649   2.759   3.694  16.920  2.2225 -0.7418 -2.8161
  583MPD2     N 8650   2.535   4.081  16.924  0.0729  0.2538 -0.2949
  583MPD2    H5 8651   2.499   4.157  16.867  0.9734  0.0404 -1.1599
  583MPD2    N1 8652   2.646   3.877  16.509 -0.8556 -0.6970 -0.0689
  583MPD2    H7 8653   2.606   3.965  16.478 -1.9519 -1.6750 -1.4505
  584TMC3    C1 8654   2.474   4.225  17.113 -0.0522  0.0607  0.4456
  584TMC3    C2 8655   2.425   4.309  17.018  0.1732  0.2570 -0.2059
  584TMC3    C3 8656   2.380   4.432  17.060  0.2750 -0.5683  0.2632
  584TMC3    C4 8657   2.511   4.266  17.238  0.4520  0.2992 -0.5582
  584TMC3    C5 8658   2.474   4.391  17.269  0.1744  0.3429  0.0267
  584TMC3    C6 8659   2.403   4.476  17.191 -0.3968 -0.3919 -0.3050
  584TMC3     C 8660   2.535   4.100  17.067  0.6386  0.3104 -0.4553
  584TMC3     O 8661   2.584   4.029  17.152 -0.0384 -0.2387  0.0515
  584TMC3     H 8662   2.407   4.280  16.915  2.4124 -0.6867 -0.3145
  584TMC3    H1 8663   2.558   4.205  17.315  0.1143  1.7187  0.7743
  584TMC3    H2 8664   2.353   4.560  17.237  1.6583 -0.1886  1.5535
  584TMC3    C7 8665   2.495   4.422  17.409  0.2508 -0.1373 -0.2485
  584TMC3    C8 8666   2.330   4.524  16.958 -0.2568  0.2060  0.5869
  584TMC3    O1 8667   2.522   4.333  17.488 -0.2376  0.4382  0.3760
  584TMC3    O2 8668   2.281   4.472  16.856  0.6477  1.2252 -0.4709
  585MPD2     C 8669   1.660   3.641   0.543  0.0907 -0.0225 -0.7226
  585MPD2    C1 8670   1.766   3.589   0.473 -0.2936  0.4255  0.0927
  585MPD2    C2 8671   1.759   3.576   0.337  0.0586  0.2850  0.0695
  585MPD2    C3 8672   1.642   3.610   0.269  0.9220 -0.4757 -0.9729
  585MPD2    C4 8673   1.536   3.660   0.337  0.9680  0.0025 -0.3283
  585MPD2    C5 8674   1.543   3.669   0.473  0.1710 -0.4104  0.0780
  585MPD2     H 8675   1.842   3.528   0.287  1.1282 -0.3724  2.4549
  585MPD2    H1 8676   1.444   3.675   0.281  1.2338 -0.2243 -0.8212
  585MPD2    H2 8677   1.662   3.662   0.649 -0.4067  2.0454 -1.1310
  585MPD2    H3 8678   1.459   3.708   0.528 -1.2180  0.1936 -2.4728
  585MPD2     N 8679   1.628   3.585   0.125  0.0595 -0.8089 -0.7091
  585MPD2    H5 8680   1.539   3.618   0.089  0.5388  1.2554 -0.0283
  585MPD2    N1 8681   1.871   3.552   0.555  0.1344  0.1513 -0.0882
  585MPD2    H7 8682   1.862   3.546   0.656 -0.1387  0.4314 -0.0971
  586TMC3    C1 8683   1.676   3.552  17.591 -0.1386 -0.6037 -0.2982
  586TMC3    C2 8684   1.762   3.510  17.498 -0.2517  0.0517  0.5074
  586TMC3    C3 8685   1.721   3.485  17.369  0.4505 -0.0025 -0.2986
  586TMC3    C4 8686   1.547   3.593  17.556 -0.3432 -0.3377 -0.6413
  586TMC3    C5 8687   1.509   3.567  17.426 -0.0016 -0.5446  0.1216
  586TMC3    C6 8688   1.597   3.526  17.328  0.1540 -0.5967  0.2432
  586TMC3     C 8689   1.720   3.542   0.038  0.5215 -0.3036 -0.0090
  586TMC3     O 8690   1.840   3.515   0.046  0.3590 -0.9150 -0.1698
  586TMC3     H 8691   1.859   3.476  17.530  0.7283  0.5813 -1.9280
  586TMC3    H1 8692   1.485   3.642  17.630  0.6537  0.2482 -0.1877
  586TMC3    H2 8693   1.567   3.491  17.230  2.7312  0.3180 -0.8840
  586TMC3    C7 8694   1.371   3.523  17.409  0.3745 -0.3156  0.2723
  586TMC3    C8 8695   1.798   3.381  17.312  0.3936 -1.0233 -0.7120
  586TMC3    O1 8696   1.344   3.417  17.349  0.4195 -0.5098  0.4248
  586TMC3    O2 8697   1.848   3.303  17.390  0.5895  0.0368  0.5192
  587TMC3    C1 8698   3.788   1.355  16.839  0.0308  0.4699  0.0622
  587TMC3    C2 8699   3.796   1.485  16.802  0.5510 -0.3731 -1.0124
  587TMC3    C3 8700   3.909   1.523  16.730  0.3342 -0.0327  0.0135
  587TMC3    C4 8701   3.896   1.277  16.812  0.1515 -0.5246 -0.0839
  587TMC3    C5 8702   4.008   1.329  16.746 -0.0457  0.2745 -0.1177
  587TMC3    C6 8703   4.018   1.455  16.706  0.2534  0.6603  1.1307
  587TMC3     C 8704   3.665   1.290  16.885  0.8701 -0.0376  0.2148
  587TMC3     O 8705   3.680   1.181  16.935 -0.6260 -0.1353 -0.1504
  587TMC3     H 8706   3.703   1.540  16.813  0.2485 -0.4494 -3.0116
  587TMC3    H1 8707   3.892   1.170  16.829 -0.3272 -0.3360  0.9504
  587TMC3    H2 8708   4.096   1.496  16.644  0.4156 -0.4534  0.5872
  587TMC3    C7 8709   4.127   1.247  16.770  0.0202 -0.1604 -0.0820
  587TMC3    C8 8710   3.927   1.667  16.699 -0.0512 -0.1780 -1.0170
  587TMC3    O1 8711   4.114   1.128  16.798 -0.9910  0.7357 -0.1014
  587TMC3    O2 8712   4.041   1.702  16.665  0.1876  0.0937 -0.2943
  588TMC3    C1 8713   1.240   4.267   9.825 -0.3107 -0.4340  0.1565
  588TMC3    C2 8714   1.201   4.139   9.869 -0.4668 -0.6637 -0.2579
  588TMC3    C3 8715   1.298   4.053   9.906 -0.7463 -0.6175  0.2359
  588TMC3    C4 8716   1.372   4.302   9.797  0.6414 -0.2070 -0.1830
  588TMC3    C5 8717   1.460   4.208   9.842 -0.3704 -0.4129  0.1690
  588TMC3    C6 8718   1.432   4.092   9.901  0.7068 -0.3642 -0.2222
  588TMC3     C 8719   1.136   4.364   9.787  0.8312 -0.2145  0.1284
  588TMC3     O 8720   1.027   4.337   9.742 -0.0743  0.1220  0.2001
  588TMC3     H 8721   1.097   4.127   9.898 -0.5896  0.0196 -0.4173
  588TMC3    H1 8722   1.399   4.379   9.726  3.7927 -0.4232  0.7822
  588TMC3    H2 8723   1.511   4.033   9.946  1.3760 -0.5687 -1.6406
  588TMC3    C7 8724   1.597   4.256   9.865  0.8998  0.1130 -0.1555
  588TMC3    C8 8725   1.259   3.917   9.935  0.1210  0.7552  0.0872
  588TMC3    O1 8726   1.691   4.178   9.856  0.2542  0.5139 -0.4840
  588TMC3    O2 8727   1.137   3.903   9.937 -0.0159 -0.1840  1.1612
  589TMC3    C1 8728   0.051   2.436   1.384 -0.4215 -0.7989 -0.1713
  589TMC3    C2 8729   0.145   2.405   1.481 -0.9265  0.2564  0.1395
  589TMC3    C3 8730   0.222   2.292   1.460 -0.2067 -0.5448  0.0065
  589TMC3    C4 8731   0.030   2.363   1.271 -0.0129 -0.5172  0.1492
  589TMC3    C5 8732   0.121   2.261   1.255 -0.0780  0.8365 -0.0250
  589TMC3    C6 8733   0.211   2.224   1.345 -0.4808  0.0391 -0.5173
  589TMC3     C 8734   4.703   2.563   1.392  0.5407 -0.3126 -0.2942
  589TMC3     O 8735   4.611   2.570   1.314 -0.0388 -0.2343  0.3176
  589TMC3     H 8736   0.183   2.464   1.564 -0.5057 -0.1026  0.2047
  589TMC3    H1 8737   4.687   2.404   1.195  1.3921  0.6052 -0.4530
  589TMC3    H2 8738   0.281   2.145   1.323  1.6230  1.5495  0.7185
  589TMC3    C7 8739   0.107   2.165   1.137 -0.0993 -0.3264 -0.8461
  589TMC3    C8 8740   0.324   2.259   1.557 -0.1807 -0.3229  0.3620
  589TMC3    O1 8741   0.213   2.118   1.098 -0.0249  0.0102 -0.5077
  589TMC3    O2 8742   0.307   2.282   1.675 -0.0874 -0.7182 -0.0505
  590MPD2     C 8743   4.635   4.527  16.719  0.1062  0.6335 -0.3255
  590MPD2    C1 8744   4.594   4.592  16.597  0.7087 -0.1350 -0.5583
  590MPD2    C2 8745   4.683   4.657  16.519 -0.1892 -0.5512 -0.0994
  590MPD2    C3 8746   0.094   4.666  16.559  0.0384  0.1211 -0.5071
  590MPD2    C4 8747   0.137   4.584  16.657  0.0937 -0.4380 -0.3694
  590MPD2    C5 8748   0.052   4.509  16.735  0.0505  0.5573 -0.5287
  590MPD2     H 8749   4.651   4.719  16.436  0.4540  1.8698  1.4688
  590MPD2    H1 8750   0.237   4.587  16.698  0.7034  1.6436 -2.0531
  590MPD2    H2 8751   4.557   4.492  16.785  1.6123 -1.5556  0.2891
  590MPD2    H3 8752   0.099   4.445  16.808  1.7793  2.2459 -0.1471
  590MPD2     N 8753   0.182   0.029  16.497  0.0616 -0.5318 -0.6173
  590MPD2    H5 8754   0.148   0.090  16.423 -0.7988 -0.4129 -0.1265
  590MPD2    N1 8755   4.460   4.610  16.568  0.4275  0.7338  0.5002
  590MPD2    H7 8756   4.391   4.587  16.640  0.3012  0.6033  0.3379
  591TMC3    C1 8757   0.352   0.171  16.444  0.9451  0.6257 -0.4687
  591TMC3    C2 8758   0.450   0.147  16.351 -0.4148  0.3864 -0.6138
  591TMC3    C3 8759   0.459   0.239  16.250  0.1476  0.7613 -0.0282
  591TMC3    C4 8760   0.280   0.279  16.444  0.5959 -0.3702 -0.0997
  591TMC3    C5 8761   0.289   0.370  16.346 -0.3368 -0.0498 -0.2823
  591TMC3    C6 8762   0.378   0.352  16.246  0.0648 -0.3277 -0.3257
  591TMC3     C 8763   0.305   0.063  16.531  0.2427 -0.0939  0.0329
  591TMC3     O 8764   0.389   0.007  16.599 -0.0041  0.4428  0.1355
  591TMC3     H 8765   0.496   0.049  16.340 -1.7140 -0.2292 -0.5350
  591TMC3    H1 8766   0.210   0.287  16.526  0.6690 -0.5733 -0.0200
  591TMC3    H2 8767   0.352   0.395  16.150  0.4234 -0.5198 -0.5054
  591TMC3    C7 8768   0.193   0.475  16.333  0.1511 -0.3973 -0.0776
  591TMC3    C8 8769   0.549   0.216  16.136  0.1303  0.0256 -0.2931
  591TMC3    O1 8770   0.092   0.460  16.399  0.0796 -0.9517 -0.4930
  591TMC3    O2 8771   0.599   0.106  16.129 -0.3171 -0.1903  0.1402
  592MPD2     C 8772   0.547   2.463  11.006 -0.3161 -0.4919 -0.1233
  592MPD2    C1 8773   0.578   2.451  11.139 -0.0600  0.6743 -0.1780
  592MPD2    C2 8774   0.481   2.389  11.219  0.2851 -0.2049  0.2900
  592MPD2    C3 8775   0.369   2.332  11.162 -0.1424 -0.2366  0.3056
  592MPD2    C4 8776   0.349   2.332  11.026  0.0710  0.1710  0.1520
  592MPD2    C5 8777   0.435   2.398  10.950  0.5565  0.3358 -0.5731
  592MPD2     H 8778   0.503   2.370  11.323  2.2653  0.0350 -0.0723
  592MPD2    H1 8779   0.270   2.280  10.974  2.9582 -3.4573 -0.6202
  592MPD2    H2 8780   0.618   2.516  10.944  0.8187  0.4432  1.9396
  592MPD2    H3 8781   0.421   2.422  10.845  2.4152  2.5614 -0.3081
  592MPD2     N 8782   0.284   2.253  11.250 -0.2005 -0.2527 -0.8765
  592MPD2    H5 8783   0.301   2.248  11.350 -2.0408 -0.2664 -0.5519
  592MPD2    N1 8784   0.689   2.517  11.191  0.3453  0.1766 -0.4373
  592MPD2    H7 8785   0.756   2.564  11.131  1.2343 -0.4163  0.0882
  593TMC3    C1 8786   0.856   2.583  11.347 -0.5058 -0.1514 -0.1321
  593TMC3    C2 8787   0.887   2.624  11.474 -0.0914  0.1143  0.3998
  593TMC3    C3 8788   1.008   2.673  11.499 -0.6132  0.4919 -0.1683
  593TMC3    C4 8789   0.944   2.588  11.245 -0.4841 -0.3124  0.0739
  593TMC3    C5 8790   1.075   2.612  11.277 -0.3531  0.0976 -0.1922
  593TMC3    C6 8791   1.102   2.670  11.399  0.0309 -0.2785  0.0890
  593TMC3     C 8792   0.722   2.524  11.324 -0.0340  0.2499 -0.6711
  593TMC3     O 8793   0.668   2.485  11.425 -0.4509  0.4418  0.0608
  593TMC3     H 8794   0.805   2.632  11.544  0.0704  2.1379  0.3803
  593TMC3    H1 8795   0.930   2.540  11.149  0.7934  1.2496 -0.8890
  593TMC3    H2 8796   1.187   2.737  11.402 -1.3710  1.4009  2.5626
  593TMC3    C7 8797   1.180   2.617  11.179 -0.3776  0.6784 -0.0298
  593TMC3    C8 8798   1.004   2.779  11.597 -0.8475 -0.0295  0.2768
  593TMC3    O1 8799   1.143   2.628  11.062 -0.5600 -0.0438 -0.3691
  593TMC3    O2 8800   0.895   2.838  11.612  0.5031  0.6892  0.3540
  594MPD2     C 8801   3.729   1.656  14.058 -0.1622  1.0374  0.0054
  594MPD2    C1 8802   3.779   1.593  14.165 -0.8898  0.0899  0.1076
  594MPD2    C2 8803   3.908   1.625  14.211 -0.1871 -0.8130 -0.1855
  594MPD2    C3 8804   3.997   1.707  14.140 -0.3311 -0.4255 -0.0717
  594MPD2    C4 8805   3.948   1.770  14.029 -0.4346 -0.4357 -0.3691
  594MPD2    C5 8806   3.815   1.735  13.987  0.4010  0.3332 -0.1495
  594MPD2     H 8807   3.952   1.574  14.297 -0.0957 -0.8559 -0.2572
  594MPD2    H1 8808   4.002   1.848  13.976 -0.7813 -0.0250 -0.1161
  594MPD2    H2 8809   3.638   1.616  14.016 -1.0039  0.8222  2.0427
  594MPD2    H3 8810   3.778   1.791  13.902 -0.0302 -0.4882 -0.4998
  594MPD2     N 8811   4.127   1.731  14.186 -0.6725  0.2677  0.6245
  594MPD2    H5 8812   4.151   1.697  14.279  0.9674  0.2612  0.1996
  594MPD2    N1 8813   3.703   1.491  14.220 -0.0792  0.0533 -0.2890
  594MPD2    H7 8814   3.613   1.466  14.179 -0.1805  1.1096 -0.7093
  595TMC3    C1 8815   4.543   1.858  14.291 -0.2643 -0.4089  0.3370
  595TMC3    C2 8816   4.452   1.827  14.189 -0.6238 -0.0154 -0.6991
  595TMC3    C3 8817   4.316   1.841  14.219  0.2994  0.3228  0.2253
  595TMC3    C4 8818   4.513   1.927  14.398  0.6717  0.7195 -0.3058
  595TMC3    C5 8819   4.381   1.944  14.422  0.1508  0.1003  0.3021
  595TMC3    C6 8820   4.281   1.907  14.336 -0.1929  0.5708 -0.6280
  595TMC3     C 8821   4.671   1.798  14.271 -0.1909  0.7133  0.1218
  595TMC3     O 8822   0.043   1.851  14.328  0.4805 -0.2776  0.2967
  595TMC3     H 8823   4.489   1.797  14.092  1.6382  1.2569 -0.2334
  595TMC3    H1 8824   4.586   1.950  14.475  0.7071  0.4974 -0.2736
  595TMC3    H2 8825   4.180   1.911  14.374  0.2536  0.8551  0.5584
  595TMC3    C7 8826   4.325   1.992  14.549 -0.4497  0.0313  0.4337
  595TMC3    C8 8827   4.219   1.809  14.121 -0.1906 -0.3599 -0.1671
  595TMC3    O1 8828   4.225   2.062  14.533 -0.2028  0.4090 -0.6699
  595TMC3    O2 8829   4.223   1.845  14.004  0.4308  0.0249 -0.1257
  596MPD2     C 8830   3.429   4.020  16.549  0.2614 -0.0352  0.8659
  596MPD2    C1 8831   3.403   4.141  16.493  0.0098  0.1289 -0.2239
  596MPD2    C2 8832   3.376   4.150  16.360  0.2244  1.2914  0.3880
  596MPD2    C3 8833   3.373   4.034  16.276 -0.5968  0.3280  0.2113
  596MPD2    C4 8834   3.406   3.919  16.341  0.0718  0.2192 -0.1860
  596MPD2    C5 8835   3.432   3.906  16.471 -0.0667  0.4535 -0.3806
  596MPD2     H 8836   3.353   4.246  16.314  1.9707  0.9893 -1.1190
  596MPD2    H1 8837   3.413   3.825  16.287  0.2960 -0.0393  0.2901
  596MPD2    H2 8838   3.446   4.005  16.655  2.1809  0.3068  0.5932
  596MPD2    H3 8839   3.462   3.812  16.517  1.2077  0.3657 -1.4129
  596MPD2     N 8840   3.331   4.026  16.139 -1.0754  0.5099  0.0512
  596MPD2    H5 8841   3.329   3.935  16.095 -3.9946 -0.3754  2.0737
  596MPD2    N1 8842   3.389   4.263  16.567  0.2077  0.2602  0.0134
  596MPD2    H7 8843   3.397   4.342  16.504  0.6243 -0.7393 -1.1830
  597TMC3    C1 8844   3.374   4.403  16.763  0.0850  0.3521 -0.1122
  597TMC3    C2 8845   3.422   4.512  16.694  1.0423  0.2536 -0.3859
  597TMC3    C3 8846   3.398   4.632  16.753 -1.0643  0.7320 -0.1632
  597TMC3    C4 8847   3.307   4.417  16.884  0.1741  0.2255 -0.3938
  597TMC3    C5 8848   3.279   4.538  16.930 -0.3547 -0.4708 -0.7582
  597TMC3    C6 8849   3.337   4.648  16.876  0.0388 -0.3195 -0.3826
  597TMC3     C 8850   3.369   4.269  16.703  0.2155  0.6636 -0.8396
  597TMC3     O 8851   3.336   4.183  16.784  0.4892 -0.0670 -0.2278
  597TMC3     H 8852   3.476   4.497  16.601  0.5444 -0.3303 -0.5789
  597TMC3    H1 8853   3.266   4.325  16.925  0.0536 -1.1716 -3.6297
  597TMC3    H2 8854   3.336   0.018  16.932  0.6232 -0.1748 -0.6101
  597TMC3    C7 8855   3.203   4.541  17.054  0.5449  0.5460 -0.6836
  597TMC3    C8 8856   3.436   0.033  16.689 -0.0027  0.0742 -0.0478
  597TMC3    O1 8857   3.185   4.436  17.125 -0.4795 -0.1461 -0.0659
  597TMC3    O2 8858   3.442   0.124  16.770  0.1152  0.1751 -0.3387
  598TMC3    C1 8859   1.405   0.972  15.330 -0.1118 -0.0208 -0.3886
  598TMC3    C2 8860   1.297   0.888  15.303 -0.2407 -0.2560  0.0019
  598TMC3    C3 8861   1.259   0.886  15.166  0.2616  0.3729  0.2445
  598TMC3    C4 8862   1.471   1.044  15.234 -0.0103  0.0110  0.2196
  598TMC3    C5 8863   1.422   1.049  15.103  0.3670 -0.3978  0.3841
  598TMC3    C6 8864   1.320   0.958  15.072 -0.6209 -0.4987  0.1567
  598TMC3     C 8865   1.437   1.004  15.470  0.5834  0.1559 -0.6784
  598TMC3     O 8866   1.503   1.108  15.480  0.1966  0.2975  0.2358
  598TMC3     H 8867   1.235   0.831  15.371  1.4906 -1.8068  0.2971
  598TMC3    H1 8868   1.553   1.105  15.269 -0.8087  1.5778 -0.6930
  598TMC3    H2 8869   1.281   0.951  14.971  0.2853  0.1867 -0.2452
  598TMC3    C7 8870   1.456   1.158  15.012 -0.6426  0.7772  0.3112
  598TMC3    C8 8871   1.140   0.813  15.124 -0.4314  0.3676  0.0043
  598TMC3    O1 8872   1.556   1.226  15.040  0.2272  0.0030  0.1750
  598TMC3    O2 8873   1.097   0.850  15.016 -0.0495 -0.0081  0.4668
  599MPD2     C 8874   1.673   3.338  15.975 -0.2090  0.0336  0.0820
  599MPD2    C1 8875   1.606   3.218  15.962 -0.0418 -0.3895  0.0156
  599MPD2    C2 8876   1.470   3.210  15.994 -0.4356  0.0337  0.1893
  599MPD2    C3 8877   1.411   3.326  16.042 -0.5286  1.0338  0.7822
  599MPD2    C4 8878   1.474   3.440  16.062 -0.0962 -0.2353 -0.4639
  599MPD2    C5 8879   1.603   3.449  16.023  0.0252  0.5506  0.5101
  599MPD2     H 8880   1.415   3.118  15.974  2.6060 -1.8415  0.5451
  599MPD2    H1 8881   1.428   3.533  16.093  1.6431  0.0809  1.1646
  599MPD2    H2 8882   1.776   3.351  15.945  0.4333  0.9370  2.7452
  599MPD2    H3 8883   1.652   3.545  16.038 -0.2605  0.7230  0.3289
  599MPD2     N 8884   1.275   3.325  16.082  0.3949  0.3319  0.2176
  599MPD2    H5 8885   1.244   3.414  16.120 -0.9274  0.2979 -0.7765
  599MPD2    N1 8886   1.687   3.110  15.909  0.1498  0.1004 -0.0204
  599MPD2    H7 8887   1.782   3.136  15.885 -0.6095  1.1182 -1.9386
  600TMC3    C1 8888   1.049   3.258  16.108  0.2461 -0.2542  0.5029
  600TMC3    C2 8889   0.946   3.165  16.102 -0.7451  0.0349 -0.2757
  600TMC3    C3 8890   0.816   3.189  16.147  0.3792  0.2359 -0.2066
  600TMC3    C4 8891   1.017   3.380  16.176 -0.1670 -0.1774  0.2283
  600TMC3    C5 8892   0.884   3.401  16.205  0.1287  0.4160  0.2437
  600TMC3    C6 8893   0.780   3.311  16.190 -0.0557  0.2953  0.3261
  600TMC3     C 8894   1.183   3.231  16.055  0.0695 -0.2566  0.3940
  600TMC3     O 8895   1.197   3.132  15.983  0.6369 -0.1271 -0.2820
  600TMC3     H 8896   0.976   3.078  16.044  1.0420  0.8815 -0.6096
  600TMC3    H1 8897   1.102   3.431  16.219 -0.5464 -0.1659  0.9641
  600TMC3    H2 8898   0.681   3.336  16.228  0.4306 -0.5883  2.1834
  600TMC3    C7 8899   0.847   3.528  16.270  0.4672  0.7536 -0.0013
  600TMC3    C8 8900   0.719   3.099  16.087  0.2144 -1.0259 -0.0256
  600TMC3    O1 8901   0.755   3.535  16.347  0.3606 -0.1840  0.2809
  600TMC3    O2 8902   0.750   3.029  15.991 -0.3129  0.6691 -0.2283
  601MPD2     C 8903   3.716   1.531  17.141  0.3906  0.5510  0.4168
  601MPD2    C1 8904   3.597   1.479  17.193 -0.0369 -0.4664 -0.4740
  601MPD2    C2 8905   3.602   1.374  17.280 -0.5023  0.3515  0.1916
  601MPD2    C3 8906   3.722   1.322  17.325  0.0047  0.3420  0.9861
  601MPD2    C4 8907   3.839   1.360  17.270 -0.0120 -0.3278  0.0242
  601MPD2    C5 8908   3.832   1.462  17.172 -0.5736  0.3729  0.5231
  601MPD2     H 8909   3.509   1.325  17.305 -0.0907 -0.1179  0.7886
  601MPD2    H1 8910   3.942   1.337  17.295  0.2722 -1.7475 -2.4795
  601MPD2    H2 8911   3.724   1.624  17.086  1.6150  0.7643  0.9623
  601MPD2    H3 8912   3.926   1.506  17.142  0.2148 -1.3340  0.4908
  601MPD2     N 8913   3.732   1.209  17.411  0.1901  0.1850  0.3761
  601MPD2    H5 8914   3.825   1.173  17.431  0.7950  0.8900 -1.1437
  601MPD2    N1 8915   3.470   1.528  17.162  0.0769 -0.3123  0.5922
  601MPD2    H7 8916   3.389   1.485  17.205 -0.1612 -0.5026 -0.0475
  602TMC3    C1 8917   3.306   1.675  17.097  0.1259 -0.5260  0.6006
  602TMC3    C2 8918   3.239   1.656  17.212 -0.3583 -0.1937 -0.2926
  602TMC3    C3 8919   3.112   1.702  17.219  0.4384 -0.5330  0.1628
  602TMC3    C4 8920   3.247   1.743  16.993 -0.4224  0.3696 -0.4709
  602TMC3    C5 8921   3.117   1.784  17.003 -0.9094  0.4055 -0.2123
  602TMC3    C6 8922   3.045   1.767  17.118  0.1103  0.7546  0.5751
  602TMC3     C 8923   3.446   1.640  17.084 -0.1325  0.7487 -0.1534
  602TMC3     O 8924   3.519   1.696  17.000  0.9063 -0.0689 -0.1601
  602TMC3     H 8925   3.289   1.617  17.300  0.3192  0.1380 -0.5249
  602TMC3    H1 8926   3.288   1.754  16.893 -0.9052  0.4671 -0.6588
  602TMC3    H2 8927   2.954   1.825  17.130 -0.9483 -0.3170 -2.1882
  602TMC3    C7 8928   3.045   1.804  16.876  0.0862  0.4375 -0.3771
  602TMC3    C8 8929   3.040   1.695  17.344  0.9203  0.2246  0.1971
  602TMC3    O1 8930   3.101   1.809  16.770  0.0346 -0.7686  0.8809
  602TMC3    O2 8931   3.095   1.703  17.451 -1.0459  0.3387 -0.3255
  603TMC3    C1 8932   1.855   1.580  11.018  0.0231 -0.1367  0.5685
  603TMC3    C2 8933   1.854   1.562  11.156  0.1018  0.2214 -0.6091
  603TMC3    C3 8934   1.874   1.677  11.229  0.7330 -0.1074 -0.2659
  603TMC3    C4 8935   1.872   1.702  10.954  0.3541 -1.2086 -0.2062
  603TMC3    C5 8936   1.888   1.811  11.037 -0.4676 -0.1280 -0.5929
  603TMC3    C6 8937   1.895   1.806  11.172  0.9341  0.0482 -0.2472
  603TMC3     C 8938   1.836   1.471  10.932  0.6402 -0.0046  0.2642
  603TMC3     O 8939   1.828   1.484  10.809  0.0592 -0.2331 -0.0463
  603TMC3     H 8940   1.831   1.467  11.204  0.2166  0.4489 -0.1066
  603TMC3    H1 8941   1.856   1.711  10.847 -1.7838 -0.7414  0.1530
  603TMC3    H2 8942   1.885   1.894  11.233  1.7198  0.2779 -0.4517
  603TMC3    C7 8943   1.859   1.944  10.981  0.3207 -0.4285  0.1651
  603TMC3    C8 8944   1.885   1.651  11.374  0.1445 -0.1867 -0.8848
  603TMC3    O1 8945   1.929   2.039  11.018  0.3403 -0.0672 -0.4907
  603TMC3    O2 8946   1.835   1.547  11.417  0.2448  0.4073 -0.2969
  604MPD2     C 8947   2.255   0.444  16.446  0.1202  0.6343 -0.1139
  604MPD2    C1 8948   2.172   0.546  16.397 -0.3032 -0.3869 -0.5528
  604MPD2    C2 8949   2.224   0.616  16.290  0.0518 -0.0892  0.0111
  604MPD2    C3 8950   2.334   0.577  16.222 -0.1011  0.2743 -0.3000
  604MPD2    C4 8951   2.410   0.466  16.264 -0.0943  0.4282 -0.1809
  604MPD2    C5 8952   2.364   0.399  16.376  0.2807  0.3563 -0.1443
  604MPD2     H 8953   2.183   0.700  16.236 -1.6307 -0.5653  0.5322
  604MPD2    H1 8954   2.497   0.432  16.209 -0.0144  0.2162  0.0773
  604MPD2    H2 8955   2.228   0.390  16.536 -1.8848  0.5537 -0.7455
  604MPD2    H3 8956   2.408   0.303  16.399  0.9987  0.2729 -1.8780
  604MPD2     N 8957   2.365   0.643  16.097  0.4577  0.2459  0.0026
  604MPD2    H5 8958   2.299   0.716  16.074  0.5982 -0.2064 -1.8222
  604MPD2    N1 8959   2.057   0.586  16.460 -0.2980  0.1523  0.6682
  604MPD2    H7 8960   2.029   0.541  16.547  0.3918 -2.7942 -0.6172
  605TMC3    C1 8961   1.861   0.728  16.489  0.3384  0.1808  0.1378
  605TMC3    C2 8962   1.930   0.781  16.593  0.2067 -0.1479  0.5353
  605TMC3    C3 8963   1.892   0.906  16.630  0.1341  0.4196  0.9560
  605TMC3    C4 8964   1.760   0.794  16.425 -1.5617 -0.6825  0.0503
  605TMC3    C5 8965   1.728   0.918  16.464  0.4005  0.0812 -0.4174
  605TMC3    C6 8966   1.787   0.972  16.571  0.0959 -0.7313  0.6402
  605TMC3     C 8967   1.961   0.668  16.395  0.6249 -0.1430  0.5234
  605TMC3     O 8968   1.951   0.709  16.281 -0.2757 -0.0964 -0.0062
  605TMC3     H 8969   2.022   0.739  16.632  0.8008  0.2165 -0.4641
  605TMC3    H1 8970   1.724   0.739  16.339 -2.3069 -2.0849  1.2708
  605TMC3    H2 8971   1.758   1.066  16.615 -1.7484  0.2719 -2.7015
  605TMC3    C7 8972   1.591   0.954  16.448 -0.3230  0.0237  0.0464
  605TMC3    C8 8973   1.991   0.988  16.696 -0.3441  0.2820 -0.0673
  605TMC3    O1 8974   1.567   1.075  16.447  0.2105 -0.0290  0.3835
  605TMC3    O2 8975   2.033   1.085  16.629 -0.5612 -0.4359  0.0223
  606TMC3    C1 8976   4.106   4.118  17.664  0.1963  0.3501 -0.0101
  606TMC3    C2 8977   4.205   4.158   0.051 -0.4843  0.7928 -0.0891
  606TMC3    C3 8978   4.306   4.073   0.073 -0.6374  0.4305 -0.0109
  606TMC3    C4 8979   4.113   3.991  17.599 -0.2387 -1.0104  0.4952
  606TMC3    C5 8980   4.212   3.902  17.635 -0.4159  0.3032 -0.5585
  606TMC3    C6 8981   4.306   3.945   0.027 -0.0374 -0.2441  0.0205
  606TMC3     C 8982   3.978   4.185  17.688 -0.0976 -0.3929  0.4111
  606TMC3     O 8983   3.887   4.132  17.625 -0.1842 -0.0215 -0.0453
  606TMC3     H 8984   4.212   4.260   0.084  0.8308  1.0327 -1.0689
  606TMC3    H1 8985   4.035   3.976  17.525 -1.0525  2.1396  0.7279
  606TMC3    H2 8986   4.381   3.876   0.064 -0.3409 -0.9185 -0.6419
  606TMC3    C7 8987   4.192   3.760  17.608  0.7791 -0.0178 -0.1511
  606TMC3    C8 8988   4.439   4.129   0.084 -0.2711 -0.1490  0.6418
  606TMC3    O1 8989   4.284   3.687  17.638  0.3163  0.1026  0.1154
  606TMC3    O2 8990   4.462   4.229   0.023 -0.2998  0.3049 -0.2886
  607MPD2     C 8991   0.491   1.753  11.711  0.0845  0.5329  0.4001
  607MPD2    C1 8992   0.534   1.868  11.785  0.0779 -0.6118  0.1821
  607MPD2    C2 8993   0.529   1.867  11.923 -0.4326  0.0572 -0.2759
  607MPD2    C3 8994   0.503   1.748  11.989  0.3402  0.1980 -0.4479
  607MPD2    C4 8995   0.470   1.631  11.917 -0.1288  0.2569  0.3432
  607MPD2    C5 8996   0.464   1.634  11.781  0.4788 -0.1388  0.2573
  607MPD2     H 8997   0.556   1.958  11.974  2.2963  0.0055 -1.6230
  607MPD2    H1 8998   0.462   1.531  11.957  1.1833 -0.2919 -0.7503
  607MPD2    H2 8999   0.498   1.745  11.603 -1.1862 -1.8708  0.5024
  607MPD2    H3 9000   0.439   1.540  11.734 -1.8710  0.0785  1.0949
  607MPD2     N 9001   0.525   1.750  12.126 -0.1669  0.1970 -0.0352
  607MPD2    H5 9002   0.551   1.832  12.180  1.5530 -0.7273  0.5334
  607MPD2    N1 9003   0.592   1.989  11.728  0.3731 -0.6610 -0.1193
  607MPD2    H7 9004   0.632   2.053  11.796  3.8763 -0.5759 -2.2697
  608TMC3    C1 9005   0.711   2.115  11.581 -0.1967 -0.0037 -0.2825
  608TMC3    C2 9006   0.787   2.139  11.690  0.3966 -0.4135 -0.7538
  608TMC3    C3 9007   0.876   2.240  11.692  0.5474 -0.3107  0.6060
  608TMC3    C4 9008   0.742   2.178  11.464 -0.5861  0.5491 -0.1065
  608TMC3    C5 9009   0.844   2.269  11.463 -0.2972 -0.3953 -0.7777
  608TMC3    C6 9010   0.906   2.307  11.574 -0.1695 -1.1415  0.0513
  608TMC3     C 9011   0.607   2.014  11.600  0.5003  0.1096  0.0610
  608TMC3     O 9012   0.574   1.961  11.498  0.1747 -0.2739 -0.5298
  608TMC3     H 9013   0.803   2.066  11.769 -1.8174  0.3700  0.4223
  608TMC3    H1 9014   0.708   2.128  11.375  1.3261 -1.0868  0.0825
  608TMC3    H2 9015   0.972   2.393  11.586 -0.7807 -0.4302 -1.6273
  608TMC3    C7 9016   0.932   2.256  11.354 -0.4950 -0.0010 -0.5897
  608TMC3    C8 9017   0.988   2.226  11.791 -0.9941 -0.0420  0.4186
  608TMC3    O1 9018   0.877   2.244  11.243  0.5487 -0.6603  0.3662
  608TMC3    O2 9019   1.104   2.224  11.756  0.0957  0.1889 -0.7321
  609TMC3    C1 9020   4.229   0.740   9.703 -0.1228  0.0737  0.0781
  609TMC3    C2 9021   4.225   0.611   9.659 -0.3392  0.6859 -0.7397
  609TMC3    C3 9022   4.335   0.571   9.587 -0.3896  0.0942 -0.3101
  609TMC3    C4 9023   4.333   0.826   9.687 -0.4079  0.6809 -0.0031
  609TMC3    C5 9024   4.439   0.766   9.630  0.0587  0.1765 -0.0142
  609TMC3    C6 9025   4.445   0.647   9.571  0.0952 -0.2189  0.0966
  609TMC3     C 9026   4.101   0.783   9.762  0.0518  0.1656  0.8681
  609TMC3     O 9027   4.035   0.705   9.833 -0.0277  0.7664  0.2294
  609TMC3     H 9028   4.131   0.562   9.678  0.0461 -0.0172 -0.6703
  609TMC3    H1 9029   4.337   0.915   9.748 -1.5599  1.3755 -0.9395
  609TMC3    H2 9030   4.532   0.607   9.519  0.2909 -1.1112  1.1013
  609TMC3    C7 9031   4.565   0.828   9.667  0.4540  0.3634  0.2387
  609TMC3    C8 9032   4.329   0.459   9.497  0.3247  0.1114 -0.6965
  609TMC3    O1 9033   4.579   0.948   9.672  0.1410 -0.6204  0.2394
  609TMC3    O2 9034   4.437   0.411   9.470  0.2091  0.1430 -0.4627
  610TMC3    C1 9035   1.229   1.622  12.679  0.2830  0.7305  0.3180
  610TMC3    C2 9036   1.325   1.681  12.600  0.3194  0.2964 -0.2844
  610TMC3    C3 9037   1.451   1.630  12.590  0.2602 -0.3249  0.2207
  610TMC3    C4 9038   1.269   1.513  12.759 -0.1009 -0.6162 -0.6420
  610TMC3    C5 9039   1.398   1.464  12.750 -0.0445  0.4182  0.4277
  610TMC3    C6 9040   1.492   1.523  12.665  0.2980 -0.3408  0.5338
  610TMC3     C 9041   1.114   1.704  12.727 -1.2926 -0.9031  0.3265
  610TMC3     O 9042   1.035   1.634  12.794  0.0436  0.6909  0.1300
  610TMC3     H 9043   1.287   1.756  12.531 -0.9490  0.0603  0.1437
  610TMC3    H1 9044   1.185   1.458  12.799  0.2047 -0.8872 -0.3772
  610TMC3    H2 9045   1.590   1.481  12.649 -0.0116 -0.2353 -1.5760
  610TMC3    C7 9046   1.463   1.399  12.867 -0.0549 -0.0577 -0.4565
  610TMC3    C8 9047   1.557   1.709  12.516  1.0598  0.2343  0.2058
  610TMC3    O1 9048   1.571   1.351  12.847 -0.0138 -0.1658  0.4505
  610TMC3    O2 9049   1.518   1.773  12.418  0.0296 -0.0577  0.0744
  611MPD2     C 9050   0.629   2.112  10.698  0.8937 -0.4407 -0.1403
  611MPD2    C1 9051   0.626   2.017  10.593  0.2936 -0.0310  0.3410
  611MPD2    C2 9052   0.736   1.998  10.512 -0.0645  0.9746 -0.3291
  611MPD2    C3 9053   0.843   2.075  10.531  0.4748  0.1804 -1.2830
  611MPD2    C4 9054   0.846   2.178  10.632  0.0526  0.1277 -0.6149
  611MPD2    C5 9055   0.738   2.189  10.713 -0.0458  0.2820  0.1110
  611MPD2     H 9056   0.721   1.936  10.424 -2.5000 -0.1489  0.8866
  611MPD2    H1 9057   0.930   2.245  10.646 -1.1121  0.8365  2.9959
  611MPD2    H2 9058   0.542   2.130  10.760  0.6512  0.2790 -0.7025
  611MPD2    H3 9059   0.757   2.265  10.788 -0.4567  1.1705 -0.6901
  611MPD2     N 9060   0.963   2.043  10.463  0.8227 -0.2505  0.2385
  611MPD2    H5 9061   1.047   2.096  10.484  0.0894  0.9380  0.1805
  611MPD2    N1 9062   0.501   1.954  10.572 -0.5077 -0.3240 -0.1254
  611MPD2    H7 9063   0.425   1.990  10.628 -0.6857 -2.4508  1.0257
  612TMC3    C1 9064   1.112   1.965  10.297 -0.6580  0.0049 -0.4105
  612TMC3    C2 9065   1.228   1.993  10.369  0.3561  0.6116  0.1785
  612TMC3    C3 9066   1.344   2.004  10.305  0.1946  0.4980 -0.2922
  612TMC3    C4 9067   1.121   1.943  10.163  0.2465  0.0692  0.1704
  612TMC3    C5 9068   1.241   1.961  10.106 -0.2435 -0.6041 -0.8676
  612TMC3    C6 9069   1.359   1.989  10.173  0.0209 -0.3588  0.3493
  612TMC3     C 9070   0.981   1.952  10.362 -0.7836  0.1383  0.0238
  612TMC3     O 9071   0.903   1.871  10.316  0.0101  0.1806 -0.1241
  612TMC3     H 9072   1.226   2.008  10.476  2.0217 -0.5812  0.3584
  612TMC3    H1 9073   1.040   1.907  10.101  0.4883 -0.5900  0.2371
  612TMC3    H2 9074   1.456   1.997  10.126  0.4575 -0.2205  1.2827
  612TMC3    C7 9075   1.248   1.949   9.963 -0.4102 -0.2153  0.3769
  612TMC3    C8 9076   1.460   2.062  10.377  0.1805 -0.4681  0.1671
  612TMC3    O1 9077   1.179   1.861   9.907  0.2455  0.8101 -0.4467
  612TMC3    O2 9078   1.514   2.153  10.320  0.4857  0.5662 -0.0768
  613MPD2     C 9079   4.435   3.892  16.305 -0.3441 -0.2230  0.0098
  613MPD2    C1 9080   4.479   3.828  16.195  0.7300 -0.0413  0.6038
  613MPD2    C2 9081   4.403   3.720  16.156  0.0979  0.4495 -0.6380
  613MPD2    C3 9082   4.282   3.698  16.207 -0.1951 -0.2981 -0.9877
  613MPD2    C4 9083   4.236   3.760  16.320 -0.7530  0.0716 -0.9484
  613MPD2    C5 9084   4.321   3.857  16.373  0.0391  0.7646 -0.0791
  613MPD2     H 9085   4.437   3.667  16.068  0.0768  1.5531 -1.3111
  613MPD2    H1 9086   4.145   3.733  16.372  1.7409 -3.0565  1.7887
  613MPD2    H2 9087   4.503   3.964  16.350 -1.9131  0.6449  0.9618
  613MPD2    H3 9088   4.285   3.921  16.453 -3.3932 -0.4072 -0.7171
  613MPD2     N 9089   4.203   3.607  16.143 -0.5470 -0.0946  0.1105
  613MPD2    H5 9090   4.251   3.545  16.079 -0.7023  2.6282 -2.6609
  613MPD2    N1 9091   4.604   3.851  16.129  0.0950 -0.7127 -0.5506
  613MPD2    H7 9092   4.617   3.785  16.054 -2.1424  1.1592 -2.5826
  614TMC3    C1 9093   0.058   3.965  16.034  1.0876 -0.4848 -0.5482
  614TMC3    C2 9094   0.079   3.840  15.980 -0.4499  0.6384 -0.2119
  614TMC3    C3 9095   0.051   3.828  15.846 -0.6229  0.1786  1.0872
  614TMC3    C4 9096   0.044   4.078  15.955 -0.4231  0.3286 -0.3675
  614TMC3    C5 9097   0.012   4.056  15.827 -0.2897  0.1073 -0.0857
  614TMC3    C6 9098   0.025   3.933  15.766 -0.4234 -0.4249  0.2358
  614TMC3     C 9099   4.685   3.968  16.141  0.2362 -0.4955  0.8036
  614TMC3     O 9100   4.652   4.077  16.184  0.7528 -0.1423 -0.4141
  614TMC3     H 9101   0.092   3.767  16.059 -1.3247  1.0914  0.3505
  614TMC3    H1 9102   0.025   4.177  15.994  3.7313  0.7312  0.5508
  614TMC3    H2 9103   4.717   3.924  15.662 -0.8379 -0.3700  0.3544
  614TMC3    C7 9104   4.721   4.175  15.742  0.0591 -0.4263 -0.4002
  614TMC3    C8 9105   4.690   3.704  15.826  0.1520  0.1577  0.5508
  614TMC3    O1 9106   0.073   4.267  15.772  0.4241 -0.0093  0.6353
  614TMC3    O2 9107   4.637   3.663  15.928 -0.6899 -0.3969  0.3555
  615MPD2     C 9108   3.432   0.704  15.967 -0.5250  0.2597  0.0962
  615MPD2    C1 9109   3.508   0.814  15.985  0.3608  0.8444 -0.4877
  615MPD2    C2 9110   3.488   0.912  15.894  0.4841  0.0522  0.1412
  615MPD2    C3 9111   3.395   0.914  15.789 -0.2449 -0.3383  0.3394
  615MPD2    C4 9112   3.316   0.799  15.768  0.0320 -0.2603  0.1830
  615MPD2    C5 9113   3.341   0.698  15.858  0.0333  0.0959 -0.2655
  615MPD2     H 9114   3.548   1.002  15.906  0.2913  0.2879 -0.6592
  615MPD2    H1 9115   3.262   0.778  15.677  0.0740  1.3497 -0.2243
  615MPD2    H2 9116   3.448   0.615  16.026 -1.1261 -1.5153 -2.4479
  615MPD2    H3 9117   3.293   0.602  15.840  1.0499  0.1420 -3.2544
  615MPD2     N 9118   3.369   1.033  15.715  0.3795  0.6087 -0.1551
  615MPD2    H5 9119   3.284   1.028  15.659  0.7893  0.7277 -0.7802
  615MPD2    N1 9120   3.594   0.831  16.092  0.9472 -0.4882  0.5180
  615MPD2    H7 9121   3.640   0.921  16.101  0.7334 -0.3146 -0.1939
  616TMC3    C1 9122   3.756   0.757  16.255 -0.2425  0.6250 -0.5740
  616TMC3    C2 9123   3.741   0.868  16.329 -0.2492  0.4614 -0.1365
  616TMC3    C3 9124   3.817   0.884  16.438 -0.3974  0.1328  0.2704
  616TMC3    C4 9125   3.840   0.649  16.283  0.6832 -0.2527 -0.2088
  616TMC3    C5 9126   3.922   0.667  16.391 -0.5960  0.8486 -0.1381
  616TMC3    C6 9127   3.914   0.786  16.467  0.0587 -0.0858  0.2534
  616TMC3     C 9128   3.647   0.725  16.162  0.3506 -0.0017 -0.6058
  616TMC3     O 9129   3.618   0.609  16.169 -0.8931  0.3321  0.9941
  616TMC3     H 9130   3.663   0.941  16.311 -1.0492 -0.7510 -1.4980
  616TMC3    H1 9131   3.854   0.565  16.216 -4.3040 -0.5618 -0.8674
  616TMC3    H2 9132   3.973   0.796  16.557 -3.6449  2.5248  2.4272
  616TMC3    C7 9133   4.049   0.610  16.395  0.5659  0.3132  0.2524
  616TMC3    C8 9134   3.872   1.016  16.458 -0.0085 -0.6921 -0.5712
  616TMC3    O1 9135   4.142   0.680  16.436  0.2701  0.5201 -0.4572
  616TMC3    O2 9136   3.797   1.111  16.435  0.0363  0.4677 -0.5541
  617MPD2     C 9137   1.965   3.322  13.273  0.3093 -0.0711  0.1862
  617MPD2    C1 9138   1.948   3.323  13.407 -0.1741  0.3645 -0.3160
  617MPD2    C2 9139   1.820   3.295  13.460 -0.6292 -0.6047  0.4439
  617MPD2    C3 9140   1.718   3.255  13.377  0.3311 -0.0378  0.1287
  617MPD2    C4 9141   1.734   3.258  13.236 -0.4104  0.0959  0.1836
  617MPD2    C5 9142   1.860   3.295  13.185  0.2536  0.7712  0.3319
  617MPD2     H 9143   1.809   3.286  13.568 -2.6904  0.0077  0.2762
  617MPD2    H1 9144   1.650   3.233  13.172  0.9451 -1.3137 -1.0509
  617MPD2    H2 9145   2.058   3.344  13.221  0.0203 -3.5755 -1.8224
  617MPD2    H3 9146   1.881   3.305  13.079  0.7666  0.9308  0.4475
  617MPD2     N 9147   1.594   3.222  13.427  0.2981 -0.1814 -0.0454
  617MPD2    H5 9148   1.530   3.181  13.360 -0.5455  0.6763  0.2350
  617MPD2    N1 9149   2.060   3.354  13.485 -1.0199 -0.4284 -0.2825
  617MPD2    H7 9150   2.150   3.364  13.440 -0.4609  0.7829  1.1441
  618TMC3    C1 9151   2.196   3.334  13.672  0.4512 -0.2587 -0.6791
  618TMC3    C2 9152   2.260   3.216  13.647  0.2365  0.3997  0.1042
  618TMC3    C3 9153   2.394   3.216  13.622 -0.6405  0.4543 -0.0112
  618TMC3    C4 9154   2.267   3.453  13.668 -0.3273  0.6209 -0.3299
  618TMC3    C5 9155   2.401   3.448  13.645  0.3118  0.8285 -0.1494
  618TMC3    C6 9156   2.466   3.330  13.623  0.5802 -0.1840 -0.6628
  618TMC3     C 9157   2.065   3.337  13.623 -0.1039 -0.2680  0.1806
  618TMC3     O 9158   1.978   3.316  13.705 -0.4559  0.4617 -0.6453
  618TMC3     H 9159   2.203   3.124  13.642  0.3847  0.4247 -1.9759
  618TMC3    H1 9160   2.221   3.551  13.672 -1.4608 -0.0542  3.1706
  618TMC3    H2 9161   2.574   3.335  13.613  0.6353  0.2826  0.1586
  618TMC3    C7 9162   2.475   3.563  13.680 -0.5736  0.5866 -0.0366
  618TMC3    C8 9163   2.456   3.084  13.589 -0.5370 -0.5319 -0.4995
  618TMC3    O1 9164   2.452   3.627  13.782 -0.3616  0.1919  0.2252
  618TMC3    O2 9165   2.388   2.984  13.584 -0.3719 -0.5531  0.2086
  619MPD2     C 9166   3.695   4.393  13.661  0.1791  0.4389 -0.3495
  619MPD2    C1 9167   3.632   4.466  13.566  0.4009 -0.6447  0.3557
  619MPD2    C2 9168   3.496   4.451  13.562  0.2786  0.5505 -0.3279
  619MPD2    C3 9169   3.427   4.357  13.635 -0.3062 -0.8688  0.2430
  619MPD2    C4 9170   3.495   4.281  13.729 -0.1979 -0.7445  0.1246
  619MPD2    C5 9171   3.632   4.302  13.742 -0.0195  0.5373 -0.1946
  619MPD2     H 9172   3.445   4.514  13.490 -1.9574 -0.6363  0.2351
  619MPD2    H1 9173   3.448   4.199  13.781 -1.0854  0.2349  0.8627
  619MPD2    H2 9174   3.803   4.398  13.675  0.4745  0.9170 -2.8532
  619MPD2    H3 9175   3.679   4.243  13.820 -2.5549  2.1499  2.5338
  619MPD2     N 9176   3.292   4.326  13.610  0.4775 -0.0860 -1.3779
  619MPD2    H5 9177   3.251   4.258  13.673 -3.1754  1.5935 -1.9453
  619MPD2    N1 9178   3.703   4.552  13.481  0.3713 -0.4812  0.6044
  619MPD2    H7 9179   3.656   4.623  13.427  2.8681  0.1931 -0.6965
  620TMC3    C1 9180   3.882   4.665  13.389 -1.0814  0.3464  0.0488
  620TMC3    C2 9181   3.818   4.688  13.274  0.0984 -0.8939 -0.5729
  620TMC3    C3 9182   3.859   0.073  13.193 -0.9675  0.5999  0.4000
  620TMC3    C4 9183   3.974   0.033  13.439  0.2013  0.1644 -0.3420
  620TMC3    C5 9184   4.004   0.146  13.370  0.2617  0.1564  0.3334
  620TMC3    C6 9185   3.962   0.151  13.240  0.7045 -0.4766  0.1990
  620TMC3     C 9186   3.840   4.563  13.475 -0.4815 -0.0922 -0.3145
  620TMC3     O 9187   3.928   4.522  13.545  0.6658  0.3304  0.3579
  620TMC3     H 9188   3.740   4.623  13.237 -1.8662  0.4279  1.2444
  620TMC3    H1 9189   4.003   0.019  13.542  2.0060 -1.0956 -0.9937
  620TMC3    H2 9190   3.980   0.244  13.188  0.0036 -0.7490 -0.5191
  620TMC3    C7 9191   3.988   0.266  13.456 -0.4519  0.5942  0.4347
  620TMC3    C8 9192   3.754   0.156  13.136  0.5578  0.4564 -0.2737
  620TMC3    O1 9193   4.059   0.272  13.555 -0.7354 -0.2112  0.0742
  620TMC3    O2 9194   3.752   0.276  13.165 -0.1762  0.2531  0.4039
  621MPD2     C 9195   3.451   4.561  10.365  0.3609  0.7720 -0.5474
  621MPD2    C1 9196   3.519   4.606  10.474 -0.0658  0.4386  0.4872
  621MPD2    C2 9197   3.649   4.650  10.460  1.3838 -0.5040 -0.1250
  621MPD2    C3 9198   3.711   4.647  10.343  0.0970 -0.4141 -0.2636
  621MPD2    C4 9199   3.641   4.607  10.230 -0.4629 -0.6441 -0.2255
  621MPD2    C5 9200   3.509   4.570  10.241 -0.5202 -0.1008  0.4495
  621MPD2     H 9201   3.696   4.699  10.544 -0.0497  0.0390  0.3658
  621MPD2    H1 9202   3.685   4.613  10.131 -1.2898  1.2681 -0.4860
  621MPD2    H2 9203   3.350   4.519  10.364  1.1490 -1.1966  1.3796
  621MPD2    H3 9204   3.461   4.541  10.148 -0.2306  0.8649 -0.0043
  621MPD2     N 9205   3.840   4.707  10.341 -0.2708  0.4182 -0.0355
  621MPD2    H5 9206   3.874   0.017  10.431  1.5414  1.3173 -1.0402
  621MPD2    N1 9207   3.457   4.603  10.602  0.1257  0.5565 -0.1206
  621MPD2    H7 9208   3.523   4.613  10.679  0.1490  2.7033 -0.4242
  622TMC3    C1 9209   3.298   4.573  10.766 -0.2391  0.1993 -0.3306
  622TMC3    C2 9210   3.168   4.608  10.806  0.3678  0.8400  0.4082
  622TMC3    C3 9211   3.100   4.520  10.885  0.2153 -0.4562  0.6923
  622TMC3    C4 9212   3.351   4.455  10.817  0.3626  0.2687  0.4709
  622TMC3    C5 9213   3.268   4.367  10.878 -0.4595  0.1774  0.0745
  622TMC3    C6 9214   3.144   4.400  10.930 -0.2335  0.2005 -0.5143
  622TMC3     C 9215   3.323   4.600  10.628 -0.7615  0.6279 -0.2826
  622TMC3     O 9216   3.232   4.604  10.549 -0.1726  0.3653  0.2238
  622TMC3     H 9217   3.132   4.705  10.774 -0.1448  0.1421 -1.1363
  622TMC3    H1 9218   3.444   4.421  10.773  0.3978  1.1743 -0.1568
  622TMC3    H2 9219   3.070   4.331  10.971 -0.2207  0.7377  0.3929
  622TMC3    C7 9220   3.276   4.226  10.843  0.9311  0.4449 -0.0995
  622TMC3    C8 9221   2.962   4.552  10.915  0.7569  0.0574 -0.1711
  622TMC3    O1 9222   3.198   4.154  10.912 -0.3186  0.0233 -0.3756
  622TMC3    O2 9223   2.904   4.488  10.998  0.3584  0.2423 -0.2914
  623MPD2     C 9224   2.440   1.058  15.812  0.0275  1.0070  0.6786
  623MPD2    C1 9225   2.361   1.046  15.926  0.3567  0.3994 -1.1258
  623MPD2    C2 9226   2.426   1.039  16.043  0.1412  0.4051 -1.0101
  623MPD2    C3 9227   2.560   1.055  16.053 -0.3917 -0.1897  0.6144
  623MPD2    C4 9228   2.639   1.061  15.940 -0.1762  0.2869 -0.5921
  623MPD2    C5 9229   2.577   1.073  15.816  0.1128  0.0370  0.6688
  623MPD2     H 9230   2.370   1.052  16.136 -0.5884  1.8155 -1.6464
  623MPD2    H1 9231   2.744   1.083  15.957 -1.2997  3.6159  1.9813
  623MPD2    H2 9232   2.390   1.058  15.715 -0.0781 -0.5514  0.7366
  623MPD2    H3 9233   2.639   1.091  15.730  1.0203 -1.6236  0.9884
  623MPD2     N 9234   2.612   1.059  16.185  0.1224 -0.5334 -0.1457
  623MPD2    H5 9235   2.545   1.071  16.261  1.8089  0.4666  1.1792
  623MPD2    N1 9236   2.223   1.051  15.897 -0.8845  0.2941  0.4727
  623MPD2    H7 9237   2.197   1.119  15.826  0.2426 -0.8584 -1.0595
  624TMC3    C1 9238   2.871   1.050  16.566 -0.4590  0.0027 -0.6223
  624TMC3    C2 9239   2.756   1.060  16.642  0.4535 -0.2126 -0.0426
  624TMC3    C3 9240   2.645   1.087  16.573 -0.5610 -0.4438 -0.6147
  624TMC3    C4 9241   2.870   1.049  16.426 -0.5492 -0.0146 -0.4434
  624TMC3    C5 9242   2.757   1.085  16.366 -0.5182 -1.2356  0.0015
  624TMC3    C6 9243   2.640   1.110  16.432  0.4054 -0.4115 -0.4416
  624TMC3     C 9244   2.991   1.017  16.637 -0.0314  0.4693  0.1702
  624TMC3     O 9245   2.984   0.950  16.741  0.0086  0.6547 -0.1662
  624TMC3     H 9246   2.753   1.048  16.750 -1.1979 -0.4618 -0.1088
  624TMC3    H1 9247   2.960   1.018  16.373 -0.1170  4.0394 -2.1110
  624TMC3    H2 9248   2.557   1.164  16.389  0.0140  0.1677  1.0368
  624TMC3    C7 9249   2.746   1.063  16.224 -0.0285  0.4820 -0.6486
  624TMC3    C8 9250   2.511   1.096  16.637 -0.8465 -0.3732 -0.4744
  624TMC3    O1 9251   2.845   1.038  16.156 -0.1941  0.9404 -0.9221
  624TMC3    O2 9252   2.423   1.145  16.571 -0.5197  0.0018 -0.1911
  625MPD2     C 9253   2.776   2.060   0.508  0.2976 -0.2630  0.4580
  625MPD2    C1 9254   2.818   2.190   0.496 -0.4394 -0.3711  0.1490
  625MPD2    C2 9255   2.951   2.225   0.484 -0.1957 -0.3455  0.0746
  625MPD2    C3 9256   3.046   2.128   0.470 -0.2665  0.0640 -0.0555
  625MPD2    C4 9257   3.005   1.995   0.488  0.8860 -0.0538  0.0297
  625MPD2    C5 9258   2.873   1.960   0.505  0.0412 -0.3076 -0.5948
  625MPD2     H 9259   2.988   2.324   0.459 -1.5574  0.7439  2.4018
  625MPD2    H1 9260   3.077   1.915   0.476 -0.2254 -1.2061  1.0001
  625MPD2    H2 9261   2.675   2.031   0.533  0.4323 -1.8945 -0.9034
  625MPD2    H3 9262   2.845   1.856   0.494  0.9298 -0.6604  0.4540
  625MPD2     N 9263   3.180   2.164   0.447  0.0243  0.5862  0.2905
  625MPD2    H5 9264   3.194   2.264   0.438 -1.2314  0.7955  0.5805
  625MPD2    N1 9265   2.724   2.290   0.468 -0.0889  0.8464  0.1028
  625MPD2    H7 9266   2.761   2.383   0.452  1.0938  0.4560  0.6515
  626TMC3    C1 9267   2.524   2.381   0.381  0.2214  0.0152  0.8118
  626TMC3    C2 9268   2.435   2.366   0.281  0.1495  0.3896  0.6012
  626TMC3    C3 9269   2.341   2.467   0.254 -0.4016 -0.5816  0.8604
  626TMC3    C4 9270   2.519   2.493   0.459 -0.2549  0.3330  1.1934
  626TMC3    C5 9271   2.433   2.596   0.438 -0.9981  0.1337 -0.6409
  626TMC3    C6 9272   2.345   2.583   0.326 -0.4338  0.0469  0.6106
  626TMC3     C 9273   2.594   2.263   0.423 -0.0697  0.0049 -0.3112
  626TMC3     O 9274   2.527   2.161   0.407  0.0914  0.1562  0.3996
  626TMC3     H 9275   2.429   2.269   0.233  1.5753  0.1617  0.8946
  626TMC3    H1 9276   2.578   2.490   0.550  0.6200  0.7719  0.6438
  626TMC3    H2 9277   2.284   2.660   0.282  0.7541  1.2932  1.1451
  626TMC3    C7 9278   2.411   2.696   0.539 -0.6986 -0.1638 -0.8309
  626TMC3    C8 9279   2.281   2.470   0.120  0.5491 -0.0432 -1.0252
  626TMC3    O1 9280   2.508   2.706   0.616  0.0007 -0.3789  0.5847
  626TMC3    O2 9281   2.343   2.427   0.024 -0.1736 -0.1248  0.7667
  627MPD2     C 9282   0.939   2.531  14.314  0.0182 -0.3281  0.5153
  627MPD2    C1 9283   0.998   2.499  14.434 -0.2996 -0.2240 -0.2574
  627MPD2    C2 9284   0.956   2.378  14.490 -0.6572  0.3812 -0.1787
  627MPD2    C3 9285   0.850   2.292  14.443  0.0437  0.1940 -0.2396
  627MPD2    C4 9286   0.777   2.346  14.337 -0.3504 -0.5329 -1.0113
  627MPD2    C5 9287   0.824   2.460  14.274  0.5513  0.8346 -1.1157
  627MPD2     H 9288   1.003   2.352  14.585 -0.0704 -1.4445 -0.9743
  627MPD2    H1 9289   0.695   2.294  14.289 -2.8316  0.4772  2.1789
  627MPD2    H2 9290   0.988   2.611  14.259  1.6256 -1.6691 -0.0035
  627MPD2    H3 9291   0.771   2.489  14.184  1.6926  2.6750 -1.2118
  627MPD2     N 9292   0.811   2.179  14.515 -0.0905 -0.3438  0.1889
  627MPD2    H5 9293   0.842   2.169  14.612  1.1458 -1.7096 -0.3465
  627MPD2    N1 9294   1.108   2.574  14.487  0.1524 -0.4713 -0.3613
  627MPD2    H7 9295   1.155   2.529  14.564 -1.0582 -1.8835 -0.4326
  628TMC3    C1 9296   1.230   2.761  14.548  0.6807  1.0550  0.1242
  628TMC3    C2 9297   1.342   2.686  14.570 -0.2165  0.0517 -1.0339
  628TMC3    C3 9298   1.452   2.750  14.619 -0.0695  0.3532 -0.7746
  628TMC3    C4 9299   1.230   2.901  14.548 -0.4876 -0.1535 -0.0218
  628TMC3    C5 9300   1.347   2.955  14.602 -0.3652 -0.9510  0.4030
  628TMC3    C6 9301   1.446   2.883  14.649  0.6692 -0.2220 -0.7646
  628TMC3     C 9302   1.124   2.707  14.472 -0.1216  0.4599  0.1454
  628TMC3     O 9303   1.048   2.786  14.414 -0.2105  0.6047  0.2880
  628TMC3     H 9304   1.345   2.578  14.558  1.7771 -0.1384  1.2651
  628TMC3    H1 9305   1.147   2.961  14.512 -1.3532 -2.4581 -1.8768
  628TMC3    H2 9306   1.541   2.934  14.640  0.3912  0.3642 -0.3478
  628TMC3    C7 9307   1.385   3.081  14.543  0.5328 -0.0442 -0.4651
  628TMC3    C8 9308   1.571   2.725  14.540  0.4417 -0.4225  0.3673
  628TMC3    O1 9309   1.467   3.142  14.604 -0.3099  0.4422 -0.1280
  628TMC3    O2 9310   1.583   2.784  14.434 -0.2264  0.0805  0.8613
  629MPD2     C 9311   4.287   1.320  16.415 -0.1333 -0.4021 -0.3237
  629MPD2    C1 9312   4.325   1.190  16.423 -0.2700 -0.0865  0.3737
  629MPD2    C2 9313   4.233   1.090  16.428  0.1675  0.5129 -1.0019
  629MPD2    C3 9314   4.098   1.121  16.423 -0.1673 -0.5485 -0.3519
  629MPD2    C4 9315   4.053   1.258  16.412 -0.2497 -0.2049  0.5115
  629MPD2    C5 9316   4.151   1.352  16.404  0.3896 -0.6651 -0.9873
  629MPD2     H 9317   4.267   0.988  16.446 -1.8522  0.2113  1.0196
  629MPD2    H1 9318   3.950   1.292  16.414  0.6769  2.8502 -2.5243
  629MPD2    H2 9319   4.355   1.405  16.409 -0.7621  0.0213 -1.5184
  629MPD2    H3 9320   4.114   1.453  16.389  0.4015 -0.3004  1.4807
  629MPD2     N 9321   4.013   1.015  16.454 -0.4843 -0.0026  0.2837
  629MPD2    H5 9322   4.061   0.925  16.459  1.1148  0.8441  0.1421
  629MPD2    N1 9323   4.466   1.173  16.405 -0.2091  0.3638 -0.8227
  629MPD2    H7 9324   4.526   1.255  16.413  0.5272 -0.1203 -1.4584
  630TMC3    C1 9325   4.675   1.071  16.403 -0.3795 -0.1478  0.5570
  630TMC3    C2 9326   0.005   1.133  16.296  0.5688 -0.5287  0.4697
  630TMC3    C3 9327   0.141   1.131  16.281 -0.1805  0.0893  0.2897
  630TMC3    C4 9328   0.019   0.981  16.480  0.3038  0.1922  0.6255
  630TMC3    C5 9329   0.159   0.982  16.466 -0.1734  0.9995  0.0399
  630TMC3    C6 9330   0.216   1.057  16.365  0.2625  0.1417 -0.4797
  630TMC3     C 9331   4.529   1.051  16.394 -0.1297 -0.4143  0.6586
  630TMC3     O 9332   4.486   0.933  16.400 -0.5194  0.3591 -0.3807
  630TMC3     H 9333   4.659   1.195  16.240 -1.2038 -1.6649  1.3616
  630TMC3    H1 9334   4.697   0.936  16.568  1.8547  0.0610  1.3516
  630TMC3    H2 9335   0.323   1.045  16.357  0.2728  0.9394 -1.4878
  630TMC3    C7 9336   0.215   1.031  16.595 -0.1185 -0.5125  0.0421
  630TMC3    C8 9337   0.208   1.254  16.240 -0.7095  0.1142 -0.4172
  630TMC3    O1 9338   0.160   0.978  16.692 -0.7468 -0.1734 -0.2525
  630TMC3    O2 9339   0.289   1.295  16.320  0.1214  0.9374  0.5311
  631MPD2     C 9340   2.686   1.747  15.508  0.2360 -0.2257 -0.1532
  631MPD2    C1 9341   2.714   1.678  15.393  0.5066  1.3525 -0.7206
  631MPD2    C2 9342   2.815   1.586  15.401  0.3186  0.3667  0.1211
  631MPD2    C3 9343   2.898   1.561  15.506  0.6560  0.0115 -1.1598
  631MPD2    C4 9344   2.865   1.634  15.623  0.1922 -0.3163  0.6775
  631MPD2    C5 9345   2.761   1.728  15.628  0.0409 -0.0453 -0.2380
  631MPD2     H 9346   2.841   1.535  15.308 -2.0961  0.5655 -0.6476
  631MPD2    H1 9347   2.913   1.609  15.717  2.1921 -1.9347 -0.7811
  631MPD2    H2 9348   2.617   1.830  15.511  4.2581  3.1270  0.4078
  631MPD2    H3 9349   2.741   1.779  15.721 -2.6087 -2.3503  0.4662
  631MPD2     N 9350   3.017   1.486  15.490  0.1595 -0.1251 -0.3338
  631MPD2    H5 9351   3.029   1.450  15.395 -0.4549  0.8388 -0.7762
  631MPD2    N1 9352   2.658   1.700  15.262  0.0623  0.5576 -0.2883
  631MPD2    H7 9353   2.692   1.643  15.185 -0.5560 -0.0722 -0.1012
  632TMC3    C1 9354   2.585   1.841  15.087 -0.4973  0.9045  0.4009
  632TMC3    C2 9355   2.462   1.836  15.021 -0.2051  0.5305  0.3309
  632TMC3    C3 9356   2.450   1.757  14.906  0.2483  0.4528 -0.1626
  632TMC3    C4 9357   2.698   1.789  15.030  0.4660 -0.0699  0.7449
  632TMC3    C5 9358   2.683   1.729  14.908 -0.7507 -0.0072  0.8129
  632TMC3    C6 9359   2.565   1.713  14.846 -0.1514 -0.0258 -0.0995
  632TMC3     C 9360   2.578   1.803  15.231 -0.0944  0.1231 -0.1195
  632TMC3     O 9361   2.486   1.847  15.298  0.1887  0.1863 -0.1955
  632TMC3     H 9362   2.373   1.884  15.061 -0.0551 -0.1884  1.5205
  632TMC3    H1 9363   2.794   1.797  15.079 -0.1439  0.8392  1.7760
  632TMC3    H2 9364   2.564   1.640  14.766 -0.0084  1.1577 -1.1939
  632TMC3    C7 9365   2.803   1.672  14.843 -0.1871 -0.2497  0.0716
  632TMC3    C8 9366   2.334   1.772  14.824 -0.1881 -0.9818 -0.7087
  632TMC3    O1 9367   2.783   1.626  14.730 -0.1666 -0.3151  0.1651
  632TMC3    O2 9368   2.359   1.793  14.706  0.7305 -0.1657 -0.1491
  633MPD2     C 9369   3.082   4.200  17.555 -0.4198  0.2686  0.2987
  633MPD2    C1 9370   3.035   4.118  17.451  0.1854  0.3560 -0.7780
  633MPD2    C2 9371   3.069   3.981  17.447  0.1856 -0.5899 -0.0915
  633MPD2    C3 9372   3.140   3.926  17.555 -0.3362  0.1700 -0.0851
  633MPD2    C4 9373   3.172   4.003  17.665 -0.4291  0.1879  0.1395
  633MPD2    C5 9374   3.138   4.137  17.662 -0.6027 -0.4977 -0.2058
  633MPD2     H 9375   3.031   3.919  17.367 -1.0991 -0.2678  0.2696
  633MPD2    H1 9376   3.223   3.962   0.060  0.2821 -1.8760 -1.2390
  633MPD2    H2 9377   3.048   4.302  17.571  0.4481  0.5359  0.4692
  633MPD2    H3 9378   3.152   4.202   0.055 -2.5477 -1.9049  1.2078
  633MPD2     N 9379   3.154   3.787  17.541 -0.3696 -0.6242  0.2308
  633MPD2    H5 9380   3.144   3.747  17.449 -0.9472  0.7693 -0.3054
  633MPD2    N1 9381   2.969   4.160  17.334 -0.3920  0.3730  0.0049
  633MPD2    H7 9382   2.939   4.093  17.264  1.8033  0.8015 -1.3369
  634TMC3    C1 9383   2.904   4.298  17.159  0.5762 -0.4147 -0.4814
  634TMC3    C2 9384   2.946   4.193  17.081  0.2793 -0.1829 -0.7918
  634TMC3    C3 9385   2.914   4.203  16.943 -0.3190 -0.3994  0.3112
  634TMC3    C4 9386   2.839   4.405  17.110  0.2989  0.0966 -0.2127
  634TMC3    C5 9387   2.803   4.406  16.975  0.2702 -0.1588  0.2877
  634TMC3    C6 9388   2.843   4.307  16.891 -0.1636  0.2854 -0.4932
  634TMC3     C 9389   2.933   4.287  17.303 -0.5369  0.2917  0.4201
  634TMC3     O 9390   2.925   4.384  17.370 -0.4751 -0.1656  0.3516
  634TMC3     H 9391   3.014   4.113  17.106 -2.2793 -1.9827  0.4000
  634TMC3    H1 9392   2.825   4.493  17.173 -1.8631 -0.8049  0.5826
  634TMC3    H2 9393   2.783   4.300  16.801 -2.2748  2.7976  0.7235
  634TMC3    C7 9394   2.753   4.530  16.908 -0.1449  0.6858  0.5569
  634TMC3    C8 9395   2.979   4.114  16.847 -0.4774 -0.1186  0.3614
  634TMC3    O1 9396   2.694   4.516  16.803 -0.1097  0.2522 -0.4084
  634TMC3    O2 9397   3.024   4.011  16.899 -0.2765 -0.4794 -0.0382
  635TMC3    C1 9398   4.171   0.122   0.186 -0.0056 -0.3861  0.4089
  635TMC3    C2 9399   4.275   0.079   0.264 -0.9473  0.0125  0.1620
  635TMC3    C3 9400   4.320   4.675   0.244  0.7391 -0.7034 -0.0157
  635TMC3    C4 9401   4.108   0.030   0.107  0.3659  0.0996  0.4716
  635TMC3    C5 9402   4.153   4.624   0.100 -0.2865 -0.5436 -0.3451
  635TMC3    C6 9403   4.264   4.579   0.170 -0.5856  0.0564  0.3252
  635TMC3     C 9404   4.135   0.256   0.170 -0.1021  0.2671  0.0749
  635TMC3     O 9405   4.024   0.286   0.125 -0.6145 -0.2531 -0.0762
  635TMC3     H 9406   4.322   0.146   0.335 -0.1429  1.3774 -1.6704
  635TMC3    H1 9407   4.014   0.053   0.059  0.5266  1.0818  0.6320
  635TMC3    H2 9408   4.308   4.480   0.164 -1.5190 -0.4673  2.0136
  635TMC3    C7 9409   4.117   4.550  17.681 -0.0535  0.2344  0.0368
  635TMC3    C8 9410   4.444   4.649   0.316  0.2472  0.8469 -0.4807
  635TMC3    O1 9411   4.192   4.453  17.659  0.2996 -0.1567 -0.3880
  635TMC3    O2 9412   4.512   0.027   0.337  0.3726  0.1951 -0.5765
  636MPD2     C 9413   3.844   4.093  15.549  0.0863 -0.1551 -0.6637
  636MPD2    C1 9414   3.842   4.106  15.687  0.4947  0.1578 -0.4991
  636MPD2    C2 9415   3.860   3.988  15.757 -0.2947  0.5822 -0.8800
  636MPD2    C3 9416   3.868   3.861  15.700 -0.7115 -0.4858  0.2320
  636MPD2    C4 9417   3.878   3.854  15.561  0.2454  0.4300  0.5885
  636MPD2    C5 9418   3.866   3.970  15.488  0.0585  0.8669  0.1320
  636MPD2     H 9419   3.855   4.001  15.865  0.8194  0.4305 -0.8068
  636MPD2    H1 9420   3.887   3.761  15.506  1.0943  0.7873  0.1379
  636MPD2    H2 9421   3.846   4.186  15.494 -1.3772 -0.6708 -1.5885
  636MPD2    H3 9422   3.859   3.957  15.380 -1.4863  1.8215  0.1050
  636MPD2     N 9423   3.882   3.750  15.788 -0.2405  0.2948  0.1026
  636MPD2    H5 9424   3.906   3.767  15.885 -0.5749  1.4640 -0.0186
  636MPD2    N1 9425   3.821   4.232  15.752 -0.8902 -0.0389  0.3113
  636MPD2    H7 9426   3.807   4.233  15.852 -1.0911 -1.5760  0.3048
  637TMC3    C1 9427   3.939   3.523  15.853 -0.3509  0.2942  0.7465
  637TMC3    C2 9428   3.928   3.566  15.986  0.1190  0.5003 -0.0099
  637TMC3    C3 9429   4.013   3.505  16.073  0.3192 -0.2929  0.0595
  637TMC3    C4 9430   4.036   3.431  15.810  0.1448  0.2921 -0.3551
  637TMC3    C5 9431   4.126   3.374  15.902  0.1589 -0.2329  0.8603
  637TMC3    C6 9432   4.106   3.413  16.032 -0.9095  0.1371  0.4131
  637TMC3     C 9433   3.886   3.610  15.748 -0.6433 -0.1601  0.0529
  637TMC3     O 9434   3.882   3.561  15.637  0.4420  0.1190  0.0919
  637TMC3     H 9435   3.850   3.636  16.013  1.1742  1.0892  1.4715
  637TMC3    H1 9436   4.039   3.401  15.706  1.0208 -1.4493  0.1706
  637TMC3    H2 9437   4.161   3.378  16.120 -0.4600  1.0003  0.4816
  637TMC3    C7 9438   4.261   3.402  15.861 -0.4887  0.2546  0.3857
  637TMC3    C8 9439   4.069   3.601  16.163 -0.5885 -0.0089  0.2322
  637TMC3    O1 9440   4.305   3.479  15.944 -0.2283 -0.1675 -0.6860
  637TMC3    O2 9441   3.995   3.680  16.218  0.1102 -0.4878 -0.0929
  638MPD2     C 9442   3.711   3.112  14.840  0.1462  0.5528  0.6276
  638MPD2    C1 9443   3.703   2.989  14.786 -0.0650 -0.1661  0.6499
  638MPD2    C2 9444   3.652   2.887  14.868  0.3615 -0.2673  0.2499
  638MPD2    C3 9445   3.599   2.918  14.994 -0.4916  0.2958 -0.0794
  638MPD2    C4 9446   3.607   3.045  15.043  0.2240  0.5096  0.5486
  638MPD2    C5 9447   3.666   3.141  14.968  0.2842 -0.3546  0.1828
  638MPD2     H 9448   3.620   2.794  14.823  0.9473 -0.4804  0.2823
  638MPD2    H1 9449   3.568   3.067  15.141  3.7699  0.3917  1.9761
  638MPD2    H2 9450   3.756   3.196  14.788  0.9203  0.0695  0.5110
  638MPD2    H3 9451   3.675   3.245  14.998 -0.6818 -0.1731 -0.1541
  638MPD2     N 9452   3.532   2.813  15.073 -0.1520  0.2911 -0.2719
  638MPD2    H5 9453   3.555   2.719  15.039  2.2075 -0.0519  2.2187
  638MPD2    N1 9454   3.741   2.969  14.648  0.1183  0.2794  0.3203
  638MPD2    H7 9455   3.769   3.045  14.587  0.8109  0.0986  0.4084
  639TMC3    C1 9456   3.436   2.692  15.241  1.0671 -0.7008  0.1398
  639TMC3    C2 9457   3.382   2.607  15.157  0.5464 -0.1860 -0.0664
  639TMC3    C3 9458   3.372   2.482  15.202  0.0064 -0.1361  0.0184
  639TMC3    C4 9459   3.487   2.655  15.363 -0.2626  0.5247  0.3347
  639TMC3    C5 9460   3.480   2.526  15.400  0.3319 -0.2622 -0.2098
  639TMC3    C6 9461   3.411   2.433  15.323  0.4817 -0.3492 -0.2746
  639TMC3     C 9462   3.480   2.823  15.199  0.0010 -0.0955  0.4242
  639TMC3     O 9463   3.478   2.920  15.271 -0.5106  0.1163  0.0731
  639TMC3     H 9464   3.355   2.634  15.056  1.6269  0.3593 -0.2008
  639TMC3    H1 9465   3.562   2.718  15.409 -0.8456  3.1732 -2.3411
  639TMC3    H2 9466   3.417   2.327  15.346 -1.2500 -0.6963 -1.3997
  639TMC3    C7 9467   3.556   2.481  15.512 -0.4732 -0.4866 -0.3752
  639TMC3    C8 9468   3.342   2.389  15.105  0.0040 -0.1204 -0.2161
  639TMC3    O1 9469   3.517   2.377  15.568  0.4798  0.5320  0.4479
  639TMC3    O2 9470   3.404   2.386  14.997 -0.0354  0.0553  0.4332
  640MPD2     C 9471   4.186   1.828   8.863  0.0918  0.5462  0.0551
  640MPD2    C1 9472   4.146   1.882   8.978 -0.4455 -0.5610 -0.3867
  640MPD2    C2 9473   4.110   2.020   8.981  0.6757  0.5848 -0.4430
  640MPD2    C3 9474   4.090   2.091   8.867  0.4958  0.6188  0.2568
  640MPD2    C4 9475   4.114   2.027   8.753  0.2521 -0.0695 -0.4718
  640MPD2    C5 9476   4.171   1.899   8.747  0.4198  1.0450 -0.0863
  640MPD2     H 9477   4.088   2.071   9.074  1.5818  0.8895 -0.3962
  640MPD2    H1 9478   4.094   2.073   8.656  0.8127  1.4749  0.1433
  640MPD2    H2 9479   4.229   1.728   8.859 -1.1184  0.0066  0.6289
  640MPD2    H3 9480   4.198   1.851   8.654  1.4708  1.2316  0.1203
  640MPD2     N 9481   4.036   2.222   8.870  0.2029  0.6550 -0.4283
  640MPD2    H5 9482   4.009   2.260   8.780  2.9435  1.1359 -1.0325
  640MPD2    N1 9483   4.168   1.816   9.101 -0.5632 -0.4676  0.2158
  640MPD2    H7 9484   4.228   1.734   9.106  2.5439  1.8377  0.7639
  641TMC3    C1 9485   4.152   1.811   9.337 -0.5448 -0.0367  0.1698
  641TMC3    C2 9486   4.288   1.797   9.360  0.3550  0.2737  0.2931
  641TMC3    C3 9487   4.324   1.762   9.488  0.8505 -0.2119  0.1834
  641TMC3    C4 9488   4.053   1.808   9.436  0.9300  0.2368 -0.0350
  641TMC3    C5 9489   4.092   1.784   9.563 -0.2712 -0.0397  0.1990
  641TMC3    C6 9490   4.227   1.751   9.586  0.2689  0.4209 -0.6153
  641TMC3     C 9491   4.093   1.848   9.208  0.3013  0.6429 -0.0092
  641TMC3     O 9492   3.988   1.911   9.206 -0.0218  0.4924 -0.2593
  641TMC3     H 9493   4.370   1.805   9.289  0.2858 -0.4848  0.1294
  641TMC3    H1 9494   3.952   1.837   9.411  1.9009  2.2106 -1.6527
  641TMC3    H2 9495   4.239   1.700   9.680  1.2740  1.1205 -0.3625
  641TMC3    C7 9496   3.992   1.726   9.663  0.0349 -0.2799  0.7261
  641TMC3    C8 9497   4.460   1.745   9.535 -0.2203  0.3803 -0.8059
  641TMC3    O1 9498   4.020   1.724   9.782  0.2185 -0.3122 -0.5239
  641TMC3    O2 9499   4.481   1.678   9.633  0.3257  0.6225  0.0795
  642TMC3    C1 9500   0.673   2.884  12.028  0.5985  0.3725  0.8893
  642TMC3    C2 9501   0.787   2.827  11.994 -0.1316 -0.1733  1.0454
  642TMC3    C3 9502   0.778   2.712  11.922 -0.5001 -0.1162 -0.1963
  642TMC3    C4 9503   0.550   2.837  11.991 -0.0634 -0.3390 -0.4402
  642TMC3    C5 9504   0.547   2.736  11.901 -0.2591  1.1344 -0.0477
  642TMC3    C6 9505   0.660   2.675  11.861  0.0252 -0.1699  0.1173
  642TMC3     C 9506   0.683   3.015  12.081 -0.4488  0.3331 -0.3992
  642TMC3     O 9507   0.776   3.095  12.059 -0.1193 -0.1113  0.8722
  642TMC3     H 9508   0.878   2.862  12.040  0.8887 -1.9252  0.3764
  642TMC3    H1 9509   0.461   2.898  11.998 -0.9597 -1.5728 -1.0286
  642TMC3    H2 9510   0.653   2.579  11.810 -0.8771 -0.3777  0.6319
  642TMC3    C7 9511   0.430   2.696  11.833  0.3039  0.3882 -0.3743
  642TMC3    C8 9512   0.896   2.624  11.898 -0.5249  1.2250 -0.1896
  642TMC3    O1 9513   0.444   2.641  11.726 -0.1630 -0.1104  0.1734
  642TMC3    O2 9514   0.892   2.547  11.806  0.0398 -0.5128  0.3801
  643TMC3    C1 9515   4.476   2.712   0.562  0.1641 -0.5143  0.2857
  643TMC3    C2 9516   4.355   2.696   0.504  0.5800  0.1030 -0.0280
  643TMC3    C3 9517   4.335   2.619   0.392 -0.0050 -0.3653 -0.4367
  643TMC3    C4 9518   4.590   2.667   0.494 -0.5243 -0.9242 -0.0923
  643TMC3    C5 9519   4.570   2.579   0.387  0.6228  0.5470  0.3087
  643TMC3    C6 9520   4.445   2.553   0.334 -0.1877  0.0399 -0.1997
  643TMC3     C 9521   4.488   2.834   0.637  0.0274 -0.8017 -0.3262
  643TMC3     O 9522   4.447   2.939   0.593  0.1100 -1.1439 -0.8073
  643TMC3     H 9523   4.275   2.730   0.569  1.4898  2.0527  0.0863
  643TMC3    H1 9524   4.683   2.696   0.540  0.2962  0.4853 -2.6570
  643TMC3    H2 9525   4.436   2.504   0.238 -1.9276  0.1581 -0.0983
  643TMC3    C7 9526   4.655   2.611   0.277 -0.2426 -0.2268  1.1472
  643TMC3    C8 9527   4.263   2.701   0.294 -0.5097  0.0439  0.3106
  643TMC3    O1 9528   4.602   2.653   0.179  0.1199  0.3934  0.4883
  643TMC3    O2 9529   4.241   2.649   0.186 -0.3703  0.3260  0.6032
  644MPD2     C 9530   4.297   2.247   9.673  0.3171 -0.1490 -0.8612
  644MPD2    C1 9531   4.420   2.216   9.618 -0.3505  0.5785 -0.4062
  644MPD2    C2 9532   4.422   2.192   9.481  0.1206  0.0817  0.4678
  644MPD2    C3 9533   4.317   2.223   9.399 -0.6176  0.0679 -0.9189
  644MPD2    C4 9534   4.208   2.283   9.451 -0.1518 -0.3544  0.5938
  644MPD2    C5 9535   4.197   2.290   9.588 -0.2909  0.1982 -0.2693
  644MPD2     H 9536   4.514   2.158   9.434 -0.0618  0.7498 -0.3691
  644MPD2    H1 9537   4.123   2.314   9.391 -0.5013 -0.7639  0.8719
  644MPD2    H2 9538   4.278   2.263   9.778 -1.4542  0.0544 -1.2061
  644MPD2    H3 9539   4.111   2.342   9.628 -1.0576 -3.4286  2.8161
  644MPD2     N 9540   4.328   2.213   9.262  0.3378 -0.5887 -0.0509
  644MPD2    H5 9541   4.262   2.268   9.208  2.8825  1.1278 -1.4239
  644MPD2    N1 9542   4.536   2.207   9.706 -0.4574 -0.2955 -0.0796
  644MPD2    H7 9543   4.523   2.197   9.806  2.0637  1.3038  0.4041
  645TMC3    C1 9544   4.425   2.166   9.055 -0.2802 -0.4889  0.0309
  645TMC3    C2 9545   4.488   2.078   8.974 -0.0441 -0.6617  0.5418
  645TMC3    C3 9546   4.500   2.096   8.840  0.8729 -0.3640 -0.4725
  645TMC3    C4 9547   4.377   2.283   8.999  0.2713  0.4433  0.5454
  645TMC3    C5 9548   4.391   2.294   8.865 -0.2179 -0.1689 -0.2346
  645TMC3    C6 9549   4.456   2.211   8.783  0.2131  0.3664 -0.6504
  645TMC3     C 9550   4.407   2.128   9.197 -0.4042  0.4247  0.2938
  645TMC3     O 9551   4.453   2.025   9.242  0.3238  0.3092 -0.2310
  645TMC3     H 9552   4.519   1.989   9.028 -2.3068 -0.7410  1.7027
  645TMC3    H1 9553   4.310   2.346   9.058 -1.3907 -0.0791 -0.7860
  645TMC3    H2 9554   4.469   2.233   8.678  1.8607  1.3305 -0.2363
  645TMC3    C7 9555   4.365   2.424   8.805 -0.7291 -0.1780  0.6342
  645TMC3    C8 9556   4.513   1.987   8.750 -0.3448  0.6220  0.9647
  645TMC3    O1 9557   4.337   2.435   8.685  0.5202  0.4133 -0.4301
  645TMC3    O2 9558   4.484   2.024   8.632  0.1462 -0.1315  0.0705
  646MPD2     C 9559   3.939   1.737  14.622 -0.5589  1.0521  0.0548
  646MPD2    C1 9560   3.844   1.718  14.722 -0.1836 -0.1802 -0.0691
  646MPD2    C2 9561   3.711   1.749  14.699 -0.6903  0.8977  0.3780
  646MPD2    C3 9562   3.670   1.792  14.571 -0.7934  0.3834 -0.2280
  646MPD2    C4 9563   3.759   1.797  14.467  0.1698  0.0458  0.0380
  646MPD2    C5 9564   3.889   1.787  14.501 -0.4635  0.3365 -0.2651
  646MPD2     H 9565   3.633   1.738  14.774 -0.8752  0.6624  0.1504
  646MPD2    H1 9566   3.736   1.824  14.364  2.0328  0.5747 -0.2355
  646MPD2    H2 9567   4.044   1.713  14.634 -0.8419 -0.0854  0.2536
  646MPD2    H3 9568   3.965   1.806  14.426  0.8516 -1.9129  0.4647
  646MPD2     N 9569   3.532   1.811  14.541 -0.0140  0.8767  0.3221
  646MPD2    H5 9570   3.467   1.834  14.616 -1.3149 -1.2507 -0.1485
  646MPD2    N1 9571   3.877   1.653  14.837  0.7715 -0.0013 -0.0499
  646MPD2    H7 9572   3.973   1.622  14.848  1.1069  0.4762 -1.6780
  647TMC3    C1 9573   3.875   1.551  15.050  0.4755  0.3562 -0.3737
  647TMC3    C2 9574   3.806   1.458  15.120 -0.2472  0.1933  0.0740
  647TMC3    C3 9575   3.881   1.383  15.204  0.7873 -0.2593  0.1697
  647TMC3    C4 9576   4.009   1.569  15.053  0.1866  0.4223 -0.5407
  647TMC3    C5 9577   4.083   1.484  15.136 -0.3444  0.3498  0.0304
  647TMC3    C6 9578   4.018   1.385  15.208 -0.0816 -0.7366  0.3280
  647TMC3     C 9579   3.799   1.622  14.949  0.4178  0.9141 -0.4763
  647TMC3     O 9580   3.676   1.624  14.966 -0.3687  0.0882  0.2030
  647TMC3     H 9581   3.698   1.445  15.119 -0.3150  0.8062 -0.5439
  647TMC3    H1 9582   4.066   1.649  15.007  0.0246  1.6323  1.3878
  647TMC3    H2 9583   4.079   1.330  15.279 -1.3210  1.0905  2.8239
  647TMC3    C7 9584   4.222   1.457  15.116 -0.0453 -0.3771  0.0205
  647TMC3    C8 9585   3.814   1.280  15.281 -0.0346 -0.0817  0.3041
  647TMC3    O1 9586   4.273   1.369  15.183  0.5883 -0.5946  0.4098
  647TMC3    O2 9587   3.873   1.237  15.380  0.1264 -0.1093 -0.2429
  648TMC3    C1 9588   3.220   4.091  15.945  0.4867 -0.5731 -0.1977
  648TMC3    C2 9589   3.257   3.975  15.885  0.5424  0.3952 -0.2100
  648TMC3    C3 9590   3.185   3.960  15.772  0.0419  0.0654  0.1969
  648TMC3    C4 9591   3.138   4.191  15.891  0.4180  0.3996 -0.5085
  648TMC3    C5 9592   3.069   4.163  15.774 -0.5537  0.0429 -0.3819
  648TMC3    C6 9593   3.100   4.049  15.709 -0.0798  0.1703  0.4246
  648TMC3     C 9594   3.274   4.135  16.070  0.0058 -0.0537 -0.2895
  648TMC3     O 9595   3.252   4.251  16.106 -0.7612  0.1260  0.1081
  648TMC3     H 9596   3.320   3.894  15.918  0.7475  0.3708 -0.6741
  648TMC3    H1 9597   3.121   4.291  15.931  0.1193  0.1803 -0.0921
  648TMC3    H2 9598   3.050   4.028  15.616  0.6132 -1.6623  0.4730
  648TMC3    C7 9599   3.021   4.278  15.703  0.3588 -0.0394  0.5253
  648TMC3    C8 9600   3.225   3.837  15.700 -0.4885 -0.1798  0.1678
  648TMC3    O1 9601   3.059   4.290  15.589 -0.1869 -0.2625 -0.3633
  648TMC3    O2 9602   3.296   3.749  15.752  0.2860 -0.4611 -0.9067
  649TMC3    C1 9603   2.496   4.466  12.831 -0.6791 -0.4608 -1.0336
  649TMC3    C2 9604   2.613   4.402  12.845  0.0020 -0.6394 -0.2553
  649TMC3    C3 9605   2.625   4.333  12.957 -0.0354 -0.4494  0.2156
  649TMC3    C4 9606   2.393   4.453  12.921 -0.5404  0.2475 -0.9317
  649TMC3    C5 9607   2.409   4.370  13.026 -0.0885  1.2062 -0.3256
  649TMC3    C6 9608   2.526   4.309  13.051  0.2009  0.0219 -0.2210
  649TMC3     C 9609   2.461   4.544  12.715  0.3075  0.1570 -0.3604
  649TMC3     O 9610   2.343   4.562  12.700 -0.4561  0.2203 -0.2437
  649TMC3     H 9611   2.694   4.414  12.774 -0.2501 -0.3790 -0.5006
  649TMC3    H1 9612   2.301   4.511  12.915 -0.3626  0.6243 -0.0069
  649TMC3    H2 9613   2.534   4.240  13.134  1.8746  0.1428 -0.2767
  649TMC3    C7 9614   2.315   4.393  13.132  0.8281  0.7570 -0.0485
  649TMC3    C8 9615   2.760   4.291  12.987 -0.2051 -0.1886  0.7525
  649TMC3    O1 9616   2.278   4.506  13.154  0.7654  0.0834  0.2810
  649TMC3    O2 9617   2.855   4.339  12.925 -0.4507  0.2234  0.6410
  650TMC3    C1 9618   4.718   1.981  12.604  0.1039  0.0669 -0.1668
  650TMC3    C2 9619   0.047   2.098  12.655 -0.7580  0.0402  0.3439
  650TMC3    C3 9620   0.095   2.190  12.563 -0.1082 -0.3431 -0.1636
  650TMC3    C4 9621   4.665   1.978  12.478 -0.9407  0.7979 -0.1070
  650TMC3    C5 9622   4.713   2.064  12.390  0.5681 -0.3283  0.2064
  650TMC3    C6 9623   0.076   2.166  12.427 -0.3638 -0.8866  0.6543
  650TMC3     C 9624   4.709   1.868  12.699  0.4588  0.1369  0.2089
  650TMC3     O 9625   0.006   1.898  12.811 -0.2774  0.1922 -0.5637
  650TMC3     H 9626   0.096   2.094  12.751 -2.3351 -0.1534  1.1440
  650TMC3    H1 9627   4.607   1.890  12.454  0.0796  0.5880 -1.7767
  650TMC3    H2 9628   0.106   2.241  12.355  0.7298 -0.9614  1.0400
  650TMC3    C7 9629   4.619   2.089  12.281  0.6189 -0.4843 -0.2357
  650TMC3    C8 9630   0.052   2.328  12.599 -0.6966  0.1034 -0.5961
  650TMC3    O1 9631   4.563   2.001  12.219  0.6972  0.3404  0.1396
  650TMC3    O2 9632   0.109   2.419  12.543 -0.2515  0.2051  0.3795
  651MPD2     C 9633   3.393   3.375  10.466  0.0541  0.2129  0.4876
  651MPD2    C1 9634   3.379   3.450  10.581  0.0065 -0.3219 -0.1218
  651MPD2    C2 9635   3.468   3.547  10.612 -0.7743 -1.1522  0.1950
  651MPD2    C3 9636   3.575   3.569  10.522 -0.6936  0.1491 -0.1567
  651MPD2    C4 9637   3.600   3.494  10.412 -0.1417 -0.4776  0.1918
  651MPD2    C5 9638   3.499   3.402  10.385 -0.6658 -0.6155  0.5600
  651MPD2     H 9639   3.444   3.613  10.695  1.4245 -0.8281  0.5652
  651MPD2    H1 9640   3.685   3.499  10.344  0.8684  0.9931  1.5795
  651MPD2    H2 9641   3.329   3.290  10.449 -0.5606  0.4458  1.5897
  651MPD2    H3 9642   3.519   3.332  10.304 -1.0566 -0.1110  0.0218
  651MPD2     N 9643   3.647   3.682  10.548 -1.0922 -0.0867 -0.3800
  651MPD2    H5 9644   3.613   3.735  10.628 -0.8473 -0.0256 -0.3158
  651MPD2    N1 9645   3.272   3.439  10.674  0.2734 -0.1091  0.9104
  651MPD2    H7 9646   3.271   3.509  10.748 -0.4358  2.3890 -1.4416
  652TMC3    C1 9647   3.974   4.023  10.524  0.5332  0.0903  0.4025
  652TMC3    C2 9648   3.932   3.896  10.494 -0.0229 -0.3496  0.0373
  652TMC3    C3 9649   3.807   3.855  10.538  0.2215  0.3664  0.1085
  652TMC3    C4 9650   3.898   4.100  10.610  0.2898  0.3740  0.2166
  652TMC3    C5 9651   3.778   4.053  10.653  0.4295 -0.2762  0.6265
  652TMC3    C6 9652   3.727   3.936  10.615  0.0470 -0.0910 -0.1663
  652TMC3     C 9653   4.109   4.072  10.486 -0.4864  0.2618  0.0867
  652TMC3     O 9654   4.165   4.003  10.401  0.1869 -0.3065  0.0905
  652TMC3     H 9655   4.004   3.827  10.453 -1.0724 -1.3895 -0.0808
  652TMC3    H1 9656   3.926   4.199  10.643 -0.8012  1.2260 -1.4076
  652TMC3    H2 9657   3.624   3.910  10.636  0.7852 -2.4953  0.4739
  652TMC3    C7 9658   3.710   4.144  10.748  0.2180  0.5934  0.0260
  652TMC3    C8 9659   3.762   3.728  10.487  0.5003  0.4592  1.0762
  652TMC3    O1 9660   3.761   4.254  10.753  0.0459  0.7481  0.6863
  652TMC3    O2 9661   3.822   3.681  10.394 -0.1225  0.2754  0.9144
  653MPD2     C 9662   2.809   3.951  17.616  0.5548 -0.2194  1.3349
  653MPD2    C1 9663   2.693   4.030  17.594 -0.2288  0.1027  0.4566
  653MPD2    C2 9664   2.588   3.984  17.510 -0.1765  0.1714  0.2553
  653MPD2    C3 9665   2.600   3.858  17.453  0.5694 -0.0652 -0.0421
  653MPD2    C4 9666   2.695   3.776  17.505 -0.6297 -0.5240 -0.6813
  653MPD2    C5 9667   2.800   3.822  17.582 -0.0961 -0.0473  0.2715
  653MPD2     H 9668   2.517   4.064  17.491  0.0889  0.0222 -1.4177
  653MPD2    H1 9669   2.702   3.671  17.479 -2.7225 -0.9100  0.3382
  653MPD2    H2 9670   2.892   3.978  17.680  1.7275  0.0347 -0.3075
  653MPD2    H3 9671   2.865   3.744  17.622 -1.5226 -1.2226  0.2950
  653MPD2     N 9672   2.504   3.826  17.357  0.3526  0.6679  0.4412
  653MPD2    H5 9673   2.429   3.892  17.337  0.0822  0.3813  0.5009
  653MPD2    N1 9674   2.679   4.169  17.642  0.5625  0.5412 -0.0142
  653MPD2    H7 9675   2.610   4.232  17.601 -0.4417  0.6199  1.8138
  654TMC3    C1 9676   2.393   3.732  17.178  0.1712 -0.0851 -0.1914
  654TMC3    C2 9677   2.320   3.852  17.178 -0.3848  0.5203 -0.1691
  654TMC3    C3 9678   2.199   3.854  17.111  0.5058  0.3397  1.0530
  654TMC3    C4 9679   2.338   3.624  17.124  0.2591 -0.9554 -0.4948
  654TMC3    C5 9680   2.217   3.635  17.063 -0.2939  0.8923  0.2812
  654TMC3    C6 9681   2.145   3.751  17.051  0.2048  0.3322 -0.5697
  654TMC3     C 9682   2.487   3.711  17.283  0.4627 -0.1965  0.4141
  654TMC3     O 9683   2.537   3.600  17.290  0.3348  0.1788 -0.4548
  654TMC3     H 9684   2.361   3.950  17.201  1.8367  0.1657 -2.5797
  654TMC3    H1 9685   2.402   3.540  17.101 -0.8006 -1.9749  0.2963
  654TMC3    H2 9686   2.054   3.770  16.994 -0.6832 -2.6321 -0.1932
  654TMC3    C7 9687   2.202   3.548  16.952  0.2648  0.3553  0.6151
  654TMC3    C8 9688   2.122   3.973  17.111 -0.0230 -1.1395 -0.2519
  654TMC3    O1 9689   2.154   3.602  16.854  0.5452 -0.3263 -0.4650
  654TMC3    O2 9690   2.064   3.997  17.011 -0.0066  0.0970 -0.3083
  655MPD2     C 9691   3.488   4.140  15.653 -0.4948  0.1489  0.1185
  655MPD2    C1 9692   3.422   4.239  15.588  0.2292 -0.8305 -0.3882
  655MPD2    C2 9693   3.389   4.223  15.451  0.1720  0.0640 -0.4141
  655MPD2    C3 9694   3.412   4.106  15.387 -0.1761 -0.6764 -0.0807
  655MPD2    C4 9695   3.481   4.011  15.458 -0.4897 -0.9819 -0.0320
  655MPD2    C5 9696   3.525   4.028  15.583  0.3328 -0.4217 -0.4801
  655MPD2     H 9697   3.342   4.306  15.399  1.0964 -0.3677 -1.9303
  655MPD2    H1 9698   3.496   3.910  15.424 -0.0640 -0.5736 -1.0716
  655MPD2    H2 9699   3.522   4.157  15.755  0.8665 -1.9551  0.0196
  655MPD2    H3 9700   3.590   3.952  15.624  1.8747  0.8884 -0.5262
  655MPD2     N 9701   3.370   4.087  15.251  0.5622 -0.0420 -0.0888
  655MPD2    H5 9702   3.394   4.003  15.199  1.9032 -0.6834  1.5837
  655MPD2    N1 9703   3.385   4.363  15.649 -0.1424  0.3610 -0.3965
  655MPD2    H7 9704   3.332   4.420  15.585 -1.2129 -0.3057 -0.1019
  656TMC3    C1 9705   3.342   4.533  15.825 -0.0290 -0.1588  0.3789
  656TMC3    C2 9706   3.321   4.552  15.959 -0.3405  0.2190 -0.3549
  656TMC3    C3 9707   3.251   4.664  15.991 -0.1186  0.0945  0.1365
  656TMC3    C4 9708   3.299   4.621  15.731  1.1992 -0.2861 -0.5426
  656TMC3    C5 9709   3.227   0.004  15.765 -0.5022 -0.4776  0.0411
  656TMC3    C6 9710   3.199   0.033  15.901 -0.8556 -0.1050 -0.9156
  656TMC3     C 9711   3.397   4.402  15.788  0.5860  0.4424 -0.8998
  656TMC3     O 9712   3.440   4.340  15.882  0.4814 -0.0441  0.5232
  656TMC3     H 9713   3.346   4.470  16.026 -2.2392  0.9483  1.2311
  656TMC3    H1 9714   3.318   4.604  15.626  1.8764  0.8725 -0.6063
  656TMC3    H2 9715   3.116   0.097  15.926  0.1946  1.5769 -1.7176
  656TMC3    C7 9716   3.188   0.097  15.658 -0.8911  0.4073  0.7707
  656TMC3    C8 9717   3.164   4.657  16.109  0.1997  0.2107  0.4420
  656TMC3    O1 9718   3.209   0.056  15.545  0.2835 -0.0602  0.3396
  656TMC3    O2 9719   3.117   0.042  16.153  0.1609  0.5012  0.1315
  657TMC3    C1 9720   2.340   3.565  14.641  0.2785  0.2090 -0.2967
  657TMC3    C2 9721   2.374   3.607  14.767  0.4690  0.4439 -0.3938
  657TMC3    C3 9722   2.297   3.717  14.808  0.3594 -0.0790 -0.1512
  657TMC3    C4 9723   2.251   3.627  14.557  0.3640 -0.3684  0.2521
  657TMC3    C5 9724   2.181   3.736  14.607  0.2957  0.9506  0.3133
  657TMC3    C6 9725   2.206   3.785  14.727  0.0493  0.4962 -0.1724
  657TMC3     C 9726   2.378   3.429  14.596  0.2336  0.1508 -0.3207
  657TMC3     O 9727   2.315   3.381  14.501  0.0072 -0.3733  0.0869
  657TMC3     H 9728   2.436   3.546  14.832 -1.4080 -0.0663  0.9214
  657TMC3    H1 9729   2.224   3.585  14.461  0.1397 -0.0734  0.1850
  657TMC3    H2 9730   2.166   3.879  14.765 -2.2579 -0.2043 -0.8400
  657TMC3    C7 9731   2.093   3.811  14.521 -0.7261 -0.1301  0.0698
  657TMC3    C8 9732   2.304   3.751  14.948 -0.2290 -0.0105 -0.4207
  657TMC3    O1 9733   2.052   3.915  14.572  0.3750  0.3645 -0.2612
  657TMC3    O2 9734   2.228   3.836  14.994 -0.3763  0.9663  0.2575
  658MPD2     C 9735   3.624   3.669  14.865  0.0368  0.0735  0.1480
  658MPD2    C1 9736   3.540   3.745  14.787  0.1836 -0.1501  0.1710
  658MPD2    C2 9737   3.522   3.696  14.660 -0.0715  0.3588  0.2546
  658MPD2    C3 9738   3.583   3.591  14.604 -0.0378 -0.4946  0.1851
  658MPD2    C4 9739   3.665   3.516  14.683 -0.1579  0.4060  0.4524
  658MPD2    C5 9740   3.675   3.550  14.818  0.3687  0.4328  0.3697
  658MPD2     H 9741   3.443   3.751  14.609 -1.2425 -0.3975  1.2686
  658MPD2    H1 9742   3.718   3.425  14.659  1.6404  0.9991  2.1335
  658MPD2    H2 9743   3.660   3.704  14.961 -0.2534  0.6043  0.0657
  658MPD2    H3 9744   3.737   3.489  14.882 -0.7234 -2.0952 -0.9834
  658MPD2     N 9745   3.562   3.557  14.470  0.7039 -0.1043 -0.0981
  658MPD2    H5 9746   3.494   3.613  14.420  0.5491 -0.2494 -0.0473
  658MPD2    N1 9747   3.477   3.865  14.835  0.0700  0.3305 -0.1031
  658MPD2    H7 9748   3.495   3.888  14.932  0.6689 -0.4962 -0.0145
  659TMC3    C1 9749   3.311   4.026  14.850  0.3680  0.1421 -0.3812
  659TMC3    C2 9750   3.351   4.058  14.971  0.2556  0.3795  0.1321
  659TMC3    C3 9751   3.271   4.144  15.039  0.0406 -0.5846 -0.3055
  659TMC3    C4 9752   3.205   4.076  14.784  0.6033 -0.6590 -0.1886
  659TMC3    C5 9753   3.130   4.168  14.857  0.2027  0.2991  0.5141
  659TMC3    C6 9754   3.160   4.208  14.985  0.1883  0.7380 -0.7751
  659TMC3     C 9755   3.398   3.945  14.764 -0.0782  0.2788 -0.1890
  659TMC3     O 9756   3.375   3.950  14.645 -0.3726  0.2403  0.1936
  659TMC3     H 9757   3.449   4.042  15.016  0.4597 -1.5655 -0.9687
  659TMC3    H1 9758   3.178   4.046  14.683  2.2530  0.9185 -1.1033
  659TMC3    H2 9759   3.104   4.286  15.035 -1.0296  0.2955 -1.4513
  659TMC3    C7 9760   3.001   4.210  14.803  0.0442  0.2780  0.5758
  659TMC3    C8 9761   3.296   4.177  15.178  0.9363  0.1739 -0.1991
  659TMC3    O1 9762   2.914   4.229  14.879 -0.5678  0.1812  0.2564
  659TMC3    O2 9763   3.231   4.273  15.218 -0.0627  0.5186 -0.0124
  660MPD2     C 9764   1.908   2.469  12.639 -0.4562  0.1274 -0.0883
  660MPD2    C1 9765   1.785   2.494  12.587  0.1093 -0.1372  0.1905
  660MPD2    C2 9766   1.669   2.440  12.637 -0.0302 -0.2115  0.3379
  660MPD2    C3 9767   1.676   2.371  12.757  0.1070 -0.3966 -0.8126
  660MPD2    C4 9768   1.801   2.334  12.803 -0.1577  0.4857 -0.2948
  660MPD2    C5 9769   1.913   2.392  12.746  0.2647  0.3811 -0.3625
  660MPD2     H 9770   1.572   2.464  12.594  0.5727  0.0712 -0.8480
  660MPD2    H1 9771   1.805   2.279  12.897 -2.0580 -0.7358 -0.9179
  660MPD2    H2 9772   2.005   2.506  12.608 -0.1033  0.9585  2.0239
  660MPD2    H3 9773   2.011   2.385  12.791  0.3849 -1.1061 -0.8404
  660MPD2     N 9774   1.566   2.333  12.833 -0.2214 -0.0261 -0.2564
  660MPD2    H5 9775   1.594   2.278  12.914 -2.5982  0.6753  1.0315
  660MPD2    N1 9776   1.787   2.576  12.471  0.5381 -0.3068  0.0021
  660MPD2    H7 9777   1.878   2.597  12.430  0.4125  1.9660  0.9129
  661TMC3    C1 9778   1.706   2.712  12.285 -0.3612  0.2281  0.0459
  661TMC3    C2 9779   1.766   2.644  12.184 -0.2156  0.1954 -0.2265
  661TMC3    C3 9780   1.762   2.709  12.061  0.1729 -0.1571  0.0849
  661TMC3    C4 9781   1.619   2.819  12.267  0.1097  0.3700  0.4606
  661TMC3    C5 9782   1.610   2.872  12.142 -0.4193 -0.2453  0.2960
  661TMC3    C6 9783   1.680   2.819  12.039 -0.0795 -0.0273  0.0336
  661TMC3     C 9784   1.679   2.637  12.408  0.5497  0.2438 -0.0408
  661TMC3     O 9785   1.562   2.641  12.442  0.4373 -0.3295  0.4466
  661TMC3     H 9786   1.829   2.559  12.207  0.1380 -0.9719 -5.3546
  661TMC3    H1 9787   1.562   2.860  12.349  1.0069 -1.1596  1.8472
  661TMC3    H2 9788   1.669   2.858  11.939  1.3517 -0.3269 -0.2417
  661TMC3    C7 9789   1.489   2.945  12.114 -0.0002  0.2723 -0.4307
  661TMC3    C8 9790   1.770   2.626  11.936 -0.4168  0.0250 -0.3585
  661TMC3    O1 9791   1.452   3.021  12.203 -0.4037  0.1871 -0.4228
  661TMC3    O2 9792   1.760   2.686  11.828 -0.1465 -0.0828 -0.0331
  662MPD2     C 9793   1.860   3.069  16.902  0.4727  0.0834 -0.4690
  662MPD2    C1 9794   1.810   3.045  17.030  0.1556  0.0122  0.0821
  662MPD2    C2 9795   1.795   3.151  17.116 -0.1493 -0.6345 -0.6562
  662MPD2    C3 9796   1.829   3.280  17.084  0.4104  0.2716  0.1746
  662MPD2    C4 9797   1.860   3.304  16.949 -0.3552  0.2782  0.6386
  662MPD2    C5 9798   1.876   3.201  16.864 -0.5921  0.1614 -0.3104
  662MPD2     H 9799   1.760   3.128  17.216  2.2356 -2.6416 -0.2862
  662MPD2    H1 9800   1.880   3.404  16.914 -0.1630  0.1682  0.4278
  662MPD2    H2 9801   1.862   3.001  16.818 -1.4819  2.5288 -2.4608
  662MPD2    H3 9802   1.910   3.239  16.768  1.2575  0.0234  0.2987
  662MPD2     N 9803   1.809   3.394  17.173 -0.5936 -0.1358 -1.1781
  662MPD2    H5 9804   1.782   3.479  17.123  2.6621  1.7019  0.2253
  662MPD2    N1 9805   1.774   2.922  17.082  0.1567  0.3189  0.1212
  662MPD2    H7 9806   1.742   2.921  17.179 -0.5653  1.2961 -0.0995
  663TMC3    C1 9807   1.645   2.722  17.079  0.4325 -0.5306 -0.3033
  663TMC3    C2 9808   1.641   2.721  17.218 -0.0369  0.3279 -0.3973
  663TMC3    C3 9809   1.553   2.645  17.292  0.2924  0.2236 -0.1102
  663TMC3    C4 9810   1.554   2.651  17.004 -0.1556 -0.1239 -0.4104
  663TMC3    C5 9811   1.471   2.572  17.075  0.4957  0.6728 -0.1435
  663TMC3    C6 9812   1.477   2.557  17.215  0.2416  0.3601  0.0916
  663TMC3     C 9813   1.744   2.810  17.007  0.1438 -1.0876 -0.0657
  663TMC3     O 9814   1.764   2.793  16.887 -0.0786 -0.4533  0.3273
  663TMC3     H 9815   1.730   2.758  17.267 -2.2962 -0.1065  4.0059
  663TMC3    H1 9816   1.568   2.647  16.897 -1.8120  1.2050 -0.6856
  663TMC3    H2 9817   1.404   2.498  17.270  0.8233  0.6610  1.1857
  663TMC3    C7 9818   1.405   2.477  16.977 -0.5337  0.1915  0.1681
  663TMC3    C8 9819   1.470   2.740  17.363  0.4835  0.7278  0.2506
  663TMC3    O1 9820   1.373   2.526  16.870  0.0390  0.3683 -0.0440
  663TMC3    O2 9821   1.497   2.856  17.327 -0.4990  0.2719  0.0076
  664MPD2     C 9822   4.616   0.896   0.066  0.1961  0.0577 -0.1948
  664MPD2    C1 9823   4.665   1.016   0.077 -0.2693  0.1299  0.0000
  664MPD2    C2 9824   4.675   1.064   0.208 -0.1885 -0.1487 -0.0140
  664MPD2    C3 9825   4.632   0.999   0.322 -0.1401 -0.8672 -0.9856
  664MPD2    C4 9826   4.578   0.872   0.306  0.4590 -1.0870  0.4244
  664MPD2    C5 9827   4.566   0.829   0.172  0.2660  0.2291  0.0550
  664MPD2     H 9828   4.712   1.166   0.213  3.2073 -1.3254 -1.2956
  664MPD2    H1 9829   4.536   0.812   0.386 -2.0540 -1.0426 -0.8727
  664MPD2    H2 9830   4.596   0.859  17.658  0.1471  2.7645 -1.1990
  664MPD2    H3 9831   4.525   0.732   0.148 -0.2008  0.0666  1.5307
  664MPD2     N 9832   4.630   1.066   0.447  0.0726  0.1409  0.5090
  664MPD2    H5 9833   4.656   1.164   0.447  0.9955 -0.0969  2.1982
  664MPD2    N1 9834   4.712   1.093  17.664 -0.0180 -0.2724 -0.1711
  664MPD2    H7 9835   0.033   1.183  17.684  1.1038 -1.3254  2.1788
  665TMC3    C1 9836   4.606   1.079   0.687 -0.0291 -0.6734 -0.1792
  665TMC3    C2 9837   4.611   1.015   0.814  0.1053 -0.6857 -0.3374
  665TMC3    C3 9838   4.583   1.088   0.923  0.3835 -0.5890  0.0741
  665TMC3    C4 9839   4.535   1.196   0.684  0.0931  0.4552  0.1871
  665TMC3    C5 9840   4.501   1.262   0.794 -0.3760 -0.5414  0.2667
  665TMC3    C6 9841   4.531   1.211   0.919 -0.6407 -0.4102 -0.4718
  665TMC3     C 9842   4.598   1.000   0.567  0.5692 -0.4825 -0.2342
  665TMC3     O 9843   4.587   0.882   0.596  0.6913 -0.8977  0.0655
  665TMC3     H 9844   4.649   0.914   0.825  4.1505  0.8788  0.0199
  665TMC3    H1 9845   4.514   1.238   0.586 -0.7791 -0.8530 -0.1891
  665TMC3    H2 9846   4.485   1.249   1.009  1.1792  0.7322 -0.0131
  665TMC3    C7 9847   4.451   1.398   0.783  0.1453 -0.6828  0.0679
  665TMC3    C8 9848   4.662   1.065   1.043  0.1933  0.1658  0.3625
  665TMC3    O1 9849   4.356   1.406   0.705 -0.1458 -0.1623 -0.2905
  665TMC3    O2 9850   4.684   1.163   1.108 -0.4631 -0.6337  0.4133
  666TMC3    C1 9851   4.038   0.091  10.243 -0.3139 -0.5061  0.0106
  666TMC3    C2 9852   4.108   0.072  10.363 -0.5801  1.0539  1.0463
  666TMC3    C3 9853   4.226   0.145  10.377 -0.1551 -0.1994  0.1459
  666TMC3    C4 9854   4.075   0.173  10.141 -0.0048  0.1533  0.6684
  666TMC3    C5 9855   4.193   0.243  10.165  0.2128  0.3486  0.5097
  666TMC3    C6 9856   4.269   0.223  10.275 -0.7187  0.8834 -0.1015
  666TMC3     C 9857   3.915   0.010  10.232  0.3783  0.1765 -0.0753
  666TMC3     O 9858   3.889   0.006  10.116  0.1570  0.1908  0.0173
  666TMC3     H 9859   4.092   4.712  10.432 -1.6826  1.4470  1.2587
  666TMC3    H1 9860   4.018   0.186  10.049 -1.1713 -3.5766  0.8610
  666TMC3    H2 9861   4.347   0.291  10.307  1.7214 -1.8785 -0.2128
  666TMC3    C7 9862   4.195   0.377  10.117  0.2086  0.3205 -0.4582
  666TMC3    C8 9863   4.289   0.141  10.508 -0.8242 -0.0626  0.0828
  666TMC3    O1 9864   4.078   0.422  10.099  0.0633  0.1455  0.4413
  666TMC3    O2 9865   4.415   0.163  10.507  0.2645  0.1369  0.0024
  667MPD2     C 9866   0.298   0.922  14.861 -0.0535  0.3305 -0.3927
  667MPD2    C1 9867   0.346   0.822  14.938  0.1742  0.0042  0.4358
  667MPD2    C2 9868   0.300   0.697  14.912  0.5283 -1.0170 -0.4241
  667MPD2    C3 9869   0.197   0.666  14.827 -0.1741 -0.3232 -0.9567
  667MPD2    C4 9870   0.140   0.772  14.762  0.4330  0.1649  0.9163
  667MPD2    C5 9871   0.182   0.902  14.782  0.1604  0.6112 -0.4430
  667MPD2     H 9872   0.340   0.619  14.976  1.1463  0.3289  0.8196
  667MPD2    H1 9873   0.059   0.742  14.696  0.1784  0.1549  1.2301
  667MPD2    H2 9874   0.330   1.025  14.869 -3.1507  1.0766  2.6169
  667MPD2    H3 9875   0.123   0.981  14.737 -0.7051  0.5425  0.5749
  667MPD2     N 9876   0.161   0.535  14.798 -0.2320 -0.3878  0.1395
  667MPD2    H5 9877   0.086   0.510  14.734 -0.4993  2.7242 -0.7349
  667MPD2    N1 9878   0.453   0.834  15.027 -0.0034 -0.5427 -0.0835
  667MPD2    H7 9879   0.489   0.747  15.067 -1.9350 -1.5081 -0.4589
  668TMC3    C1 9880   0.621   0.922  15.161 -0.1576 -0.1480  0.1025
  668TMC3    C2 9881   0.744   0.978  15.153  0.0244 -0.2499  0.0252
  668TMC3    C3 9882   0.829   0.969  15.257  0.1477  0.0511 -0.0394
  668TMC3    C4 9883   0.579   0.845  15.265 -0.1708 -0.2314  0.1413
  668TMC3    C5 9884   0.674   0.821  15.370  0.6719  0.1978 -0.2877
  668TMC3    C6 9885   0.799   0.883  15.363 -0.0196 -0.8505  0.4971
  668TMC3     C 9886   0.525   0.949  15.056 -0.4665 -0.9784 -0.4939
  668TMC3     O 9887   0.504   1.063  15.019  0.2033 -0.5158 -0.0682
  668TMC3     H 9888   0.777   1.026  15.062 -2.0813  0.6954 -0.2329
  668TMC3    H1 9889   0.475   0.816  15.278 -0.1022 -0.3456  0.4470
  668TMC3    H2 9890   0.861   0.879  15.452  1.5634  0.2787 -0.5539
  668TMC3    C7 9891   0.626   0.787  15.498  0.7173 -1.3029 -0.0527
  668TMC3    C8 9892   0.950   1.043  15.279 -0.1234 -1.0279  0.2351
  668TMC3    O1 9893   0.684   0.821  15.600 -0.3804  0.1087  0.2365
  668TMC3    O2 9894   1.023   1.005  15.371  0.2137 -0.4124  0.7559
  669TMC3    C1 9895   3.602   1.094  14.449 -0.2175  0.5031  0.5944
  669TMC3    C2 9896   3.557   1.042  14.331 -0.7862  0.2910 -1.2748
  669TMC3    C3 9897   3.544   1.115  14.218 -0.1340  0.4488  0.3259
  669TMC3    C4 9898   3.646   1.222  14.453 -0.3299 -0.3988  0.7531
  669TMC3    C5 9899   3.646   1.290  14.331 -0.7734  0.0032 -0.1832
  669TMC3    C6 9900   3.593   1.240  14.217 -0.3692  0.2843 -0.1484
  669TMC3     C 9901   3.627   1.006  14.555  0.1960  0.3014  0.0618
  669TMC3     O 9902   3.611   0.886  14.540 -0.1496  0.6102 -0.0996
  669TMC3     H 9903   3.531   0.936  14.333  0.1062  0.1039  0.3859
  669TMC3    H1 9904   3.693   1.272  14.536  0.8016  0.1830 -0.2322
  669TMC3    H2 9905   3.612   1.280  14.118 -1.6645  0.2501 -0.4206
  669TMC3    C7 9906   3.735   1.404  14.326  0.3485 -0.0499 -0.1197
  669TMC3    C8 9907   3.488   1.050  14.099  0.3386  0.8633  0.3902
  669TMC3    O1 9908   3.837   1.399  14.396  0.0776  0.0436  0.6837
  669TMC3    O2 9909   3.493   0.925  14.097 -0.3367 -0.0943 -0.1415
  670MPD2     C 9910   1.752   2.897  13.229 -0.0661  0.0164  0.3135
  670MPD2    C1 9911   1.851   2.938  13.307 -0.5023  0.5158 -0.8895
  670MPD2    C2 9912   1.833   2.935  13.446 -0.0342 -0.3678  0.5768
  670MPD2    C3 9913   1.710   2.889  13.493 -0.1278 -0.0892 -1.1717
  670MPD2    C4 9914   1.605   2.851  13.411 -0.2469  0.2758 -0.7486
  670MPD2    C5 9915   1.636   2.853  13.283 -0.4240  0.0228 -0.2693
  670MPD2     H 9916   1.908   2.967  13.517  2.9980 -2.9200 -1.4682
  670MPD2    H1 9917   1.504   2.824  13.440  0.3253 -1.0943 -0.0257
  670MPD2    H2 9918   1.762   2.909  13.121  1.0933  0.0471  0.4247
  670MPD2    H3 9919   1.567   2.820  13.206  0.0262  0.9185 -1.0496
  670MPD2     N 9920   1.697   2.902  13.630  0.4653 -0.0629  0.3856
  670MPD2    H5 9921   1.779   2.939  13.676  0.5183 -1.6895  1.5980
  670MPD2    N1 9922   1.976   2.980  13.262  0.1819 -0.2059 -0.0260
  670MPD2    H7 9923   2.042   3.001  13.336  3.2671  0.3459 -2.9496
  671TMC3    C1 9924   1.602   2.864  13.854  0.8804  0.4273 -0.5272
  671TMC3    C2 9925   1.724   2.865  13.912 -0.1682 -0.4155 -0.0844
  671TMC3    C3 9926   1.735   2.813  14.039 -0.6912 -0.1671 -0.1936
  671TMC3    C4 9927   1.489   2.832  13.929  0.1115 -0.0834 -0.1873
  671TMC3    C5 9928   1.505   2.774  14.053  0.3001 -1.0620  0.3056
  671TMC3    C6 9929   1.630   2.763  14.109  0.2628  0.2125  0.0060
  671TMC3     C 9930   1.588   2.864  13.709 -0.1483 -0.0414 -0.7140
  671TMC3     O 9931   1.484   2.818  13.666 -0.0573 -0.4420  0.0949
  671TMC3     H 9932   1.809   2.848  13.847 -1.8159 -0.0284 -2.3409
  671TMC3    H1 9933   1.391   2.837  13.885  0.3156  2.4991 -0.3934
  671TMC3    H2 9934   1.642   2.721  14.208 -2.5073  0.8845  0.6416
  671TMC3    C7 9935   1.406   2.685  14.091 -0.2333  0.6114  0.0372
  671TMC3    C8 9936   1.859   2.729  14.059 -0.6639  0.3716 -0.2260
  671TMC3    O1 9937   1.446   2.577  14.129  0.1493 -0.9886 -0.0419
  671TMC3    O2 9938   1.835   2.612  14.081 -0.3975 -0.4922 -0.0244
  672MPD2     C 9939   2.253   4.259   1.480 -0.0018 -0.4082 -0.0880
  672MPD2    C1 9940   2.341   4.221   1.385  0.3799  0.6730 -0.8012
  672MPD2    C2 9941   2.453   4.301   1.359  0.1810 -0.3384  0.5551
  672MPD2    C3 9942   2.476   4.421   1.425  0.4318 -0.3320  0.5240
  672MPD2    C4 9943   2.380   4.456   1.521  0.0037 -0.1105  0.8653
  672MPD2    C5 9944   2.274   4.376   1.550  0.1085 -0.2374  0.0943
  672MPD2     H 9945   2.520   4.264   1.282  0.5492 -0.2027  0.8129
  672MPD2    H1 9946   2.388   4.553   1.569 -2.9333 -0.8033  2.7049
  672MPD2    H2 9947   2.163   4.203   1.504  1.4917 -2.0228  1.7259
  672MPD2    H3 9948   2.199   4.404   1.622 -0.8930 -0.3805 -0.8968
  672MPD2     N 9949   2.591   4.501   1.411 -0.0564 -0.2324  0.2764
  672MPD2    H5 9950   2.600   4.591   1.458 -1.7131 -0.5439  1.1753
  672MPD2    N1 9951   2.326   4.091   1.316  0.2230  0.1345  0.4155
  672MPD2    H7 9952   2.388   4.062   1.242  0.5372  0.4542  0.5530
  673TMC3    C1 9953   2.309   3.852   1.330 -0.9156  0.5430 -0.0590
  673TMC3    C2 9954   2.352   3.756   1.420  0.2642 -0.1109 -0.0370
  673TMC3    C3 9955   2.423   3.646   1.380  0.4873  1.0605  0.3539
  673TMC3    C4 9956   2.330   3.844   1.198  0.0397 -0.8283  0.0862
  673TMC3    C5 9957   2.412   3.739   1.158  0.5072  0.1544  0.2917
  673TMC3    C6 9958   2.466   3.654   1.247  0.5959 -0.1708 -0.0972
  673TMC3     C 9959   2.264   3.981   1.378  0.3058  0.6365  0.2305
  673TMC3     O 9960   2.208   3.983   1.482  0.6420  0.0548  0.1507
  673TMC3     H 9961   2.323   3.773   1.523  1.4590 -0.5571  0.3732
  673TMC3    H1 9962   2.285   3.913   1.128 -2.0557 -0.4736  1.7980
  673TMC3    H2 9963   2.530   3.573   1.212  2.7677  0.8681  1.4617
  673TMC3    C7 9964   2.441   3.716   1.019  0.2712  0.8363  0.5903
  673TMC3    C8 9965   2.523   3.608   1.474 -0.4975  1.1675  0.6926
  673TMC3    O1 9966   2.511   3.620   0.985  0.2049 -0.3182 -0.1899
  673TMC3    O2 9967   2.488   3.610   1.592 -0.5136 -0.5186 -0.3607
  674MPD2     C 9968   2.535   2.903   0.248  0.0610  0.5917  0.3243
  674MPD2    C1 9969   2.403   2.936   0.222 -0.1663 -0.1068  0.1297
  674MPD2    C2 9970   2.333   3.026   0.305 -0.4383  0.3098  0.4449
  674MPD2    C3 9971   2.399   3.078   0.413 -0.3531 -0.5669 -0.7675
  674MPD2    C4 9972   2.527   3.042   0.441  0.0302 -0.2864 -0.1470
  674MPD2    C5 9973   2.591   2.955   0.358 -0.4672  0.4513 -0.3803
  674MPD2     H 9974   2.229   3.051   0.291  0.0056  1.5276 -0.6571
  674MPD2    H1 9975   2.579   3.088   0.525  0.5051  0.2771 -0.7525
  674MPD2    H2 9976   2.585   2.840   0.175 -1.3561 -0.8621  0.6122
  674MPD2    H3 9977   2.698   2.948   0.378 -0.7141 -3.0586 -0.2730
  674MPD2     N 9978   2.327   3.171   0.488  0.4588  0.8684 -0.6250
  674MPD2    H5 9979   2.238   3.193   0.446  0.9616  2.1855 -1.0225
  674MPD2    N1 9980   2.342   2.886   0.102 -0.1733 -0.1962  0.5059
  674MPD2    H7 9981   2.403   2.855   0.028 -1.4130 -0.8524 -0.2304
  675TMC3    C1 9982   2.173   2.869  17.626 -0.0788 -0.1205  0.7519
  675TMC3    C2 9983   2.044   2.891  17.601 -0.1132  0.3088 -0.5554
  675TMC3    C3 9984   1.998   2.927  17.480  0.8477 -0.0054  0.4933
  675TMC3    C4 9985   2.258   2.885  17.522 -0.4596  0.0825 -0.0718
  675TMC3    C5 9986   2.211   2.929  17.399  0.4930 -0.1911 -0.6777
  675TMC3    C6 9987   2.081   2.944  17.373  0.7446 -0.0211  0.0425
  675TMC3     C 9988   2.208   2.893   0.072  0.1913 -0.0451  1.5543
  675TMC3     O 9989   2.115   2.896   0.150 -0.0880  0.1060  0.4087
  675TMC3     H 9990   1.966   2.855  17.667  0.4093  0.6837  0.2713
  675TMC3    H1 9991   2.366   2.878  17.529 -0.5039  0.4271  0.8968
  675TMC3    H2 9992   2.041   2.966  17.275 -0.9571 -0.8127  0.5598
  675TMC3    C7 9993   2.295   2.901  17.292  0.7214 -1.1642 -0.5007
  675TMC3    C8 9994   1.863   2.985  17.471 -0.1730 -0.4390  0.2643
  675TMC3    O1 9995   2.250   2.944  17.186 -0.1434  0.2236  0.0672
  675TMC3    O2 9996   1.806   2.973  17.363 -0.4007 -0.3355  0.1408
  676MPD2     C 9997   0.032   1.681  10.775 -0.1107 -0.5554 -0.4279
  676MPD2    C1 9998   4.635   1.637  10.830  0.5156  0.0552  0.1576
  676MPD2    C2 9999   4.612   1.503  10.859  0.2178  0.4112 -0.5529
  676MPD2    C310000   4.701   1.406  10.806  0.4549 -0.2528  0.1122
  676MPD2    C410001   0.092   1.449  10.746 -0.7856  0.2882 -0.0138
  676MPD2    C510002   0.119   1.583  10.734 -0.2301  0.0681 -0.4681
  676MPD2     H10003   4.516   1.477  10.901  1.1611  0.8480  1.8485
  676MPD2    H110004   0.173   1.381  10.725 -1.6717 -0.1855 -1.9293
  676MPD2    H210005   0.060   1.784  10.759  1.4848 -0.8998  0.0442
  676MPD2    H310006   0.210   1.619  10.688 -0.3459  1.0687  0.0848
  676MPD2     N10007   4.702   1.268  10.829  0.5730 -0.9516  0.3597
  676MPD2    H510008   0.046   1.213  10.777  0.1224  0.5033 -1.7513
  676MPD2    N110009   4.550   1.728  10.890  0.2504 -0.8218 -0.0497
  676MPD2    H710010   4.473   1.693  10.946 -0.5055 -0.8366 -1.0833
  677TMC3    C110011   4.449   1.934  10.970  0.0124 -0.2379 -0.3696
  677TMC3    C210012   4.331   1.874  10.950  0.2836 -0.3220 -0.0693
  677TMC3    C310013   4.223   1.952  10.991 -0.2066  0.8002 -0.0212
  677TMC3    C410014   4.463   2.068  10.990 -0.7042  0.3269  0.5724
  677TMC3    C510015   4.350   2.144  11.017 -1.0588 -1.1513 -0.5252
  677TMC3    C610016   4.227   2.088  11.018  0.6979  0.8821 -0.1803
  677TMC3     C10017   4.561   1.867  10.901 -0.4094 -0.6954 -0.6884
  677TMC3     O10018   4.659   1.937  10.865  0.2934  0.0210  0.2802
  677TMC3     H10019   4.319   1.767  10.939 -0.4445 -0.1992 -0.4466
  677TMC3    H110020   4.561   2.114  10.992 -0.4464 -0.2576  1.1669
  677TMC3    H210021   4.133   2.139  11.038  0.8841  0.2594  2.2783
  677TMC3    C710022   4.363   2.236  11.127 -0.2025 -0.1679  0.3644
  677TMC3    C810023   4.097   1.885  10.993 -0.1925  0.3460  0.0178
  677TMC3    O110024   4.269   2.249  11.205 -0.4370  0.0767  0.3569
  677TMC3    O210025   4.046   1.868  10.885  0.1683 -0.1679  0.1735
  678MPD2     C10026   0.803   2.078   1.662 -0.3098  0.3874 -0.4621
  678MPD2    C110027   0.788   2.078   1.527 -0.3376  0.8393 -0.6284
  678MPD2    C210028   0.669   2.134   1.478  0.0149 -0.0399  0.6946
  678MPD2    C310029   0.563   2.175   1.553 -0.6699 -0.5797 -0.0460
  678MPD2    C410030   0.586   2.178   1.692  0.2304 -0.1672  0.0337
  678MPD2    C510031   0.706   2.130   1.744 -0.8484  0.8588 -0.5443
  678MPD2     H10032   0.654   2.121   1.371 -0.7211 -1.3078  0.9617
  678MPD2    H110033   0.500   2.210   1.750 -0.5997 -0.6324 -0.9539
  678MPD2    H210034   0.891   2.043   1.715 -1.2537  0.0822  0.9010
  678MPD2    H310035   0.725   2.139   1.850  0.1983  1.4359 -0.7868
  678MPD2     N10036   0.438   2.221   1.492  0.3019 -0.2947  0.2386
  678MPD2    H510037   0.442   2.235   1.392 -0.5331 -1.5237  0.0345
  678MPD2    N110038   0.875   2.020   1.433 -0.5015 -0.7023  0.0114
  678MPD2    H710039   0.853   2.026   1.334 -1.6027  1.2414  0.3827
  679TMC3    C110040   1.145   1.712   1.239 -0.7183  0.2614 -0.2240
  679TMC3    C210041   1.106   1.773   1.362 -0.3821  0.2054  0.2487
  679TMC3    C310042   1.060   1.901   1.351 -0.4432  0.6476 -0.3986
  679TMC3    C410043   1.131   1.783   1.122 -0.1678  0.2263  0.5106
  679TMC3    C510044   1.080   1.910   1.123 -0.1790 -0.9069  0.0884
  679TMC3    C610045   1.036   1.971   1.236  0.3297 -0.2896 -0.3097
  679TMC3     C10046   1.252   1.606   1.240 -0.2011  0.3139 -0.2140
  679TMC3     O10047   1.315   1.585   1.137  0.0576 -0.3122  0.3485
  679TMC3     H10048   1.136   1.731   1.457 -1.3235 -1.3664 -0.1611
  679TMC3    H110049   1.167   1.735   1.031 -0.3521  1.2576 -0.1107
  679TMC3    H210050   1.002   2.074   1.236  0.6636 -0.1779 -1.3138
  679TMC3    C710051   1.074   1.992   1.000 -0.4801 -0.3968  0.4068
  679TMC3    C810052   0.985   1.944   1.465  0.3343  0.2614  0.5093
  679TMC3    O110053   1.015   2.100   1.003 -0.0939  0.1591 -0.0080
  679TMC3    O210054   1.009   1.886   1.568 -0.0982 -0.0086  0.3319
  680MPD2     C10055   2.513   0.317  13.808 -0.0446  0.2863  0.0540
  680MPD2    C110056   2.404   0.331  13.896 -0.9893  0.4402  0.6430
  680MPD2    C210057   2.385   0.443  13.976 -0.2007  0.4248  0.2628
  680MPD2    C310058   2.476   0.548  13.956  0.0431 -0.0370  0.0807
  680MPD2    C410059   2.574   0.541  13.867  0.0335 -0.7469  0.2269
  680MPD2    C510060   2.598   0.427  13.796  0.1131  0.5655 -0.0003
  680MPD2     H10061   2.304   0.445  14.048  0.8205 -2.8408  1.4783
  680MPD2    H110062   2.646   0.621  13.856 -1.7406  0.8387  0.1685
  680MPD2    H210063   2.536   0.225  13.756  0.4772 -0.1060  0.9766
  680MPD2    H310064   2.680   0.426  13.726 -0.9030 -1.5053 -1.1689
  680MPD2     N10065   2.473   0.652  14.049 -0.1158 -0.4190 -0.3069
  680MPD2    H510066   2.528   0.735  14.028  1.8246 -1.0613  2.1816
  680MPD2    N110067   2.309   0.222  13.904 -0.7785  0.0486  0.6005
  680MPD2    H710068   2.248   0.215  13.985 -2.5356  3.0515 -0.4530
  681TMC3    C110069   2.184   0.042  13.850 -0.0736  0.4237  0.7989
  681TMC3    C210070   2.096   0.080  13.959  0.0861  0.1731  0.2816
  681TMC3    C310071   1.998   4.716  13.990  0.3381  0.8867 -0.6631
  681TMC3    C410072   2.167   4.651  13.777  0.2827  0.2823 -0.2553
  681TMC3    C510073   2.063   4.573  13.814 -0.1568 -0.0396  0.5601
  681TMC3    C610074   1.977   4.600  13.918  0.2244 -0.1223  0.4222
  681TMC3     C10075   2.289   0.130  13.807  0.4600  0.4645 -0.4502
  681TMC3     O10076   2.345   0.109  13.699  0.2163 -0.0369  0.7000
  681TMC3     H10077   2.104   0.176  14.009  0.7096  0.5663 -0.5720
  681TMC3    H110078   2.243   4.617  13.708  0.9382  0.6891  0.2678
  681TMC3    H210079   1.896   4.534  13.946  0.4032 -0.7597 -0.5295
  681TMC3    C710080   2.040   4.452  13.738 -0.5499  0.4577  0.4665
  681TMC3    C810081   1.896   0.023  14.088  0.2143  0.0887 -0.2740
  681TMC3    O110082   1.983   4.362  13.798 -0.1570 -0.6863  0.0956
  681TMC3    O210083   1.794   4.682  14.075 -0.3252 -0.0475 -0.0261
  682MPD2     C10084   3.916   1.733  10.207  0.1576  0.3381  0.1413
  682MPD2    C110085   3.834   1.629  10.247  0.6266  0.4184 -0.2760
  682MPD2    C210086   3.712   1.652  10.298 -0.1570  0.6505  0.2377
  682MPD2    C310087   3.675   1.780  10.331 -0.8596 -0.1055  0.4467
  682MPD2    C410088   3.755   1.885  10.296  0.5672 -0.5297 -0.1923
  682MPD2    C510089   3.873   1.866  10.234  0.0439 -0.0188 -0.1864
  682MPD2     H10090   3.651   1.566  10.322  0.6651  0.0150  0.0454
  682MPD2    H110091   3.725   1.985  10.326 -1.2490 -1.1669  0.1247
  682MPD2    H210092   4.005   1.713  10.149 -0.2871  0.5411 -0.6134
  682MPD2    H310093   3.940   1.951  10.221 -0.3221  0.1830 -0.7574
  682MPD2     N10094   3.554   1.806  10.400 -0.1038  0.1868 -0.2842
  682MPD2    H510095   3.531   1.902  10.423  0.5311  0.7044 -1.7887
  682MPD2    N110096   3.861   1.494  10.220 -0.3897 -0.4480  0.0195
  682MPD2    H710097   3.786   1.426  10.232 -2.3583  1.4550 -1.4604
  683TMC3    C110098   3.284   1.891  10.699 -0.0465  0.7238 -0.0198
  683TMC3    C210099   3.163   1.828  10.697  0.2873 -0.2744  0.2067
  683TMC3    C310100   3.145   1.730  10.601 -0.5494 -0.0128 -0.0504
  683TMC3    C410101   3.378   1.862  10.594 -0.0447 -0.6330  0.3230
  683TMC3    C510102   3.345   1.771  10.497  0.3090  0.1753  0.2374
  683TMC3    C610103   3.227   1.703  10.498 -0.2318  0.5302  0.7695
  683TMC3     C10104   3.331   1.933  10.828  0.6903 -0.5906  0.4185
  683TMC3     O10105   3.430   2.006  10.816  0.2097 -0.0136  0.0830
  683TMC3     H10106   3.089   1.835  10.776  0.9413  0.7430  0.7359
  683TMC3    H110107   3.479   1.900  10.604 -0.9581  1.0938  3.1066
  683TMC3    H210108   3.195   1.637  10.417 -0.9098  0.7689  0.8414
  683TMC3    C710109   3.452   1.714  10.418 -0.0804 -0.6575  0.1776
  683TMC3    C810110   3.041   1.637  10.626 -0.7748  0.1881 -0.1865
  683TMC3    O110111   3.438   1.598  10.378 -0.5070 -0.0971 -0.2073
  683TMC3    O210112   2.940   1.677  10.681  0.5586  0.7944 -0.0155
  684MPD2     C10113   1.851   1.356  16.541  0.2364  0.7647 -0.2180
  684MPD2    C110114   1.781   1.389  16.428 -1.0075  0.0265 -0.3020
  684MPD2    C210115   1.699   1.503  16.435 -0.6379 -0.2336  0.1637
  684MPD2    C310116   1.680   1.580  16.551 -0.7904 -0.1604 -0.0530
  684MPD2    C410117   1.746   1.534  16.669 -0.0292  0.2113  0.8484
  684MPD2    C510118   1.824   1.419  16.663 -0.5905 -0.5424  0.1891
  684MPD2     H10119   1.652   1.534  16.343 -0.1264  0.3387  0.0982
  684MPD2    H110120   1.741   1.591  16.762 -1.6225  1.3730  0.0461
  684MPD2    H210121   1.934   1.286  16.539 -0.1816  0.2092  1.7703
  684MPD2    H310122   1.875   1.390  16.755 -0.4648  2.1833  0.9645
  684MPD2     N10123   1.611   1.701  16.554  0.3830  0.2563  0.8200
  684MPD2    H510124   1.612   1.761  16.636 -2.7561 -0.0197  1.0519
  684MPD2    N110125   1.798   1.328  16.301 -0.0264 -1.1274  0.0401
  684MPD2    H710126   1.737   1.368  16.230 -1.5383 -0.7921  1.5209
  685TMC3    C110127   1.877   1.192  16.125  0.2983  0.8903  0.3005
  685TMC3    C210128   1.878   1.293  16.034  0.8632  0.8579  0.2824
  685TMC3    C310129   1.917   1.262  15.902 -0.1490 -0.0548 -0.6764
  685TMC3    C410130   1.950   1.076  16.095  0.2649 -0.0445 -0.5642
  685TMC3    C510131   2.014   1.064  15.973  0.7030  0.4497 -0.6506
  685TMC3    C610132   1.987   1.155  15.872  0.7865  0.3545 -0.2988
  685TMC3     C10133   1.887   1.232  16.268 -0.7473 -0.3086 -0.2509
  685TMC3     O10134   1.980   1.174  16.328 -0.0274 -0.6478 -0.2737
  685TMC3     H10135   1.838   1.389  16.062 -0.5425 -0.5939  3.2782
  685TMC3    H110136   1.964   0.998  16.169 -1.8707  1.2553  1.2324
  685TMC3    H210137   2.027   1.142  15.773 -0.7057  1.6615 -1.0675
  685TMC3    C710138   2.135   0.990  15.980  0.1296 -0.1384 -0.2819
  685TMC3    C810139   1.843   1.323  15.795  0.5695 -0.1818 -0.3573
  685TMC3    O110140   2.147   0.899  16.060  0.0329  0.5633 -0.2773
  685TMC3    O210141   1.878   1.286  15.684 -0.2130  0.1869 -0.0159
  686MPD2     C10142   3.277   1.827  15.775 -0.2832  0.0952 -0.2019
  686MPD2    C110143   3.319   1.696  15.783 -0.4096 -1.1436 -1.0035
  686MPD2    C210144   3.398   1.643  15.683  0.6332 -0.3924 -0.7440
  686MPD2    C310145   3.428   1.715  15.572 -0.7121 -0.4023  0.3713
  686MPD2    C410146   3.395   1.846  15.570 -0.5253  0.0480 -0.4576
  686MPD2    C510147   3.316   1.904  15.668  0.5628 -0.5907  0.1229
  686MPD2     H10148   3.423   1.537  15.690 -0.7302 -0.5249  1.9619
  686MPD2    H110149   3.432   1.909  15.490 -1.4248  1.7935  0.5026
  686MPD2    H210150   3.214   1.865  15.855 -1.0968 -0.1472 -0.7242
  686MPD2    H310151   3.282   2.007  15.670 -0.0010 -0.7297 -2.1512
  686MPD2     N10152   3.491   1.657  15.455  0.0587  0.2381  0.2885
  686MPD2    H510153   3.523   1.721  15.383 -1.0746  0.5354  0.0471
  686MPD2    N110154   3.287   1.626  15.898 -0.7887  0.5767 -0.5462
  686MPD2    H710155   3.210   1.663  15.952 -1.7965 -0.1899 -1.4465
  687TMC3    C110156   3.417   1.422  15.469 -0.3885 -0.0049 -0.0014
  687TMC3    C210157   3.284   1.450  15.469  0.2843 -0.1492  0.0361
  687TMC3    C310158   3.210   1.371  15.558 -0.2045 -0.1843  0.3445
  687TMC3    C410159   3.471   1.316  15.536 -0.2279  0.4271 -0.5082
  687TMC3    C510160   3.393   1.247  15.620 -0.1802 -0.2991 -0.1564
  687TMC3    C610161   3.261   1.272  15.636  0.0453 -0.2543  0.2628
  687TMC3     C10162   3.514   1.524  15.428  0.2218 -0.1253 -0.0150
  687TMC3     O10163   3.610   1.477  15.367 -0.0438 -0.6268  0.1469
  687TMC3     H10164   3.240   1.540  15.429 -0.4613 -0.7501 -0.4945
  687TMC3    H110165   3.571   1.283  15.511 -0.3053  0.0999 -0.3899
  687TMC3    H210166   3.204   1.222  15.712 -0.9285 -0.7941 -0.8265
  687TMC3    C710167   3.446   1.154  15.714  0.3246  0.0830  0.1515
  687TMC3    C810168   3.090   1.440  15.595 -0.0078 -0.0524  0.0381
  687TMC3    O110169   3.565   1.172  15.750  0.1077  0.4343  0.4585
  687TMC3    O210170   3.057   1.425  15.710 -0.0789  0.0190 -0.8903
  688MPD2     C10171   2.917   0.133  17.368 -0.3192 -0.0995 -0.0983
  688MPD2    C110172   2.940   4.719  17.377  0.3623  0.1704  0.3407
  688MPD2    C210173   3.029   4.655  17.288 -0.1325  0.4680 -0.2902
  688MPD2    C310174   3.092   4.721  17.193 -0.3785  1.1111 -0.5365
  688MPD2    C410175   3.074   0.143  17.196  0.2427  0.2431  0.1736
  688MPD2    C510176   2.988   0.209  17.283  0.1904  0.2230  1.0068
  688MPD2     H10177   3.052   4.551  17.302 -1.2195  0.6145  2.7323
  688MPD2    H110178   3.122   0.212  17.128  1.5394  0.9020  1.7686
  688MPD2    H210179   2.842   0.188  17.424 -0.5909  0.4027 -0.9492
  688MPD2    H310180   2.967   0.314  17.268 -1.1938 -0.2821 -0.5991
  688MPD2     N10181   3.162   4.666  17.079 -0.6522 -0.1362  0.4948
  688MPD2    H510182   3.200   0.020  17.023 -0.4263 -2.2022 -2.1730
  688MPD2    N110183   2.887   4.635  17.480  0.1015 -0.1282  0.4278
  688MPD2    H710184   2.905   4.536  17.470 -0.6861 -0.5267  2.9496
  689TMC3    C110185   2.779   4.588   0.000  0.7777  0.4992 -0.3672
  689TMC3    C210186   2.764   4.630   0.133 -0.1500  0.2424  0.1927
  689TMC3    C310187   2.721   4.534   0.225 -0.1891  0.3624  0.0506
  689TMC3    C410188   2.773   4.452  17.660 -0.0597 -0.2957 -0.4537
  689TMC3    C510189   2.740   4.363   0.067  0.8010  0.7484  0.2785
  689TMC3    C610190   2.715   4.404   0.193 -0.2594  0.6921 -0.2286
  689TMC3     C10191   2.841   4.681  17.597 -0.6909  0.1698  0.8081
  689TMC3     O10192   2.860   0.071  17.644  0.4307 -0.1490  0.1026
  689TMC3     H10193   2.770   0.012   0.159  1.4037 -0.4293  2.5782
  689TMC3    H110194   2.780   4.412  17.559  1.8122 -0.2278 -0.3487
  689TMC3    H210195   2.698   4.330   0.271 -0.9265 -0.7002 -1.6859
  689TMC3    C710196   2.755   4.227   0.048 -0.1419  0.3357 -0.4862
  689TMC3    C810197   2.647   4.579   0.340 -0.0565  0.8261 -0.1493
  689TMC3    O110198   2.834   4.174   0.127 -0.3567  0.0847  0.5086
  689TMC3    O210199   2.636   4.703   0.352 -0.1302 -0.9670 -0.5084
  690MPD2     C10200   4.149   2.054  15.603  0.1965 -0.8198  0.1855
  690MPD2    C110201   4.216   1.946  15.654 -0.1817 -0.3673 -1.0029
  690MPD2    C210202   4.335   1.909  15.588 -0.0933  0.0080  0.0135
  690MPD2    C310203   4.382   1.976  15.479 -0.6187  0.0018 -0.0667
  690MPD2    C410204   4.308   2.080  15.431 -0.2033  0.6774  1.1888
  690MPD2    C510205   4.189   2.117  15.496 -0.0629  0.3703  0.4696
  690MPD2     H10206   4.397   1.831  15.629 -0.3952  0.8470  2.0819
  690MPD2    H110207   4.348   2.154  15.363  0.6047 -0.2962  0.5951
  690MPD2    H210208   4.065   2.104  15.650  0.4690 -1.1830  1.0516
  690MPD2    H310209   4.137   2.205  15.460  0.4123  0.6739  0.5256
  690MPD2     N10210   4.514   1.961  15.433 -0.2767 -0.1944  0.5517
  690MPD2    H510211   4.570   1.899  15.491 -0.3643 -0.8060 -0.0129
  690MPD2    N110212   4.166   1.866  15.759  0.2908  0.6693  0.0699
  690MPD2    H710213   4.218   1.779  15.772  1.5489  1.4703  0.4003
  691TMC3    C110214   3.994   1.780  15.899  0.5630 -0.1167 -0.3762
  691TMC3    C210215   3.883   1.811  15.978 -0.5879 -0.3940 -0.4588
  691TMC3    C310216   3.835   1.717  16.060  0.0472 -0.8387 -0.2904
  691TMC3    C410217   4.046   1.650  15.894 -0.4594 -0.4579 -0.5372
  691TMC3    C510218   3.981   1.557  15.968 -0.1755  0.1298  0.3390
  691TMC3    C610219   3.883   1.593  16.055 -0.7275 -0.0380 -0.3908
  691TMC3     C10220   4.055   1.898  15.839  0.2271 -0.5934  0.2430
  691TMC3     O10221   4.005   2.007  15.870 -0.3195 -0.1764 -0.3795
  691TMC3     H10222   3.841   1.911  15.980  1.2060  0.3475  0.5220
  691TMC3    H110223   4.130   1.616  15.836 -0.8257 -0.2307 -1.1997
  691TMC3    H210224   3.833   1.511  16.106 -0.7729  0.0625 -0.2728
  691TMC3    C710225   4.058   1.441  15.997 -0.2623  0.4601  0.7961
  691TMC3    C810226   3.702   1.725  16.111  0.6501  0.2077  0.4195
  691TMC3    O110227   4.179   1.445  15.975  0.4401 -0.8763  0.0541
  691TMC3    O210228   3.666   1.647  16.198 -0.2485  0.1731 -0.2552
  692TMC3    C110229   1.790   2.890  15.880  0.1393  0.1998  0.7583
  692TMC3    C210230   1.909   2.948  15.918  0.8526  0.2999 -0.0170
  692TMC3    C310231   2.021   2.864  15.923 -0.5635  0.2987 -0.3490
  692TMC3    C410232   1.772   2.758  15.855  1.0207  0.5699  0.5277
  692TMC3    C510233   1.883   2.682  15.842  0.8211  0.4961 -0.0427
  692TMC3    C610234   2.009   2.746  15.855 -0.6818  0.4658  0.4316
  692TMC3     C10235   1.666   2.971  15.897  0.3337 -0.3000 -0.8625
  692TMC3     O10236   1.570   2.897  15.923 -0.4773  0.0495  0.2751
  692TMC3     H10237   1.917   3.050  15.953  1.7906  0.4669 -0.7180
  692TMC3    H110238   1.675   2.710  15.844  0.5640  1.0332  2.4895
  692TMC3    H210239   2.093   2.678  15.854 -2.1874 -1.4330  1.1749
  692TMC3    C710240   1.871   2.540  15.832 -0.6456 -0.8713  0.4653
  692TMC3    C810241   2.074   2.843  16.056  0.4666 -0.7579 -0.6325
  692TMC3    O110242   1.949   2.480  15.759 -0.2843  0.7728  0.1973
  692TMC3    O210243   2.077   2.721  16.079 -0.4236  0.4944 -0.0946
  693MPD2     C10244   0.729   0.744  11.470 -0.5002  0.0978  0.9634
  693MPD2    C110245   0.668   0.693  11.355 -0.1852 -0.1378  0.2519
  693MPD2    C210246   0.718   0.724  11.227 -0.5354 -0.4808 -0.4345
  693MPD2    C310247   0.829   0.806  11.210  0.3449  0.1604 -0.1884
  693MPD2    C410248   0.888   0.856  11.320  0.6189 -0.0064 -0.8778
  693MPD2    C510249   0.839   0.824  11.449 -0.3533  0.4930 -0.7524
  693MPD2     H10250   0.674   0.679  11.139 -0.0719 -0.8023 -0.4995
  693MPD2    H110251   0.977   0.913  11.298 -0.3288  1.7629 -0.1722
  693MPD2    H210252   0.687   0.749  11.570 -2.1822  0.6899  0.2295
  693MPD2    H310253   0.872   0.885  11.533 -0.7990 -1.4751  0.8534
  693MPD2     N10254   0.887   0.824  11.087  0.3748 -0.2795 -0.3147
  693MPD2    H510255   0.974   0.876  11.088  0.5024 -0.4941 -0.4556
  693MPD2    N110256   0.557   0.601  11.378  0.1656 -0.4443 -0.5446
  693MPD2    H710257   0.532   0.569  11.471  2.3742 -0.6216 -0.0322
  694TMC3    C110258   0.407   0.429  11.303  0.4219  0.4956  0.3973
  694TMC3    C210259   0.348   0.364  11.199  0.2631  0.2595  0.2426
  694TMC3    C310260   0.282   0.247  11.228  0.0431  0.4329  0.3722
  694TMC3    C410261   0.407   0.373  11.427 -0.3282  0.1371 -0.1099
  694TMC3    C510262   0.333   0.260  11.445 -0.0671 -0.3594 -0.2486
  694TMC3    C610263   0.258   0.195  11.354  0.5032 -0.8888  0.3477
  694TMC3     C10264   0.479   0.552  11.280 -0.6685  0.5431  0.0918
  694TMC3     O10265   0.446   0.610  11.176 -0.1310  0.1741  0.3145
  694TMC3     H10266   0.330   0.412  11.104  0.2973 -1.5221 -0.6777
  694TMC3    H110267   0.446   0.415  11.519  1.2923  1.2688 -1.3065
  694TMC3    H210268   0.224   0.094  11.373 -1.9003  0.0033  0.7348
  694TMC3    C710269   0.321   0.215  11.585 -0.0771  1.3021  0.4559
  694TMC3    C810270   0.225   0.163  11.119  0.3697  0.1514  0.1046
  694TMC3    O110271   0.418   0.248  11.656 -0.2492  0.3219  0.1575
  694TMC3    O210272   0.162   0.065  11.154 -0.5670  0.6251  0.1680
  695MPD2     C10273   1.836   1.685  13.947  0.4805 -0.2661 -0.0822
  695MPD2    C110274   1.837   1.813  13.894 -0.3922 -0.3598  0.9455
  695MPD2    C210275   1.727   1.873  13.847 -0.7381  0.3766  0.6063
  695MPD2    C310276   1.605   1.806  13.845 -0.6952 -0.1783  0.9050
  695MPD2    C410277   1.597   1.674  13.901 -0.3053 -0.4236  0.1990
  695MPD2    C510278   1.707   1.617  13.951 -0.7287 -1.0789 -0.0934
  695MPD2     H10279   1.730   1.977  13.818  0.7176  0.5384  1.3308
  695MPD2    H110280   1.505   1.617  13.897 -0.5566  0.0736 -1.3181
  695MPD2    H210281   1.925   1.631  13.977 -1.4825 -2.5141  1.6252
  695MPD2    H310282   1.697   1.520  13.998 -1.0228 -1.4897 -0.9885
  695MPD2     N10283   1.503   1.884  13.808  0.5626 -0.1195 -0.2546
  695MPD2    H510284   1.518   1.967  13.752  1.5546 -0.4555 -0.4875
  695MPD2    N110285   1.957   1.890  13.899 -0.4549 -0.2949  0.1614
  695MPD2    H710286   1.938   1.989  13.889 -0.3622 -0.2650  0.2779
  696TMC3    C110287   1.281   1.968  13.804  0.2583 -0.0293 -0.3855
  696TMC3    C210288   1.215   2.024  13.908  0.8324 -0.2345  0.3315
  696TMC3    C310289   1.122   2.113  13.890  0.2159  0.4493  0.6653
  696TMC3    C410290   1.273   2.012  13.678  0.1199 -0.1108  0.4123
  696TMC3    C510291   1.168   2.104  13.659 -0.1502  0.0298  0.0665
  696TMC3    C610292   1.088   2.151  13.760  0.1747  0.4683 -1.0896
  696TMC3     C10293   1.374   1.869  13.850 -0.7254 -0.5177  0.8244
  696TMC3     O10294   1.334   1.797  13.941 -0.5087 -0.1883 -0.6849
  696TMC3     H10295   1.220   1.975  14.004  0.2242 -1.4499 -0.2500
  696TMC3    H110296   1.332   1.970  13.597 -0.3962  1.3262 -0.7198
  696TMC3    H210297   1.005   2.215  13.732 -0.0851  0.8435  0.4960
  696TMC3    C710298   1.149   2.185  13.544 -0.4617  0.1289  0.0742
  696TMC3    C810299   1.130   2.216  14.002 -0.0798 -0.4406  0.3596
  696TMC3    O110300   1.138   2.126  13.438 -0.3421 -0.7962 -0.6932
  696TMC3    O210301   1.240   2.218  14.056 -0.2141  0.4038 -0.6339
  697MPD2     C10302   1.311   4.269  15.957  0.3693 -0.0485  0.0015
  697MPD2    C110303   1.349   4.223  15.830 -0.3593  0.5240  0.0288
  697MPD2    C210304   1.384   4.311  15.728  0.4354 -0.3158 -0.0896
  697MPD2    C310305   1.377   4.444  15.747  0.1197 -0.9854  0.3234
  697MPD2    C410306   1.337   4.496  15.872  0.4091  0.0596 -0.4477
  697MPD2    C510307   1.302   4.405  15.974 -0.5896 -0.5843 -0.7067
  697MPD2     H10308   1.398   4.269  15.629  2.5445  2.2359 -0.8912
  697MPD2    H110309   1.326   4.598  15.906 -1.4755 -0.5476  0.7656
  697MPD2    H210310   1.275   4.214  16.043  0.9745  1.9731  1.5802
  697MPD2    H310311   1.267   4.439  16.071  1.8159  0.5356 -0.2280
  697MPD2     N10312   1.426   4.529  15.647 -0.4056 -0.3085 -0.1407
  697MPD2    H510313   1.481   4.481  15.577 -1.1970  2.4474 -2.6547
  697MPD2    N110314   1.364   4.087  15.799 -0.0662 -0.7427  0.6399
  697MPD2    H710315   1.362   4.054  15.703 -1.4858  4.3158 -1.0502
  698TMC3    C110316   1.479   0.003  15.522 -0.7201  0.3498 -0.1881
  698TMC3    C210317   1.482   0.143  15.523 -0.1466  0.1248  0.4351
  698TMC3    C310318   1.472   0.217  15.405 -0.6219  0.9995  0.1846
  698TMC3    C410319   1.483   4.659  15.398  0.5189  0.5133  0.4718
  698TMC3    C510320   1.475   0.015  15.288 -0.0054 -0.2583  0.6959
  698TMC3    C610321   1.469   0.154  15.287  0.8272  0.1600  0.5146
  698TMC3     C10322   1.422   4.669  15.641 -0.0153  0.0574 -0.3358
  698TMC3     O10323   1.373   0.028  15.719  0.3932  0.2661  0.3590
  698TMC3     H10324   1.510   0.199  15.611 -0.9728 -2.1208  2.1326
  698TMC3    H110325   1.480   4.551  15.390  1.8108  0.4135  1.4071
  698TMC3    H210326   1.458   0.206  15.192 -2.7253  0.4814  1.1054
  698TMC3    C710327   1.488   4.673  15.156 -0.1995  0.0465 -0.3699
  698TMC3    C810328   1.541   0.340  15.401 -0.1805  0.0455  0.3127
  698TMC3    O110329   1.466   4.552  15.150 -0.2956 -0.0941  0.0161
  698TMC3    O210330   1.617   0.365  15.492 -0.3983  0.1774 -0.2127
  699TMC3    C110331   1.336   2.304  12.890 -0.0558  0.6711  0.4425
  699TMC3    C210332   1.354   2.176  12.941 -0.2370 -0.1482 -0.0170
  699TMC3    C310333   1.247   2.108  12.987 -0.0214  0.2793 -0.1293
  699TMC3    C410334   1.213   2.370  12.892  0.2689 -0.4019 -0.1059
  699TMC3    C510335   1.106   2.296  12.943  0.0218 -0.0207  0.3518
  699TMC3    C610336   1.124   2.170  12.995  0.7221  0.4035 -0.0718
  699TMC3     C10337   1.444   2.372  12.821 -0.6770 -0.4619  0.1445
  699TMC3     O10338   1.400   2.458  12.744  0.2649  0.0414 -0.3573
  699TMC3     H10339   1.453   2.134  12.954 -0.1193  0.2525  0.3768
  699TMC3    H110340   1.204   2.474  12.861  1.6053 -0.1321  0.4212
  699TMC3    H210341   1.034   2.115  13.022 -0.1729  0.8283 -2.1608
  699TMC3    C710342   0.974   2.369  12.955 -0.3760  0.6735  0.1630
  699TMC3    C810343   1.262   2.004  13.086  0.2389  0.0554  0.7425
  699TMC3    O110344   0.969   2.482  12.911 -0.1474 -0.2765  0.1952
  699TMC3    O210345   1.165   1.935  13.113 -0.5016  0.2133 -0.4857
  700TMC3    C110346   0.482   0.069  17.316 -0.7010  0.7897 -0.7213
  700TMC3    C210347   0.599   0.006  17.336 -0.5853 -0.0554  0.0161
  700TMC3    C310348   0.681   0.044  17.442  0.4252  0.1151 -0.3592
  700TMC3    C410349   0.445   0.170  17.394  0.7600  0.8814 -0.4640
  700TMC3    C510350   0.509   0.197  17.514 -0.0019 -0.2237 -0.5660
  700TMC3    C610351   0.628   0.135  17.533  0.2298 -0.2672  0.0046
  700TMC3     C10352   0.431   0.089  17.182 -0.5832  0.6518 -0.6994
  700TMC3     O10353   0.395   4.715  17.111 -0.2100 -0.4366 -0.4088
  700TMC3     H10354   0.639   4.665  17.258 -1.2479 -0.2885 -0.1369
  700TMC3    H110355   0.360   0.235  17.373  1.4454  2.0214  0.3117
  700TMC3    H210356   0.682   0.158  17.624 -0.2083  0.6584  0.0377
  700TMC3    C710357   0.480   0.316  17.590  0.1804  0.5130  0.2885
  700TMC3    C810358   0.821   0.012  17.442  0.6814  0.4928  0.6174
  700TMC3    O110359   0.575   0.368  17.646 -0.2252 -0.4303  0.3758
  700TMC3    O210360   0.848   4.645  17.360  0.2679  0.0353 -0.6544
  701TMC3    C110361   0.699   3.582  15.492 -0.3363 -0.2352  0.5370
  701TMC3    C210362   0.731   3.528  15.369 -0.0950  0.5835  0.0308
  701TMC3    C310363   0.845   3.581  15.308  0.0999  0.1010  0.6005
  701TMC3    C410364   0.780   3.672  15.562 -0.0810 -0.4041  0.0778
  701TMC3    C510365   0.882   3.713  15.492  0.3066 -0.2058  0.1264
  701TMC3    C610366   0.920   3.674  15.366 -0.3751 -0.0762  0.7403
  701TMC3     C10367   0.573   3.539  15.557  0.2431  0.1548  0.2078
  701TMC3     O10368   0.518   3.604  15.642 -0.4281 -0.0171 -0.4406
  701TMC3     H10369   0.670   3.455  15.316 -1.7524  0.7516  1.7197
  701TMC3    H110370   0.748   3.716  15.656  1.9653  0.6473  0.2590
  701TMC3    H210371   1.011   3.708  15.318  0.0802 -0.6847  1.1829
  701TMC3    C710372   0.966   3.820  15.540  0.0835 -0.0833  0.1110
  701TMC3    C810373   0.857   3.555  15.163 -0.5659 -0.6896 -0.8886
  701TMC3    O110374   1.008   3.896  15.455 -0.1627  0.5343  0.4097
  701TMC3    O210375   0.973   3.558  15.118  0.6164  0.6375 -0.4691
  702MPD2     C10376   4.546   1.119  10.313 -0.2868  0.1630  0.0179
  702MPD2    C110377   4.640   1.138  10.416 -0.0889  0.0145  0.2089
  702MPD2    C210378   4.719   1.247  10.411 -0.6742 -0.5327 -0.0527
  702MPD2    C310379   4.702   1.345  10.310  0.1343  0.1890  0.9034
  702MPD2    C410380   4.601   1.328  10.222 -0.1125 -0.1346 -0.4632
  702MPD2    C510381   4.529   1.214  10.215 -0.2825 -0.5463 -0.8941
  702MPD2     H10382   0.075   1.262  10.484  0.2457 -0.2778 -1.0876
  702MPD2    H110383   4.568   1.403  10.151 -2.2839 -0.0938  0.6052
  702MPD2    H210384   4.494   1.024  10.314 -0.6210  0.3511  0.4726
  702MPD2    H310385   4.461   1.200  10.131  0.7704 -1.4643 -1.6013
  702MPD2     N10386   0.050   1.464  10.306  0.2737 -0.1365  0.0214
  702MPD2    H510387   0.014   1.537  10.245  1.1375  0.4521  0.2204
  702MPD2    N110388   4.655   1.065  10.530 -0.0841 -0.0950  0.0487
  702MPD2    H710389   0.001   1.093  10.600  1.5302  0.1846 -1.6346
  703TMC3    C110390   0.195   1.640  10.387 -0.3725 -0.7075 -0.5269
  703TMC3    C210391   0.086   1.721  10.416 -0.3426  1.1321  0.2392
  703TMC3    C310392   0.114   1.850  10.462  0.0777  0.4248 -0.0888
  703TMC3    C410393   0.325   1.672  10.419  0.4569 -0.4216 -0.5276
  703TMC3    C510394   0.345   1.799  10.470 -0.0984  0.3213 -0.2954
  703TMC3    C610395   0.242   1.893  10.482 -0.1194  0.4526 -0.6348
  703TMC3     C10396   0.166   1.494  10.381  0.1282 -0.0455  0.2701
  703TMC3     O10397   0.242   1.423  10.442 -0.2677  0.4970 -0.0729
  703TMC3     H10398   4.706   1.688  10.412  0.0163  0.1795 -1.2696
  703TMC3    H110399   0.401   1.595  10.416  1.6767  0.8031 -1.0938
  703TMC3    H210400   0.278   1.986  10.522  1.9578 -0.5491 -0.1941
  703TMC3    C710401   0.484   1.836  10.505  0.0844 -0.1354 -0.0232
  703TMC3    C810402   0.014   1.928  10.533  0.4313  0.5218  0.1980
  703TMC3    O110403   0.575   1.761  10.463  0.3012 -0.5068 -0.3369
  703TMC3    O210404   0.046   2.044  10.557 -0.1534  0.1867 -0.0573
  704TMC3    C110405   2.002   4.085  12.420 -0.0639  0.1350 -0.3320
  704TMC3    C210406   2.098   4.062  12.326  0.1222  0.3179  0.1048
  704TMC3    C310407   2.200   4.148  12.335 -0.2168  0.1359 -0.4249
  704TMC3    C410408   2.000   4.196  12.500  0.2002  0.2312  0.1647
  704TMC3    C510409   2.112   4.268  12.513  0.6016  0.6307  0.2864
  704TMC3    C610410   2.211   4.251  12.420 -0.1055  0.6825  0.7302
  704TMC3     C10411   1.936   3.972  12.469  0.5774 -0.3682 -0.4330
  704TMC3     O10412   1.836   3.979  12.542 -0.0587  0.0179 -0.2911
  704TMC3     H10413   2.093   3.988  12.246  1.1216  0.1212  0.2236
  704TMC3    H110414   1.921   4.203  12.575  1.4998  0.3007  1.5318
  704TMC3    H210415   2.299   4.312  12.437 -1.5112  2.8075  0.4154
  704TMC3    C710416   2.153   4.271  12.646  0.3380  0.0590 -1.0054
  704TMC3    C810417   2.300   4.128  12.236  0.0577  0.3762  0.3618
  704TMC3    O110418   2.087   4.334  12.733  0.4314 -0.5046 -0.4317
  704TMC3    O210419   2.295   4.024  12.175 -0.2481  0.0923  0.7237
  705MPD2     C10420   2.063   2.309  16.352 -0.5045 -0.6215 -0.4207
  705MPD2    C110421   2.047   2.413  16.259  0.2615  0.3794  0.1157
  705MPD2    C210422   1.934   2.491  16.264  0.1770 -0.1146 -0.3282
  705MPD2    C310423   1.830   2.463  16.349  0.0337 -0.0091 -0.0732
  705MPD2    C410424   1.847   2.368  16.439  0.4248  0.1720  0.1251
  705MPD2    C510425   1.966   2.299  16.457 -0.1655  0.1745  0.4051
  705MPD2     H10426   1.928   2.576  16.197 -0.6712  0.6165  0.6573
  705MPD2    H110427   1.771   2.358  16.515 -0.2235 -1.0616 -0.6953
  705MPD2    H210428   2.151   2.247  16.359 -0.4412 -0.5985 -0.9784
  705MPD2    H310429   1.961   2.218  16.528 -0.9758  0.3900  0.5981
  705MPD2     N10430   1.712   2.537  16.360  0.5708  0.2427 -0.2797
  705MPD2    H510431   1.652   2.520  16.441 -0.7401  1.4686 -0.9955
  705MPD2    N110432   2.153   2.450  16.175 -0.2900  0.2055 -0.0651
  705MPD2    H710433   2.137   2.542  16.134 -0.2856 -0.0293 -0.6028
  706TMC3    C110434   2.410   2.450  15.839  1.0539 -0.1232 -0.2249
  706TMC3    C210435   2.415   2.583  15.841  0.1442  0.0714 -0.1665
  706TMC3    C310436   2.381   2.642  15.957  0.0540  0.1907  0.4940
  706TMC3    C410437   2.394   2.374  15.956 -0.6508 -0.1810 -0.7118
  706TMC3    C510438   2.356   2.442  16.066 -0.9722 -0.1084  0.1039
  706TMC3    C610439   2.344   2.580  16.067 -0.0738 -0.6730 -0.0411
  706TMC3     C10440   2.503   2.384  15.751 -0.3367  0.3419 -0.1946
  706TMC3     O10441   2.569   2.295  15.794 -0.5240 -0.1967  0.9151
  706TMC3     H10442   2.454   2.642  15.759 -0.6032 -0.2564 -0.7520
  706TMC3    H110443   2.404   2.266  15.957 -1.6515 -0.2739 -0.2373
  706TMC3    H210444   2.301   2.628  16.154 -0.0742 -1.4376  0.3807
  706TMC3    C710445   2.259   2.372  16.137 -0.5313 -0.2945  0.0153
  706TMC3    C810446   2.400   2.784  15.955  0.2116 -0.5012 -0.2824
  706TMC3    O110447   2.282   2.259  16.175  0.2799 -0.2827  0.2031
  706TMC3    O210448   2.406   2.839  15.843  0.9701  0.2648  0.2055
  707TMC3    C110449   4.263   2.001   2.034 -0.4891  0.2645  0.5867
  707TMC3    C210450   4.364   1.936   2.102 -0.6471 -0.5743  0.4384
  707TMC3    C310451   4.447   2.021   2.171 -0.0351  0.2923  0.4483
  707TMC3    C410452   4.232   2.131   2.048 -0.2479 -0.1157  0.2377
  707TMC3    C510453   4.294   2.199   2.146 -0.2986 -0.5865  0.8400
  707TMC3    C610454   4.408   2.149   2.206  0.3361 -0.3560  0.5523
  707TMC3     C10455   4.198   1.918   1.940  0.5148  0.3648  0.6022
  707TMC3     O10456   4.214   1.797   1.950 -0.5958  0.3679  0.2086
  707TMC3     H10457   4.376   1.829   2.094 -3.2757 -0.7310 -1.4090
  707TMC3    H110458   4.140   2.176   2.012  0.9498 -0.1153 -2.8194
  707TMC3    H210459   4.456   2.197   2.291 -0.4555  0.4268  0.5605
  707TMC3    C710460   4.262   2.331   2.184 -0.3842 -0.2702 -0.2740
  707TMC3    C810461   4.551   1.950   2.246  0.2987 -0.2323  1.2229
  707TMC3    O110462   4.335   2.383   2.267  0.6096 -0.6102  0.5420
  707TMC3    O210463   4.581   1.993   2.358  0.2071  0.1826  0.0975
  708MPD2     C10464   0.434   0.303  13.692 -0.3420 -0.1416 -1.0580
  708MPD2    C110465   0.349   0.406  13.721 -0.3335  0.0678 -0.2972
  708MPD2    C210466   0.314   0.431  13.851  0.0881 -0.2848 -0.6926
  708MPD2    C310467   0.370   0.352  13.951 -0.0105  0.4211 -0.0343
  708MPD2    C410468   0.452   0.248  13.923 -0.0634 -0.7452 -0.3772
  708MPD2    C510469   0.487   0.223  13.792  0.0899 -0.1039 -0.2018
  708MPD2     H10470   0.249   0.503  13.898  1.3151  0.9631 -0.8926
  708MPD2    H110471   0.485   0.179  14.000  0.5722 -0.2302 -0.1849
  708MPD2    H210472   0.458   0.281  13.588  0.4867 -0.9237 -0.6960
  708MPD2    H310473   0.544   0.137  13.757  0.2716  0.3511 -1.0284
  708MPD2     N10474   0.334   0.392  14.085 -0.2706 -0.1057  0.7482
  708MPD2    H510475   0.269   0.469  14.097 -0.3689 -0.3293  1.6481
  708MPD2    N110476   0.305   0.510  13.629  0.0096  0.6165  0.0562
  708MPD2    H710477   0.261   0.591  13.671 -1.2922  1.2317 -2.4603
  709TMC3    C110478   0.282   0.647  13.444  0.1351  0.1359  0.4377
  709TMC3    C210479   0.177   0.643  13.358  0.7614 -0.7336 -0.1333
  709TMC3    C310480   0.066   0.721  13.375  0.3456  0.2773  0.1202
  709TMC3    C410481   0.280   0.744  13.541  0.0941  0.0757  0.3933
  709TMC3    C510482   0.164   0.815  13.559 -0.2010  0.5276  0.0281
  709TMC3    C610483   0.052   0.809  13.477 -0.5248  0.4487  0.7288
  709TMC3     C10484   0.328   0.519  13.492  0.1371 -0.2043  0.1497
  709TMC3     O10485   0.374   0.440  13.411  0.3021 -0.4559 -0.4261
  709TMC3     H10486   0.181   0.575  13.274 -2.3343  0.1026 -0.9506
  709TMC3    H110487   0.361   0.750  13.612  0.3789 -2.3486  0.2771
  709TMC3    H210488   4.687   0.872  13.483 -1.5636 -0.9356  0.1805
  709TMC3    C710489   0.122   0.804  13.694  0.6054  0.3290  0.4970
  709TMC3    C810490   4.678   0.706  13.287 -0.2855  0.1868  0.0361
  709TMC3    O110491   0.201   0.744  13.767  0.3168  0.6234 -0.1007
  709TMC3    O210492   4.564   0.705  13.335  0.2452  0.1462 -0.2378
  710TMC3    C110493   1.076   2.731   0.568  0.0896 -0.8945  0.5035
  710TMC3    C210494   1.121   2.734   0.438 -0.2984 -0.1521 -0.1488
  710TMC3    C310495   1.114   2.616   0.371 -0.7410  0.1941  0.0473
  710TMC3    C410496   1.037   2.618   0.631  0.4181 -0.5451 -0.0306
  710TMC3    C510497   1.040   2.499   0.556 -0.5952 -0.2389 -0.2068
  710TMC3    C610498   1.078   2.497   0.426  0.0917  0.2159 -0.3728
  710TMC3     C10499   1.002   2.846   0.603  0.6986  0.3419 -0.0440
  710TMC3     O10500   0.978   2.928   0.513 -0.0691  0.1786  0.4077
  710TMC3     H10501   1.158   2.828   0.399  3.2222 -2.3662 -2.2540
  710TMC3    H110502   0.989   2.619   0.728  1.1676  0.0322  0.3366
  710TMC3    H210503   1.072   2.410   0.362  2.8963 -1.7894  2.0778
  710TMC3    C710504   1.031   2.372   0.626 -1.0606  0.0147  0.6718
  710TMC3    C810505   1.168   2.617   0.238 -0.2676  0.6264  0.0690
  710TMC3    O110506   0.978   2.359   0.734  0.5462 -0.1625  0.3251
  710TMC3    O210507   1.231   2.518   0.201 -0.4697 -0.5877 -0.3468
  711TMC3    C110508   1.274   3.403  14.833 -0.5993 -0.0229  0.9383
  711TMC3    C210509   1.263   3.453  14.959 -0.2007  0.1749 -0.8501
  711TMC3    C310510   1.370   3.510  15.029  0.5216  0.5234  0.0879
  711TMC3    C410511   1.401   3.401  14.777 -0.2139  0.2961 -0.6792
  711TMC3    C510512   1.511   3.449  14.848 -0.5680 -0.6747  0.0424
  711TMC3    C610513   1.490   3.519  14.964 -0.6315 -0.7589 -0.0676
  711TMC3     C10514   1.209   3.281  14.821 -0.4300  0.6189 -0.5001
  711TMC3     O10515   1.138   3.270  14.724 -0.7092  0.1004  0.3921
  711TMC3     H10516   1.164   3.454  15.002  0.5620  0.9081  0.8920
  711TMC3    H110517   1.413   3.357  14.679 -0.6227 -0.0352 -0.5831
  711TMC3    H210518   1.570   3.570  15.017 -0.8824  0.9837 -1.3817
  711TMC3    C710519   1.633   3.370  14.861  0.1535  0.4970 -0.1736
  711TMC3    C810520   1.369   3.451  15.164  0.1967 -0.7458 -0.1680
  711TMC3    O110521   1.698   3.401  14.960  0.0772 -0.0943  0.1474
  711TMC3    O210522   1.280   3.375  15.199 -0.5113  0.0409 -0.1374
  712MPD2     C10523   2.727   3.890  14.111 -0.2267  0.1799 -0.3913
  712MPD2    C110524   2.645   3.961  14.027 -0.2725  0.3424  0.2101
  712MPD2    C210525   2.701   4.039  13.930  0.4668 -0.0800 -0.4233
  712MPD2    C310526   2.838   4.058  13.910  0.0945  0.4572 -0.2138
  712MPD2    C410527   2.914   3.992  14.011  0.1544  0.6370  0.0431
  712MPD2    C510528   2.859   3.909  14.104  0.0031  0.1825  0.1157
  712MPD2     H10529   2.636   4.093  13.862  1.6501  2.7880  0.7164
  712MPD2    H110530   3.021   3.997  14.022 -0.0513  3.9030  0.4850
  712MPD2    H210531   2.697   3.824  14.192 -1.1641 -0.2679 -1.1024
  712MPD2    H310532   2.925   3.867  14.179  0.9436 -0.1692 -0.9015
  712MPD2     N10533   2.892   4.134  13.801  0.2860  0.0317  0.2743
  712MPD2    H510534   2.993   4.137  13.806  0.2424  2.0793 -0.1600
  712MPD2    N110535   2.506   3.945  14.019 -0.7116  0.1447 -0.2954
  712MPD2    H710536   2.447   3.995  13.952 -0.4494  1.7001  0.6262
  713TMC3    C110537   2.885   4.250  13.597  0.0262  0.2052 -0.3169
  713TMC3    C210538   3.018   4.279  13.605 -0.0512 -0.5026  0.1740
  713TMC3    C310539   3.079   4.340  13.497 -0.2465  0.1943  0.0934
  713TMC3    C410540   2.814   4.279  13.482 -0.5578 -0.8226 -0.0413
  713TMC3    C510541   2.868   4.360  13.384 -0.4622  0.2814 -0.7290
  713TMC3    C610542   3.003   4.387  13.393  0.4312 -0.2261  0.4870
  713TMC3     C10543   2.813   4.173  13.694 -0.1859 -0.1879  0.3962
  713TMC3     O10544   2.693   4.155  13.671  0.5074 -0.0140  0.1769
  713TMC3     H10545   3.067   4.270  13.701  0.4170 -1.2023 -0.1372
  713TMC3    H110546   2.707   4.266  13.487 -0.6258  0.0918  0.8518
  713TMC3    H210547   3.053   4.449  13.320 -2.8537  2.0806  0.2493
  713TMC3    C710548   2.775   4.442  13.305  0.2443  0.3933 -0.0583
  713TMC3    C810549   3.216   4.382  13.507 -0.2761  0.0870 -0.8005
  713TMC3    O110550   2.653   4.438  13.323  0.3670  0.3381  0.5646
  713TMC3    O210551   3.252   4.453  13.415  0.1103  0.7828  0.4050
  714MPD2     C10552   0.119   4.179   1.939  0.2050 -0.0440  0.1728
  714MPD2    C110553   0.149   4.102   1.834 -1.1094 -0.4126 -0.0557
  714MPD2    C210554   0.163   4.163   1.709 -0.5102  0.5204  0.4724
  714MPD2    C310555   0.157   4.300   1.696 -0.2521 -0.4430  0.6259
  714MPD2    C410556   0.120   4.377   1.806 -0.0290 -0.2658  0.0403
  714MPD2    C510557   0.105   4.317   1.932  0.5242  0.4993  0.0229
  714MPD2     H10558   0.193   4.106   1.622  0.3219  0.5436  0.7433
  714MPD2    H110559   0.101   4.483   1.797  0.2988 -0.3226 -1.3685
  714MPD2    H210560   0.100   4.133   2.035 -1.2225  0.1981  0.0117
  714MPD2    H310561   0.083   4.379   2.019  0.7809  0.9575 -0.2394
  714MPD2     N10562   0.164   4.365   1.571 -0.0513  0.7355  0.1888
  714MPD2    H510563   0.190   4.307   1.492 -0.5714 -0.2403  0.7378
  714MPD2    N110564   0.159   3.964   1.864 -0.0785 -0.3506 -0.2136
  714MPD2    H710565   0.145   3.939   1.961 -0.0530 -2.2258 -0.7055
  715TMC3    C110566   0.231   3.749   1.844 -0.3513 -0.7460 -0.1504
  715TMC3    C210567   0.219   3.621   1.785  0.3702  0.3140  0.5044
  715TMC3    C310568   0.278   3.514   1.853  0.0105 -0.4257 -0.9867
  715TMC3    C410569   0.320   3.769   1.949  0.3497  0.4034 -0.0783
  715TMC3    C510570   0.388   3.659   1.998 -0.1717 -0.7670 -0.7509
  715TMC3    C610571   0.363   3.530   1.962 -0.1784 -0.2207 -0.5090
  715TMC3     C10572   0.190   3.864   1.771 -0.0884 -0.1426  0.2913
  715TMC3     O10573   0.224   3.877   1.656  0.0904 -0.6166  0.3267
  715TMC3     H10574   0.167   3.607   1.691  0.8074 -0.7938  0.4279
  715TMC3    H110575   0.342   3.866   1.990  0.2376  0.2512  0.3495
  715TMC3    H210576   0.422   3.446   1.999  0.7352  0.6920  0.1045
  715TMC3    C710577   0.492   3.687   2.091  0.5519 -0.4124 -0.0919
  715TMC3    C810578   0.253   3.384   1.800  0.1084  0.3032  0.3044
  715TMC3    O110579   0.556   3.786   2.058 -0.6408  0.4624  0.6771
  715TMC3    O210580   0.223   3.363   1.682 -0.5636  0.2107 -0.2319
  716MPD2     C10581   0.026   1.951   9.444 -0.2873 -0.0543  0.3018
  716MPD2    C110582   4.682   1.839   9.492  0.3050  0.5137  0.8434
  716MPD2    C210583   0.033   1.741   9.560 -0.0785  0.0903  0.0003
  716MPD2    C310584   0.167   1.747   9.572 -0.5223  0.0451 -0.3167
  716MPD2    C410585   0.230   1.858   9.527  0.2022  0.0380 -0.2811
  716MPD2    C510586   0.155   1.956   9.465  0.4856  0.4622  0.1889
  716MPD2     H10587   4.708   1.651   9.597  0.6652 -0.1155  0.4603
  716MPD2    H110588   0.336   1.870   9.544 -0.1099 -0.0787  1.7573
  716MPD2    H210589   4.698   2.022   9.380 -1.3213 -0.2196  0.9413
  716MPD2    H310590   0.211   2.039   9.425 -0.3614  0.3258 -1.2893
  716MPD2     N10591   0.232   1.642   9.643 -0.3286  0.3796 -0.2161
  716MPD2    H510592   0.174   1.563   9.667  1.1684  0.0385  2.3323
  716MPD2    N110593   4.546   1.831   9.470  0.0383  0.5213  0.2508
  716MPD2    H710594   4.506   1.899   9.406  0.2832  1.3255  0.9486
  717TMC3    C110595   0.386   1.498   9.740  0.0232 -0.4491  0.2858
  717TMC3    C210596   0.310   1.392   9.696  0.1265  0.2652  0.0151
  717TMC3    C310597   0.353   1.266   9.726  0.1800  0.1747  0.3095
  717TMC3    C410598   0.505   1.481   9.812  0.5006  0.9156 -0.6371
  717TMC3    C510599   0.541   1.349   9.842  0.7453 -0.5734 -0.4252
  717TMC3    C610600   0.458   1.241   9.805 -0.7002 -0.1705  0.2774
  717TMC3     C10601   0.361   1.629   9.684  0.2472 -0.3639  0.0704
  717TMC3     O10602   0.442   1.725   9.693 -0.2020 -0.5127 -0.5198
  717TMC3     H10603   0.235   1.403   9.618 -1.8738 -3.2820  1.4275
  717TMC3    H110604   0.558   1.571   9.841  0.9129  0.9070 -1.3530
  717TMC3    H210605   0.466   1.149   9.862  2.6380  0.4180  0.7762
  717TMC3    C710606   0.617   1.335   9.969 -0.2178  0.1995  0.6609
  717TMC3    C810607   0.272   1.152   9.674  0.1697  0.8732  0.2050
  717TMC3    O110608   0.660   1.438  10.021  0.0179 -0.3367 -0.4293
  717TMC3    O210609   0.161   1.173   9.633  0.4009  0.0229 -0.1931
  718MPD2     C10610   4.366   3.989  13.290  0.3165 -0.4913  0.0559
  718MPD2    C110611   4.315   4.071  13.186  0.3758  0.5060 -0.4337
  718MPD2    C210612   4.196   4.041  13.132  0.5533 -0.1733 -0.0338
  718MPD2    C310613   4.115   3.938  13.171  0.4723  0.0716 -0.2184
  718MPD2    C410614   4.155   3.858  13.274 -0.3844 -0.7052 -0.4358
  718MPD2    C510615   4.279   3.887  13.331 -0.2260 -0.2023 -0.2704
  718MPD2     H10616   4.153   4.111  13.061  3.3547  1.2672 -0.3061
  718MPD2    H110617   4.098   3.775  13.316  0.2664 -1.4272 -0.9774
  718MPD2    H210618   4.467   3.997  13.330  0.4609  1.0444 -0.5912
  718MPD2    H310619   4.308   3.813  13.405 -0.5387  0.2689  0.3194
  718MPD2     N10620   3.986   3.934  13.114  0.3527 -0.1899  0.0723
  718MPD2    H510621   3.969   3.985  13.028  1.6552  0.5048  0.2325
  718MPD2    N110622   4.388   4.187  13.142 -0.2062 -0.3374 -0.6044
  718MPD2    H710623   4.334   4.246  13.079 -0.1351 -0.2288 -0.5641
  719TMC3    C110624   4.500   4.388  13.152  0.2468  0.8184  0.5699
  719TMC3    C210625   4.384   4.445  13.190 -0.8299  0.2690 -0.8147
  719TMC3    C310626   4.325   4.552  13.124 -0.1786 -0.0928 -0.1698
  719TMC3    C410627   4.564   4.431  13.047  0.0696 -0.0022 -0.4994
  719TMC3    C510628   4.511   4.539  12.987  0.4733 -0.2260 -0.2042
  719TMC3    C610629   4.393   4.597  13.014 -0.0652  0.5612  0.4169
  719TMC3     C10630   4.510   4.243  13.183 -0.3385 -1.1050 -0.5339
  719TMC3     O10631   4.587   4.194  13.265  0.1398 -0.0201  0.5627
  719TMC3     H10632   4.332   4.400  13.274  0.2021  1.5995  0.5284
  719TMC3    H110633   4.658   4.380  13.032 -0.1156  0.1498 -2.1725
  719TMC3    H210634   4.364   4.675  12.945 -2.4102  0.0608  0.8271
  719TMC3    C710635   4.561   4.581  12.855  1.0318 -0.3223 -0.2545
  719TMC3    C810636   4.182   4.549  13.120  0.3801  0.5938  0.1887
  719TMC3    O110637   4.544   4.698  12.817  0.2803  0.1562 -0.1065
  719TMC3    O210638   4.126   4.482  13.212  0.2567  0.3829 -0.3999
  720MPD2     C10639   2.472   1.268  14.150 -0.3322 -0.6444 -0.4460
  720MPD2    C110640   2.572   1.266  14.050  0.2724  0.3849  0.5419
  720MPD2    C210641   2.695   1.223  14.073  0.0950  0.3413  1.1485
  720MPD2    C310642   2.738   1.196  14.205  0.2155 -0.6559  0.0811
  720MPD2    C410643   2.649   1.194  14.310  0.5574 -0.7385 -0.2453
  720MPD2    C510644   2.513   1.220  14.272 -0.0927 -0.0370 -0.4689
  720MPD2     H10645   2.775   1.227  14.000 -1.3574 -1.2210 -0.5496
  720MPD2    H110646   2.674   1.170  14.413 -0.3440 -1.8632 -0.2877
  720MPD2    H210647   2.369   1.294  14.130  0.0479 -0.4072 -2.1280
  720MPD2    H310648   2.439   1.209  14.350  1.2107 -1.5440  0.5662
  720MPD2     N10649   2.878   1.197  14.229 -0.3009 -0.3172 -0.4555
  720MPD2    H510650   2.932   1.201  14.142 -0.7330 -0.7862 -0.7477
  720MPD2    N110651   2.535   1.301  13.920 -0.3156  0.6946 -0.3471
  720MPD2    H710652   2.593   1.275  13.841  1.3115 -0.8996  1.3613
  721TMC3    C110653   3.071   1.263  14.333  0.3313 -0.6909 -0.8845
  721TMC3    C210654   3.152   1.285  14.437 -0.1927  0.0351  0.6059
  721TMC3    C310655   3.274   1.343  14.430  0.3797  0.3790  0.2203
  721TMC3    C410656   3.103   1.341  14.225 -0.3730 -0.2460 -0.0047
  721TMC3    C510657   3.232   1.393  14.220 -0.4696 -0.1527  0.7970
  721TMC3    C610658   3.324   1.391  14.319 -0.6130  0.1462 -0.4313
  721TMC3     C10659   2.938   1.208  14.354  1.1073 -0.6281  0.4369
  721TMC3     O10660   2.898   1.203  14.466  0.2198  0.4114  0.5173
  721TMC3     H10661   3.138   1.234  14.532  1.7688  1.3824  1.6144
  721TMC3    H110662   3.031   1.342  14.143 -1.8319 -0.2158  1.2803
  721TMC3    H210663   3.419   1.444  14.311 -0.4899  0.3238  2.1944
  721TMC3    C710664   3.281   1.434  14.094 -0.2094  0.6933  0.8714
  721TMC3    C810665   3.317   1.421  14.537  0.1449 -0.7844 -0.8873
  721TMC3    O110666   3.404   1.422  14.067  0.3253  0.1523  0.0210
  721TMC3    O210667   3.428   1.478  14.526 -0.1627  0.5045 -0.1096
  722MPD2     C10668   1.863   0.071  13.589  0.3354 -0.1255 -0.0685
  722MPD2    C110669   1.827   0.040  13.459 -0.5037 -0.3418 -0.1512
  722MPD2    C210670   1.710   4.698  13.447  0.4744 -0.2696 -0.1744
  722MPD2    C310671   1.627   4.660  13.549 -0.6694 -0.6771  0.3708
  722MPD2    C410672   1.660   4.697  13.678 -0.0561  0.0474  0.5639
  722MPD2    C510673   1.774   0.050  13.692  0.7878  0.1769 -0.9935
  722MPD2     H10674   1.695   4.657  13.347  1.2178 -0.7203 -0.1047
  722MPD2    H110675   1.604   4.668  13.766  0.5971  0.9001  1.2648
  722MPD2    H210676   1.961   0.111  13.611  0.3034 -0.1759  0.1682
  722MPD2    H310677   1.801   0.078  13.793  1.3795 -2.6158 -0.3727
  722MPD2     N10678   1.508   4.595  13.510 -0.0933  0.5687  0.3047
  722MPD2    H510679   1.486   4.592  13.411 -0.4887  0.3217  0.3998
  722MPD2    N110680   1.901   0.062  13.339 -0.1601  0.4160 -0.2530
  722MPD2    H710681   1.862   0.018  13.256 -0.5103  0.1747  0.0369
  723TMC3    C110682   1.304   4.503  13.528 -0.0114 -0.3095  0.8111
  723TMC3    C210683   1.247   4.388  13.563 -0.2597 -0.4463 -0.0812
  723TMC3    C310684   1.155   4.346  13.477  0.3519 -0.2152 -0.4393
  723TMC3    C410685   1.259   4.583  13.422  1.0945 -0.7578 -0.3891
  723TMC3    C510686   1.153   4.540  13.356 -0.0337 -0.7274  0.3493
  723TMC3    C610687   1.103   4.413  13.371  0.1542 -0.2660 -0.8948
  723TMC3     C10688   1.420   4.540  13.597  0.5785  0.7671 -0.5108
  723TMC3     O10689   1.425   4.529  13.720 -0.3431  0.5629  0.3687
  723TMC3     H10690   1.281   4.330  13.648  2.0068  3.0622  1.4310
  723TMC3    H110691   1.307   4.678  13.400 -0.1352 -0.1876 -0.6226
  723TMC3    H210692   1.014   4.373  13.324 -0.8079  0.5822  0.2369
  723TMC3    C710693   1.104   4.611  13.235  0.6745 -0.4459 -0.6709
  723TMC3    C810694   1.120   4.205  13.496  1.2925 -0.4300 -0.5634
  723TMC3    O110695   0.993   4.577  13.202 -0.2847 -0.4584 -0.3180
  723TMC3    O210696   1.118   4.153  13.605 -0.0597 -0.4646  0.4109
  724TMC3    C110697   3.610   4.050   8.965 -0.2780  0.7809  0.3425
  724TMC3    C210698   3.564   4.080   8.840 -0.1271 -0.3060  0.3734
  724TMC3    C310699   3.444   4.032   8.799 -0.0384  0.2920 -0.3449
  724TMC3    C410700   3.538   3.968   9.044 -0.5965 -0.4916 -0.4036
  724TMC3    C510701   3.434   3.901   8.996 -0.4496 -0.0492  0.5890
  724TMC3    C610702   3.384   3.937   8.876  0.0480 -0.7144 -0.3761
  724TMC3     C10703   3.738   4.093   9.023  0.2677 -0.1702 -0.2899
  724TMC3     O10704   3.756   4.068   9.140  0.0025  0.1094  0.1528
  724TMC3     H10705   3.607   4.160   8.781  0.0796 -0.4699  0.3041
  724TMC3    H110706   3.592   3.918   9.124 -1.6568 -1.2833 -0.1944
  724TMC3    H210707   3.284   3.901   8.856 -0.4705  1.4203 -1.6193
  724TMC3    C710708   3.364   3.804   9.078  0.0482  0.1023 -0.5434
  724TMC3    C810709   3.391   4.067   8.675 -0.0689  0.3450 -0.1181
  724TMC3    O110710   3.274   3.735   9.034 -0.5051 -0.1478 -0.8728
  724TMC3    O210711   3.476   4.091   8.590  0.2607 -0.3731 -0.3656
  725TMC3    C110712   2.941   1.385  12.877 -0.3148 -0.1463 -0.7406
  725TMC3    C210713   2.846   1.408  12.782  0.1800 -0.0882 -0.5423
  725TMC3    C310714   2.788   1.305  12.712  0.0437 -0.5745  0.2144
  725TMC3    C410715   2.988   1.258  12.887  0.4247  0.4851  0.2499
  725TMC3    C510716   2.944   1.157  12.803  0.6608 -0.2567 -0.4676
  725TMC3    C610717   2.838   1.178  12.723 -0.7181 -0.9042 -0.4507
  725TMC3     C10718   3.006   1.496  12.940 -0.4094  0.2418 -0.8129
  725TMC3     O10719   3.003   1.601  12.878  0.1641 -0.0979  0.4830
  725TMC3     H10720   2.800   1.506  12.777 -2.6477 -1.4215 -0.2407
  725TMC3    H110721   3.080   1.242  12.942  0.7321 -0.6842 -0.5899
  725TMC3    H210722   2.804   1.103  12.653 -2.1153 -1.7692  1.1743
  725TMC3    C710723   3.053   1.076  12.751 -0.3538 -0.5179 -0.4201
  725TMC3    C810724   2.719   1.334  12.588 -0.0731 -0.8777  0.3860
  725TMC3    O110725   3.154   1.138  12.738 -0.2055 -0.7458  0.5123
  725TMC3    O210726   2.625   1.261  12.562 -0.5187 -0.4144  0.2133
  726MPD2     C10727   1.470   3.205  10.254  0.8601 -0.2201 -0.2006
  726MPD2    C110728   1.393   3.317  10.225  0.0384 -0.1180  0.8697
  726MPD2    C210729   1.256   3.310  10.221 -0.7071  0.2579  0.5395
  726MPD2    C310730   1.201   3.191  10.262  0.6437 -0.1232 -0.1478
  726MPD2    C410731   1.276   3.079  10.289 -0.8010 -0.4053  0.2736
  726MPD2    C510732   1.411   3.092  10.287 -0.1572 -0.0273  0.5792
  726MPD2     H10733   1.204   3.405  10.210 -0.7484  0.1268 -0.3929
  726MPD2    H110734   1.235   2.987  10.330  3.5598 -1.4594  2.2118
  726MPD2    H210735   1.577   3.197  10.270  0.8800  1.7034  0.6376
  726MPD2    H310736   1.467   3.005  10.319  1.2858  0.5952 -0.2745
  726MPD2     N10737   1.057   3.172  10.271  1.0542  0.0681 -0.4453
  726MPD2    H510738   1.020   3.084  10.306  1.1799 -0.0970 -0.7251
  726MPD2    N110739   1.450   3.442  10.219  0.4549  0.7207  0.2828
  726MPD2    H710740   1.387   3.513  10.183  1.1537  1.5208  0.6320
  727TMC3    C110741   1.599   3.618  10.280  0.2482  0.0528  0.1692
  727TMC3    C210742   1.723   3.663  10.311 -0.1174 -0.2938 -0.5961
  727TMC3    C310743   1.741   3.800  10.327  0.0095  0.3559  0.1651
  727TMC3    C410744   1.486   3.702  10.275 -0.0920  0.2558  0.0088
  727TMC3    C510745   1.510   3.827  10.320 -0.5071 -0.3552  0.4343
  727TMC3    C610746   1.639   3.882  10.340  0.6259 -0.2427  0.0686
  727TMC3     C10747   1.582   3.478  10.252  0.9500 -0.0016  0.3083
  727TMC3     O10748   1.681   3.406  10.264  0.4265 -0.8096  0.4602
  727TMC3     H10749   1.812   3.604  10.292  1.3158  2.1449 -1.3395
  727TMC3    H110750   1.385   3.663  10.278 -0.2969  0.9231  1.8320
  727TMC3    H210751   1.655   3.987  10.362 -0.2603  0.2604 -1.7336
  727TMC3    C710752   1.396   3.920  10.323  0.2773  0.1798 -0.3968
  727TMC3    C810753   1.880   3.840  10.336 -0.4672  0.0038 -0.2029
  727TMC3    O110754   1.289   3.886  10.272  0.2524  0.2030 -0.4175
  727TMC3    O210755   1.971   3.757  10.342  0.2152  0.3497 -0.1482
  728TMC3    C110756   4.688   1.946  15.276 -0.3599 -0.3631  0.3440
  728TMC3    C210757   0.056   1.928  15.375 -0.1037 -0.4799  0.5615
  728TMC3    C310758   0.186   1.906  15.329  0.2720  0.0290  0.6518
  728TMC3    C410759   4.712   1.943  15.146 -0.3229 -0.9228 -0.1529
  728TMC3    C510760   0.115   1.913  15.108  0.4966  0.3694  0.3712
  728TMC3    C610761   0.217   1.898  15.196  0.6400  0.5929 -0.4819
  728TMC3     C10762   4.555   1.987  15.306 -0.4107 -0.2015  0.0307
  728TMC3     O10763   4.493   2.037  15.214  0.1751  0.1195  0.0871
  728TMC3     H10764   0.044   1.962  15.477 -1.7746  0.8632 -0.0901
  728TMC3    H110765   4.640   1.963  15.067  1.0674 -0.0888 -1.2080
  728TMC3    H210766   0.315   1.861  15.171  0.7993  1.0420 -0.5297
  728TMC3    C710767   0.153   1.914  14.968  0.1280 -0.3384  0.3783
  728TMC3    C810768   0.271   1.862  15.445 -0.0323 -0.2785 -1.0448
  728TMC3    O110769   0.059   1.877  14.896  0.4289  0.3666 -0.2486
  728TMC3    O210770   0.211   1.822  15.548 -0.0308 -0.0586  0.2842
  729MPD2     C10771   2.741   3.425  16.948 -0.2208  0.4824 -0.5082
  729MPD2    C110772   2.878   3.407  16.913  0.1971 -0.1759 -0.4999
  729MPD2    C210773   2.969   3.407  17.013  0.0172  0.1227  0.0546
  729MPD2    C310774   2.936   3.434  17.139 -0.5257 -0.2207 -0.0693
  729MPD2    C410775   2.802   3.447  17.173  0.2728  0.5751 -0.5341
  729MPD2    C510776   2.712   3.441  17.076 -0.2532 -0.0530 -0.5522
  729MPD2     H10777   3.075   3.408  16.989 -0.5707 -3.4048 -2.7597
  729MPD2    H110778   2.775   3.468  17.276  1.0162  0.1595 -0.2476
  729MPD2    H210779   2.669   3.446  16.869 -0.8128  0.4003  0.0086
  729MPD2    H310780   2.611   3.460  17.110  0.1115  3.1762 -1.2891
  729MPD2     N10781   3.031   3.430  17.250  0.0239  0.4197 -0.4978
  729MPD2    H510782   3.000   3.465  17.340 -0.9497  0.1545 -0.7347
  729MPD2    N110783   2.913   3.390  16.778 -0.2076  1.0114 -0.1824
  729MPD2    H710784   2.844   3.414  16.707 -0.5139  0.2291 -0.1410
  730TMC3    C110785   3.217   3.413  17.385  0.4362 -0.3413 -0.2026
  730TMC3    C210786   3.345   3.363  17.417  0.1657 -0.0604  0.2539
  730TMC3    C310787   3.431   3.429  17.505  0.4834  0.0942  0.5668
  730TMC3    C410788   3.172   3.520  17.465 -0.8863 -0.3714 -0.1211
  730TMC3    C510789   3.260   3.580  17.555 -0.1482  0.2860 -0.4380
  730TMC3    C610790   3.389   3.532  17.575  1.6144  0.1533 -0.7174
  730TMC3     C10791   3.165   3.401  17.248  0.3545  0.2699  0.0835
  730TMC3     O10792   3.235   3.350  17.159 -0.3866 -0.0573  0.2809
  730TMC3     H10793   3.387   3.284  17.358  0.0417  0.0288  0.0469
  730TMC3    H110794   3.068   3.551  17.458 -0.2689  2.2272  2.2683
  730TMC3    H210795   3.457   3.595  17.631  1.4002  0.2497 -0.5670
  730TMC3    C710796   3.229   3.709  17.622  0.5227  0.7863 -0.3302
  730TMC3    C810797   3.568   3.389  17.507  0.4466  0.1014 -0.1477
  730TMC3    O110798   3.295   3.736   0.029 -0.6871  0.5507 -0.5837
  730TMC3    O210799   3.589   3.277  17.466 -0.0616 -0.0324  0.5632
  731MPD2     C10800   2.761   0.946  12.122 -0.0742 -0.7412 -0.1892
  731MPD2    C110801   2.657   1.018  12.176  0.7257  0.2100  0.3484
  731MPD2    C210802   2.609   0.998  12.306  0.2239  0.6025 -0.2227
  731MPD2    C310803   2.669   0.897  12.376  0.3325  0.1904 -0.6174
  731MPD2    C410804   2.788   0.837  12.328 -0.1386 -0.1530  0.3126
  731MPD2    C510805   2.830   0.861  12.197 -0.4500 -0.8456  0.5871
  731MPD2     H10806   2.523   1.055  12.338 -0.1055  1.5167 -2.6833
  731MPD2    H110807   2.849   0.769  12.386  1.6654  1.0985 -0.1016
  731MPD2    H210808   2.797   0.978  12.024  1.5563  1.0652  0.9901
  731MPD2    H310809   2.922   0.822  12.154 -0.1036 -0.5335  1.0438
  731MPD2     N10810   2.619   0.857  12.505 -0.1934 -0.0288 -0.3683
  731MPD2    H510811   2.545   0.918  12.539 -1.0796 -1.8777  0.9831
  731MPD2    N110812   2.603   1.116  12.089 -0.5321 -0.4723  0.1336
  731MPD2    H710813   2.632   1.112  11.992  0.2025 -1.2385  0.3860
  732TMC3    C110814   2.459   1.263  11.990 -0.0148  0.1048  0.0100
  732TMC3    C210815   2.338   1.249  11.938 -0.0198  0.3961  0.2674
  732TMC3    C310816   2.324   1.263  11.805  0.0687 -0.1970 -0.3325
  732TMC3    C410817   2.565   1.318  11.927 -0.4376 -0.6407  0.4675
  732TMC3    C510818   2.542   1.351  11.795  0.0774 -0.1684 -0.6578
  732TMC3    C610819   2.426   1.315  11.735  0.0051  0.1920 -0.0424
  732TMC3     C10820   2.485   1.183  12.104  0.0089 -0.3800 -0.5509
  732TMC3     O10821   2.395   1.162  12.186  0.4929 -0.3828 -0.2641
  732TMC3     H10822   2.253   1.211  11.992  0.0176 -0.0323  0.0218
  732TMC3    H110823   2.661   1.336  11.973  0.3616 -0.9901 -1.0549
  732TMC3    H210824   2.424   1.313  11.627 -1.3425  2.0280 -0.0411
  732TMC3    C710825   2.652   1.387  11.707 -0.0473  0.2054 -0.0932
  732TMC3    C810826   2.246   1.149  11.740 -0.1158  0.4040  0.4810
  732TMC3    O110827   2.629   1.414  11.588  0.0763 -0.2844  0.0954
  732TMC3    O210828   2.286   1.123  11.628 -0.7176 -0.1720  0.1605
  733TMC3    C110829   3.523   3.908  13.099  0.1046  0.2295 -0.4050
  733TMC3    C210830   3.639   3.846  13.128 -0.1255  0.4065  0.0868
  733TMC3    C310831   3.756   3.918  13.102  0.8175 -0.5594  0.2191
  733TMC3    C410832   3.520   4.030  13.032 -0.0519  0.0592 -0.1608
  733TMC3    C510833   3.640   4.097  13.016  0.0522  0.6205  0.1170
  733TMC3    C610834   3.760   4.044  13.049  0.1916  0.1472  0.4973
  733TMC3     C10835   3.401   3.823  13.083  0.0436 -0.7552  0.4221
  733TMC3     O10836   3.326   3.854  12.984  0.1763 -0.7300 -0.0873
  733TMC3     H10837   3.634   3.744  13.164  1.9464 -0.4137 -1.9603
  733TMC3    H110838   3.423   4.073  13.012 -0.4555 -0.3726  0.8849
  733TMC3    H210839   3.853   4.096  13.024  1.5129 -1.5912  1.8039
  733TMC3    C710840   3.630   4.234  12.972  0.5583  0.1572 -0.0908
  733TMC3    C810841   3.875   3.865  13.163 -0.6006  0.2663  0.2318
  733TMC3    O110842   3.533   4.272  12.904  0.0419 -0.1484  0.4998
  733TMC3    O210843   3.874   3.792  13.259 -0.1342 -0.6703  0.1551
  734MPD2     C10844   1.087   2.070  12.266  0.5678  0.3904 -0.2556
  734MPD2    C110845   0.952   2.076  12.245  0.3777  0.6560 -0.1966
  734MPD2    C210846   0.903   2.130  12.129 -0.3120 -0.4745  0.3620
  734MPD2    C310847   0.990   2.177  12.031 -0.4739  0.1055  0.0757
  734MPD2    C410848   1.126   2.179  12.053 -1.0025  0.3448  0.5984
  734MPD2    C510849   1.171   2.138  12.177 -1.0073 -0.3435  0.3106
  734MPD2     H10850   0.796   2.115  12.125 -0.6569  1.6293  2.1104
  734MPD2    H110851   1.183   2.238  11.982  1.0820 -1.5681  0.6681
  734MPD2    H210852   1.137   2.030  12.353 -1.7953 -1.6070  0.1545
  734MPD2    H310853   1.273   2.163  12.204 -0.4563 -0.3155 -1.7944
  734MPD2     N10854   0.930   2.212  11.912 -0.5759 -0.3108 -0.2326
  734MPD2    H510855   0.829   2.214  11.910 -0.7040 -2.2951  2.6418
  734MPD2    N110856   0.879   2.002  12.348  0.1341 -0.4315  0.0372
  734MPD2    H710857   0.921   1.969  12.434  1.3776  0.3740 -0.2536
  735TMC3    C110858   0.695   1.865  12.423  0.7769 -0.1836 -0.8382
  735TMC3    C210859   0.587   1.802  12.373 -0.6331 -0.5950  0.3652
  735TMC3    C310860   0.583   1.669  12.347  0.3295 -0.0320  0.2995
  735TMC3    C410861   0.801   1.782  12.456 -0.3571 -0.1611  0.6052
  735TMC3    C510862   0.804   1.649  12.419 -0.1629  0.7653  0.2376
  735TMC3    C610863   0.694   1.595  12.366 -0.2839  0.1401 -1.0185
  735TMC3     C10864   0.742   1.975  12.337 -0.8538 -0.2166  0.5129
  735TMC3     O10865   0.665   1.987  12.243 -0.6166  0.1830  0.1853
  735TMC3     H10866   0.501   1.862  12.348 -1.4491 -2.1577 -0.6225
  735TMC3    H110867   0.887   1.821  12.508 -0.3192 -1.0441  1.2056
  735TMC3    H210868   0.695   1.492  12.333 -1.1225 -0.4324  0.7501
  735TMC3    C710869   0.927   1.581  12.441 -0.2861 -0.3699  0.1536
  735TMC3    C810870   0.531   1.635  12.209  0.2286 -0.7846  0.4489
  735TMC3    O110871   1.017   1.657  12.430 -0.2796  0.4128 -0.4619
  735TMC3    O210872   0.498   1.522  12.187  0.5446 -0.2702 -0.2432
  736MPD2     C10873   1.019   1.233  12.538  0.1515 -0.5275  0.5115
  736MPD2    C110874   1.033   1.357  12.477 -0.2783 -0.3705  0.7338
  736MPD2    C210875   1.157   1.382  12.420  0.3778 -0.1781  0.0308
  736MPD2    C310876   1.263   1.297  12.430 -0.0257 -1.0123  0.4277
  736MPD2    C410877   1.243   1.177  12.492 -0.0656 -0.6557 -0.4307
  736MPD2    C510878   1.124   1.142  12.544 -0.2788 -0.3662  0.0652
  736MPD2     H10879   1.166   1.475  12.365  0.7373 -0.3550 -0.2046
  736MPD2    H110880   1.330   1.113  12.508 -0.8349 -2.0546 -1.8113
  736MPD2    H210881   0.929   1.217  12.596  0.2476  0.7411  0.9938
  736MPD2    H310882   1.119   1.049  12.601  2.5918 -1.1891 -1.0479
  736MPD2     N10883   1.383   1.320  12.353  0.2143 -0.5446  0.3687
  736MPD2    H510884   1.453   1.247  12.340 -0.8319 -1.5817  0.5691
  736MPD2    N110885   0.920   1.453  12.487 -0.0263 -0.3500 -0.2069
  736MPD2    H710886   0.833   1.423  12.531  1.7766 -1.7837  2.3790
  737TMC3    C110887   1.528   1.431  12.202 -0.3920 -0.2948 -0.2574
  737TMC3    C210888   1.599   1.540  12.161 -0.4586 -0.1443  0.1259
  737TMC3    C310889   1.698   1.515  12.082 -0.1836  0.3722  1.1117
  737TMC3    C410890   1.570   1.298  12.174  0.6677  0.1575  0.0568
  737TMC3    C510891   1.666   1.284  12.083  0.4943  0.7796 -0.0180
  737TMC3    C610892   1.728   1.396  12.021  0.0551  0.5536 -0.3043
  737TMC3     C10893   1.403   1.434  12.277 -0.0770 -0.7352  0.4397
  737TMC3     O10894   1.356   1.549  12.282 -0.2914  0.6198 -0.3112
  737TMC3     H10895   1.559   1.638  12.187 -1.6898 -0.4063 -0.7889
  737TMC3    H110896   1.514   1.208  12.197 -1.1500  1.5339  1.0841
  737TMC3    H210897   1.810   1.383  11.952  0.4125  0.5823  0.1113
  737TMC3    C710898   1.664   1.150  12.031  0.6444  0.1557 -0.3929
  737TMC3    C810899   1.748   1.635  12.020  0.7092  0.2077 -0.6858
  737TMC3    O110900   1.615   1.058  12.091  0.1881 -0.0326 -0.0170
  737TMC3    O210901   1.732   1.741  12.075 -0.3269 -0.5996 -0.6775
  738MPD2     C10902   1.512   0.608  15.154 -0.0637  0.0298 -0.1060
  738MPD2    C110903   1.571   0.539  15.253 -0.3071 -0.4982  0.0168
  738MPD2    C210904   1.698   0.574  15.298  0.8995 -0.3803 -0.5160
  738MPD2    C310905   1.775   0.655  15.217 -0.6087  0.3316  0.6510
  738MPD2    C410906   1.721   0.715  15.106  0.3822 -0.2790  0.1290
  738MPD2    C510907   1.584   0.695  15.083  0.3055  0.4422 -0.0431
  738MPD2     H10908   1.736   0.515  15.381  1.2048 -0.8285 -0.9800
  738MPD2    H110909   1.772   0.785  15.041  0.4053  1.4121  1.9651
  738MPD2    H210910   1.410   0.586  15.124 -0.2864  0.4207  0.3692
  738MPD2    H310911   1.540   0.740  14.994  2.0687 -0.6545 -1.4593
  738MPD2     N10912   1.913   0.682  15.247  0.4442  0.1436  0.2876
  738MPD2    H510913   1.963   0.733  15.175  2.5891  0.0305  1.6943
  738MPD2    N110914   1.500   0.421  15.295  0.3205 -0.2585 -0.4515
  738MPD2    H710915   1.418   0.398  15.240  0.3089 -2.4172  0.4336
  739TMC3    C110916   2.132   0.654  15.320 -0.6130  0.0915  0.2514
  739TMC3    C210917   2.177   0.760  15.236  0.3723 -0.3964  0.5885
  739TMC3    C310918   2.302   0.744  15.188 -0.8855 -0.6476 -0.1058
  739TMC3    C410919   2.213   0.550  15.362  0.0072 -0.2340 -0.2696
  739TMC3    C510920   2.340   0.548  15.305  0.3160  0.3564  0.2281
  739TMC3    C610921   2.386   0.639  15.213 -0.2384  0.0228 -0.9314
  739TMC3     C10922   1.993   0.632  15.347 -0.6568 -0.2282 -0.0225
  739TMC3     O10923   1.964   0.557  15.438  0.2042 -0.0514  0.6510
  739TMC3     H10924   2.111   0.843  15.212  2.0501  0.2620 -1.7195
  739TMC3    H110925   2.175   0.472  15.427 -1.1840  1.6751  1.3270
  739TMC3    H210926   2.468   0.618  15.146  2.3137  2.2687  1.4877
  739TMC3    C710927   2.403   0.423  15.310 -0.1727  0.3516  0.0552
  739TMC3    C810928   2.332   0.839  15.077  0.0525 -0.0864  0.1404
  739TMC3    O110929   2.425   0.369  15.420 -0.6186  0.1090  0.0635
  739TMC3    O210930   2.237   0.884  15.015 -0.0116 -0.1508  0.4222
  740TMC3    C110931   2.510   1.775  14.299 -0.3925  0.2004  0.6189
  740TMC3    C210932   2.480   1.687  14.397  0.5174 -0.6312 -0.4733
  740TMC3    C310933   2.547   1.572  14.404 -0.0728  0.1857 -0.1931
  740TMC3    C410934   2.606   1.744  14.201  0.2040 -0.1377  0.3549
  740TMC3    C510935   2.675   1.627  14.214 -0.4237 -0.4337 -0.0303
  740TMC3    C610936   2.652   1.542  14.319  0.0129  0.1498  0.3050
  740TMC3     C10937   2.444   1.905  14.295  0.6173 -1.5748 -0.3605
  740TMC3     O10938   2.495   1.999  14.236 -0.3366  0.1943  0.7786
  740TMC3     H10939   2.445   1.725  14.493  1.3044 -0.7091 -0.1524
  740TMC3    H110940   2.645   1.815  14.130 -1.2083  0.8871  0.6076
  740TMC3    H210941   2.700   1.445  14.323 -0.7786 -0.2290  0.7972
  740TMC3    C710942   2.762   1.572  14.114 -0.4616  0.2976 -0.4193
  740TMC3    C810943   2.546   1.496  14.529 -0.4380  0.7910  0.9579
  740TMC3    O110944   2.845   1.497  14.158 -0.0558 -0.0679 -0.1991
  740TMC3    O210945   2.639   1.422  14.550  0.3258 -0.5538  0.2709
  741TMC3    C110946   1.813   1.501  14.639  0.0345  0.3584  0.1046
  741TMC3    C210947   1.720   1.405  14.592  0.4687 -0.7175 -0.2210
  741TMC3    C310948   1.688   1.303  14.671  0.3282  0.2615  0.0791
  741TMC3    C410949   1.867   1.486  14.770 -0.2859 -0.1249 -0.1701
  741TMC3    C510950   1.817   1.386  14.854 -0.2694  0.3305 -0.4530
  741TMC3    C610951   1.737   1.295  14.801 -0.1405  0.5279 -0.8987
  741TMC3     C10952   1.849   1.612  14.558 -0.4459 -0.9310 -0.3873
  741TMC3     O10953   1.951   1.668  14.590 -0.9598  0.7467 -0.3080
  741TMC3     H10954   1.680   1.398  14.491  0.2340 -1.2902 -0.0890
  741TMC3    H110955   1.931   1.565  14.809  1.3810 -2.1001  1.0687
  741TMC3    H210956   1.697   1.224  14.873 -0.7591  1.6546 -0.1352
  741TMC3    C710957   1.861   1.385  14.988 -0.0278 -0.5616 -0.0695
  741TMC3    C810958   1.603   1.196  14.627 -0.0731  0.3538  0.1908
  741TMC3    O110959   1.868   1.496  15.037  0.1844  0.4894 -0.8252
  741TMC3    O210960   1.534   1.211  14.529  0.3584  0.5067  0.7005
  742TMC3    C110961   1.817   4.435  15.348 -0.6772 -0.1870 -0.1283
  742TMC3    C210962   1.736   4.414  15.234 -0.7247  0.4719  0.0719
  742TMC3    C310963   1.791   4.431  15.109 -0.3100  0.8620 -0.9680
  742TMC3    C410964   1.942   4.479  15.330 -0.4272 -0.4202  0.1546
  742TMC3    C510965   1.992   4.500  15.208 -0.0482  0.3780 -0.1789
  742TMC3    C610966   1.921   4.471  15.096  0.1210 -0.6626 -0.3675
  742TMC3     C10967   1.769   4.408  15.482  0.1502 -0.0242 -0.4175
  742TMC3     O10968   1.649   4.385  15.495  0.3784  0.2224 -0.3460
  742TMC3     H10969   1.637   4.370  15.241  0.2880 -1.5998  1.4412
  742TMC3    H110970   2.003   4.499  15.418 -1.2691 -0.4134  0.7346
  742TMC3    H210971   1.960   4.471  14.995  1.3613 -0.7310  0.1100
  742TMC3    C710972   2.132   4.486  15.203 -0.3301 -0.1242  0.9392
  742TMC3    C810973   1.740   4.357  14.994  0.0524 -0.1858  0.2602
  742TMC3    O110974   2.174   4.458  15.088 -0.1056  0.0344 -0.2300
  742TMC3    O210975   1.817   4.295  14.922  0.2739 -0.9501  0.2173
  743MPD2     C10976   0.746   1.128   1.848 -0.4948  0.0028 -0.1668
  743MPD2    C110977   0.684   1.162   1.731  0.2752 -0.1688 -0.1851
  743MPD2    C210978   0.756   1.184   1.616 -0.9670  0.4469 -1.2469
  743MPD2    C310979   0.896   1.159   1.617 -0.6327  0.2141 -0.1580
  743MPD2    C410980   0.953   1.116   1.738 -0.4498  0.0243 -0.6020
  743MPD2    C510981   0.876   1.105   1.846  0.4950 -0.3644  0.6583
  743MPD2     H10982   0.703   1.196   1.522 -1.2935 -0.4673 -1.1819
  743MPD2    H110983   1.057   1.085   1.749 -0.9169 -1.0510  0.6409
  743MPD2    H210984   0.685   1.103   1.935  2.1913  0.5843  1.8840
  743MPD2    H310985   0.915   1.067   1.940 -0.1703 -1.5906  0.4376
  743MPD2     N10986   0.967   1.157   1.496  0.0960  0.0174 -0.1190
  743MPD2    H510987   0.914   1.206   1.424  1.5430  0.8001 -0.6380
  743MPD2    N110988   0.543   1.169   1.727 -0.4773 -0.8591  0.3847
  743MPD2    H710989   0.499   1.178   1.636  1.0781 -2.1238 -0.4786
  744TMC3    C110990   0.332   1.213   1.800 -0.1525 -1.2652  0.0830
  744TMC3    C210991   0.270   1.300   1.880 -0.0007 -0.2078 -0.4668
  744TMC3    C310992   0.137   1.322   1.852  0.0270 -0.2846  0.0694
  744TMC3    C410993   0.278   1.146   1.694  0.3151  0.2840 -0.3816
  744TMC3    C510994   0.140   1.160   1.674 -0.1597 -0.0219 -0.2373
  744TMC3    C610995   0.075   1.253   1.750  0.1917 -0.2765  0.1643
  744TMC3     C10996   0.473   1.202   1.839 -0.2111  0.0268 -0.3074
  744TMC3     O10997   0.514   1.254   1.941 -0.3174  0.7317  0.2017
  744TMC3     H10998   0.317   1.350   1.965 -1.0214  0.0443 -0.0512
  744TMC3    H110999   0.335   1.087   1.624  2.5901 -0.9971  2.5471
  744TMC3    H211000   4.698   1.283   1.721  0.9422  0.7496 -1.3966
  744TMC3    C711001   0.076   1.099   1.562 -0.3036 -0.3652  0.1513
  744TMC3    C811002   0.061   1.416   1.939  0.2314 -0.6475  0.2403
  744TMC3    O111003   4.692   1.148   1.522 -0.2128 -0.6644  0.3714
  744TMC3    O211004   4.668   1.422   1.902 -0.5200 -0.2265 -0.0345
  745TMC3    C111005   2.288   3.917  14.080 -0.0606  0.5088  0.0686
  745TMC3    C211006   2.270   4.050  14.084 -0.1623  0.7954  0.1221
  745TMC3    C311007   2.220   4.112  13.970 -0.6100  0.3452 -0.0119
  745TMC3    C411008   2.251   3.840  13.977  0.5255  0.1758 -0.2636
  745TMC3    C511009   2.212   3.904  13.863  0.3667 -0.2884 -0.2336
  745TMC3    C611010   2.187   4.039  13.857 -0.0127 -0.3579  0.0112
  745TMC3     C11011   2.428   3.890  14.116  0.0051 -0.3718 -1.0710
  745TMC3     O11012   2.460   3.789  14.179  0.0394 -0.5988  0.1208
  745TMC3     H11013   2.299   4.114  14.167  2.2800 -1.9016  1.3873
  745TMC3    H111014   2.263   3.733  13.989  1.5983  0.1404 -1.6046
  745TMC3    H211015   2.133   4.078  13.772  1.6155  1.2262 -0.3094
  745TMC3    C711016   2.173   3.831  13.742  0.1872  0.8001  0.4210
  745TMC3    C811017   2.276   4.250  13.953 -0.1088 -0.3384  0.5833
  745TMC3    O111018   2.093   3.740  13.766  0.3350  0.1313 -0.4781
  745TMC3    O211019   2.282   4.315  14.059 -0.1901  0.6247  0.4170
  746TMC3    C111020   4.623   1.060  10.895 -0.4961  0.2443 -0.0348
  746TMC3    C211021   4.664   1.017  10.775 -0.4952 -0.4726  0.0115
  746TMC3    C311022   4.588   0.928  10.704 -0.3592  0.5865  0.4374
  746TMC3    C411023   4.526   0.990  10.960 -0.2353 -0.1227  0.2813
  746TMC3    C511024   4.459   0.899  10.893  0.1040  0.4342 -0.1856
  746TMC3    C611025   4.481   0.866  10.764  0.5558 -0.9987 -0.3572
  746TMC3     C11026   4.610   1.196  10.902 -0.2435  0.7942 -0.0155
  746TMC3     O11027   4.509   1.238  10.952  0.0118  0.2686 -0.3798
  746TMC3     H11028   0.035   1.054  10.735 -0.0281 -0.1035  1.4509
  746TMC3    H111029   4.501   1.016  11.062  1.8943 -1.9271  1.2668
  746TMC3    H211030   4.418   0.797  10.710 -0.2386  0.2861 -1.0758
  746TMC3    C711031   4.319   0.872  10.935 -0.3083  0.2596  0.8261
  746TMC3    C811032   4.583   0.953  10.563 -1.0203 -0.5670  0.9301
  746TMC3    O111033   4.249   0.840  10.838 -0.0935 -0.1274  0.4471
  746TMC3    O211034   4.505   0.893  10.499  0.3619  0.1340  0.2328
  747TMC3    C111035   2.208   0.855  11.134 -0.1512 -0.2708 -0.0201
  747TMC3    C211036   2.086   0.856  11.203 -0.5529 -0.0864  0.6397
  747TMC3    C311037   2.063   0.951  11.298 -0.1639 -0.0401 -0.1447
  747TMC3    C411038   2.303   0.952  11.158 -0.4540  0.3466 -0.1950
  747TMC3    C511039   2.284   1.041  11.261  0.1979  1.0255 -0.0305
  747TMC3    C611040   2.164   1.038  11.335 -0.0746 -0.1795 -0.0837
  747TMC3     C11041   2.250   0.747  11.047 -0.0831 -0.4843  0.1318
  747TMC3     O11042   2.369   0.739  11.022 -0.5381 -0.4823  0.6013
  747TMC3     H11043   2.009   0.782  11.181 -0.0841 -0.8129  1.4689
  747TMC3    H111044   2.400   0.945  11.111  0.7541  2.2873  2.0047
  747TMC3    H211045   2.150   1.105  11.419 -0.2857 -0.2609 -0.0534
  747TMC3    C711046   2.378   1.151  11.270 -0.0708  0.5101 -0.2527
  747TMC3    C811047   1.931   0.940  11.375 -1.5201 -0.1084  0.0001
  747TMC3    O111048   2.373   1.219  11.370 -0.0526 -0.5309  0.4511
  747TMC3    O211049   1.853   0.854  11.333 -0.3847 -0.6533  0.3308
  748MPD2     C11050   3.534   3.275   1.526 -0.3326 -0.1317 -0.5429
  748MPD2    C111051   3.572   3.170   1.448 -0.5375  0.0465 -0.0017
  748MPD2    C211052   3.697   3.110   1.471  0.0669 -0.8286 -0.9942
  748MPD2    C311053   3.782   3.136   1.578 -0.8195 -0.4931 -0.1812
  748MPD2    C411054   3.735   3.234   1.664  0.0432  0.0005  0.1917
  748MPD2    C511055   3.619   3.302   1.637 -0.9517 -0.2758 -0.1129
  748MPD2     H11056   3.730   3.031   1.404  0.5742 -0.0556 -1.6606
  748MPD2    H111057   3.789   3.270   1.751 -0.4766  0.3147  0.3867
  748MPD2    H211058   3.444   3.331   1.505 -0.8078 -0.3958  0.8092
  748MPD2    H311059   3.600   3.394   1.691 -1.8850  0.0641 -1.0160
  748MPD2     N11060   3.909   3.076   1.593  0.1480 -0.9624 -0.2981
  748MPD2    H511061   3.939   3.011   1.521 -0.4945 -1.3562 -0.2178
  748MPD2    N111062   3.488   3.125   1.339  0.0409 -0.1603  0.1709
  748MPD2    H711063   3.395   3.165   1.339 -0.3151 -0.9863 -2.0493
  749TMC3    C111064   4.111   3.007   1.682  0.5283 -0.4952  0.3049
  749TMC3    C211065   4.148   2.901   1.757 -0.7590  1.5630 -0.1079
  749TMC3    C311066   4.239   2.820   1.699 -0.8051 -0.8322  0.2623
  749TMC3    C411067   4.151   3.034   1.561 -0.3716  0.1376 -0.1428
  749TMC3    C511068   4.238   2.941   1.498  0.2126  0.9156 -0.3226
  749TMC3    C611069   4.286   2.834   1.567 -0.2773 -0.5236 -0.6883
  749TMC3     C11070   3.985   3.073   1.709 -0.2108  0.1642  0.0535
  749TMC3     O11071   3.951   3.087   1.825 -0.4727 -0.4847 -0.1109
  749TMC3     H11072   4.113   2.896   1.860  1.4144  1.3936  0.6193
  749TMC3    H111073   4.116   3.125   1.515 -0.5882  0.1941  0.1366
  749TMC3    H211074   4.354   2.767   1.516  0.6843 -0.4722  0.5254
  749TMC3    C711075   4.260   2.956   1.357 -0.5622 -0.0240  0.1230
  749TMC3    C811076   4.316   2.744   1.788  0.4755  0.0405 -0.1625
  749TMC3    O111077   4.248   3.068   1.315  0.4179  0.3317 -0.0626
  749TMC3    O211078   4.319   2.774   1.907 -0.0758 -0.0488 -0.4669
  750MPD2     C11079   0.003   3.151  11.213  0.3604  0.3077 -0.6290
  750MPD2    C111080   4.594   3.135  11.179  0.6911  0.3301 -0.2916
  750MPD2    C211081   4.549   3.033  11.097  0.6246 -0.1444 -0.4840
  750MPD2    C311082   4.644   2.935  11.055  0.3776 -0.0828  0.3966
  750MPD2    C411083   0.047   2.953  11.093  0.7124  0.0002  0.1243
  750MPD2    C511084   0.096   3.055  11.168 -0.4522  0.3597 -0.2701
  750MPD2     H11085   4.443   3.030  11.075  0.8110  1.2576 -1.5688
  750MPD2    H111086   0.107   2.868  11.062  1.2010  0.5129 -0.3443
  750MPD2    H211087   0.033   3.232  11.278  0.7680 -0.1007 -0.3056
  750MPD2    H311088   0.200   3.056  11.196 -0.3860 -2.2719 -0.4965
  750MPD2     N11089   4.610   2.827  10.966  0.5058 -0.0012  0.0101
  750MPD2    H511090   4.690   2.769  10.944  0.7460  0.1236  0.5415
  750MPD2    N111091   4.510   3.243  11.224 -0.2586  0.5697  0.3435
  750MPD2    H711092   4.556   3.331  11.244 -1.3998  0.8864  1.5586
  751TMC3    C111093   4.462   2.676  10.850 -1.1068  0.8349 -0.0307
  751TMC3    C211094   4.335   2.631  10.845 -0.3400  0.0928 -0.1311
  751TMC3    C311095   4.302   2.548  10.747  0.3217  0.7054 -0.7102
  751TMC3    C411096   4.552   2.642  10.751  0.2533  0.5063  1.0023
  751TMC3    C511097   4.510   2.547  10.660 -0.1823 -0.3132  0.0896
  751TMC3    C611098   4.385   2.501  10.653 -0.2787  0.0140 -0.1991
  751TMC3     C11099   4.484   2.800  10.927 -0.7145 -0.1957 -0.9860
  751TMC3     O11100   4.384   2.856  10.961  0.1746 -0.1875  0.3353
  751TMC3     H11101   4.258   2.669  10.911 -1.5476 -1.5411 -0.6050
  751TMC3    H111102   4.651   2.686  10.751  0.7782 -0.6970 -1.3456
  751TMC3    H211103   4.350   2.420  10.591  0.6940 -1.1197  0.7155
  751TMC3    C711104   4.620   2.488  10.583 -0.6649  0.9164  0.4675
  751TMC3    C811105   4.192   2.461  10.764  0.2202 -0.4636  0.5402
  751TMC3    O111106   0.014   2.527  10.594 -0.3252 -0.2526  0.4048
  751TMC3    O211107   4.152   2.419  10.654  0.1860 -0.2100  0.1446
  752TMC3    C111108   3.940   3.282  16.940 -0.6270 -0.2739  0.2684
  752TMC3    C211109   3.963   3.415  16.953 -0.0970  0.4755 -0.1014
  752TMC3    C311110   4.051   3.463  17.046 -0.2311 -0.9642  0.3040
  752TMC3    C411111   4.007   3.197  17.019 -0.3997 -0.2480 -0.5182
  752TMC3    C511112   4.085   3.244  17.119 -0.1368 -0.0871  0.0130
  752TMC3    C611113   4.105   3.380  17.133  0.0705  0.5648 -0.2787
  752TMC3     C11114   3.900   3.234  16.806 -0.3540  0.6286 -0.4096
  752TMC3     O11115   3.970   3.150  16.756 -0.3484  0.6699 -0.4203
  752TMC3     H11116   3.925   3.486  16.880 -1.8937  1.5390  1.8660
  752TMC3    H111117   3.983   3.092  17.008  0.9181 -0.4156 -1.7127
  752TMC3    H211118   4.177   3.423  17.202  0.8663  1.9739 -1.9733
  752TMC3    C711119   4.173   3.161  17.204  0.4549 -0.5101 -0.3244
  752TMC3    C811120   4.054   3.607  17.067 -0.0702 -0.4906  0.3611
  752TMC3    O111121   4.225   3.211  17.300 -0.4319 -0.1403 -0.1417
  752TMC3    O211122   3.975   3.671  16.997  0.4164  0.8464 -0.0948
  753TMC3    C111123   0.764   4.115  13.505  0.0336  0.7945  0.8921
  753TMC3    C211124   0.829   4.076  13.624 -0.2028  0.1768  0.2399
  753TMC3    C311125   0.844   3.945  13.639  0.2037  0.5685 -0.0282
  753TMC3    C411126   0.725   4.020  13.413 -0.8351  0.9904 -0.4790
  753TMC3    C511127   0.732   3.889  13.446  0.0175 -0.6007  0.9539
  753TMC3    C611128   0.795   3.852  13.558 -0.1539 -0.4191  0.6934
  753TMC3     C11129   0.751   4.256  13.481 -0.5893  0.8520  0.2289
  753TMC3     O11130   0.795   4.331  13.566 -0.3691 -0.0006  0.3694
  753TMC3     H11131   0.859   4.156  13.691 -0.9633 -0.3095  1.1720
  753TMC3    H111132   0.667   4.056  13.329  0.3851  2.5717 -0.6537
  753TMC3    H211133   0.836   3.753  13.570  0.6957 -0.1112  0.3581
  753TMC3    C711134   0.678   3.788  13.365 -0.2342  0.4351  0.7441
  753TMC3    C811135   0.925   3.893  13.754  0.5531  0.4519  1.2344
  753TMC3    O111136   0.670   3.818  13.248 -0.2516  0.1337 -0.3615
  753TMC3    O211137   0.900   3.781  13.792 -0.4444 -0.0720  0.1443
  754MPD2     C11138   3.626   2.648  12.537  0.4289  0.3047 -0.0557
  754MPD2    C111139   3.638   2.510  12.562 -0.2503 -0.3011  0.4280
  754MPD2    C211140   3.533   2.448  12.614 -0.3603 -0.4624  0.9201
  754MPD2    C311141   3.420   2.517  12.657 -0.1934 -0.4541 -1.0778
  754MPD2    C411142   3.410   2.652  12.638 -0.4293 -0.0328  0.5155
  754MPD2    C511143   3.516   2.716  12.574  0.2473  0.0160 -0.3393
  754MPD2     H11144   3.535   2.340  12.622  2.4466 -0.5074 -0.4292
  754MPD2    H111145   3.322   2.705  12.674  0.0096  1.7380 -1.0251
  754MPD2    H211146   3.698   2.705  12.478  0.7715 -2.2766 -2.1201
  754MPD2    H311147   3.514   2.824  12.564 -0.9804  0.1909  2.0730
  754MPD2     N11148   3.316   2.457  12.726  0.1554  0.0217  0.4430
  754MPD2    H511149   3.238   2.520  12.742  0.9502  0.7828  1.2889
  754MPD2    N111150   3.750   2.436  12.521 -0.3721  0.2028 -0.3575
  754MPD2    H711151   3.830   2.490  12.488  1.1013 -0.5601  1.9342
  755MPD2     C11152   3.648   2.593  13.503 -0.1727  0.8896  0.7326
  755MPD2    C111153   3.519   2.642  13.493  0.9987 -0.3495  0.0619
  755MPD2    C211154   3.422   2.565  13.424  0.2530  0.4558 -0.6850
  755MPD2    C311155   3.449   2.446  13.364  0.6943  0.5774  0.5270
  755MPD2    C411156   3.574   2.396  13.386 -0.0496 -0.4488  0.2791
  755MPD2    C511157   3.669   2.467  13.452 -0.2510  0.5573 -0.1553
  755MPD2     H11158   3.327   2.614  13.403 -0.6045 -1.3032 -0.8805
  755MPD2    H111159   3.599   2.295  13.354 -0.0549 -0.3518 -0.0312
  755MPD2    H211160   3.719   2.633  13.575 -0.5886  2.1047  0.4744
  755MPD2    H311161   3.766   2.419  13.465 -0.1896  0.5318 -0.7327
  755MPD2     N11162   3.358   2.373  13.286 -0.0776 -0.4188 -0.6145
  755MPD2    H511163   3.391   2.282  13.254 -2.0157 -0.9707 -1.0626
  755MPD2    N111164   3.470   2.754  13.562  0.0427 -0.0374 -0.4727
  755MPD2    H711165   3.370   2.766  13.554  0.4189  3.7439  0.4886
  756MPD2     C11166   4.161   3.505   9.313  0.2601  0.1574 -0.2803
  756MPD2    C111167   4.106   3.440   9.425 -0.6444  0.5376  0.2070
  756MPD2    C211168   3.995   3.364   9.418 -0.8516 -0.4140 -0.8697
  756MPD2    C311169   3.945   3.337   9.287 -0.7055  0.4561  0.7556
  756MPD2    C411170   4.004   3.402   9.177  0.2405 -0.1918 -0.2554
  756MPD2    C511171   4.107   3.493   9.190  0.1676 -0.3190  0.5868
  756MPD2     H11172   3.962   3.312   9.507  0.3198 -0.8449 -0.6895
  756MPD2    H111173   3.978   3.383   9.073 -0.4838 -1.5882  0.1730
  756MPD2    H211174   4.255   3.560   9.317  0.6411 -0.6868  2.4133
  756MPD2    H311175   4.159   3.534   9.104  0.9307  0.0597  1.2271
  756MPD2     N11176   3.853   3.240   9.256 -0.0883 -0.3099 -0.1944
  756MPD2    H511177   3.854   3.216   9.158 -0.0183  1.1247 -0.5506
  756MPD2    N111178   4.172   3.444   9.551 -0.2057 -1.0630 -0.5764
  756MPD2    H711179   4.123   3.395   9.626  1.1794  0.7511  1.5085
  757MPD2     C11180   3.855   2.180   9.338 -0.2990  0.6268 -0.4628
  757MPD2    C111181   3.796   2.215   9.224 -0.0925 -0.8384 -0.8165
  757MPD2    C211182   3.743   2.345   9.200 -0.2970 -0.1542  0.2467
  757MPD2    C311183   3.766   2.441   9.294 -0.2070  0.4469 -0.7960
  757MPD2    C411184   3.833   2.400   9.406  0.8309  0.1010 -0.3591
  757MPD2    C511185   3.867   2.268   9.438  0.4816  0.5756 -0.1148
  757MPD2     H11186   3.692   2.378   9.110 -1.2462 -0.9670  0.4854
  757MPD2    H111187   3.867   2.470   9.482  1.7843 -1.5699  0.7488
  757MPD2    H211188   3.883   2.076   9.345 -2.0135  0.1241 -1.0763
  757MPD2    H311189   3.923   2.243   9.527  0.1813  0.8392  0.1515
  757MPD2     N11190   3.722   2.575   9.271  0.4892 -0.2239  0.1731
  757MPD2    H511191   3.684   2.594   9.179  1.2028  0.1562 -0.0459
  757MPD2    N111192   3.794   2.112   9.115  0.1893  0.1590 -0.3142
  757MPD2    H711193   3.847   2.028   9.133  0.5815 -0.0295 -2.3651
  758MPD2     C11194   4.085   2.021  16.233 -0.0360 -0.5173 -0.1743
  758MPD2    C111195   4.198   2.073  16.297  0.5754  0.2535 -0.6200
  758MPD2    C211196   4.192   2.192  16.372  0.2724 -0.3208  0.6944
  758MPD2    C311197   4.076   2.260  16.378  0.2609 -0.3133 -0.1763
  758MPD2    C411198   3.974   2.212  16.307  0.3189  0.0413 -0.8233
  758MPD2    C511199   3.970   2.091  16.242  0.0833  0.0816 -0.1536
  758MPD2     H11200   4.282   2.230  16.417  1.2562  3.1309 -4.1242
  758MPD2    H111201   3.878   2.263  16.306 -0.7073 -1.7672  2.3059
  758MPD2    H211202   4.087   1.923  16.188 -4.9558 -0.8564  0.2918
  758MPD2    H311203   3.882   2.053  16.190  0.2679  0.0288 -0.4266
  758MPD2     N11204   4.057   2.380  16.456 -0.2347  0.0853  0.2289
  758MPD2    H511205   3.982   2.441  16.426 -0.3628  1.2204  2.8346
  758MPD2    N111206   4.318   1.997  16.270 -0.3860 -0.2104 -0.2328
  758MPD2    H711207   4.306   1.908  16.222 -0.6770 -0.9553  1.2052
  759MPD2     C11208   2.690   0.936  10.400  0.6351 -0.3471 -0.1831
  759MPD2    C111209   2.746   0.815  10.377 -0.0103  0.3795  0.2038
  759MPD2    C211210   2.878   0.805  10.353 -0.2852  0.8034 -0.4766
  759MPD2    C311211   2.960   0.912  10.356  0.0830 -1.1058  0.6266
  759MPD2    C411212   2.908   1.038  10.388 -0.8350  0.7660 -0.0904
  759MPD2    C511213   2.773   1.041  10.405 -0.0788 -0.2403  0.1529
  759MPD2     H11214   2.922   0.707  10.336  1.8697  1.8783 -1.0467
  759MPD2    H111215   2.968   1.128  10.388 -0.9911  0.8699 -0.4378
  759MPD2    H211216   2.583   0.954  10.402  0.6172 -0.5043  0.4275
  759MPD2    H311217   2.730   1.140  10.410  0.4575 -0.0523  1.0890
  759MPD2     N11218   3.100   0.891  10.340  0.1634  0.1020 -0.3224
  759MPD2    H511219   3.134   0.797  10.323 -1.6627 -0.7801  0.9328
  759MPD2    N111220   2.669   0.697  10.380  0.2611  0.2505  0.5424
  759MPD2    H711221   2.719   0.609  10.384  1.1487  0.7049 -1.0075
  760MPD2     C11222   2.601   2.624  11.760  0.3335 -0.0417 -0.1005
  760MPD2    C111223   2.730   2.660  11.805 -0.0291  0.0392  0.0714
  760MPD2    C211224   2.779   2.581  11.900  1.0732  0.9576  0.0922
  760MPD2    C311225   2.713   2.467  11.949  0.3482 -0.2356 -0.9723
  760MPD2    C411226   2.585   2.439  11.907  0.4410 -0.6558 -0.3138
  760MPD2    C511227   2.531   2.518  11.817 -0.2613 -0.5070 -0.1784
  760MPD2     H11228   2.876   2.612  11.935  1.2277  1.1750 -0.5327
  760MPD2    H111229   2.537   2.346  11.934  1.1179 -0.9747 -0.2013
  760MPD2    H211230   2.546   2.687  11.691 -1.4540 -0.1076  1.2994
  760MPD2    H311231   2.434   2.489  11.778  0.2782 -4.1345  1.1777
  760MPD2     N11232   2.777   2.365  12.019 -0.5030  0.1256  0.3406
  760MPD2    H511233   2.719   2.285  12.039  0.7708 -0.9645 -0.2822
  760MPD2    N111234   2.800   2.772  11.766 -0.2380 -1.3856 -0.5094
  760MPD2    H711235   2.882   2.791  11.822 -1.2903 -0.4259  0.7242
  761MPD2     C11236   3.863   2.178  11.056  0.1834 -0.0141 -0.3009
  761MPD2    C111237   3.893   2.171  10.920  0.0919  0.3730 -0.0226
  761MPD2    C211238   3.976   2.266  10.866 -0.0751 -0.5960  0.2412
  761MPD2    C311239   4.042   2.369  10.940 -0.2055 -0.0357  0.1653
  761MPD2    C411240   4.008   2.372  11.070 -0.2285 -0.4194  0.3086
  761MPD2    C511241   3.922   2.282  11.122 -0.9347  0.3371 -1.0742
  761MPD2     H11242   4.003   2.250  10.762  0.0500 -0.7986  0.3044
  761MPD2    H111243   4.048   2.442  11.142  0.6191 -0.8805  0.2945
  761MPD2    H211244   3.781   2.118  11.093  0.5262  0.0197  0.5010
  761MPD2    H311245   3.895   2.295  11.226  0.5495 -0.3367 -0.6099
  761MPD2     N11246   4.149   2.446  10.897 -0.2399  0.1123  0.7096
  761MPD2    H511247   4.193   2.504  10.967  1.0466  0.1681 -0.1493
  761MPD2    N111248   3.831   2.067  10.850  0.5273 -0.3694  0.0087
  761MPD2    H711249   3.789   1.994  10.908 -0.2243  0.6141  0.6937
  762MPD2     C11250   4.262   2.078  10.650  0.2186  0.8348 -0.3081
  762MPD2    C111251   4.263   1.952  10.612 -0.5378  0.7379  0.3097
  762MPD2    C211252   4.376   1.880  10.588 -0.0081 -0.2825  0.4756
  762MPD2    C311253   4.496   1.940  10.602 -0.6579  0.6095 -0.7891
  762MPD2    C411254   4.502   2.071  10.649 -0.2127  0.0334 -0.2905
  762MPD2    C511255   4.386   2.135  10.677 -0.0984 -0.2924  0.0609
  762MPD2     H11256   4.368   1.787  10.532  0.7228 -0.1998  0.2358
  762MPD2    H111257   4.590   2.133  10.665  0.6346 -0.7162 -2.0691
  762MPD2    H211258   4.170   2.135  10.659 -0.8598 -0.6967 -1.7782
  762MPD2    H311259   4.395   2.236  10.715  0.8946 -0.4144  0.1367
  762MPD2     N11260   4.605   1.871  10.551 -0.0226 -0.5332  0.4078
  762MPD2    H511261   4.588   1.773  10.528 -0.7091 -0.3212  0.0312
  762MPD2    N111262   4.135   1.897  10.595  0.1312 -0.1884  0.2609
  762MPD2    H711263   4.056   1.952  10.627 -0.8043 -0.4283 -1.6255
  763MPD2     C11264   1.170   2.756  16.174  0.1816  0.1440 -0.2029
  763MPD2    C111265   1.287   2.797  16.117  0.4221  1.0192  0.2495
  763MPD2    C211266   1.349   2.912  16.162  0.2468  0.6925  0.3729
  763MPD2    C311267   1.302   2.983  16.273 -0.2426 -0.5182  0.6342
  763MPD2    C411268   1.187   2.938  16.331  0.4845  0.1413 -0.2325
  763MPD2    C511269   1.127   2.829  16.281 -0.7220 -0.0250  0.1571
  763MPD2     H11270   1.439   2.949  16.114 -0.1216  1.8850  0.5861
  763MPD2    H111271   1.151   2.986  16.422  1.2180  3.1414 -1.5014
  763MPD2    H211272   1.109   2.671  16.146  0.5581 -0.3241  0.4022
  763MPD2    H311273   1.030   2.809  16.323 -1.1055 -0.5160 -0.9663
  763MPD2     N11274   1.381   3.103  16.318 -0.0060 -0.2749  0.9450
  763MPD2    H511275   1.460   3.135  16.263  0.2175 -0.6942  1.0215
  763MPD2    N111276   1.353   2.722  16.015  0.1431  0.5022  0.5151
  763MPD2    H711277   1.434   2.763  15.971  0.6269 -1.3199 -0.3177
  764MPD2     C11278   4.287   0.413  17.543 -0.3498  0.6702 -0.8090
  764MPD2    C111279   4.297   0.279  17.535  0.1179  0.4586  0.0928
  764MPD2    C211280   4.411   0.215  17.586 -0.5269  0.1148  0.1724
  764MPD2    C311281   4.491   0.281  17.683  0.3700  0.2469 -0.4502
  764MPD2    C411282   4.474   0.417   0.003  0.4951  0.2445  0.2199
  764MPD2    C511283   4.375   0.481  17.624  0.2516 -0.6326  0.2079
  764MPD2     H11284   4.424   0.107  17.578 -0.1067  0.1439  0.4504
  764MPD2    H111285   4.525   0.468   0.084  0.8813  1.1079 -0.5706
  764MPD2    H211286   4.202   0.461  17.494 -1.8656 -1.5088 -0.2972
  764MPD2    H311287   4.353   0.587  17.631  0.0961 -0.8210  2.5871
  764MPD2     N11288   4.588   0.208   0.063 -0.4936  0.0336 -0.1024
  764MPD2    H511289   4.573   0.107   0.067  1.3391 -0.3061 -1.4086
  764MPD2    N111290   4.194   0.201  17.476  0.1205  0.1363 -0.2032
  764MPD2    H711291   4.220   0.109  17.442 -0.3372  0.5964 -1.7896
  765MPD2     C11292   3.225   1.926  16.122 -0.4938  0.1576  0.2105
  765MPD2    C111293   3.308   2.008  16.042 -0.0397  0.1907 -0.3255
  765MPD2    C211294   3.442   1.972  16.032  0.0180  0.2511 -0.4427
  765MPD2    C311295   3.493   1.859  16.086 -0.7675 -0.0007 -1.0548
  765MPD2    C411296   3.412   1.781  16.168  0.1032 -0.6143 -0.4940
  765MPD2    C511297   3.278   1.814  16.187 -0.0844  0.7549  0.4641
  765MPD2     H11298   3.506   2.038  15.975  2.3200 -2.8990 -1.5354
  765MPD2    H111299   3.447   1.699  16.230 -0.7016 -1.4479 -1.1448
  765MPD2    H211300   3.120   1.944  16.143 -1.1828 -3.1164 -0.4506
  765MPD2    H311301   3.217   1.765  16.262 -0.1419 -1.7871 -1.2473
  765MPD2     N11302   3.632   1.830  16.057 -0.0473  0.0467 -0.6303
  765MPD2    H511303   3.677   1.889  15.988  0.2336 -0.8474 -1.2117
  765MPD2    N111304   3.246   2.125  15.988 -0.6190 -0.5667 -0.5891
  765MPD2    H711305   3.145   2.130  15.986 -0.6424  0.3317  3.7732
  766MPD2     C11306   3.022   1.923  15.414 -1.1614 -0.7035  0.5031
  766MPD2    C111307   3.101   2.030  15.435  0.1426  0.4678  0.3883
  766MPD2    C211308   3.221   2.040  15.362 -0.0081 -0.4956  0.1836
  766MPD2    C311309   3.265   1.945  15.269 -0.0973  0.2311  0.0608
  766MPD2    C411310   3.181   1.841  15.249 -0.4344 -0.7157  0.4737
  766MPD2    C511311   3.066   1.830  15.323 -0.0724  0.0620 -0.5112
  766MPD2     H11312   3.294   2.118  15.377  0.7741 -1.4999  1.6067
  766MPD2    H111313   3.216   1.764  15.181  2.0853  0.9884 -0.1863
  766MPD2    H211314   2.926   1.910  15.463 -1.0784 -0.9211  0.6092
  766MPD2    H311315   3.008   1.739  15.312  0.8375 -0.4196 -1.3983
  766MPD2     N11316   3.381   1.955  15.187  0.0265  0.6409  0.3862
  766MPD2    H511317   3.393   1.877  15.123 -0.4300 -0.2430  1.3712
  766MPD2    N111318   3.081   2.123  15.538 -0.3488 -0.8044  0.0805
  766MPD2    H711319   3.009   2.106  15.608  2.6612 -0.8316  3.1942
  767MPD2     C11320   3.041   2.178  15.118  0.5004  0.4820  0.2355
  767MPD2    C111321   3.166   2.223  15.067  0.5882 -0.4133  0.3333
  767MPD2    C211322   3.210   2.182  14.936  0.1426 -0.0544 -0.2429
  767MPD2    C311323   3.119   2.112  14.859 -0.0916  0.4399  0.5143
  767MPD2    C411324   2.994   2.065  14.905  0.0379 -0.5995 -0.0892
  767MPD2    C511325   2.964   2.107  15.032 -0.4261 -1.0141  0.3486
  767MPD2     H11326   3.306   2.204  14.891  0.6927  0.6523  1.3158
  767MPD2    H111327   2.923   2.012  14.843 -0.2988 -0.4491  0.1653
  767MPD2    H211328   2.995   2.198  15.214 -0.1024 -0.9208  0.2398
  767MPD2    H311329   2.872   2.081  15.084  0.3904 -0.8929  1.8523
  767MPD2     N11330   3.152   2.079  14.722 -0.3834 -0.1702 -0.1137
  767MPD2    H511331   3.245   2.106  14.691  0.1014  0.8877  2.2243
  767MPD2    N111332   3.236   2.316  15.146  0.0432  0.1431  0.3510
  767MPD2    H711333   3.198   2.332  15.239  1.3298  0.4068  0.8209
  768MPD2     C11334   4.267   0.501  10.547 -0.1544  0.1028  0.1560
  768MPD2    C111335   4.239   0.462  10.673 -0.5682  0.5030  0.3752
  768MPD2    C211336   4.344   0.474  10.759 -0.1995  0.3448  0.5176
  768MPD2    C311337   4.466   0.525  10.731  0.0449 -0.2359  0.4452
  768MPD2    C411338   4.498   0.554  10.605  0.0730 -0.4070  1.4579
  768MPD2    C511339   4.393   0.540  10.514  0.3896 -0.6373  0.0084
  768MPD2     H11340   4.314   0.452  10.861 -1.5821  1.0317  0.2668
  768MPD2    H111341   4.594   0.592  10.572 -0.8161  1.9548  1.5509
  768MPD2    H211342   4.198   0.503  10.463  0.4075 -1.0009 -0.3286
  768MPD2    H311343   4.402   0.594  10.420 -0.0491 -0.4507  0.0741
  768MPD2     N11344   4.569   0.547  10.822 -0.3979 -0.3477 -0.6776
  768MPD2    H511345   4.658   0.580  10.787  0.1321  2.0162  2.9565
  768MPD2    N111346   4.117   0.414  10.708 -0.2028 -0.0683  0.4682
  768MPD2    H711347   4.112   0.414  10.809  1.7394 -0.9477  0.5729
  769MPD2     C11348   0.685   3.369  14.710 -0.1950  0.0432  0.2174
  769MPD2    C111349   0.580   3.385  14.796  0.2073 -0.1463  0.7485
  769MPD2    C211350   0.601   3.426  14.921 -0.3833 -0.7443  0.0626
  769MPD2    C311351   0.728   3.473  14.966 -0.0024 -0.0392 -0.0808
  769MPD2    C411352   0.838   3.440  14.878  1.0558 -0.6037 -0.1915
  769MPD2    C511353   0.817   3.397  14.751  0.4246  0.8067  0.7649
  769MPD2     H11354   0.522   3.443  14.993  1.2695 -0.7410  1.8818
  769MPD2    H111355   0.940   3.451  14.914  0.6698  3.0628 -0.2768
  769MPD2    H211356   0.678   3.334  14.608  2.9571  0.5977 -0.1835
  769MPD2    H311357   0.895   3.393  14.676  2.5588  1.6692  2.9333
  769MPD2     N11358   0.739   3.515  15.101 -0.6187  0.5964 -1.2230
  769MPD2    H511359   0.650   3.533  15.148 -0.8718 -2.0788 -0.7022
  769MPD2    N111360   0.450   3.353  14.748 -0.1477 -0.1132  1.3295
  769MPD2    H711361   0.374   3.371  14.812  0.7723 -0.8090  2.6119
  770MPD2     C11362   4.401   3.013  15.204 -0.2541 -0.0527 -0.5783
  770MPD2    C111363   4.467   2.907  15.142  0.5526  0.1010  0.7122
  770MPD2    C211364   4.553   2.939  15.035 -0.0846  0.6623 -0.1014
  770MPD2    C311365   4.562   3.069  14.987  0.5409 -0.2744  0.2666
  770MPD2    C411366   4.496   3.172  15.053  1.0620 -0.9042  0.5324
  770MPD2    C511367   4.431   3.143  15.167  0.0149 -0.2317 -0.1781
  770MPD2     H11368   4.604   2.865  14.973  0.4389  2.7838 -2.1870
  770MPD2    H111369   4.514   3.272  15.016  1.8457 -1.7354 -1.3555
  770MPD2    H211370   4.341   2.996  15.293  1.2259  1.4004  0.6820
  770MPD2    H311371   4.400   3.222  15.234 -1.0534 -0.9877  0.2314
  770MPD2     N11372   4.655   3.103  14.886 -0.1747  0.3333 -0.2598
  770MPD2    H511373   4.679   3.025  14.825  1.8075 -0.8022  2.0018
  770MPD2    N111374   4.449   2.778  15.190  0.6310  0.6413  0.1188
  770MPD2    H711375   4.389   2.773  15.271 -0.2783 -1.4132 -0.6786
  771MPD2     C11376   1.006   1.353  13.051  0.0558 -0.3925 -0.1138
  771MPD2    C111377   1.067   1.290  13.164  0.4799  0.3691  0.4065
  771MPD2    C211378   1.160   1.191  13.143 -0.1721 -0.6500  0.2287
  771MPD2    C311379   1.186   1.138  13.017 -0.7177 -0.8917 -0.2952
  771MPD2    C411380   1.109   1.186  12.914 -0.1198  0.0574 -0.2176
  771MPD2    C511381   1.024   1.290  12.926 -0.1706  0.0514  0.5029
  771MPD2     H11382   1.207   1.155  13.234 -2.2494 -0.3361  1.4214
  771MPD2    H111383   1.111   1.140  12.816 -1.2014  1.3087 -0.8273
  771MPD2    H211384   0.937   1.436  13.056  0.6669  0.0707  0.7136
  771MPD2    H311385   0.976   1.333  12.839 -0.3949 -1.8270 -0.3019
  771MPD2     N11386   1.285   1.036  13.009  0.4537 -0.9040  0.7454
  771MPD2    H511387   1.325   1.016  13.100  0.4984 -0.9581  0.7142
  771MPD2    N111388   1.058   1.330  13.294  0.2668  0.0154  0.1050
  771MPD2    H711389   1.113   1.282  13.365  1.4620 -0.0808 -0.8886
  772MPD2     C11390   0.551   1.694  13.896  0.7736 -0.0540  0.5340
  772MPD2    C111391   0.573   1.586  13.811  0.2937  0.7910  0.5814
  772MPD2    C211392   0.470   1.496  13.790 -0.3653  0.2547 -0.7137
  772MPD2    C311393   0.340   1.522  13.833 -0.5996 -0.0344 -0.2543
  772MPD2    C411394   0.320   1.644  13.908 -0.3399  0.8792 -0.5112
  772MPD2    C511395   0.428   1.723  13.944  0.5313 -0.0265  0.5673
  772MPD2     H11396   0.486   1.405  13.732 -0.1262  0.9705 -1.7754
  772MPD2    H111397   0.223   1.671  13.948  0.0420 -1.2444  1.8454
  772MPD2    H211398   0.628   1.769  13.915  1.5206 -0.8816  0.7558
  772MPD2    H311399   0.414   1.808  14.010 -1.8005 -0.0871  0.1587
  772MPD2     N11400   0.230   1.445  13.794 -0.0285 -0.3516 -0.3603
  772MPD2    H511401   0.138   1.479  13.822 -0.0342 -0.4060 -0.3111
  772MPD2    N111402   0.697   1.550  13.744  0.4403  0.3762 -0.5791
  772MPD2    H711403   0.697   1.463  13.692  1.1314  1.1342 -1.8530
  773MPD2     C11404   0.178   3.391   0.702 -0.1686 -0.3058  0.1744
  773MPD2    C111405   0.121   3.302   0.607 -0.4317 -0.5873  0.3840
  773MPD2    C211406   0.148   3.163   0.619  0.5304 -0.4878  0.2840
  773MPD2    C311407   0.220   3.114   0.731  0.9848 -0.7665 -0.0130
  773MPD2    C411408   0.266   3.199   0.824  0.2967  0.9892  0.6261
  773MPD2    C511409   0.246   3.336   0.810  0.1677  0.1244 -0.5046
  773MPD2     H11410   0.115   3.096   0.541 -0.8409 -2.1739  2.2982
  773MPD2    H111411   0.298   3.163   0.921 -0.2787 -1.5708 -0.1382
  773MPD2    H211412   0.157   3.496   0.716 -0.5023 -0.0105 -2.6656
  773MPD2    H311413   0.272   3.401   0.893 -1.8273 -0.7115  0.7652
  773MPD2     N11414   0.240   2.973   0.738  0.2807 -0.4097  0.8186
  773MPD2    H511415   0.203   2.919   0.661 -0.7286  0.9143  0.3666
  773MPD2    N111416   0.043   3.349   0.497  0.0158  0.0831 -0.1652
  773MPD2    H711417   0.011   3.274   0.437  0.2473 -0.4546  0.3866
  774MPD2     C11418   3.854   1.518  12.932  1.5368 -0.4813  0.2740
  774MPD2    C111419   3.844   1.638  13.003  0.1280 -0.2836 -0.2408
  774MPD2    C211420   3.892   1.756  12.946 -0.5454  0.1078  0.6594
  774MPD2    C311421   3.945   1.759  12.815  0.4036  0.0591 -0.0063
  774MPD2    C411422   3.954   1.636  12.745  0.2633  0.4053  0.2608
  774MPD2    C511423   3.916   1.522  12.808 -0.4672  0.0785  0.3822
  774MPD2     H11424   3.897   1.847  13.006 -0.5784 -1.2242  2.6756
  774MPD2    H111425   3.991   1.625  12.644 -0.0065 -0.2453  0.2298
  774MPD2    H211426   3.823   1.421  12.970 -0.9060  0.9074  1.8334
  774MPD2    H311427   3.937   1.428  12.759 -1.1694  1.2763 -2.2827
  774MPD2     N11428   3.962   1.885  12.760 -0.1048 -0.4691 -0.7870
  774MPD2    H511429   3.937   1.965  12.818  0.7875 -2.4636  2.3240
  774MPD2    N111430   3.783   1.631  13.135  0.5181 -0.1890  0.1972
  774MPD2    H711431   3.774   1.540  13.179  2.7774 -0.1603  0.7331
  775MPD2     C11432   0.685   3.329  15.826  0.1732 -0.1619 -0.5079
  775MPD2    C111433   0.721   3.443  15.891  0.4000  0.1388  0.1186
  775MPD2    C211434   0.855   3.481  15.887  0.1470  0.0827  0.1803
  775MPD2    C311435   0.945   3.429  15.800 -0.1712 -0.0722  0.1497
  775MPD2    C411436   0.907   3.314  15.726 -0.0022  0.6174 -0.5030
  775MPD2    C511437   0.772   3.267  15.741 -0.1938 -0.2408  0.0232
  775MPD2     H11438   0.884   3.569  15.942  2.0134 -0.8737  0.7422
  775MPD2    H111439   0.972   3.271  15.651  0.7124 -1.3647  1.2838
  775MPD2    H211440   0.583   3.293  15.827  0.3009 -0.5061  0.1737
  775MPD2    H311441   0.732   3.191  15.676 -0.7155 -0.3218  0.4408
  775MPD2     N11442   1.070   3.482  15.778  0.3095  0.3300 -0.4308
  775MPD2    H511443   1.119   3.453  15.694 -0.6699 -0.6103 -0.6665
  775MPD2    N111444   0.625   3.505  15.973  0.3442  0.2795  0.1155
  775MPD2    H711445   0.537   3.455  15.973  1.4623 -1.7078 -0.4703
  776MPD2     C11446   0.087   3.643  11.557 -0.0618  0.2196  0.3335
  776MPD2    C111447   4.690   3.708  11.508 -0.3095 -0.4940  0.0256
  776MPD2    C211448   4.685   3.850  11.527  0.2523 -0.0605 -1.0754
  776MPD2    C311449   0.069   3.920  11.584 -0.1234 -0.3091  0.0979
  776MPD2    C411450   0.178   3.853  11.637 -0.6264 -0.6202 -0.5205
  776MPD2    C511451   0.183   3.718  11.622 -0.5821  0.1131  0.6171
  776MPD2     H11452   4.600   3.911  11.499  1.3978  1.8765 -0.3650
  776MPD2    H111453   0.261   3.912  11.675 -0.3793 -1.1829 -0.1812
  776MPD2    H211454   0.095   3.535  11.544 -1.6827  0.1449 -0.0223
  776MPD2    H311455   0.268   3.672  11.672 -1.1659  1.3981  2.7801
  776MPD2     N11456   0.073   4.059  11.601 -0.0261 -0.1988 -0.3393
  776MPD2    H511457   0.153   4.098  11.651  1.3229 -1.3327 -1.6158
  776MPD2    N111458   4.583   3.637  11.457  0.6942 -0.0397  0.3909
  776MPD2    H711459   4.598   3.537  11.449 -3.4868 -0.6146  0.1116
  777MPD2     C11460   4.290   1.765   1.099  0.5461 -0.6661  0.5583
  777MPD2    C111461   4.425   1.737   1.122  0.3262 -0.0935 -0.3113
  777MPD2    C211462   4.484   1.630   1.056  0.6550  0.4027 -0.3190
  777MPD2    C311463   4.417   1.573   0.950 -0.0788  0.4897 -0.2469
  777MPD2    C411464   4.289   1.602   0.925 -0.3412 -0.3808  0.1055
  777MPD2    C511465   4.221   1.680   1.016  0.6528 -0.0390 -0.2688
  777MPD2     H11466   4.585   1.599   1.082 -0.3533 -1.2970  1.5591
  777MPD2    H111467   4.233   1.557   0.845  0.7939  0.4672 -1.1793
  777MPD2    H211468   4.241   1.837   1.163  0.1440 -2.1204  1.9159
  777MPD2    H311469   4.118   1.704   0.995  0.0982 -0.0126  2.4243
  777MPD2     N11470   4.489   1.471   0.890  0.7500 -0.1063 -0.3731
  777MPD2    H511471   4.571   1.446   0.944  0.2516 -0.4780  0.2150
  777MPD2    N111472   4.489   1.807   1.230  0.1682 -0.1462  0.0234
  777MPD2    H711473   4.442   1.881   1.281  0.3574 -0.9789  1.4407
  778MPD2     C11474   1.179   1.226  15.279  0.1034 -1.2036 -0.4460
  778MPD2    C111475   1.076   1.229  15.184 -0.3758  0.4384 -0.5350
  778MPD2    C211476   1.062   1.336  15.108  0.0661 -0.2386 -0.4397
  778MPD2    C311477   1.143   1.445  15.111  0.3840 -0.0043  0.0602
  778MPD2    C411478   1.247   1.447  15.208  0.3006 -0.2975 -0.3221
  778MPD2    C511479   1.273   1.332  15.278 -0.5208  0.2334 -0.4232
  778MPD2     H11480   0.975   1.343  15.044 -0.8382  0.1815  0.8438
  778MPD2    H111481   1.316   1.531  15.216 -0.8636  0.4561  1.8413
  778MPD2    H211482   1.202   1.148  15.350  1.3145 -1.0240 -0.6374
  778MPD2    H311483   1.355   1.323  15.348  0.1236 -0.7545 -1.3172
  778MPD2     N11484   1.107   1.556  15.029  0.1059 -0.0208 -0.7344
  778MPD2    H511485   1.027   1.546  14.967 -0.5648  0.8517 -0.0078
  778MPD2    N111486   0.972   1.133  15.177  0.3993 -0.6827 -0.2147
  778MPD2    H711487   0.896   1.149  15.112  0.1274 -1.8465 -0.1798
  779MPD2     C11488   0.758   0.086  14.491 -0.5223 -0.1509  0.2083
  779MPD2    C111489   0.895   0.110  14.468 -0.2225  0.1422  0.0864
  779MPD2    C211490   0.935   0.235  14.439 -0.1830 -0.4114  0.0124
  779MPD2    C311491   0.843   0.342  14.428  0.5346 -0.2724  0.0125
  779MPD2    C411492   0.710   0.311  14.446 -0.5300 -0.0730 -0.2130
  779MPD2    C511493   0.669   0.184  14.468  0.4442 -0.0194  0.1356
  779MPD2     H11494   1.040   0.261  14.428 -0.1018 -0.9195 -0.4206
  779MPD2    H111495   0.629   0.382  14.443  1.2497  1.9856  0.7392
  779MPD2    H211496   0.714   4.710  14.505  0.4760 -0.5915  0.2625
  779MPD2    H311497   0.563   0.160  14.463  0.2566  0.8188  0.1272
  779MPD2     N11498   0.886   0.473  14.405  0.3286  0.3375 -0.3470
  779MPD2    H511499   0.986   0.486  14.417 -0.1470  1.5492  2.1889
  779MPD2    N111500   0.992   0.008  14.472 -0.0348  0.2799 -0.4007
  779MPD2    H711501   1.082   0.040  14.438  0.1329  0.7571  0.4920
  780MPD2     C11502   1.242   0.613   1.114  0.7669 -0.2822  0.8121
  780MPD2    C111503   1.128   0.674   1.170 -0.0095  0.0966 -0.1442
  780MPD2    C211504   1.020   0.710   1.084 -0.1246 -0.2445 -0.0588
  780MPD2    C311505   1.030   0.661   0.949 -0.0653 -0.3188  0.1576
  780MPD2    C411506   1.148   0.611   0.900  0.3969  0.3879 -0.1549
  780MPD2    C511507   1.254   0.588   0.985  0.2797 -0.3048 -0.0527
  780MPD2     H11508   0.927   0.750   1.123 -0.0199  1.3218 -1.4269
  780MPD2    H111509   1.154   0.584   0.795  5.8904 -3.5751  1.1658
  780MPD2    H211510   1.320   0.581   1.182  1.0378  0.4820  0.8604
  780MPD2    H311511   1.341   0.539   0.944 -1.2025 -2.5203 -0.5058
  780MPD2     N11512   0.920   0.658   0.858 -0.0735  0.1301  0.2101
  780MPD2    H511513   0.936   0.610   0.769 -1.0159  0.8030 -0.3207
  780MPD2    N111514   1.126   0.682   1.312 -0.5218  0.1047 -0.4063
  780MPD2    H711515   1.190   0.634   1.374 -0.4917  0.9174  0.2092
  781MPD2     C11516   2.149   1.575  11.836  0.1635  0.2944  1.1649
  781MPD2    C111517   2.240   1.611  11.933  0.0217 -0.4795  0.1784
  781MPD2    C211518   2.360   1.674  11.895  0.5407 -0.3012 -0.5154
  781MPD2    C311519   2.385   1.704  11.755  0.4286 -0.0988 -0.2356
  781MPD2    C411520   2.289   1.668  11.667  0.6311  0.2729  0.0440
  781MPD2    C511521   2.173   1.608  11.710 -0.5979  0.1751  0.0535
  781MPD2     H11522   2.434   1.691  11.973  0.6367 -0.6822 -0.5258
  781MPD2    H111523   2.288   1.694  11.562  3.0378 -1.1185 -0.3390
  781MPD2    H211524   2.051   1.548  11.874  0.8785 -2.5912  0.9715
  781MPD2    H311525   2.093   1.581  11.642 -0.0147  0.0590 -0.5919
  781MPD2     N11526   2.498   1.767  11.697 -0.3283  0.1717  0.1767
  781MPD2    H511527   2.493   1.800  11.601 -0.1811 -1.5574 -0.4270
  781MPD2    N111528   2.217   1.592  12.071 -0.2214 -0.3658  0.4316
  781MPD2    H711529   2.291   1.631  12.129  0.4400 -2.0744  0.7422
  782MPD2     C11530   0.571   2.775   9.722  0.8347 -0.4008  0.5067
  782MPD2    C111531   0.545   2.743   9.854 -0.2787 -0.4945 -0.0928
  782MPD2    C211532   0.540   2.837   9.960  0.6066 -0.2078 -0.2433
  782MPD2    C311533   0.557   2.975   9.941 -0.3431 -0.1501  0.2975
  782MPD2    C411534   0.562   3.013   9.810 -0.3187 -0.0147 -0.2614
  782MPD2    C511535   0.578   2.915   9.708  0.5609 -0.7804 -0.6170
  782MPD2     H11536   0.536   2.793  10.058 -0.1191 -0.6890 -0.4924
  782MPD2    H111537   0.592   3.115   9.791  1.0265 -0.7808 -2.2431
  782MPD2    H211538   0.592   2.705   9.643 -0.1083 -1.5795  1.3027
  782MPD2    H311539   0.609   2.960   9.614  1.0871  0.9075  0.3659
  782MPD2     N11540   0.570   3.069  10.044 -0.3804  0.0395 -0.0157
  782MPD2    H511541   0.588   3.168  10.029 -2.0060  0.1368 -1.2920
  782MPD2    N111542   0.530   2.606   9.874  0.9030  0.2057 -0.3097
  782MPD2    H711543   0.575   2.545   9.807  1.2965 -0.0121  0.1519
  783MPD2     C11544   4.566   2.208  10.336  0.2461  0.3480 -0.0200
  783MPD2    C111545   4.634   2.307  10.401 -0.2782  0.5583 -0.0512
  783MPD2    C211546   0.050   2.326  10.375  0.7156 -0.0961 -0.0739
  783MPD2    C311547   0.111   2.231  10.297  0.9229  0.0747 -0.2045
  783MPD2    C411548   0.036   2.127  10.242 -0.2354 -0.4513 -0.1839
  783MPD2    C511549   4.627   2.116  10.255  0.0302  0.2001 -0.3433
  783MPD2     H11550   0.106   2.414  10.404 -1.6056  0.8240  1.5734
  783MPD2    H111551   0.090   2.054  10.182  1.0840 -0.8291  1.4632
  783MPD2    H211552   4.462   2.179  10.352  0.7842 -1.1386  0.8056
  783MPD2    H311553   4.572   2.037  10.204  2.1470 -0.4031 -1.7119
  783MPD2     N11554   0.248   2.243  10.261  0.7525  0.1301 -0.0792
  783MPD2    H511555   0.292   2.332  10.279 -0.6547  1.1523 -1.7473
  783MPD2    N111556   4.567   2.389  10.496 -0.1214  0.4103 -0.1186
  783MPD2    H711557   4.466   2.386  10.508  0.0678 -2.1694  0.7694
  784MPD2     C11558   3.007   3.520   1.639 -0.1636  0.5959 -0.2152
  784MPD2    C111559   3.008   3.589   1.516 -0.2058  0.8925 -0.2918
  784MPD2    C211560   2.884   3.611   1.454  0.2457 -0.0462  0.1941
  784MPD2    C311561   2.763   3.571   1.502  0.6683 -0.6482  0.0369
  784MPD2    C411562   2.766   3.515   1.621 -0.2604  0.4086 -0.3375
  784MPD2    C511563   2.884   3.491   1.689  0.3977 -0.6437 -0.4387
  784MPD2     H11564   2.894   3.669   1.363 -4.1458  1.1452  0.4948
  784MPD2    H111565   2.673   3.481   1.666  0.0679  0.6461  0.5211
  784MPD2    H211566   3.090   3.477   1.693 -1.0710  2.1845  2.4534
  784MPD2    H311567   2.876   3.460   1.792  1.1525 -0.0323 -0.1959
  784MPD2     N11568   2.650   3.604   1.426  0.2602  0.2685 -0.4205
  784MPD2    H511569   2.658   3.641   1.332  0.5732 -0.6719 -0.7586
  784MPD2    N111570   3.132   3.628   1.454  0.3495 -0.3636  0.2809
  784MPD2    H711571   3.134   3.698   1.381  1.1289 -0.3339  0.3303
  785MPD2     C11572   2.367   1.548   9.794 -0.0039  0.2050  0.0000
  785MPD2    C111573   2.345   1.432   9.718  0.4611  0.5755 -0.0822
  785MPD2    C211574   2.360   1.313   9.783  0.4552 -0.2260  0.3626
  785MPD2    C311575   2.412   1.301   9.910 -0.0706  0.2161 -0.0911
  785MPD2    C411576   2.454   1.416   9.973  0.6350  0.6913 -0.5647
  785MPD2    C511577   2.423   1.539   9.918  0.5735  0.1529  0.4531
  785MPD2     H11578   2.337   1.219   9.733 -2.0077  0.7106 -0.2285
  785MPD2    H111579   2.499   1.412  10.072  0.4157  0.9230 -0.4566
  785MPD2    H211580   2.344   1.648   9.758  0.8553  1.3246  2.5982
  785MPD2    H311581   2.425   1.630   9.975  1.7166  0.5186 -0.1806
  785MPD2     N11582   2.431   1.173   9.958 -0.2357 -0.2431 -0.6226
  785MPD2    H511583   2.404   1.096   9.898  1.8411 -0.4540 -1.2912
  785MPD2    N111584   2.323   1.419   9.579  0.1397 -0.0781  0.1339
  785MPD2    H711585   2.318   1.326   9.539  1.0206  0.4394 -1.1519
  786MPD2     C11586   1.350   4.209  14.707 -0.0822  0.6723  0.8638
  786MPD2    C111587   1.480   4.165  14.710 -0.3123  0.1495  0.3759
  786MPD2    C211588   1.566   4.210  14.808  0.6934 -0.3328 -0.4586
  786MPD2    C311589   1.517   4.300  14.898  0.0205  0.4399  0.2261
  786MPD2    C411590   1.392   4.339  14.900 -0.0629 -0.0653  0.4492
  786MPD2    C511591   1.300   4.288  14.806  0.6529 -0.4775 -0.4767
  786MPD2     H11592   1.658   4.153  14.815 -1.1704 -3.4966 -1.7385
  786MPD2    H111593   1.357   4.404  14.979  0.7620  0.6551  0.2272
  786MPD2    H211594   1.276   4.178  14.634 -1.9254  3.4762  1.5590
  786MPD2    H311595   1.196   4.322  14.805  0.2464 -1.6969  0.5626
  786MPD2     N11596   1.605   4.358  14.991  0.1418  0.1539  0.2211
  786MPD2    H511597   1.558   4.415  15.060 -2.9437 -2.8860  0.6096
  786MPD2    N111598   1.530   4.088  14.602 -0.0485 -0.0423 -0.9468
  786MPD2    H711599   1.616   4.038  14.622 -1.0488 -0.3500  2.6525
  787MPD2     C11600   1.846   3.654  14.814  0.2332 -0.1627  0.2607
  787MPD2    C111601   1.822   3.605  14.688  0.3649 -0.0758 -0.3992
  787MPD2    C211602   1.888   3.488  14.653 -0.2375 -0.0856  0.6051
  787MPD2    C311603   1.983   3.435  14.734 -0.2601 -0.1563  1.0917
  787MPD2    C411604   2.013   3.499  14.857 -0.4482  0.2732 -0.8218
  787MPD2    C511605   1.940   3.607  14.897  0.4264 -0.1356 -0.1299
  787MPD2     H11606   1.861   3.440  14.559  1.6757 -0.1171  0.0664
  787MPD2    H111607   2.077   3.456  14.933 -0.0943 -1.0047 -1.8404
  787MPD2    H211608   1.785   3.733  14.857 -0.8817 -0.9390  0.0953
  787MPD2    H311609   1.950   3.656  14.993 -3.4649 -3.1543  1.8484
  787MPD2     N11610   2.043   3.309  14.702 -0.1664 -0.5234  0.6223
  787MPD2    H511611   2.015   3.261  14.617 -0.1565  0.7034 -0.0750
  787MPD2    N111612   1.736   3.681  14.605 -0.0331 -0.1176 -0.2838
  787MPD2    H711613   1.710   3.772  14.643  1.8106 -0.4836  1.8951
  788MPD2     C11614   3.539   2.741   0.631  0.1213 -0.0112 -0.6542
  788MPD2    C111615   3.446   2.665   0.565  0.6426 -0.7643  0.2933
  788MPD2    C211616   3.328   2.715   0.515 -0.0782 -0.0183  0.3941
  788MPD2    C311617   3.306   2.852   0.521  0.0233 -0.9736 -0.1392
  788MPD2    C411618   3.399   2.933   0.587  0.2848  0.3743 -0.3016
  788MPD2    C511619   3.518   2.878   0.634 -0.4048 -0.8117  0.2052
  788MPD2     H11620   3.278   2.644   0.450  1.2142 -0.4386 -0.1364
  788MPD2    H111621   3.391   3.040   0.603 -2.4444 -0.1968  2.2549
  788MPD2    H211622   3.632   2.701   0.669  0.0347 -0.3512 -0.7908
  788MPD2    H311623   3.584   2.945   0.688 -1.8424  0.5269  0.2920
  788MPD2     N11624   3.197   2.899   0.447 -0.4782 -0.1635  0.0996
  788MPD2    H511625   3.183   2.999   0.444 -2.3376 -0.3593  2.1183
  788MPD2    N111626   3.461   2.522   0.546 -0.1752 -0.9878  0.9486
  788MPD2    H711627   3.380   2.478   0.504 -1.3160  1.0822  0.9377
  789MPD2     C11628   3.907   1.970  16.667 -0.2582  0.1085 -0.2162
  789MPD2    C111629   3.804   1.892  16.710 -0.7165  0.2044 -0.3232
  789MPD2    C211630   3.686   1.953  16.734 -0.2938 -0.6631 -0.4230
  789MPD2    C311631   3.672   2.094  16.705 -0.0456 -0.0330 -0.5336
  789MPD2    C411632   3.782   2.167  16.663 -0.2760  0.2614 -0.4303
  789MPD2    C511633   3.901   2.104  16.649  0.2648  0.2588 -0.7605
  789MPD2     H11634   3.596   1.899  16.760 -0.2281 -0.2274  0.6873
  789MPD2    H111635   3.790   2.271  16.632 -0.4614 -0.5922 -3.3452
  789MPD2    H211636   4.007   1.930  16.675  0.7772  2.5751 -0.9937
  789MPD2    H311637   3.989   2.163  16.626  1.7307 -2.7476 -2.7866
  789MPD2     N11638   3.551   2.164  16.709 -0.1501  0.4872 -0.5758
  789MPD2    H511639   3.551   2.257  16.668 -1.7466  0.4994 -0.5470
  789MPD2    N111640   3.820   1.749  16.729  0.6078  0.1498 -0.5650
  789MPD2    H711641   3.742   1.704  16.775  0.7038 -0.4337 -0.9714
  790MPD2     C11642   0.088   3.881  13.630  0.2728  0.5044 -0.4334
  790MPD2    C111643   0.128   3.754  13.629 -0.3090  0.1010  0.2537
  790MPD2    C211644   0.095   3.682  13.514  0.0766 -0.3451 -0.6507
  790MPD2    C311645   0.026   3.740  13.407 -0.1127 -0.1571 -0.3464
  790MPD2    C411646   4.709   3.873  13.418 -0.3039  0.6587 -0.4145
  790MPD2    C511647   0.009   3.942  13.534  0.4052  0.4019 -0.4133
  790MPD2     H11648   0.125   3.579  13.503 -0.2820 -0.4671 -0.5006
  790MPD2    H111649   4.667   3.928  13.334  2.6678  2.0114 -1.0131
  790MPD2    H211650   0.121   3.940  13.715  0.4517 -0.2690  0.0300
  790MPD2    H311651   4.713   4.048  13.538  1.9453  0.7303 -2.0928
  790MPD2     N11652   4.721   3.655  13.297 -0.6988  0.5766 -0.1547
  790MPD2    H511653   0.005   3.555  13.312  1.3058  0.7930  0.2701
  790MPD2    N111654   0.189   3.697  13.745  0.2141 -0.8082 -0.4304
  790MPD2    H711655   0.186   3.751  13.830 -1.8295 -2.0752  0.3150
  791MPD2     C11656   4.215   3.040  13.097  0.4227  0.4403  0.2975
  791MPD2    C111657   4.210   3.180  13.092  0.2088  0.5199 -0.6922
  791MPD2    C211658   4.081   3.234  13.082  0.7399  0.1201 -0.0564
  791MPD2    C311659   3.967   3.156  13.094  0.7473  0.2339 -0.7066
  791MPD2    C411660   3.981   3.017  13.099  0.1825 -0.0147 -0.6221
  791MPD2    C511661   4.105   2.954  13.101 -0.4571 -0.0058  0.0411
  791MPD2     H11662   4.066   3.342  13.080  2.2157  0.3186 -0.6419
  791MPD2    H111663   3.896   2.950  13.091 -0.1188 -0.0130  2.2367
  791MPD2    H211664   4.313   2.996  13.103  0.8004  1.4774  1.6565
  791MPD2    H311665   4.121   2.848  13.114 -0.9949 -0.3947 -2.5375
  791MPD2     N11666   3.847   3.225  13.081  0.3154  0.3325 -0.0812
  791MPD2    H511667   3.860   3.325  13.068  2.9995 -0.2005 -1.5756
  791MPD2    N111668   4.336   3.248  13.082 -0.6479  0.0139 -0.1920
  791MPD2    H711669   4.425   3.199  13.070 -1.8722 -2.2912  0.1545
  792MPD2     C11670   0.266   3.603  11.211 -0.3460  0.3611  0.2240
  792MPD2    C111671   0.142   3.649  11.184  0.1343 -0.0621  0.1653
  792MPD2    C211672   0.057   3.571  11.108  0.0370  0.9464  0.5686
  792MPD2    C311673   0.101   3.448  11.063  0.0708  0.5255 -0.8086
  792MPD2    C411674   0.229   3.404  11.094  0.4142  0.3391 -0.6005
  792MPD2    C511675   0.309   3.487  11.162 -0.5613  0.7067  0.4874
  792MPD2     H11676   4.683   3.608  11.077 -0.9269 -1.2253  0.9884
  792MPD2    H111677   0.274   3.310  11.064 -0.2446  0.7728 -2.9539
  792MPD2    H211678   0.335   3.665  11.268 -0.6927 -0.3844  1.4509
  792MPD2    H311679   0.411   3.452  11.175 -0.4608 -0.2448 -2.7430
  792MPD2     N11680   0.019   3.368  10.972 -0.3011  0.3794 -0.4283
  792MPD2    H511681   0.065   3.286  10.934 -0.9880  0.5928 -1.7104
  792MPD2    N111682   0.111   3.784  11.213  0.1362  0.2070  0.3071
  792MPD2    H711683   0.188   3.834  11.257  1.3572 -0.5449 -0.9828
  793MPD2     C11684   4.021   3.415  10.297 -0.0253  0.1233  0.0977
  793MPD2    C111685   4.140   3.352  10.267  0.2479 -0.6930  0.3048
  793MPD2    C211686   4.212   3.288  10.366 -0.1482  0.4713 -0.1659
  793MPD2    C311687   4.168   3.292  10.495 -0.3639 -0.6418  0.0942
  793MPD2    C411688   4.048   3.354  10.523  0.7559 -0.1939 -0.6591
  793MPD2    C511689   3.974   3.406  10.424  0.0978 -0.1914 -0.1243
  793MPD2     H11690   4.297   3.223  10.351 -1.9782 -2.0412  0.3094
  793MPD2    H111691   3.999   3.361  10.619  2.8955  2.2457  0.2481
  793MPD2    H211692   3.955   3.478  10.239  0.7203  0.8250  0.0093
  793MPD2    H311693   3.877   3.447  10.451 -0.0351 -0.0701 -0.7883
  793MPD2     N11694   4.249   3.233  10.591  0.2455 -0.1053  0.3837
  793MPD2    H511695   4.340   3.194  10.564  0.9731  2.5584 -0.9606
  793MPD2    N111696   4.214   3.388  10.146  0.4642 -0.2732 -0.0725
  793MPD2    H711697   4.307   3.348  10.137  0.4867 -0.8568  2.8022
  794MPD2     C11698   4.717   4.022  17.601 -0.3621  0.3283  0.1877
  794MPD2    C111699   4.688   3.891  17.556 -0.3768  0.0112 -0.2441
  794MPD2    C211700   4.674   3.864  17.414  0.3459  0.8958 -0.4097
  794MPD2    C311701   4.692   3.965  17.318 -0.4427 -0.4419  0.2527
  794MPD2    C411702   4.714   4.089  17.373  0.4945  1.0989 -1.4705
  794MPD2    C511703   0.012   4.117  17.507 -0.1807  0.0968 -0.5343
  794MPD2     H11704   4.665   3.759  17.387 -1.1445  0.7703  0.5722
  794MPD2    H111705   4.713   4.179  17.312  1.8225  0.3888 -2.5508
  794MPD2    H211706   0.003   4.034   0.016  0.4467  0.1163  0.1436
  794MPD2    H311707   0.039   4.218  17.534 -2.2487  0.9447 -1.6845
  794MPD2     N11708   4.663   3.964  17.182  0.0217 -0.1346  0.6511
  794MPD2    H511709   4.678   4.059  17.149  0.1614 -0.6309 -0.7037
  794MPD2    N111710   4.660   3.788  17.646  0.4030  0.1398 -0.1767
  794MPD2    H711711   4.611   3.705  17.616 -1.2066  1.7084 -1.8886
  795MPD2     C11712   2.669   0.122  12.986 -0.4757  1.1256  0.8735
  795MPD2    C111713   2.591   0.045  13.069 -0.3884 -0.5894 -0.3728
  795MPD2    C211714   2.643   4.659  13.138 -0.1657  0.3280  0.1505
  795MPD2    C311715   2.779   4.634  13.143 -0.2860  0.3111 -1.0095
  795MPD2    C411716   2.856   0.008  13.083  0.7999 -0.7374  0.1078
  795MPD2    C511717   2.801   0.111  13.005  0.1128  0.1035 -0.3969
  795MPD2     H11718   2.569   4.591  13.178  0.7882 -0.1728  1.0668
  795MPD2    H111719   2.962   0.003  13.109  0.0207 -0.0942  3.4260
  795MPD2    H211720   2.622   0.197  12.923 -1.7339 -0.5471 -0.2012
  795MPD2    H311721   2.871   0.181  12.961  0.9881 -1.0114 -0.7760
  795MPD2     N11722   2.837   4.529  13.217 -0.4706 -0.2857  0.4826
  795MPD2    H511723   2.937   4.513  13.210 -0.7235 -2.0418  0.7305
  795MPD2    N111724   2.453   0.057  13.064 -0.2628 -0.3374  0.0762
  795MPD2    H711725   2.404   0.003  13.135 -0.5607  0.5443  0.5405
  796MPD2     C11726   1.625   2.115  15.929 -0.3903 -0.2113  1.2098
  796MPD2    C111727   1.605   2.197  16.036  0.5605 -0.0602  0.3951
  796MPD2    C211728   1.648   2.329  16.026  0.2595  0.1371 -0.1200
  796MPD2    C311729   1.725   2.369  15.923  0.3736 -0.3370 -0.4058
  796MPD2    C411730   1.746   2.282  15.820  0.8348 -0.3529 -0.8194
  796MPD2    C511731   1.692   2.157  15.820 -0.0655  0.4053  0.3861
  796MPD2     H11732   1.630   2.398  16.108  1.8955 -0.7547  1.0002
  796MPD2    H111733   1.812   2.308  15.739  1.0150 -2.0494 -1.2100
  796MPD2    H211734   1.602   2.009  15.934  1.3030 -0.6305 -0.3065
  796MPD2    H311735   1.712   2.077  15.750 -0.0290 -1.3887  2.4583
  796MPD2     N11736   1.779   2.500  15.929  0.6142  0.3827 -0.1349
  796MPD2    H511737   1.741   2.566  15.996  1.4044  1.6896 -0.9730
  796MPD2    N111738   1.555   2.135  16.155 -0.3641 -0.2004  0.0539
  796MPD2    H711739   1.532   2.037  16.144 -3.7763  0.3584  2.3968
  797MPD2     C11740   2.805   1.847  16.687 -0.3945 -0.5550  0.1949
  797MPD2    C111741   2.795   1.793  16.814  0.0409 -0.2075 -0.0489
  797MPD2    C211742   2.674   1.770  16.871 -0.6559  0.8333  0.2924
  797MPD2    C311743   2.556   1.793  16.806  0.3447  0.1989 -0.5047
  797MPD2    C411744   2.564   1.847  16.678  0.1487 -0.0910 -0.0728
  797MPD2    C511745   2.690   1.871  16.624 -0.6976  0.0162 -0.1534
  797MPD2     H11746   2.678   1.741  16.975  0.8222 -0.4158 -0.1154
  797MPD2    H111747   2.473   1.878  16.629 -1.5849 -1.8321  2.0164
  797MPD2    H211748   2.904   1.868  16.650 -1.1431  0.6857 -1.0709
  797MPD2    H311749   2.701   1.904  16.522  3.5976 -3.7069 -0.9474
  797MPD2     N11750   2.434   1.778  16.873 -0.0662  0.6460  0.0789
  797MPD2    H511751   2.357   1.782  16.806  0.6043  0.1842 -0.7254
  797MPD2    N111752   2.909   1.784  16.902  0.4835 -0.8958  0.3252
  797MPD2    H711753   2.892   1.750  16.996  0.6630  0.3166  0.8003
  798MPD2     C11754   2.575   1.728  17.566 -0.4987 -0.6936 -0.2069
  798MPD2    C111755   2.563   1.734  17.430 -0.0510 -0.5211  0.8007
  798MPD2    C211756   2.678   1.709  17.356 -0.3767  0.8287  0.0096
  798MPD2    C311757   2.800   1.695  17.409 -0.0304 -0.1567  0.0468
  798MPD2    C411758   2.809   1.698  17.545  0.1420 -0.0800 -0.3468
  798MPD2    C511759   2.699   1.722  17.619  0.1735  0.5151 -0.4977
  798MPD2     H11760   2.678   1.708  17.247 -1.6123 -0.8810  0.0169
  798MPD2    H111761   2.905   1.680  17.593  1.0596  0.7844 -1.8669
  798MPD2    H211762   2.489   1.738  17.632 -1.2784  0.5954 -1.4320
  798MPD2    H311763   2.712   1.702   0.033 -1.5260  1.7881 -0.0634
  798MPD2     N11764   2.904   1.677  17.318  0.1918 -1.2462 -0.3478
  798MPD2    H511765   2.878   1.648  17.224 -2.0115 -1.3090  0.2783
  798MPD2    N111766   2.450   1.751  17.346  0.8309 -0.0327 -0.1977
  798MPD2    H711767   2.467   1.741  17.247 -0.3099 -0.4819 -0.3480
  799MPD2     C11768   1.443   3.296  14.358 -0.6649 -0.3019  0.0236
  799MPD2    C111769   1.365   3.187  14.328 -0.3908 -0.8139  0.5790
  799MPD2    C211770   1.304   3.173  14.206 -0.4215  0.4769  0.0861
  799MPD2    C311771   1.327   3.269  14.106  0.1953  0.0695  0.9377
  799MPD2    C411772   1.388   3.386  14.138 -0.2856 -0.2978  0.3960
  799MPD2    C511773   1.454   3.389  14.263  0.1045 -0.4957 -0.6292
  799MPD2     H11774   1.236   3.090  14.201 -1.4639  1.2531  1.3370
  799MPD2    H111775   1.418   3.452  14.058 -0.9457 -1.4142 -0.7719
  799MPD2    H211776   1.506   3.309  14.446  0.6463  2.1683 -1.2541
  799MPD2    H311777   1.501   3.483  14.288 -1.6447 -0.5499  2.8555
  799MPD2     N11778   1.297   3.238  13.965 -0.3294  0.1204  0.0155
  799MPD2    H511779   1.318   3.319  13.907  1.3809 -0.0990  0.3133
  799MPD2    N111780   1.337   3.084  14.417 -0.0144  0.1855 -0.1270
  799MPD2    H711781   1.286   3.006  14.377 -0.4918  1.0011 -1.1191
  800MPD2     C11782   2.568   4.586  13.687  0.1129  0.3007 -0.0637
  800MPD2    C111783   2.549   4.581  13.826  0.8931  0.3495  0.1274
  800MPD2    C211784   2.460   4.484  13.863  0.3153 -0.1512 -0.3294
  800MPD2    C311785   2.401   4.388  13.783 -0.5121 -0.7287  0.2953
  800MPD2    C411786   2.430   4.395  13.650  0.4400 -0.2308  0.4269
  800MPD2    C511787   2.516   4.484  13.607  0.7148 -0.8765 -0.3002
  800MPD2     H11788   2.445   4.472  13.970 -2.4185  0.9409 -0.5897
  800MPD2    H111789   2.385   4.325  13.580 -0.0157  0.1815  0.3060
  800MPD2    H211790   2.633   4.656  13.636 -0.8515  1.8078  0.7955
  800MPD2    H311791   2.519   4.503  13.500 -0.4456 -0.5544 -0.2791
  800MPD2     N11792   2.326   4.275  13.828 -0.8104  0.2785 -0.2317
  800MPD2    H511793   2.307   4.207  13.755  1.4637 -0.1009 -0.4742
  800MPD2    N111794   2.610   4.669  13.918 -0.1976  0.2675 -0.4221
  800MPD2    H711795   2.689   4.717  13.876 -0.2384  2.5269  2.1125
  801MPD2     C11796   2.601   0.528  14.572 -0.2872 -0.5992 -0.4174
  801MPD2    C111797   2.529   0.424  14.524 -0.4109  0.3785  0.6454
  801MPD2    C211798   2.413   0.389  14.590  0.3337  0.0011 -0.5639
  801MPD2    C311799   2.375   0.449  14.708 -0.4087 -0.6554 -0.3105
  801MPD2    C411800   2.457   0.552  14.756  0.0951  0.2485  0.7692
  801MPD2    C511801   2.569   0.590  14.690 -0.3425  1.0336 -0.0606
  801MPD2     H11802   2.351   0.310  14.549 -1.4805  1.5234 -0.7547
  801MPD2    H111803   2.426   0.600  14.849 -0.7247 -0.1363  0.6875
  801MPD2    H211804   2.693   0.560  14.525 -1.4565  0.6599 -1.8517
  801MPD2    H311805   2.625   0.670  14.737  0.3875  1.1665 -1.1652
  801MPD2     N11806   2.253   0.429  14.762 -0.2376 -0.2921 -0.4777
  801MPD2    H511807   2.189   0.383  14.699 -0.6915 -0.6289  0.2241
  801MPD2    N111808   2.570   0.345  14.415  0.1841 -0.3269  0.1182
  801MPD2    H711809   2.512   0.265  14.392  0.2257  0.4095 -2.6480
  802MPD2     C11810   1.235   1.617  17.491  0.0910 -0.5070  0.3839
  802MPD2    C111811   1.197   1.535  17.596 -0.3012 -0.2776 -0.2787
  802MPD2    C211812   1.272   1.422  17.617 -0.0149  0.2672  0.5087
  802MPD2    C311813   1.389   1.389  17.549  0.2643 -0.0805 -0.5652
  802MPD2    C411814   1.431   1.488  17.456 -0.1979 -0.0884  0.5162
  802MPD2    C511815   1.353   1.598  17.424  0.8288  0.0436  0.6055
  802MPD2     H11816   1.240   1.356   0.005  0.3761  1.4383  1.6179
  802MPD2    H111817   1.507   1.476  17.380  0.5572 -1.8459  1.5561
  802MPD2    H211818   1.185   1.713  17.481  2.4085  0.5541 -0.8182
  802MPD2    H311819   1.395   1.676  17.362  0.5444 -0.9365 -0.8040
  802MPD2     N11820   1.466   1.271  17.571  0.2430 -0.5620 -0.0011
  802MPD2    H511821   1.442   1.219  17.655  1.5803 -0.5877  0.3651
  802MPD2    N111822   1.078   1.553  17.679  0.5049  0.3046 -0.0206
  802MPD2    H711823   1.069   1.488   0.063  1.0313  0.4725  0.1883
  803MPD2     C11824   2.707   3.262  11.980 -1.1392  0.3074 -0.3046
  803MPD2    C111825   2.693   3.386  12.043  0.4715 -0.0857 -0.1037
  803MPD2    C211826   2.657   3.396  12.180 -0.4280  0.0222  0.4626
  803MPD2    C311827   2.620   3.280  12.249 -0.5000  0.2281  0.5545
  803MPD2    C411828   2.634   3.161  12.181 -0.7512  0.0682 -0.1115
  803MPD2    C511829   2.693   3.152  12.059 -0.6185  0.1412  0.0845
  803MPD2     H11830   2.655   3.490  12.235 -1.5648  0.4324 -0.2814
  803MPD2    H111831   2.607   3.068  12.229  0.9597 -0.2752  0.1991
  803MPD2    H211832   2.735   3.252  11.875 -1.5168 -2.0305 -0.1860
  803MPD2    H311833   2.704   3.053  12.017  1.2782 -0.9191  3.1526
  803MPD2     N11834   2.566   3.284  12.382  0.8327 -0.1197 -0.9796
  803MPD2    H511835   2.568   3.198  12.437 -0.3545  0.7622  0.4230
  803MPD2    N111836   2.714   3.508  11.984 -0.5630  0.1407 -0.2565
  803MPD2    H711837   2.699   3.592  12.040 -0.4070 -0.1470  0.2151
  804MPD2     C11838   2.287   0.036  16.779  0.7068  0.2904 -0.8739
  804MPD2    C111839   2.321   0.041  16.913 -0.4180  0.8011 -0.2038
  804MPD2    C211840   2.348   0.160  16.978  0.0982  0.2959  0.3559
  804MPD2    C311841   2.349   0.280  16.900 -0.1939  0.0117 -0.7160
  804MPD2    C411842   2.330   0.265  16.764 -0.8789 -0.7312  0.0799
  804MPD2    C511843   2.292   0.143  16.704  0.0493 -0.2444 -0.5988
  804MPD2     H11844   2.368   0.168  17.084 -0.7532  0.5067  0.5030
  804MPD2    H111845   2.345   0.353  16.703  0.8640 -1.5604 -0.7133
  804MPD2    H211846   2.252   4.664  16.739 -2.0018  1.0733 -0.3642
  804MPD2    H311847   2.283   0.138  16.597 -1.0408  2.5311 -0.6467
  804MPD2     N11848   2.364   0.408  16.963 -0.1274 -0.1196  0.1280
  804MPD2    H511849   2.367   0.410  17.064 -0.8878 -0.9362  0.1686
  804MPD2    N111850   2.329   4.653  17.000 -0.3934  0.0085  0.0858
  804MPD2    H711851   2.355   4.669  17.097  0.8592  2.2081 -0.6145
  805MPD2     C11852   1.435   3.282  15.412 -0.3939  0.2204 -0.2892
  805MPD2    C111853   1.515   3.385  15.358  0.4187 -0.3232 -0.5757
  805MPD2    C211854   1.623   3.424  15.432 -0.6607 -0.5000  0.4470
  805MPD2    C311855   1.676   3.349  15.534  0.4395 -1.1386 -0.3197
  805MPD2    C411856   1.610   3.230  15.564  0.3527 -0.0213  0.7335
  805MPD2    C511857   1.486   3.206  15.517 -0.6813  0.3858 -0.2533
  805MPD2     H11858   1.680   3.515  15.418 -0.6222 -0.6335 -0.2863
  805MPD2    H111859   1.650   3.165  15.642  0.7709 -0.6466  0.0022
  805MPD2    H211860   1.338   3.252  15.374 -0.8119  0.8680  0.2681
  805MPD2    H311861   1.430   3.125  15.562  1.4581  0.0027  1.7091
  805MPD2     N11862   1.800   3.398  15.583  0.6308 -0.2748 -0.0795
  805MPD2    H511863   1.831   3.483  15.538  1.4866 -0.0968  0.8444
  805MPD2    N111864   1.486   3.464  15.239 -0.0803  0.3653  0.7399
  805MPD2    H711865   1.554   3.538  15.222 -0.5392  0.4804 -0.6205
  806MPD2     C11866   1.454   3.223   0.010  0.2282  0.2126  0.3868
  806MPD2    C111867   1.556   3.203   0.101  0.3470 -0.3904 -0.2373
  806MPD2    C211868   1.674   3.143   0.062  0.0095  0.4706  0.1930
  806MPD2    C311869   1.695   3.101  17.622 -0.2205 -0.3313  0.6207
  806MPD2    C411870   1.601   3.130  17.526 -0.3163  0.5481 -0.1517
  806MPD2    C511871   1.481   3.190  17.570 -0.1569  0.0608  0.1751
  806MPD2     H11872   1.752   3.121   0.135 -1.8555 -2.0783  1.4062
  806MPD2    H111873   1.610   3.101  17.422  0.5409  0.5171 -0.0692
  806MPD2    H211874   1.353   3.259   0.029 -0.6530 -1.7409 -0.5690
  806MPD2    H311875   1.405   3.222  17.499 -2.3943  0.5598  2.8238
  806MPD2     N11876   1.823   3.037  17.594  0.4589  0.1713 -0.5956
  806MPD2    H511877   1.882   3.023  17.675 -0.9996  0.6671  0.5447
  806MPD2    N111878   1.531   3.243   0.234  0.2702  0.3465  0.0347
  806MPD2    H711879   1.433   3.264   0.249 -0.3696 -1.1481 -2.0523
  807MPD2     C11880   1.473   2.566   0.418  0.9030 -0.9659  0.2076
  807MPD2    C111881   1.444   2.638   0.537  0.2429  0.0367 -1.0640
  807MPD2    C211882   1.417   2.567   0.650 -0.2147  0.4463  0.0471
  807MPD2    C311883   1.419   2.429   0.658 -0.0974  0.4967  0.3005
  807MPD2    C411884   1.458   2.356   0.544 -0.2353  0.0097  0.3485
  807MPD2    C511885   1.471   2.427   0.428 -0.2740  0.3602 -0.1764
  807MPD2     H11886   1.392   2.626   0.738  0.7137 -0.4866  0.9271
  807MPD2    H111887   1.475   2.249   0.541 -0.0693  0.0375  0.2611
  807MPD2    H211888   1.491   2.618   0.325  0.0754  0.9026  1.0753
  807MPD2    H311889   1.512   2.368   0.348  1.6382 -0.0082  1.0746
  807MPD2     N11890   1.395   2.376   0.786 -0.2508 -0.1493 -0.4579
  807MPD2    H511891   1.358   2.431   0.863 -2.3852 -0.2144 -1.4386
  807MPD2    N111892   1.443   2.780   0.547  0.3644 -0.9278  0.0500
  807MPD2    H711893   1.436   2.823   0.639 -1.0556 -0.9364 -0.0537
  808MPD2     C11894   2.292   4.625   8.992 -0.0479  0.4117 -0.9202
  808MPD2    C111895   2.412   4.556   8.989 -0.6819  0.1206  0.1135
  808MPD2    C211896   2.506   4.580   9.082 -1.2724  0.1952 -0.1776
  808MPD2    C311897   2.491   4.676   9.180 -0.7741 -0.1665 -0.0584
  808MPD2    C411898   2.366   0.018   9.188 -0.3214 -0.1509  0.5014
  808MPD2    C511899   2.268   4.712   9.092 -0.2042  0.0441 -0.0289
  808MPD2     H11900   2.601   4.528   9.077 -1.6368 -0.3476 -1.5195
  808MPD2    H111901   2.355   0.088   9.269  0.8111  0.0246  0.4981
  808MPD2    H211902   2.211   4.612   8.921 -0.5830 -0.9126 -0.0638
  808MPD2    H311903   2.169   0.032   9.078 -0.4408 -0.9102 -1.2551
  808MPD2     N11904   2.587   4.712   9.278 -0.0700 -0.0751  0.3709
  808MPD2    H511905   2.552   0.055   9.347 -0.0431  1.3675 -0.9919
  808MPD2    N111906   2.451   4.461   8.892 -0.2798 -0.0561 -0.0798
  808MPD2    H711907   2.548   4.432   8.907 -0.3361  0.5853  1.5314
  809MPD2     C11908   3.503   4.642   9.879  0.0236 -0.9151  0.7223
  809MPD2    C111909   3.416   4.547   9.831 -0.6542 -0.5099 -0.3774
  809MPD2    C211910   3.306   4.588   9.764  0.3777 -0.5443  0.8233
  809MPD2    C311911   3.283   4.720   9.739  0.4260  0.2208 -0.3635
  809MPD2    C411912   3.362   0.094   9.793 -0.2638  0.6791  0.1679
  809MPD2    C511913   3.473   0.052   9.853  0.7001 -0.1068 -0.1161
  809MPD2     H11914   3.246   4.502   9.733  1.1663 -0.4312 -1.0267
  809MPD2    H111915   3.334   0.198   9.791 -1.2104  0.4015 -1.6333
  809MPD2    H211916   3.603   4.619   9.915  0.1041 -1.1722  0.3353
  809MPD2    H311917   3.543   0.126   9.890 -0.7564  1.7558 -1.0348
  809MPD2     N11918   3.171   0.040   9.661  0.4054 -0.7808  0.2859
  809MPD2    H511919   3.141   0.137   9.667 -0.4473 -1.0711  0.8282
  809MPD2    N111920   3.438   4.406   9.857 -0.1042 -0.6188  0.3237
  809MPD2    H711921   3.366   4.340   9.833 -1.5754  1.4573 -0.9555
  810MPD2     C11922   2.304   3.362   9.687  0.4838  0.5147  0.6604
  810MPD2    C111923   2.267   3.362   9.819 -0.7539  0.6054  0.0243
  810MPD2    C211924   2.350   3.410   9.916 -0.7594  0.2275 -0.4024
  810MPD2    C311925   2.474   3.463   9.879 -0.5760  0.0733 -0.3151
  810MPD2    C411926   2.510   3.461   9.744 -0.2919  0.3820  0.4917
  810MPD2    C511927   2.424   3.413   9.646  0.3454  0.1311  0.3600
  810MPD2     H11928   2.318   3.398  10.019  1.8025 -0.7203  0.2956
  810MPD2    H111929   2.605   3.500   9.711  1.0474 -2.0356  1.4933
  810MPD2    H211930   2.236   3.313   9.617 -0.6128  1.5221  1.0224
  810MPD2    H311931   2.464   3.412   9.545  0.8814 -1.1907  0.5959
  810MPD2     N11932   2.555   3.525   9.973 -0.1225  0.5745  0.2370
  810MPD2    H511933   2.649   3.551   9.944  0.3727 -0.8673  0.5172
  810MPD2    N111934   2.136   3.316   9.852  0.2362 -0.5205 -0.1699
  810MPD2    H711935   2.083   3.296   9.767 -0.7218 -1.2691  0.6061
  811MPD2     C11936   1.280   3.412   9.882 -0.0386  0.5048  0.7398
  811MPD2    C111937   1.414   3.453   9.905 -0.3062  0.2760 -0.8556
  811MPD2    C211938   1.435   3.584   9.929 -0.4824  0.5434 -0.3463
  811MPD2    C311939   1.329   3.677   9.925 -0.1317 -0.1332  0.1028
  811MPD2    C411940   1.199   3.629   9.903 -0.1591 -0.2125 -0.4725
  811MPD2    C511941   1.173   3.501   9.882 -0.0584 -0.2439  0.2604
  811MPD2     H11942   1.537   3.619   9.943 -0.8079  0.7282  1.5214
  811MPD2    H111943   1.109   3.688   9.916 -0.4604 -0.7092 -0.3268
  811MPD2    H211944   1.248   3.309   9.870  1.7351  0.1239 -0.7922
  811MPD2    H311945   1.071   3.466   9.879 -0.2130  0.4116 -1.7979
  811MPD2     N11946   1.354   3.817   9.944 -0.7953 -0.2737 -0.1301
  811MPD2    H511947   1.448   3.855   9.936 -0.7687 -0.3140 -0.0140
  811MPD2    N111948   1.523   3.359   9.911  0.4925  0.4965  0.2902
  811MPD2    H711949   1.501   3.262   9.888  2.6034 -0.1026  0.8153
  812MPD2     C11950   0.753   3.565  12.293 -0.0362  0.2158  0.4788
  812MPD2    C111951   0.648   3.541  12.382 -0.2397 -0.4137  0.1866
  812MPD2    C211952   0.645   3.430  12.457  0.0683  0.3591  0.2844
  812MPD2    C311953   0.738   3.328  12.439 -0.3672  0.9530  0.1880
  812MPD2    C411954   0.846   3.353  12.363 -0.1070  0.0380 -0.2570
  812MPD2    C511955   0.853   3.465  12.285 -0.2587  0.1350  0.0982
  812MPD2     H11956   0.567   3.407  12.528  0.7265 -0.4713  0.7405
  812MPD2    H111957   0.936   3.293  12.352 -0.5594 -0.3838 -1.6194
  812MPD2    H211958   0.762   3.654  12.231 -0.9265 -2.5607 -3.6006
  812MPD2    H311959   0.943   3.480  12.227  0.0554  0.7482  0.7358
  812MPD2     N11960   0.725   3.211  12.520  0.7510 -0.7696  0.3448
  812MPD2    H511961   0.632   3.192  12.556 -0.2305  3.7115  0.1941
  812MPD2    N111962   0.545   3.643  12.398 -0.7562  0.1661  1.0777
  812MPD2    H711963   0.558   3.724  12.337  1.1637  0.8402  2.3563
  813MPD2     C11964   4.148   0.697  12.544 -0.6771  1.1442 -0.0581
  813MPD2    C111965   4.168   0.825  12.591 -0.0193 -0.4669  0.5390
  813MPD2    C211966   4.092   0.882  12.686  0.0867 -0.1615  0.2212
  813MPD2    C311967   3.993   0.814  12.743 -0.2592  0.0880  0.6478
  813MPD2    C411968   3.962   0.688  12.700 -0.3836 -0.3447 -0.1328
  813MPD2    C511969   4.047   0.630  12.607 -0.0048 -0.0361 -0.7384
  813MPD2     H11970   4.123   0.983  12.711  0.3380  0.4490 -2.5818
  813MPD2    H111971   3.880   0.631  12.742 -1.2028 -0.6289 -2.1596
  813MPD2    H211972   4.200   0.644  12.465 -3.9499 -1.8462 -0.2561
  813MPD2    H311973   4.021   0.528  12.579  3.5369 -0.9317 -0.6676
  813MPD2     N11974   3.934   0.875  12.851  0.4277 -0.0339  0.0876
  813MPD2    H511975   3.974   0.967  12.872 -1.5523  0.9092 -0.3207
  813MPD2    N111976   4.276   0.901  12.535 -0.7540  0.5510 -0.4748
  813MPD2    H711977   4.297   0.992  12.575 -0.8765  1.0864 -1.6401
  814MPD2     C11978   4.681   2.508  11.840  0.7182 -0.2084 -0.9231
  814MPD2    C111979   0.061   2.478  11.752 -0.0913  0.1314  0.7909
  814MPD2    C211980   0.174   2.561  11.761 -0.3230  0.5001 -0.6802
  814MPD2    C311981   0.192   2.645  11.876  0.1657  0.0875 -0.1655
  814MPD2    C411982   0.095   2.656  11.969  0.1555 -0.5085 -0.4169
  814MPD2    C511983   4.703   2.585  11.950  0.2561  0.6965  0.3582
  814MPD2     H11984   0.253   2.531  11.693 -1.4617 -1.7832 -0.9921
  814MPD2    H111985   0.120   2.712  12.058  0.2848  2.3110 -2.2377
  814MPD2    H211986   4.588   2.455  11.822  0.6222 -0.3179 -0.1455
  814MPD2    H311987   4.631   2.588  12.031 -1.1041 -0.2652 -0.8158
  814MPD2     N11988   0.317   2.708  11.910  0.0654  0.2550  0.2271
  814MPD2    H511989   0.322   2.764  11.994  2.1684 -1.2095  1.0962
  814MPD2    N111990   0.050   2.381  11.651  0.4062  0.3069  0.2705
  814MPD2    H711991   0.131   2.370  11.593 -0.0187 -0.1176 -0.2366
  815MPD2     C11992   0.822   0.483  12.215  0.2232 -0.0450  0.7679
  815MPD2    C111993   0.763   0.453  12.095 -0.2901 -0.0919  0.2352
  815MPD2    C211994   0.626   0.456  12.085  0.3418 -0.3074  0.1936
  815MPD2    C311995   0.545   0.477  12.192  0.8782 -0.6963 -0.0901
  815MPD2    C411996   0.604   0.510  12.312  0.1226 -0.3844  0.1567
  815MPD2    C511997   0.741   0.511  12.327 -0.0259 -0.0515 -0.0506
  815MPD2     H11998   0.569   0.426  11.998  0.2956 -0.1593  0.1733
  815MPD2    H111999   0.542   0.532  12.398 -0.0345 -2.0689  0.4806
  815MPD2    H212000   0.928   0.498  12.236 -0.3237  2.3074  1.9110
  815MPD2    H312001   0.794   0.547  12.414  0.4503  0.3584 -0.5073
  815MPD2     N12002   0.406   0.445  12.182  0.1360 -0.0958  0.1810
  815MPD2    H512003   0.370   0.422  12.090 -1.4243  0.4755  0.6569
  815MPD2    N112004   0.845   0.419  11.987 -0.2662  0.3905 -0.1039
  815MPD2    H712005   0.938   0.383  12.009  0.3374  2.3431  0.5176
  816MPD2     C12006   1.100   0.200  17.563  0.2097 -0.0744 -0.0259
  816MPD2    C112007   1.034   0.102  17.486  0.3657  0.0731 -0.1978
  816MPD2    C212008   1.109   0.031  17.394  0.1705 -0.5481  0.2301
  816MPD2    C312009   1.244   0.048  17.378 -0.4010 -0.0076 -0.2843
  816MPD2    C412010   1.311   0.130  17.465  0.3034  0.5466 -0.5200
  816MPD2    C512011   1.238   0.204  17.555 -1.3106  0.2635  0.2365
  816MPD2     H12012   1.062   4.676  17.335 -2.7642  1.3458  0.0862
  816MPD2    H112013   1.418   0.134  17.482 -0.2194  2.5835  2.2860
  816MPD2    H212014   1.054   0.263  17.639  0.3493  1.6166 -1.3453
  816MPD2    H312015   1.288   0.282  17.612  0.9070  0.8133 -2.4265
  816MPD2     N12016   1.307   4.694  17.277 -0.5599  0.0866  0.4237
  816MPD2    H512017   1.244   4.632  17.228 -0.5112  0.5960 -0.2925
  816MPD2    N112018   0.900   0.096  17.505  0.0824  0.3082  0.0406
  816MPD2    H712019   0.867   0.164  17.574  3.0947 -0.2403  2.0019
  817MPD2     C12020   0.102   1.347   9.961 -0.8683  0.5229 -0.3117
  817MPD2    C112021   0.216   1.406  10.025  0.2931  0.2421 -1.0073
  817MPD2    C212022   0.233   1.541  10.018 -0.7550  0.8592  0.1726
  817MPD2    C312023   0.141   1.631   9.968 -0.7070  0.4904  0.1940
  817MPD2    C412024   0.032   1.571   9.903 -0.5479  0.2400  0.4164
  817MPD2    C512025   0.019   1.435   9.896 -0.5522  0.4425 -0.6576
  817MPD2     H12026   0.325   1.578  10.062 -1.4863  1.6391  1.0277
  817MPD2    H112027   4.674   1.629   9.862 -1.1084 -0.8329 -0.0076
  817MPD2    H212028   0.091   1.239   9.959 -1.1608  0.5118  2.2459
  817MPD2    H312029   4.652   1.393   9.851  0.0988 -1.1972 -0.4083
  817MPD2     N12030   0.163   1.774   9.958 -0.0465 -0.2617  0.2523
  817MPD2    H512031   0.253   1.810   9.988 -0.1216  1.9817 -2.2256
  817MPD2    N112032   0.311   1.330  10.094 -0.1155 -0.1008 -0.4356
  817MPD2    H712033   0.375   1.370  10.161  0.1085 -1.6769  0.2793
  818MPD2     C12034   4.418   0.835  10.030 -0.2926  0.0229 -0.1581
  818MPD2    C112035   4.287   0.798  10.044 -0.7368 -0.4586  0.0919
  818MPD2    C212036   4.247   0.664  10.055  0.5872  0.5068  0.0153
  818MPD2    C312037   4.345   0.565  10.075 -0.6570 -0.3423 -0.6955
  818MPD2    C412038   4.476   0.602  10.065 -0.6167  0.3509 -0.5493
  818MPD2    C512039   4.514   0.734  10.038  0.4287  0.7839 -0.8211
  818MPD2     H12040   4.141   0.640  10.061  0.7000  0.0394  0.1276
  818MPD2    H112041   4.559   0.533  10.066  0.8331  2.0779 -0.8484
  818MPD2    H212042   4.460   0.935  10.017 -1.7836  0.0923 -4.3935
  818MPD2    H312043   4.621   0.752  10.027  1.4801 -3.5985  2.1905
  818MPD2     N12044   4.318   0.425  10.086 -0.9928 -0.2471 -0.0393
  818MPD2    H512045   4.396   0.362  10.100  0.4507  1.6638  0.3697
  818MPD2    N112046   4.189   0.891  10.075  0.0798  0.2838  0.3439
  818MPD2    H712047   4.096   0.851  10.083  0.4194 -0.3853  0.9307
  819MPD2     C12048   2.427   3.354  15.554  0.4983 -0.1822  0.5324
  819MPD2    C112049   2.357   3.236  15.574  0.0570  0.4048  0.5910
  819MPD2    C212050   2.412   3.139  15.652  0.2032 -0.2621 -0.3481
  819MPD2    C312051   2.523   3.175  15.731  0.0998 -0.3436  0.1726
  819MPD2    C412052   2.580   3.300  15.724 -0.1454  0.8257  0.4508
  819MPD2    C512053   2.540   3.383  15.629  0.9996 -0.5810  0.3331
  819MPD2     H12054   2.374   3.039  15.670  0.1152  0.4285  3.1836
  819MPD2    H112055   2.672   3.325  15.775 -0.1630  1.0330  0.3833
  819MPD2    H212056   2.387   3.427  15.484 -0.3318 -1.2615 -0.1302
  819MPD2    H312057   2.581   3.481  15.607 -1.3893  0.2205 -0.6497
  819MPD2     N12058   2.570   3.070  15.810  0.1695 -0.5673  0.7672
  819MPD2    H512059   2.511   2.987  15.809 -0.0388 -0.4215  1.5112
  819MPD2    N112060   2.231   3.202  15.520 -0.4077 -0.6427  0.1607
  819MPD2    H712061   2.202   3.247  15.434 -0.5809 -1.4573 -0.2145
  820MPD2     C12062   1.752   3.070  14.679  0.3280 -0.0821  0.2901
  820MPD2    C112063   1.742   3.167  14.778 -0.1580  0.0870 -0.4620
  820MPD2    C212064   1.808   3.146  14.897 -0.2481 -0.6793  0.3240
  820MPD2    C312065   1.880   3.032  14.908 -0.1917 -0.2622 -0.3652
  820MPD2    C412066   1.894   2.939  14.809 -0.2608  0.4638  0.2775
  820MPD2    C512067   1.828   2.960  14.693  0.1383  0.2627 -0.8929
  820MPD2     H12068   1.799   3.211  14.983  0.4206  1.5586 -1.3022
  820MPD2    H112069   1.959   2.852  14.812  0.2796  0.8099 -1.7245
  820MPD2    H212070   1.709   3.088  14.581  0.1011 -0.0651  0.3916
  820MPD2    H312071   1.844   2.894  14.609 -1.1940 -0.8403 -0.2919
  820MPD2     N12072   1.956   3.008  15.030 -0.1600 -0.0485 -0.9906
  820MPD2    H512073   1.992   2.915  15.048 -0.6196  0.2572  1.5191
  820MPD2    N112074   1.643   3.268  14.768  0.0982  0.0597  0.0079
  820MPD2    H712075   1.573   3.259  14.695  0.9858  1.2382 -0.9748
  821MPD2     C12076   2.122   3.709  13.476 -0.0449 -0.0671  0.6029
  821MPD2    C112077   2.234   3.788  13.514 -0.1602 -0.5965  0.1356
  821MPD2    C212078   2.332   3.811  13.417  0.4548 -0.4015 -0.0347
  821MPD2    C312079   2.330   3.747  13.295 -0.3776  0.0571  0.5065
  821MPD2    C412080   2.232   3.658  13.274 -0.2043 -0.1939  0.1113
  821MPD2    C512081   2.123   3.647  13.356 -0.4375  0.3662  0.1804
  821MPD2     H12082   2.413   3.880  13.439  1.3139 -1.7329  0.9615
  821MPD2    H112083   2.224   3.590  13.190  1.0873 -0.1123 -0.0771
  821MPD2    H212084   2.039   3.713  13.546 -0.3965 -3.2647  0.3640
  821MPD2    H312085   2.041   3.580  13.334 -0.9516  1.1348 -0.2558
  821MPD2     N12086   2.439   3.758  13.200 -0.1990 -0.1857  0.3394
  821MPD2    H512087   2.441   3.688  13.127  0.2526 -1.6042  1.7031
  821MPD2    N112088   2.244   3.858  13.634  0.1923  0.2244 -0.0837
  821MPD2    H712089   2.321   3.924  13.640 -0.7169  1.0581  2.8647
  822MPD2     C12090   2.900   4.546  15.634  0.3175 -0.5622 -0.9008
  822MPD2    C112091   2.898   4.491  15.759  0.4359  0.2292 -0.1583
  822MPD2    C212092   2.857   4.579  15.865 -0.5372  0.1673  1.4069
  822MPD2    C312093   2.821   4.712  15.841  0.0077  0.3865  0.1107
  822MPD2    C412094   2.813   0.033  15.712  0.1218  0.8284  0.2627
  822MPD2    C512095   2.855   4.677  15.608 -0.2176 -0.3729 -0.2502
  822MPD2     H12096   2.865   4.548  15.969 -0.2509 -0.9399  1.0639
  822MPD2    H112097   2.784   0.136  15.698  0.7160  0.6927 -1.9689
  822MPD2    H212098   2.932   4.490  15.547  0.8816 -1.0174 -0.3959
  822MPD2    H312099   2.859   4.717  15.508 -1.1742 -1.4256 -0.7099
  822MPD2     N12100   2.806   0.082  15.952  0.4254 -0.0604  0.1477
  822MPD2    H512101   2.810   0.179  15.923  1.2933  0.0375  0.6223
  822MPD2    N112102   2.946   4.360  15.788  0.4501  0.6039 -0.0545
  822MPD2    H712103   2.935   4.330  15.884  0.2984  1.3314  0.1558
  823MPD2     C12104   2.748   0.316  16.839  0.6885  0.0662 -0.1792
  823MPD2    C112105   2.715   0.211  16.756  0.3787 -0.0652  0.1264
  823MPD2    C212106   2.720   0.086  16.802  0.2622 -0.6247  0.4751
  823MPD2    C312107   2.755   0.054  16.931 -1.5355 -0.0058  0.4732
  823MPD2    C412108   2.786   0.162  17.012 -0.0638  0.9763 -0.0747
  823MPD2    C512109   2.780   0.290  16.969  0.3454 -0.3311  0.6740
  823MPD2     H12110   2.680   0.006  16.740 -0.8057  1.2560 -1.2805
  823MPD2    H112111   2.811   0.152  17.117  0.8332 -1.9168 -0.5703
  823MPD2    H212112   2.745   0.419  16.806  1.1872 -0.0037 -0.4361
  823MPD2    H312113   2.812   0.368  17.038 -2.2322 -0.0623  1.5615
  823MPD2     N12114   2.770   4.645  16.980  0.4101 -0.5271  0.3727
  823MPD2    H512115   2.823   4.644  17.066  1.6489  0.8069 -0.3778
  823MPD2    N112116   2.694   0.254  16.622 -0.0891  0.5026 -0.6022
  823MPD2    H712117   2.708   0.353  16.603 -1.2398  0.8707  0.4784
  824MPD2     C12118   3.067   3.698  15.397 -0.3191  0.9936  0.3639
  824MPD2    C112119   3.174   3.734  15.478  0.7091 -0.2512 -0.1251
  824MPD2    C212120   3.289   3.656  15.470  0.8274  1.0707  0.2162
  824MPD2    C312121   3.292   3.548  15.385  0.5941  0.3172 -0.0924
  824MPD2    C412122   3.180   3.506  15.318  0.0926  0.1530  0.1152
  824MPD2    C512123   3.065   3.585  15.334 -0.4800 -0.3851 -0.0454
  824MPD2     H12124   3.375   3.680  15.530  0.2548  0.9043  1.1067
  824MPD2    H112125   3.185   3.423  15.250  1.9624 -0.2421  0.7245
  824MPD2    H212126   2.980   3.761  15.386 -0.1985  1.3522  1.4937
  824MPD2    H312127   2.980   3.566  15.269  1.1268 -1.3248 -1.9202
  824MPD2     N12128   3.416   3.471  15.381 -0.5548  0.4714  0.1195
  824MPD2    H512129   3.497   3.515  15.425 -1.5069 -0.9461  3.3392
  824MPD2    N112130   3.158   3.831  15.578  0.9135 -0.9289  0.2238
  824MPD2    H712131   3.070   3.881  15.571  2.2234  1.5314  0.9763
  825MPD2     C12132   4.163   3.584  15.442  0.1215 -0.1297 -0.0447
  825MPD2    C112133   4.064   3.592  15.347  0.0293  0.5177  0.0236
  825MPD2    C212134   4.046   3.711  15.280 -0.2559  0.5245  0.1719
  825MPD2    C312135   4.132   3.816  15.305 -0.1375 -0.1752 -0.4594
  825MPD2    C412136   4.227   3.804  15.401 -0.1822 -0.2397 -0.0777
  825MPD2    C512137   4.247   3.690  15.474  0.2354  0.1662 -0.0085
  825MPD2     H12138   3.970   3.720  15.204 -0.6812 -2.6304  0.2014
  825MPD2    H112139   4.298   3.885  15.417  1.1378 -1.8386  2.0604
  825MPD2    H212140   4.184   3.492  15.495  0.9432 -1.7901 -3.2417
  825MPD2    H312141   4.331   3.667  15.540 -0.5116  2.5978  1.7918
  825MPD2     N12142   4.151   3.925  15.221  0.4604 -0.0607  1.1803
  825MPD2    H512143   4.209   3.998  15.260  0.2158  0.4698  0.5551
  825MPD2    N112144   3.990   3.473  15.335 -0.3964  0.1762  0.3280
  825MPD2    H712145   4.003   3.405  15.410  0.9721 -3.5057 -3.2455
  826MPD2     C12146   3.664   3.225  13.420 -0.0423 -0.8801  0.2440
  826MPD2    C112147   3.531   3.191  13.415  0.0050  0.0932 -0.1720
  826MPD2    C212148   3.437   3.272  13.480 -0.2774  0.0551 -0.2812
  826MPD2    C312149   3.475   3.386  13.545  0.3052 -0.1744  0.5865
  826MPD2    C412150   3.607   3.417  13.550 -0.8821  0.6110 -0.3365
  826MPD2    C512151   3.703   3.337  13.484  0.2940  0.5954 -1.0205
  826MPD2     H12152   3.332   3.266  13.457 -0.4468  1.1206  0.2382
  826MPD2    H112153   3.642   3.508  13.596 -1.7926  0.9666 -0.3389
  826MPD2    H212154   3.738   3.177  13.357 -0.8023  2.2125 -3.0039
  826MPD2    H312155   3.804   3.372  13.470 -0.3208  3.1893  1.1526
  826MPD2     N12156   3.386   3.486  13.600 -0.8157  0.0697  1.1364
  826MPD2    H512157   3.429   3.571  13.636 -0.6370  0.6725 -0.4883
  826MPD2    N112158   3.494   3.090  13.332  0.3681  0.2600 -0.4405
  826MPD2    H712159   3.565   3.066  13.263 -0.1764  0.7591 -1.1749
  827MPD2     C12160   4.512   4.586  10.155 -0.2057 -0.0525  0.3948
  827MPD2    C112161   4.387   4.540  10.217  0.1234  0.1216 -0.4443
  827MPD2    C212162   4.283   4.524  10.123  0.0321 -0.0705 -0.0565
  827MPD2    C312163   4.300   4.531   9.989  0.7691 -0.4703  0.1452
  827MPD2    C412164   4.422   4.565   9.936 -0.0009  0.6086 -0.3001
  827MPD2    C512165   4.530   4.593  10.020  0.0928  0.1546  0.1564
  827MPD2     H12166   4.184   4.496  10.158  0.4096 -0.6594  0.5199
  827MPD2    H112167   4.435   4.586   9.831 -1.0046  1.0710 -0.3371
  827MPD2    H212168   4.591   4.619  10.222  1.0977 -0.0669 -1.1518
  827MPD2    H312169   4.617   4.649   9.988 -0.6199  0.1509 -1.8266
  827MPD2     N12170   4.189   4.502   9.907 -0.3523 -0.1250  0.2333
  827MPD2    H512171   4.102   4.480   9.955 -0.5846 -0.7611 -0.4723
  827MPD2    N112172   4.383   4.546  10.356  0.6207  0.4845 -0.6699
  827MPD2    H712173   4.474   4.555  10.399 -0.6367 -0.6656  2.2046
  828MPD2     C12174   2.673   4.208  11.701 -0.5490 -0.3812  0.1647
  828MPD2    C112175   2.564   4.128  11.676  0.7687 -0.1926  0.1651
  828MPD2    C212176   2.589   4.013  11.611  0.1515 -0.1262  0.0855
  828MPD2    C312177   2.708   3.962  11.575 -0.4545 -0.3220  0.0584
  828MPD2    C412178   2.817   4.041  11.610 -0.2721 -0.2900  0.0361
  828MPD2    C512179   2.797   4.164  11.672  0.1083 -0.1959 -0.4997
  828MPD2     H12180   2.506   3.949  11.584  1.1117 -0.1349 -2.8899
  828MPD2    H112181   2.918   4.013  11.584 -0.6026 -0.9737 -0.5001
  828MPD2    H212182   2.662   4.308  11.740  0.0726 -1.2062  2.4375
  828MPD2    H312183   2.881   4.225  11.702  0.0000  0.2808 -1.1566
  828MPD2     N12184   2.736   3.837  11.513  0.5081 -0.2524  0.0180
  828MPD2    H512185   2.832   3.820  11.487  0.3150  0.1273 -0.9274
  828MPD2    N112186   2.428   4.150  11.712  0.2907 -0.1078  0.1883
  828MPD2    H712187   2.361   4.077  11.689  0.8556 -0.7582  0.5847
  829MPD2     C12188   1.854   4.506  11.199  0.9679  0.2066  0.1969
  829MPD2    C112189   1.801   4.512  11.326 -1.2350  0.7208 -0.3813
  829MPD2    C212190   1.850   4.420  11.421 -0.2987  0.3751  0.7250
  829MPD2    C312191   1.943   4.327  11.386 -0.6891  0.1452  0.0999
  829MPD2    C412192   1.985   4.325  11.257 -0.1653  0.1178  0.5230
  829MPD2    C512193   1.946   4.415  11.164  0.2720 -0.0783 -0.3357
  829MPD2     H12194   1.821   4.434  11.525  0.0060 -1.0189  1.0001
  829MPD2    H112195   2.070   4.263  11.230  0.6982  1.0287  1.1505
  829MPD2    H212196   1.820   4.568  11.116 -1.6461  0.1945  1.2620
  829MPD2    H312197   1.985   4.410  11.063  1.7296 -0.8129  0.2756
  829MPD2     N12198   2.014   4.242  11.472 -0.3778 -0.2664  0.1231
  829MPD2    H512199   2.104   4.201  11.449 -0.4187  0.4184 -1.2323
  829MPD2    N112200   1.708   4.615  11.349 -0.5672  0.1571  0.1005
  829MPD2    H712201   1.692   4.684  11.276 -0.5055  0.5539  0.4664
  830MPD2     C12202   2.902   2.576  15.421 -0.4026  0.7561 -0.0957
  830MPD2    C112203   2.934   2.709  15.454 -0.7683 -0.0519 -0.2878
  830MPD2    C212204   2.991   2.789  15.357  0.2582  0.3420  0.0343
  830MPD2    C312205   3.021   2.739  15.231 -0.7578  0.1924 -0.0703
  830MPD2    C412206   2.979   2.613  15.198  0.2221 -0.5889 -0.1168
  830MPD2    C512207   2.922   2.530  15.292  0.3558 -0.6953  0.3501
  830MPD2     H12208   3.005   2.895  15.377  1.1510  0.0316  1.0612
  830MPD2    H112209   3.000   2.576  15.098  0.2051  1.3704 -0.8400
  830MPD2    H212210   2.841   2.525  15.494 -1.5156 -1.0162 -2.2524
  830MPD2    H312211   2.914   2.426  15.262 -1.0001 -0.5253  0.1500
  830MPD2     N12212   3.072   2.821  15.126 -0.0742  0.3503  0.2206
  830MPD2    H512213   3.079   2.778  15.034 -2.5806  1.5948 -0.5238
  830MPD2    N112214   2.911   2.764  15.576 -0.1184  0.0348 -0.0603
  830MPD2    H712215   2.924   2.864  15.592 -0.4155  0.1266 -0.4034
  831MPD2     C12216   2.953   4.583  16.314  0.2954  0.4689 -0.3653
  831MPD2    C112217   3.010   4.499  16.215  0.2086 -0.3585  0.0326
  831MPD2    C212218   2.950   4.379  16.182  0.2646  0.5067  0.3221
  831MPD2    C312219   2.843   4.336  16.251 -0.5951  0.1014  0.6372
  831MPD2    C412220   2.792   4.410  16.355  0.3825 -0.4358  0.3391
  831MPD2    C512221   2.845   4.534  16.384  0.3729 -0.4426  0.5998
  831MPD2     H12222   3.002   4.311  16.116  2.3663  0.6976  1.7859
  831MPD2    H112223   2.714   4.373  16.420  0.8187 -0.2149  0.9993
  831MPD2    H212224   2.987   4.683  16.338 -2.6690  0.8945  2.0267
  831MPD2    H312225   2.797   4.594  16.462 -0.7045  1.8338 -1.8088
  831MPD2     N12226   2.775   4.213  16.226  0.0589  0.0515 -0.6695
  831MPD2    H512227   2.707   4.182  16.294  0.4091 -0.2504 -0.4588
  831MPD2    N112228   3.126   4.528  16.138  0.0271 -0.0007  0.0027
  831MPD2    H712229   3.159   4.455  16.076 -0.4598 -1.0470  0.9775
  832MPD2     C12230   1.298   1.046  17.272  0.0209  0.2971 -0.3254
  832MPD2    C112231   1.255   1.154  17.195  0.3217 -0.2577  0.1708
  832MPD2    C212232   1.128   1.152  17.141 -0.4789  0.6335  0.8861
  832MPD2    C312233   1.046   1.039  17.162 -0.1814  0.4193  0.2672
  832MPD2    C412234   1.097   0.941  17.242  0.0283  0.6487 -0.5582
  832MPD2    C512235   1.217   0.940  17.295  0.7244 -0.1184 -0.5121
  832MPD2     H12236   1.089   1.237  17.087 -0.9119  0.0218  0.2461
  832MPD2    H112237   1.035   0.854  17.266  0.7503  0.6043  1.1355
  832MPD2    H212238   1.396   1.036  17.316 -0.8875  2.2969  2.1985
  832MPD2    H312239   1.257   0.861  17.358  1.8803 -0.2428 -1.3887
  832MPD2     N12240   0.920   1.014  17.099  0.3986  0.3892 -0.3590
  832MPD2    H512241   0.866   0.933  17.129  2.3319 -0.6774  0.2523
  832MPD2    N112242   1.341   1.265  17.182  0.4487  0.0575 -0.5448
  832MPD2    H712243   1.429   1.254  17.231 -0.0941 -3.0253 -0.2286
  833MPD2     C12244   3.736   2.206  12.146  0.2690 -0.3364  0.1512
  833MPD2    C112245   3.676   2.317  12.092  0.3974 -0.0499  0.5845
  833MPD2    C212246   3.707   2.343  11.957 -0.6603 -0.2761  0.0119
  833MPD2    C312247   3.781   2.253  11.881 -0.2571  0.0503  1.2088
  833MPD2    C412248   3.836   2.145  11.938 -0.2719  0.2052 -1.0736
  833MPD2    C512249   3.811   2.124  12.069 -0.1481  0.4218  0.3505
  833MPD2     H12250   3.662   2.430  11.910 -4.2686 -1.1076  1.9448
  833MPD2    H112251   3.897   2.068  11.893 -0.9777 -1.3596  0.6730
  833MPD2    H212252   3.721   2.177  12.249  0.9331  0.3257  0.4298
  833MPD2    H312253   3.843   2.031  12.114 -0.1484  0.4645  0.4412
  833MPD2     N12254   3.829   2.283  11.743 -0.1971 -0.0411  0.8375
  833MPD2    H512255   3.885   2.209  11.701 -1.2542 -0.6540  0.4909
  833MPD2    N112256   3.601   2.403  12.177 -0.4407  0.2891  0.6644
  833MPD2    H712257   3.573   2.374  12.270 -0.7617  0.7316  0.7093
  834MPD2     C12258   3.223   1.863  11.174 -0.7125 -0.1150  0.3214
  834MPD2    C112259   3.300   1.918  11.069 -0.3985 -0.4253  0.4971
  834MPD2    C212260   3.411   1.991  11.104 -0.9707  0.8128 -0.1253
  834MPD2    C312261   3.435   2.016  11.237  0.5660  0.2018  0.0039
  834MPD2    C412262   3.353   1.978  11.336 -0.2812  0.1761 -0.1219
  834MPD2    C512263   3.255   1.889  11.306 -0.5615  0.2907 -0.1998
  834MPD2     H12264   3.476   2.038  11.031  0.1121  0.7518  0.7981
  834MPD2    H112265   3.368   2.002  11.441 -0.4251 -1.6639  0.3200
  834MPD2    H212266   3.144   1.792  11.153 -0.6257  0.1731 -0.9930
  834MPD2    H312267   3.197   1.849  11.389  1.9810  0.7726  1.8046
  834MPD2     N12268   3.535   2.118  11.260 -0.3284 -0.1017  0.5000
  834MPD2    H512269   3.557   2.184  11.186 -1.1996 -1.2173 -0.7455
  834MPD2    N112270   3.266   1.890  10.933 -0.7613  0.5758 -0.0472
  834MPD2    H712271   3.183   1.837  10.910  0.0662 -0.6730 -0.1208
  835MPD2     C12272   3.531   4.131  11.766 -0.9041  0.0202  0.3716
  835MPD2    C112273   3.507   4.256  11.720  0.4012 -0.2443 -0.1454
  835MPD2    C212274   3.588   4.364  11.760 -0.8081 -0.1422 -0.4941
  835MPD2    C312275   3.669   4.346  11.868 -0.3848 -0.7676 -0.2706
  835MPD2    C412276   3.687   4.223  11.918 -0.0717  0.5802 -0.0346
  835MPD2    C512277   3.624   4.113  11.864 -0.4509 -0.4247 -0.9513
  835MPD2     H12278   3.578   4.464  11.719 -0.2136  0.1555  0.0780
  835MPD2    H112279   3.753   4.212  12.004  1.1889  0.2100 -1.0545
  835MPD2    H212280   3.478   4.044  11.728 -0.5425 -0.2886  0.5770
  835MPD2    H312281   3.647   4.016  11.907  1.8867 -0.8386 -3.1236
  835MPD2     N12282   3.743   4.447  11.932  0.7284 -0.2358  0.3093
  835MPD2    H512283   3.812   4.410  11.996 -1.8000 -1.1657  2.4943
  835MPD2    N112284   3.412   4.282  11.615  0.1195 -0.1654  0.2594
  835MPD2    H712285   3.408   4.376  11.576  3.5589 -0.8419 -1.6616
  836MPD2     C12286   3.496   0.439  12.120  0.2819  0.1323  0.0669
  836MPD2    C112287   3.555   0.329  12.165  0.1622 -0.8817  0.1078
  836MPD2    C212288   3.490   0.257  12.261  0.1654 -0.0408  0.4558
  836MPD2    C312289   3.364   0.291  12.307  0.3886 -0.2355 -0.2077
  836MPD2    C412290   3.300   0.400  12.254 -0.2944 -1.0723 -0.2736
  836MPD2    C512291   3.368   0.476  12.162 -0.7152  0.1101 -0.2408
  836MPD2     H12292   3.530   0.164  12.299 -0.2761 -1.6599 -3.0451
  836MPD2    H112293   3.207   0.438  12.294  1.8170  3.4774  0.2731
  836MPD2    H212294   3.554   0.503  12.053  0.0548 -0.1898 -0.4371
  836MPD2    H312295   3.324   0.565  12.118 -0.4528 -0.5573 -1.8411
  836MPD2     N12296   3.287   0.205  12.387  0.5568  0.4150  0.0066
  836MPD2    H512297   3.190   0.232  12.389  0.5698  0.4826 -0.3861
  836MPD2    N112298   3.673   0.294  12.105 -0.6654 -0.2238  0.0137
  836MPD2    H712299   3.699   0.353  12.027  0.2605  1.3265  1.5150
  837MPD2     C12300   1.811   4.470   9.795 -0.5078  0.5798 -0.5195
  837MPD2    C112301   1.695   4.492   9.867  0.3308  0.1400 -0.2450
  837MPD2    C212302   1.651   4.620   9.888  0.7617  0.3288  0.0515
  837MPD2    C312303   1.729   0.013   9.858 -0.5487 -0.1069 -0.0785
  837MPD2    C412304   1.858   4.712   9.802  0.0821 -0.1797 -0.0482
  837MPD2    C512305   1.884   4.584   9.763  0.0908  0.0367 -0.8613
  837MPD2     H12306   1.550   4.635   9.923  0.5788  1.1858 -0.8484
  837MPD2    H112307   1.924   0.069   9.770 -0.6355  0.1365 -0.7281
  837MPD2    H212308   1.836   4.367   9.770 -1.7492  0.2412 -0.4062
  837MPD2    H312309   1.979   4.560   9.715 -0.1052 -1.0462 -0.7212
  837MPD2     N12310   1.671   0.139   9.883 -0.8346 -0.0782  0.1739
  837MPD2    H512311   1.584   0.151   9.933 -0.8987  0.6082 -0.0942
  837MPD2    N112312   1.598   4.390   9.887  0.4428  0.5781 -0.0969
  837MPD2    H712313   1.504   4.427   9.894  1.2828  2.0127  3.8793
  838MPD2     C12314   0.368   3.061  11.782  0.3408  0.3590 -0.7545
  838MPD2    C112315   0.264   2.995  11.714  0.4376  0.6928  0.3727
  838MPD2    C212316   0.138   2.992  11.774  0.7103 -0.4811 -0.8913
  838MPD2    C312317   0.112   3.051  11.891 -0.3209  0.0437 -0.3098
  838MPD2    C412318   0.213   3.118  11.958  0.3921  0.2326  0.2669
  838MPD2    C512319   0.338   3.128  11.901  0.5068 -0.2366 -0.9071
  838MPD2     H12320   0.061   2.933  11.724 -1.5754  0.6811  1.2634
  838MPD2    H112321   0.206   3.162  12.057  1.2918 -2.7107  1.6564
  838MPD2    H212322   0.470   3.059  11.744 -0.0587  1.0781 -1.8646
  838MPD2    H312323   0.421   3.172  11.955  0.4498  1.0220 -1.8445
  838MPD2     N12324   4.707   3.043  11.944 -0.4365  0.1503  0.2408
  838MPD2    H512325   4.631   2.981  11.917 -0.2158  0.6893 -1.6081
  838MPD2    N112326   0.286   2.926  11.599  0.3349 -0.5653 -0.0609
  838MPD2    H712327   0.204   2.884  11.556 -1.2032  0.5357  1.7947
  839MPD2     C12328   4.446   2.405  11.347 -0.5404  0.0903  0.3825
  839MPD2    C112329   4.521   2.384  11.237 -1.0834 -0.7197 -0.1110
  839MPD2    C212330   4.637   2.453  11.222  0.4005  0.1277  0.1007
  839MPD2    C312331   4.674   2.536  11.328  0.3668  0.1769  0.3826
  839MPD2    C412332   4.596   2.553  11.443 -0.3072  0.3677 -0.2153
  839MPD2    C512333   4.474   2.494  11.445  0.1771  0.2728  0.1348
  839MPD2     H12334   4.704   2.440  11.138 -0.9592  1.5792 -1.2191
  839MPD2    H112335   4.614   2.626  11.520 -0.3169 -1.1674  1.2315
  839MPD2    H212336   4.349   2.359  11.366 -0.7182 -0.0700 -0.9482
  839MPD2    H312337   4.411   2.494  11.533  0.2874  0.4773  0.2133
  839MPD2     N12338   0.069   2.619  11.333 -0.9623  0.1542 -0.8370
  839MPD2    H512339   0.078   2.682  11.412 -0.3052 -1.2902  0.2464
  839MPD2    N112340   4.489   2.293  11.134 -0.1788 -0.4263 -0.3678
  839MPD2    H712341   4.543   2.265  11.053 -0.8501 -2.1408 -0.2446
  840MPD2     C12342   0.126   0.079  10.624  0.1945  0.9562  0.0141
  840MPD2    C112343   0.059   0.036  10.736 -0.3176 -0.1315  0.6500
  840MPD2    C212344   0.098   0.077  10.865  0.8117  0.2723  0.2003
  840MPD2    C312345   0.204   0.168  10.873 -0.2263  0.2989  0.3155
  840MPD2    C412346   0.267   0.212  10.757 -0.6772 -0.8773 -0.0178
  840MPD2    C512347   0.224   0.172  10.633  0.0713  0.3750 -0.6157
  840MPD2     H12348   0.055   0.043  10.959  0.9244 -0.1299  0.1081
  840MPD2    H112349   0.359   0.269  10.770  0.6661 -2.7865 -1.0516
  840MPD2    H212350   0.090   0.047  10.527 -0.4767  1.0719  0.2265
  840MPD2    H312351   0.258   0.198  10.533  0.8527  0.4474 -0.3306
  840MPD2     N12352   0.256   0.212  10.997  0.0660 -0.6859 -0.1871
  840MPD2    H512353   0.337   0.273  10.995 -1.8163  1.8584  1.0307
  840MPD2    N112354   4.670   4.672  10.715 -0.0577 -0.3166 -0.6649
  840MPD2    H712355   4.664   4.647  10.617 -2.2282 -0.0388 -0.5970
  841MPD2     C12356   4.620   4.277  14.903  0.0614  0.2115  0.5866
  841MPD2    C112357   4.597   4.308  14.772 -0.0076 -0.1329  0.2633
  841MPD2    C212358   4.590   4.440  14.733 -0.4717  0.3150 -0.1368
  841MPD2    C312359   4.599   4.544  14.823  0.1831  0.1009  0.0669
  841MPD2    C412360   4.620   4.511  14.956  0.6736  0.4187 -0.2194
  841MPD2    C512361   4.638   4.377  14.989  0.8799  0.4132  0.3729
  841MPD2     H12362   4.579   4.462  14.628  1.1545  1.0378 -0.1599
  841MPD2    H112363   4.638   4.588  15.030 -0.2605 -0.8604  1.3426
  841MPD2    H212364   4.634   4.177  14.942 -0.8480 -0.1710 -0.0707
  841MPD2    H312365   4.677   4.363  15.090  2.6993  1.4937 -0.1888
  841MPD2     N12366   4.601   4.674  14.767  0.2191  0.4497 -0.3186
  841MPD2    H512367   4.602   4.666  14.666 -1.7279 -1.9096 -0.1438
  841MPD2    N112368   4.593   4.212  14.668 -0.0014  0.2319 -0.1575
  841MPD2    H712369   4.588   4.254  14.576  0.3889 -1.8688 -1.1194
  842MPD2     C12370   0.372   1.351  16.668  0.0120  0.2850 -0.5579
  842MPD2    C112371   0.306   1.237  16.695 -0.0289  0.3073 -0.1437
  842MPD2    C212372   0.281   1.212  16.830 -0.3342 -0.0082 -0.1912
  842MPD2    C312373   0.320   1.301  16.929  0.3437  0.5575 -0.1011
  842MPD2    C412374   0.405   1.404  16.891  0.0745 -1.2763  0.5288
  842MPD2    C512375   0.425   1.426  16.762 -0.2908  0.1596  0.2079
  842MPD2     H12376   0.229   1.121  16.858  0.7007 -0.5788 -0.1656
  842MPD2    H112377   0.442   1.484  16.955  1.1339 -1.6779  0.4108
  842MPD2    H212378   0.404   1.385  16.570 -2.4752  0.0767 -1.4513
  842MPD2    H312379   0.489   1.511  16.739  0.3547 -0.4686 -0.3190
  842MPD2     N12380   0.299   1.282  17.069 -0.3413 -0.0581 -0.1555
  842MPD2    H512381   0.354   1.342  17.130 -1.6106  2.0254 -1.0829
  842MPD2    N112382   0.283   1.149  16.584  0.4434  0.0649  0.3216
  842MPD2    H712383   0.310   1.186  16.494 -1.1108 -0.3035 -0.3101
  843MPD2     C12384   3.009   1.031  17.584  0.1914 -0.8828 -0.4481
  843MPD2    C112385   2.921   1.079  17.679 -0.5069  0.4379 -0.4019
  843MPD2    C212386   2.949   1.208   0.033 -0.4951 -0.0384  0.1626
  843MPD2    C312387   3.046   1.291  17.664  0.6214 -0.4599  1.1493
  843MPD2    C412388   3.120   1.244  17.561 -0.4953  0.0563 -0.6723
  843MPD2    C512389   3.104   1.115  17.528 -0.1885 -0.1214  0.1940
  843MPD2     H12390   2.884   1.255   0.105 -1.5492  0.9161 -1.4069
  843MPD2    H112391   3.204   1.288  17.508  0.0282 -0.1960 -0.0528
  843MPD2    H212392   2.993   0.934  17.539  0.8261 -0.8593 -0.7191
  843MPD2    H312393   3.168   1.080  17.448 -1.1179 -0.0956 -0.5657
  843MPD2     N12394   3.069   1.422   0.015 -0.5461  0.3720  0.0678
  843MPD2    H512395   3.142   1.476  17.662  1.8802 -2.4922  0.5550
  843MPD2    N112396   2.807   1.002   0.018 -0.4785  0.4090 -0.5460
  843MPD2    H712397   2.787   0.919  17.654  0.0119  1.6387 -2.5134
  844MPD2     C12398   0.783   0.372  16.652 -0.1195  0.7898  0.5965
  844MPD2    C112399   0.809   0.459  16.546  0.0277  0.7036  0.2239
  844MPD2    C212400   0.853   0.590  16.577 -0.1270 -0.5200 -0.1704
  844MPD2    C312401   0.881   0.622  16.705  0.3555  0.1681  0.2547
  844MPD2    C412402   0.855   0.533  16.807  0.7099  0.5199  0.4365
  844MPD2    C512403   0.802   0.416  16.780  0.0952  0.0908  0.5541
  844MPD2     H12404   0.884   0.657  16.498 -0.2355 -0.0570  0.1791
  844MPD2    H112405   0.865   0.563  16.911 -0.9397  0.3089  0.6562
  844MPD2    H212406   0.738   0.275  16.640  0.4619  0.6728 -0.5928
  844MPD2    H312407   0.762   0.351  16.857  0.8172 -1.0497 -0.0510
  844MPD2     N12408   0.945   0.742  16.742 -0.4949 -0.1330 -0.6072
  844MPD2    H512409   0.980   0.751  16.837 -1.1855  2.5206 -0.6214
  844MPD2    N112410   0.809   0.413  16.408  0.3021 -0.1664 -0.1617
  844MPD2    H712411   0.852   0.476  16.341 -0.8363  0.1994 -0.5559
  845MPD2     C12412   0.950   1.814  16.754 -0.4912 -0.5779  0.2139
  845MPD2    C112413   0.990   1.756  16.871  0.1647  0.3313  0.1234
  845MPD2    C212414   1.031   1.626  16.866 -0.1893  0.3440 -0.0039
  845MPD2    C312415   1.029   1.546  16.745 -0.6473 -0.3951  0.4138
  845MPD2    C412416   0.982   1.606  16.629 -0.4849 -0.0238  0.1814
  845MPD2    C512417   0.950   1.741  16.634  0.2821 -0.2328  0.1622
  845MPD2     H12418   1.053   1.578  16.960 -1.1501  0.8067  0.4496
  845MPD2    H112419   0.978   1.561  16.530  0.1548 -0.1517  0.2085
  845MPD2    H212420   0.933   1.921  16.760  1.9894 -0.0062 -3.2030
  845MPD2    H312421   0.914   1.799  16.550 -0.7795 -1.2060 -0.0465
  845MPD2     N12422   1.070   1.413  16.747 -0.6081 -0.1984  0.3450
  845MPD2    H512423   1.100   1.380  16.838 -1.0780  0.2635  0.6710
  845MPD2    N112424   1.004   1.848  16.977  0.1302 -0.1319 -0.2788
  845MPD2    H712425   0.983   1.946  16.957  0.7512 -0.0242 -0.4044
  846MPD2     C12426   2.863   1.448  13.626  0.6119 -0.4107  0.1149
  846MPD2    C112427   2.790   1.567  13.627  0.1333  0.4174  0.9426
  846MPD2    C212428   2.736   1.617  13.746 -0.3750 -0.2184  0.0778
  846MPD2    C312429   2.781   1.565  13.866  0.2664 -0.3679 -0.1047
  846MPD2    C412430   2.860   1.453  13.865  0.0579 -0.0336 -0.3630
  846MPD2    C512431   2.893   1.391  13.747 -0.1705  0.4299 -0.4986
  846MPD2     H12432   2.664   1.698  13.740  0.3602  0.4405  0.1501
  846MPD2    H112433   2.907   1.410  13.953  0.3783 -2.7153 -1.8390
  846MPD2    H212434   2.900   1.396  13.539  1.2464  0.7243 -0.2926
  846MPD2    H312435   2.967   1.312  13.746 -0.4974  0.0872  1.3659
  846MPD2     N12436   2.733   1.623  13.988  0.2097 -0.0427  0.5952
  846MPD2    H512437   2.663   1.696  13.983  1.5411  1.2486  0.6496
  846MPD2    N112438   2.766   1.650  13.517 -0.0563 -0.4981 -0.3299
  846MPD2    H712439   2.729   1.743  13.529  0.7905 -0.3235  1.0127
  847MPD2     C12440   2.973   2.461  14.135 -0.0761 -0.6930 -0.5006
  847MPD2    C112441   3.064   2.571  14.137 -0.4338 -0.0779 -0.4801
  847MPD2    C212442   3.181   2.556  14.210  1.2732  0.1285  0.2763
  847MPD2    C312443   3.197   2.449  14.298 -0.6354 -0.7390 -0.2501
  847MPD2    C412444   3.109   2.344  14.294  0.1574 -0.1528 -0.1074
  847MPD2    C512445   2.993   2.349  14.218 -0.1647 -0.2506 -0.0652
  847MPD2     H12446   3.253   2.636  14.225  2.6083 -0.7266 -1.5026
  847MPD2    H112447   3.118   2.258  14.358 -0.8943 -0.5052 -0.4382
  847MPD2    H212448   2.880   2.461  14.079  0.9901  0.2688 -2.2489
  847MPD2    H312449   2.926   2.264  14.223 -0.2798 -0.2277 -1.2223
  847MPD2     N12450   3.302   2.456  14.391 -0.8128  0.5764 -0.5411
  847MPD2    H512451   3.366   2.535  14.385  0.1468 -0.0418  1.3491
  847MPD2    N112452   3.043   2.690  14.068  0.1860  0.1811 -0.0019
  847MPD2    H712453   3.108   2.767  14.077 -0.1457  0.3909  0.6239
  848MPD2     C12454   0.599   1.151  16.339  1.2100 -0.0683 -0.3697
  848MPD2    C112455   0.631   1.218  16.456  0.3845  0.1400 -0.0136
  848MPD2    C212456   0.650   1.357  16.447 -0.4366  0.0929  1.0200
  848MPD2    C312457   0.647   1.428  16.331  0.2133 -0.4653  0.2835
  848MPD2    C412458   0.624   1.359  16.218 -0.5387 -0.5255 -0.1704
  848MPD2    C512459   0.604   1.222  16.225  1.1772 -0.3098  0.2439
  848MPD2     H12460   0.675   1.416  16.535 -0.9460  0.2659  1.0517
  848MPD2    H112461   0.620   1.406  16.120  2.3870  1.9891  0.9056
  848MPD2    H212462   0.586   1.043  16.335 -1.1757  0.2458 -1.3820
  848MPD2    H312463   0.578   1.181  16.128 -0.1091 -1.5331  1.0947
  848MPD2     N12464   0.665   1.563  16.323  0.1733 -0.3250  0.0075
  848MPD2    H512465   0.668   1.595  16.227 -1.6138 -1.5818 -0.4648
  848MPD2    N112466   0.633   1.165  16.584 -0.4193  0.3916 -0.2735
  848MPD2    H712467   0.656   1.216  16.669 -1.5205  0.4785 -0.0256
  849MPD2     C12468   4.555   0.942  13.876  0.1621  0.2559  0.6885
  849MPD2    C112469   4.664   0.859  13.857 -0.4693  0.3485  0.1870
  849MPD2    C212470   4.703   0.769  13.951 -0.0876  0.0154 -0.3568
  849MPD2    C312471   4.644   0.778  14.074  0.1158  0.3588  0.0076
  849MPD2    C412472   4.540   0.863  14.096 -0.0374 -0.0354  0.0804
  849MPD2    C512473   4.495   0.943  13.999 -0.2535  0.7136  0.7331
  849MPD2     H12474   0.069   0.710  13.935  1.4056  1.3240  3.0623
  849MPD2    H112475   4.485   0.863  14.190  0.6250 -2.6940  0.4834
  849MPD2    H212476   4.506   1.006  13.803 -1.7669 -0.3717  1.4458
  849MPD2    H312477   4.409   1.008  14.016  0.4438  1.8211 -0.0172
  849MPD2     N12478   4.688   0.694  14.181 -0.3358  0.5362 -0.9505
  849MPD2    H512479   4.664   0.714  14.277 -0.4566  1.3026 -1.1381
  849MPD2    N112480   0.009   0.870  13.735  0.1669 -0.3613  0.1177
  849MPD2    H712481   4.684   0.933  13.670  1.6033 -1.3781 -1.9074
  850MPD2     C12482   2.685   4.070  14.421 -0.1683  0.5267 -1.0898
  850MPD2    C112483   2.666   4.081  14.554  0.8493 -0.7340 -0.6466
  850MPD2    C212484   2.763   4.134  14.642  0.4595 -0.2866 -0.0049
  850MPD2    C312485   2.883   4.166  14.594  0.1873  0.8476  0.2013
  850MPD2    C412486   2.908   4.159  14.457  0.9600 -0.1086  0.0542
  850MPD2    C512487   2.809   4.107  14.375 -0.2849 -0.1069 -0.2763
  850MPD2     H12488   2.741   4.160  14.745  0.6553  1.4288 -0.4094
  850MPD2    H112489   3.000   4.196  14.413  1.3383 -1.6236 -0.4472
  850MPD2    H212490   2.613   4.035  14.347  0.8325  0.7028 -2.1520
  850MPD2    H312491   2.828   4.113  14.269  1.6058 -2.9015 -0.0884
  850MPD2     N12492   2.997   4.205  14.668 -0.0251 -0.4294  0.6141
  850MPD2    H512493   3.085   4.217  14.619 -1.1276  0.5372 -1.1400
  850MPD2    N112494   2.541   4.038  14.599 -0.5592  0.0360 -0.1502
  850MPD2    H712495   2.474   4.028  14.523  0.7298  0.8966 -1.3878
  851MPD2     C12496   3.195   3.800  15.072 -0.6243  0.7904 -0.3275
  851MPD2    C112497   3.098   3.750  14.985  0.4668 -0.1209 -0.0052
  851MPD2    C212498   3.119   3.621  14.925 -0.2632  0.3864  0.2775
  851MPD2    C312499   3.237   3.550  14.956  0.0667  0.4628 -0.4912
  851MPD2    C412500   3.332   3.604  15.043  0.0185 -0.0702  0.2039
  851MPD2    C512501   3.308   3.728  15.099  1.0102  0.8088  0.0631
  851MPD2     H12502   3.045   3.567  14.866 -1.7383 -0.0938  2.5381
  851MPD2    H112503   3.427   3.560  15.071  0.6434 -0.7247 -2.9624
  851MPD2    H212504   3.178   3.890  15.129  0.5790  1.5019 -1.0898
  851MPD2    H312505   3.386   3.772  15.160  0.7689 -0.9549  1.6621
  851MPD2     N12506   3.241   3.418  14.910 -0.5578  0.5579 -0.2115
  851MPD2    H512507   3.164   3.391  14.849 -1.2353  0.1893  0.7969
  851MPD2    N112508   2.981   3.826  14.964 -0.6080 -1.1230 -0.4470
  851MPD2    H712509   2.971   3.913  15.016  1.1787 -0.0185 -1.9503
  852MPD2     C12510   3.069   0.715  10.007  0.1368  0.3563 -0.7257
  852MPD2    C112511   3.006   0.835   9.970  0.4481  0.3671  0.5130
  852MPD2    C212512   3.070   0.926   9.889  0.2072 -0.0207  0.3879
  852MPD2    C312513   3.200   0.896   9.849 -1.0251  1.3366 -0.2326
  852MPD2    C412514   3.258   0.782   9.890 -0.2573  0.1443  0.1894
  852MPD2    C512515   3.197   0.688   9.974  0.7802  0.2285 -0.2067
  852MPD2     H12516   3.023   1.018   9.854  0.8005  0.0684 -0.1793
  852MPD2    H112517   3.359   0.759   9.859 -0.3767  1.0296 -0.8776
  852MPD2    H212518   3.019   0.646  10.074  2.3315 -0.3398  0.1967
  852MPD2    H312519   3.251   0.606  10.020 -1.9772 -1.8958 -0.7795
  852MPD2     N12520   3.268   0.986   9.758 -0.0507  0.1756  0.4858
  852MPD2    H512521   3.217   1.069   9.729 -0.7675 -1.0500 -1.7275
  852MPD2    N112522   2.867   0.860  10.005  0.2844  0.5278  0.3789
  852MPD2    H712523   2.832   0.951   9.978  1.0086  1.6281  3.0847
  853MPD2     C12524   4.608   1.296  12.128  0.1451 -0.1644  0.1774
  853MPD2    C112525   4.539   1.412  12.100  0.5764 -0.4388  0.6476
  853MPD2    C212526   4.538   1.450  11.964  0.3013  0.3785  0.2928
  853MPD2    C312527   4.610   1.373  11.865 -0.5579  0.3203 -0.0362
  853MPD2    C412528   4.680   1.256  11.901 -0.6625 -0.3805  0.0191
  853MPD2    C512529   4.673   1.220  12.031 -0.6437 -1.0022  0.7698
  853MPD2     H12530   4.493   1.541  11.925 -0.7660 -0.1835  0.2086
  853MPD2    H112531   0.008   1.187  11.834  1.8753 -0.1485  1.7163
  853MPD2    H212532   4.607   1.269  12.233  0.3647  0.3773  0.3227
  853MPD2    H312533   4.710   1.121  12.056 -3.2466 -1.8663  1.3130
  853MPD2     N12534   4.613   1.409  11.730  0.7848 -0.2468  0.4623
  853MPD2    H512535   4.654   1.339  11.670  0.6602  0.9186 -0.9672
  853MPD2    N112536   4.470   1.474  12.203  0.0327 -0.3811  0.5495
  853MPD2    H712537   4.491   1.446  12.298 -0.7427 -1.4293  0.4141
  854MPD2     C12538   1.422   1.455  13.233 -0.4399 -0.4963 -0.7362
  854MPD2    C112539   1.461   1.384  13.116  0.1443  0.1746 -0.7426
  854MPD2    C212540   1.563   1.288  13.123 -0.3277  0.2540  0.2683
  854MPD2    C312541   1.626   1.261  13.242 -0.0042 -0.5841  0.5413
  854MPD2    C412542   1.585   1.325  13.359  0.2374  0.0404  0.4809
  854MPD2    C512543   1.492   1.428  13.347 -0.2853  0.1432 -0.1349
  854MPD2     H12544   1.582   1.226  13.037  1.4420  1.3353 -0.1151
  854MPD2    H112545   1.647   1.328  13.447  0.7959 -0.2651  0.0979
  854MPD2    H212546   1.348   1.534  13.227 -0.9562 -1.0124 -1.1100
  854MPD2    H312547   1.482   1.487  13.436  2.0128 -0.6170  0.6409
  854MPD2     N12548   1.738   1.174  13.251  0.0574  0.6228 -0.1439
  854MPD2    H512549   1.774   1.164  13.345  0.7047 -3.8995 -0.8834
  854MPD2    N112550   1.396   1.412  12.992  0.7413  0.1614 -0.7057
  854MPD2    H712551   1.315   1.473  12.993 -0.6122 -1.6361  0.3140
  855MPD2     C12552   2.103   1.291  13.923 -0.4602 -0.2995 -0.2195
  855MPD2    C112553   2.165   1.167  13.903 -0.4032  0.1748  0.3238
  855MPD2    C212554   2.162   1.129  13.771 -0.2243 -0.5568 -0.1985
  855MPD2    C312555   2.117   1.210  13.672 -0.6477 -0.3436  0.2064
  855MPD2    C412556   2.064   1.335  13.699  0.2142 -0.2929 -1.2518
  855MPD2    C512557   2.050   1.370  13.827  0.4593 -0.0964 -0.5294
  855MPD2     H12558   2.208   1.035  13.742  0.6764  0.1567 -1.0970
  855MPD2    H112559   2.025   1.398  13.620 -2.8097 -0.2597  0.2633
  855MPD2    H212560   2.092   1.340  14.019 -1.6392 -2.0343  0.5308
  855MPD2    H312561   1.992   1.459  13.849 -1.0448 -0.8985 -1.2775
  855MPD2     N12562   2.101   1.162  13.539  0.5834  0.3440  0.1704
  855MPD2    H512563   2.054   1.228  13.478  0.5491 -0.7987 -1.0567
  855MPD2    N112564   2.206   1.073  14.000 -0.1321  0.0648 -0.0588
  855MPD2    H712565   2.267   0.999  13.967  0.4602 -0.2004  1.6212
  856MPD2     C12566   3.841   2.051  14.153  0.4507 -0.1143  0.2031
  856MPD2    C112567   3.878   2.174  14.101 -0.7534 -0.2888  0.2210
  856MPD2    C212568   3.806   2.234  14.004 -0.3550  0.5441  0.2528
  856MPD2    C312569   3.678   2.183  13.973 -0.4991  0.2522 -1.2545
  856MPD2    C412570   3.638   2.064  14.031  0.2187 -0.1399  0.2388
  856MPD2    C512571   3.724   1.997  14.112 -0.3359 -0.3267 -0.2005
  856MPD2     H12572   3.832   2.329  13.960  0.0743  1.0466  1.5778
  856MPD2    H112573   3.537   2.029  14.017  0.1246  0.0207  0.5162
  856MPD2    H212574   3.898   1.988  14.219 -0.3888 -0.3130  0.7423
  856MPD2    H312575   3.695   1.910  14.171  1.2532 -0.2673  0.6651
  856MPD2     N12576   3.583   2.252  13.898  0.7766 -0.1756 -0.0339
  856MPD2    H512577   3.492   2.208  13.889 -0.8406  3.3364 -0.7788
  856MPD2    N112578   4.001   2.233  14.144  0.5969 -0.0628  0.6328
  856MPD2    H712579   4.040   2.300  14.079  2.3526 -0.7647  0.9392
  857MPD2     C12580   1.053   3.730  13.293 -0.5568 -0.4713 -0.0847
  857MPD2    C112581   1.029   3.829  13.200 -0.2361  0.1098  0.2470
  857MPD2    C212582   1.039   3.963  13.228 -0.0848 -0.3310 -0.5932
  857MPD2    C312583   1.081   4.010  13.354 -0.6944 -0.1157 -0.5036
  857MPD2    C412584   1.100   3.914  13.447  0.5814 -0.2282  0.2323
  857MPD2    C512585   1.092   3.780  13.419  0.3158 -0.7361  0.2721
  857MPD2     H12586   1.015   4.033  13.150 -0.2606 -0.3412 -0.5469
  857MPD2    H112587   1.136   3.936  13.547  0.6567 -1.5799  0.4970
  857MPD2    H212588   1.046   3.623  13.276 -1.6169 -0.0947 -2.0103
  857MPD2    H312589   1.129   3.709  13.492  0.0320 -0.3207  0.8206
  857MPD2     N12590   1.088   4.151  13.375 -0.1965  0.4745 -0.3601
  857MPD2    H512591   1.090   4.207  13.290 -0.1601  3.4406  1.6168
  857MPD2    N112592   0.968   3.786  13.076 -0.3291  1.1059  0.1143
  857MPD2    H712593   0.951   3.687  13.065  2.7525  0.6132 -0.1792
  858MPD2     C12594   1.261   3.811  16.672  0.2045 -0.7650 -0.1644
  858MPD2    C112595   1.378   3.747  16.712  0.0264 -0.9519 -0.0634
  858MPD2    C212596   1.454   3.797  16.816 -0.0170 -0.2901  0.0774
  858MPD2    C312597   1.403   3.912  16.886 -0.4167 -0.4040  0.0714
  858MPD2    C412598   1.291   3.977  16.843  0.1925  0.0392 -0.7966
  858MPD2    C512599   1.219   3.927  16.737 -0.0933 -0.1785  0.6475
  858MPD2     H12600   1.541   3.741  16.849 -0.4260 -0.7125  0.4447
  858MPD2    H112601   1.257   4.068  16.891  0.4361 -0.9816  1.3246
  858MPD2    H212602   1.209   3.775  16.584 -0.0522 -0.5394 -0.1041
  858MPD2    H312603   1.131   3.983  16.710  0.2472  0.9094  1.7842
  858MPD2     N12604   1.474   3.965  16.992  0.0250  0.1765  0.8858
  858MPD2    H512605   1.416   4.029  17.046  0.4504 -0.3210  1.9316
  858MPD2    N112606   1.419   3.627  16.648 -0.4086  0.4079 -0.7594
  858MPD2    H712607   1.362   3.585  16.576  2.3106 -0.9785 -2.0846
  859MPD2     C12608   4.512   0.605  15.031  0.2267 -0.2216 -0.3767
  859MPD2    C112609   4.633   0.621  15.103  0.1313  0.3310 -0.2693
  859MPD2    C212610   4.691   0.508  15.168  0.1513 -0.0204 -0.6882
  859MPD2    C312611   4.625   0.390  15.166  0.5259 -0.0626  0.0743
  859MPD2    C412612   4.500   0.380  15.098 -0.0084 -0.0982  0.0113
  859MPD2    C512613   4.444   0.487  15.034  0.2707 -0.0649  0.3704
  859MPD2     H12614   0.067   0.511  15.213 -1.1119 -1.7046  2.1979
  859MPD2    H112615   4.439   0.291  15.108 -0.5769  0.6337  3.1588
  859MPD2    H212616   4.463   0.692  14.990 -0.1969 -1.3503 -2.2504
  859MPD2    H312617   4.342   0.474  15.000 -1.1080  0.9674  4.2013
  859MPD2     N12618   4.683   0.270  15.215 -0.5879 -0.3747  0.5951
  859MPD2    H512619   4.645   0.178  15.195 -1.0293  0.2454 -1.4446
  859MPD2    N112620   4.699   0.751  15.100  0.3857  0.2207  0.3779
  859MPD2    H712621   4.659   0.831  15.052  1.9082 -0.0563 -1.3372
  860MPD2     C12622   2.181   0.863  11.693 -0.1383  0.0230  0.4236
  860MPD2    C112623   2.131   0.934  11.804 -0.2262 -0.4555  0.4056
  860MPD2    C212624   2.058   0.877  11.901  0.3478 -1.4275 -0.3137
  860MPD2    C312625   2.029   0.743  11.882  0.3122  0.4850  1.0664
  860MPD2    C412626   2.057   0.675  11.767  0.2157 -0.3228  0.1417
  860MPD2    C512627   2.131   0.734  11.672 -0.2407 -0.0265  0.1820
  860MPD2     H12628   2.014   0.930  11.984 -1.8484 -1.5148 -1.4008
  860MPD2    H112629   2.020   0.574  11.752 -0.6106  0.2715 -1.8173
  860MPD2    H212630   2.235   0.907  11.610 -0.2509  0.7307  0.7230
  860MPD2    H312631   2.144   0.687  11.575 -1.8130 -0.3152  0.1098
  860MPD2     N12632   1.948   0.691  11.985  0.0366 -0.0322  0.7224
  860MPD2    H512633   1.930   0.756  12.061 -2.1618  0.1708  0.0332
  860MPD2    N112634   2.163   1.066  11.818  0.0523  0.0316 -0.1155
  860MPD2    H712635   2.128   1.105  11.905 -0.1726 -3.4500  1.3454
  861MPD2     C12636   1.210   4.192  11.131 -0.2337 -1.3231 -0.0455
  861MPD2    C112637   1.092   4.167  11.207 -0.1453 -0.0730  0.6375
  861MPD2    C212638   0.973   4.202  11.148 -0.2327  0.0576  0.2918
  861MPD2    C312639   0.965   4.268  11.029 -0.0023 -0.4777  0.2586
  861MPD2    C412640   1.083   4.297  10.962  1.0667  0.2804 -0.5805
  861MPD2    C512641   1.203   4.255  11.010 -0.2514  0.4522  0.0387
  861MPD2     H12642   0.880   4.179  11.198  0.2368  0.2844  1.2705
  861MPD2    H112643   1.074   4.343  10.864 -2.8247 -1.6960 -1.1606
  861MPD2    H212644   1.309   4.175  11.172  0.2209 -0.4801 -0.7817
  861MPD2    H312645   1.295   4.281  10.957 -0.5577 -0.1579 -0.7801
  861MPD2     N12646   0.848   4.317  10.973 -0.8967 -0.0683 -0.1160
  861MPD2    H512647   0.843   4.363  10.883  1.7112  0.6488  0.1007
  861MPD2    N112648   1.091   4.104  11.333  0.2367  0.1586 -0.1604
  861MPD2    H712649   1.004   4.099  11.386  1.3260 -1.6674  1.4530
  862MPD2     C12650   0.455   4.325  10.354 -0.7325 -0.2086  0.9495
  862MPD2    C112651   0.555   4.287  10.439  0.9297  0.0924  0.2265
  862MPD2    C212652   0.602   4.155  10.432 -0.3079 -0.8554 -0.1727
  862MPD2    C312653   0.573   4.069  10.329 -0.2999  0.0153 -0.2985
  862MPD2    C412654   0.485   4.123  10.236  0.0682  0.0901 -0.2625
  862MPD2    C512655   0.421   4.245  10.251  0.6970  0.1211  0.9344
  862MPD2     H12656   0.674   4.132  10.510  0.6608 -1.7111 -1.3318
  862MPD2    H112657   0.438   4.055  10.167 -1.0644  1.0077 -0.3831
  862MPD2    H212658   0.405   4.421  10.360 -1.9135 -0.7660  0.0329
  862MPD2    H312659   0.349   4.268  10.173  2.0113  0.1541 -0.2690
  862MPD2     N12660   0.629   3.943  10.321  0.1517  0.0755 -0.0943
  862MPD2    H512661   0.683   3.908  10.400  0.1555 -0.5369 -0.3684
  862MPD2    N112662   0.605   4.361  10.551  0.5641 -0.3439 -0.4798
  862MPD2    H712663   0.677   4.313  10.604  0.2131  0.3384  0.6018
  863MPD2     C12664   4.274   3.208  16.832  0.5787 -0.5191  0.8355
  863MPD2    C112665   4.314   3.075  16.841  0.6230 -0.0694 -0.2984
  863MPD2    C212666   4.422   3.042  16.916  0.2588 -0.1071 -0.0047
  863MPD2    C312667   4.491   3.139  16.994  0.5134 -0.1252 -0.4063
  863MPD2    C412668   4.456   3.270  16.977  0.4156 -0.1470 -0.5895
  863MPD2    C512669   4.349   3.307  16.894 -0.7011 -0.0650  0.9218
  863MPD2     H12670   4.450   2.938  16.923  1.5745  0.3898  2.4229
  863MPD2    H112671   4.503   3.351  17.033  0.5558 -0.4381 -0.2842
  863MPD2    H212672   4.196   3.236  16.762  1.2831  0.6974  0.5403
  863MPD2    H312673   4.342   3.414  16.875  2.3864 -0.1278 -0.5828
  863MPD2     N12674   4.601   3.114  17.073  0.4470  0.3394 -0.0830
  863MPD2    H512675   4.643   3.194  17.118 -1.9224 -0.3429  3.2989
  863MPD2    N112676   4.240   2.978  16.764 -0.1696  0.4791  0.4913
  863MPD2    H712677   4.154   3.007  16.720  1.0222  2.1742 -0.7503
  864MPD2     C12678   0.366   4.134  17.375  0.2212  0.0423  0.2157
  864MPD2    C112679   0.403   4.030  17.297 -0.5208  0.0528  0.7381
  864MPD2    C212680   0.450   4.060  17.167  0.0734 -0.1157 -0.2224
  864MPD2    C312681   0.464   4.196  17.136 -0.2571 -0.0478  0.1050
  864MPD2    C412682   0.428   4.294  17.225 -0.3513  0.1139  0.0711
  864MPD2    C512683   0.385   4.271  17.351  0.5482 -0.2420 -0.2124
  864MPD2     H12684   0.468   3.967  17.112  2.4426 -0.7870  1.7024
  864MPD2    H112685   0.440   4.398  17.196 -1.9181  0.2464 -0.1547
  864MPD2    H212686   0.317   4.110  17.468 -0.5609 -0.1397 -0.2385
  864MPD2    H312687   0.350   4.340  17.428 -0.6904 -0.1418 -0.8662
  864MPD2     N12688   0.509   4.241  17.010  0.2901  0.3711 -0.1677
  864MPD2    H512689   0.531   4.340  17.006 -3.0220  1.1071  0.4793
  864MPD2    N112690   0.363   3.894  17.334  0.2348 -0.4740  0.1148
  864MPD2    H712691   0.323   3.886  17.427 -0.1170  2.5075  0.2208
  865MPD2     C12692   0.423   4.248  16.079  0.0157 -0.1452  0.6399
  865MPD2    C112693   0.435   4.182  16.199  0.7600 -0.2444 -0.1715
  865MPD2    C212694   0.462   4.254  16.315 -0.4361  0.1375  0.4683
  865MPD2    C312695   0.476   4.388  16.311 -0.6283 -0.9322  0.0480
  865MPD2    C412696   0.481   4.448  16.194  0.4568 -0.8181 -1.0780
  865MPD2    C512697   0.443   4.386  16.080 -0.3529  0.0025  0.7234
  865MPD2     H12698   0.465   4.203  16.410 -0.1573  1.7614  1.3290
  865MPD2    H112699   0.532   4.540  16.169 -0.3849 -0.0904 -0.1126
  865MPD2    H212700   0.388   4.203  15.986 -0.9746 -0.0172  0.9493
  865MPD2    H312701   0.433   4.438  15.985  0.4087 -0.1529  0.5626
  865MPD2     N12702   0.501   4.457  16.427  0.3933 -0.1377  0.7191
  865MPD2    H512703   0.563   4.537  16.423 -2.4444  2.1185  0.9574
  865MPD2    N112704   0.433   4.045  16.184  0.0303 -0.1801 -0.3560
  865MPD2    H712705   0.419   4.005  16.092  0.4995 -0.3729 -0.3470
  866MPD2     C12706   1.628   4.204  11.218 -0.0440 -0.5388  0.2560
  866MPD2    C112707   1.587   4.305  11.137  0.1443  1.1055 -0.4396
  866MPD2    C212708   1.492   4.404  11.171 -0.4924 -0.1508 -0.7046
  866MPD2    C312709   1.428   4.394  11.289 -0.5162  0.5173 -0.4417
  866MPD2    C412710   1.472   4.287  11.376 -0.5732 -0.4496  0.2384
  866MPD2    C512711   1.560   4.193  11.333 -0.7101  0.2577 -0.0740
  866MPD2     H12712   1.461   4.480  11.101 -0.5521  0.9580  0.5289
  866MPD2    H112713   1.429   4.268  11.474 -2.0814 -1.0040 -0.5471
  866MPD2    H212714   1.695   4.127  11.180 -1.1573 -0.9941 -0.8089
  866MPD2    H312715   1.578   4.110  11.400  2.2208 -0.4350 -1.7320
  866MPD2     N12716   1.338   4.485  11.350 -0.0393  0.0255 -0.7591
  866MPD2    H512717   1.297   4.451  11.437 -0.9838  1.0930 -0.8005
  866MPD2    N112718   1.639   4.300  11.009 -0.2337  0.3403 -0.0067
  866MPD2    H712719   1.694   4.220  10.980  0.3384  0.4783  0.6959
  867MPD2     C12720   4.167   4.395  16.666 -0.8122 -0.5095  0.0601
  867MPD2    C112721   4.212   4.372  16.790  0.4848  0.1208  0.0433
  867MPD2    C212722   4.152   4.424  16.903  0.0886  0.0352  0.0298
  867MPD2    C312723   4.061   4.524  16.884 -0.2354 -0.6041 -0.3521
  867MPD2    C412724   4.017   4.554  16.759  0.3941  0.9084  0.0744
  867MPD2    C512725   4.059   4.483  16.657  0.2915  0.0009 -0.4359
  867MPD2     H12726   4.175   4.394  17.005  2.6712 -1.3353 -0.9497
  867MPD2    H112727   3.952   4.639  16.742 -0.8571  0.1168  0.9368
  867MPD2    H212728   4.202   4.352  16.573  2.1125  1.7483  0.1269
  867MPD2    H312729   4.019   4.516  16.561  0.4736 -0.0890 -0.5428
  867MPD2     N12730   4.016   4.612  16.987  0.4224  0.1617  0.8480
  867MPD2    H512731   3.938   4.673  16.963  0.4945 -0.6123 -1.3377
  867MPD2    N112732   4.294   4.263  16.796  0.2553  0.5620 -0.6231
  867MPD2    H712733   4.316   4.220  16.707  0.6628 -0.2765 -0.1279
  868MPD2     C12734   0.666   2.241  13.098 -0.7621 -0.1016 -0.1348
  868MPD2    C112735   0.750   2.343  13.064 -0.4152 -0.7134  0.1264
  868MPD2    C212736   0.709   2.474  13.049 -0.7407 -0.4379  0.2541
  868MPD2    C312737   0.573   2.500  13.077  0.1512 -0.4260 -0.2440
  868MPD2    C412738   0.488   2.399  13.113  0.2274  0.1885  0.0608
  868MPD2    C512739   0.536   2.266  13.115 -0.2959  0.7703 -0.0885
  868MPD2     H12740   0.774   2.561  13.042  0.3102 -1.0407  2.8213
  868MPD2    H112741   0.384   2.412  13.141  0.4340  3.6055 -0.8002
  868MPD2    H212742   0.702   2.139  13.102  1.1064  0.4601 -2.7506
  868MPD2    H312743   0.469   2.183  13.132  0.2797  0.0096 -1.4873
  868MPD2     N12744   0.525   2.636  13.080 -0.1291  0.7437 -0.3214
  868MPD2    H512745   0.586   2.714  13.058 -0.3864  0.7115 -1.1573
  868MPD2    N112746   0.883   2.303  13.037  0.2615  0.2927  0.3381
  868MPD2    H712747   0.910   2.212  13.075  0.4174  0.2781  0.1905
  869MPD2     C12748   2.543   1.079   1.192 -0.1734  0.4142  0.7544
  869MPD2    C112749   2.435   1.073   1.278 -0.1598  0.5671  0.4003
  869MPD2    C212750   2.307   1.094   1.229 -0.6018 -0.3628  0.1680
  869MPD2    C312751   2.279   1.087   1.091 -0.4581 -0.3419 -0.4159
  869MPD2    C412752   2.388   1.106   1.005 -0.0823 -0.3710  0.1867
  869MPD2    C512753   2.512   1.098   1.056  0.1144  0.3416  0.1091
  869MPD2     H12754   2.227   1.086   1.301  0.5409 -2.2329  1.2061
  869MPD2    H112755   2.384   1.112   0.897  3.2757 -2.4296 -0.0795
  869MPD2    H212756   2.643   1.052   1.222  0.6219  0.8036 -1.6218
  869MPD2    H312757   2.596   1.092   0.989 -0.5988  0.2965 -0.7879
  869MPD2     N12758   2.155   1.081   1.041  0.2306 -1.4385 -0.3286
  869MPD2    H512759   2.153   1.093   0.940  0.4716  0.4881 -0.1033
  869MPD2    N112760   2.443   1.056   1.413  0.4799 -0.3903  0.1439
  869MPD2    H712761   2.356   1.074   1.462  2.2739  2.1737  2.3828
  870MPD2     C12762   1.024   0.324   1.223 -0.5102 -0.1530 -0.0930
  870MPD2    C112763   1.110   0.214   1.224  0.4491  0.9323 -0.8339
  870MPD2    C212764   1.146   0.160   1.100  0.3777 -0.4277 -0.0074
  870MPD2    C312765   1.099   0.215   0.981 -0.1001 -0.4682  0.4877
  870MPD2    C412766   1.005   0.323   0.993 -0.5609  0.1099 -0.6096
  870MPD2    C512767   0.965   0.379   1.113  0.5048 -0.0455  0.3016
  870MPD2     H12768   1.202   0.067   1.095  0.4756 -0.2593 -1.8727
  870MPD2    H112769   0.954   0.366   0.908 -0.9898  1.0718  0.1335
  870MPD2    H212770   1.003   0.373   1.317  0.0841  0.5534 -0.3340
  870MPD2    H312771   0.897   0.463   1.123 -1.7149 -1.8754  0.4862
  870MPD2     N12772   1.136   0.165   0.854 -0.3786  0.0160 -0.2739
  870MPD2    H512773   1.211   0.097   0.853 -0.9384 -0.6049 -0.1594
  870MPD2    N112774   1.161   0.164   1.349  0.2918  0.3201 -0.3834
  870MPD2    H712775   1.129   0.217   1.430  1.1393  0.8735 -0.4133
  871MPD2     C12776   3.039   4.178  16.493  0.7954  1.0399 -0.4650
  871MPD2    C112777   3.006   4.107  16.608  0.3871  0.0901  0.3100
  871MPD2    C212778   2.992   3.967  16.606 -0.1145  1.1858 -0.0202
  871MPD2    C312779   3.019   3.899  16.486  0.3094  0.0565 -0.7515
  871MPD2    C412780   3.056   3.968  16.372  0.0453 -0.5838 -0.5907
  871MPD2    C512781   3.058   4.104  16.374 -0.5135 -0.0748  0.4346
  871MPD2     H12782   2.971   3.912  16.698  0.7709 -0.2697 -0.6826
  871MPD2    H112783   3.063   3.921  16.274  0.7266 -2.1652  0.2099
  871MPD2    H212784   3.042   4.286  16.488 -1.3059  1.2983  3.6998
  871MPD2    H312785   3.067   4.153  16.277 -1.4081 -0.4654  0.1506
  871MPD2     N12786   3.029   3.753  16.478  0.0386  0.4280  0.4466
  871MPD2    H512787   3.024   3.718  16.574 -2.4302 -0.9921 -0.1940
  871MPD2    N112788   2.988   4.178  16.728  1.0896 -0.1317  1.0241
  871MPD2    H712789   2.990   4.280  16.729 -1.6346 -0.0813  0.3914
  872MPD2     C12790   3.238   1.775  13.713  0.7332  0.4323  0.8017
  872MPD2    C112791   3.349   1.700  13.754  0.0398  0.0994  0.0035
  872MPD2    C212792   3.340   1.610  13.858  0.6086  0.1415  0.2800
  872MPD2    C312793   3.215   1.603  13.926 -0.0034  0.3756 -0.3098
  872MPD2    C412794   3.112   1.674  13.878 -0.7978  0.7248 -0.0294
  872MPD2    C512795   3.118   1.764  13.776  0.3382 -0.0360 -0.0046
  872MPD2     H12796   3.433   1.563  13.887 -0.1892 -0.9884  1.0282
  872MPD2    H112797   3.024   1.674  13.940 -0.9554 -2.3792 -0.2602
  872MPD2    H212798   3.250   1.844  13.631 -1.0235 -0.6959 -0.4067
  872MPD2    H312799   3.036   1.829  13.748  1.2438  0.3483 -1.7706
  872MPD2     N12800   3.195   1.524  14.040 -0.3151  0.2220 -0.7754
  872MPD2    H512801   3.101   1.525  14.076 -0.1550  0.3013 -0.3633
  872MPD2    N112802   3.480   1.705  13.697 -0.0101 -0.2180 -0.4331
  872MPD2    H712803   3.542   1.630  13.722 -0.3081 -0.4230 -0.3075
  873MPD2     C12804   4.538   2.039   0.957 -0.4286 -0.2329 -0.2488
  873MPD2    C112805   4.670   2.042   0.995  0.1158  0.9952 -0.9333
  873MPD2    C212806   0.038   1.956   0.930  0.0407  0.1860  0.1740
  873MPD2    C312807   4.718   1.857   0.845 -0.4239 -0.0269  0.1385
  873MPD2    C412808   4.589   1.856   0.805 -0.5352  0.6536  0.4014
  873MPD2    C512809   4.497   1.942   0.864  0.0739  0.3812 -0.8592
  873MPD2     H12810   0.145   1.970   0.940 -0.1415  1.1299  0.8446
  873MPD2    H112811   4.549   1.768   0.756  1.3961 -1.0821  1.9322
  873MPD2    H212812   4.461   2.097   1.006 -0.1194  0.4234 -0.5340
  873MPD2    H312813   4.391   1.932   0.841  0.1903  0.0674 -1.2630
  873MPD2     N12814   0.088   1.772   0.771  0.0627  0.0125  0.5780
  873MPD2    H512815   0.049   1.707   0.703 -0.7209 -1.1438  2.1364
  873MPD2    N112816   4.705   2.131   1.099  0.3319 -0.5430 -0.3961
  873MPD2    H712817   4.625   2.179   1.139  0.0705 -0.8989 -0.4894
  874MPD2     C12818   0.121   1.467  15.969 -0.5147  0.2902 -0.4244
  874MPD2    C112819   0.192   1.430  16.081  0.2574  0.2276 -0.3614
  874MPD2    C212820   0.284   1.515  16.133  0.3958  0.3534  0.0678
  874MPD2    C312821   0.300   1.642  16.082  0.2658 -0.3113 -0.0343
  874MPD2    C412822   0.224   1.678  15.977 -0.0082 -0.0487 -0.3304
  874MPD2    C512823   0.139   1.592  15.915  0.2334 -1.0239  0.4617
  874MPD2     H12824   0.349   1.483  16.214 -0.5486 -0.5956  0.4457
  874MPD2    H112825   0.236   1.780  15.943 -1.4252  0.4297  0.6060
  874MPD2    H212826   0.051   1.398  15.925  0.1036  0.3009 -1.4109
  874MPD2    H312827   0.086   1.626  15.826 -0.0553  0.5542  1.2503
  874MPD2     N12828   0.391   1.730  16.143 -0.3424  0.7466 -0.2233
  874MPD2    H512829   0.437   1.703  16.229 -0.1397 -0.2455 -0.6431
  874MPD2    N112830   0.150   1.308  16.129  0.6156  0.2389  0.3439
  874MPD2    H712831   0.068   1.262  16.093  0.5233  0.5808  0.1171
  875MPD2     C12832   1.663   4.659  14.684 -0.2505  0.7196 -0.6623
  875MPD2    C112833   1.541   4.620  14.736 -0.0013 -0.1934 -1.1877
  875MPD2    C212834   1.512   4.652  14.868 -0.0410 -0.7929 -0.1070
  875MPD2    C312835   1.608   4.710  14.941 -0.2134 -0.0474 -0.4468
  875MPD2    C412836   1.719   0.031  14.887  0.1368 -0.2660  0.4084
  875MPD2    C512837   1.751   4.722  14.758 -0.4213 -0.3667 -0.3035
  875MPD2     H12838   1.419   4.619  14.915 -1.7693  0.6196 -2.5239
  875MPD2    H112839   1.805   0.068  14.942  0.5713 -0.0588 -0.3986
  875MPD2    H212840   1.691   4.634  14.583 -0.2676 -0.1509 -0.4465
  875MPD2    H312841   1.843   0.034  14.712 -0.3209  1.5674  1.3579
  875MPD2     N12842   1.582   0.015  15.074  0.4751  0.4315 -0.0207
  875MPD2    H512843   1.647   0.075  15.123  1.1483  0.2902 -0.7253
  875MPD2    N112844   1.443   4.546  14.663  0.6711  0.3440 -0.0741
  875MPD2    H712845   1.356   4.520  14.707  0.4612  1.5844  0.2418
  876MPD2     C12846   0.006   0.861  16.055  0.6010 -0.6015 -0.4150
  876MPD2    C112847   0.147   0.881  16.072 -0.5031 -0.4822  0.5093
  876MPD2    C212848   0.218   0.788  16.139 -0.5145 -0.2899 -0.2362
  876MPD2    C312849   0.150   0.679  16.199  0.3407  0.2908 -0.2774
  876MPD2    C412850   0.012   0.674  16.199 -0.2281 -0.0401 -0.4325
  876MPD2    C512851   4.662   0.759  16.117 -0.6313  0.0564  0.1501
  876MPD2     H12852   0.325   0.798  16.144 -0.4679 -0.4131 -0.9167
  876MPD2    H112853   4.677   0.597  16.249  2.2271 -0.2901  2.0104
  876MPD2    H212854   4.664   0.914  15.987  0.8493  3.0785  2.1893
  876MPD2    H312855   4.555   0.751  16.106 -0.7878  0.9296  1.0005
  876MPD2     N12856   0.233   0.580  16.255 -0.2659 -0.1113 -0.2397
  876MPD2    H512857   0.332   0.605  16.248 -0.1978 -0.0011  1.0974
  876MPD2    N112858   0.205   0.981  15.988 -0.1279  0.1081 -0.0860
  876MPD2    H712859   0.150   1.026  15.916 -1.0941 -1.0367 -0.0652
  877MPD2     C12860   0.071   1.457  15.424 -0.9501 -0.3938  0.2480
  877MPD2    C112861   0.215   1.454  15.424 -0.3176  0.9972 -0.4300
  877MPD2    C212862   0.285   1.494  15.309 -0.3805  0.3000  0.2952
  877MPD2    C312863   0.217   1.522  15.193 -1.1207 -0.1034 -0.1280
  877MPD2    C412864   0.075   1.519  15.196  1.0692  0.5804 -0.8256
  877MPD2    C512865   0.009   1.492  15.312 -0.5078 -0.3991 -0.3480
  877MPD2     H12866   0.393   1.496  15.314 -0.2900 -0.9699 -1.1336
  877MPD2    H112867   0.013   1.526  15.108 -0.4710  2.1612  0.3791
  877MPD2    H212868   0.007   1.445  15.512 -0.3299  4.5067  1.3648
  877MPD2    H312869   4.623   1.494  15.317 -0.5437  0.5479 -1.6364
  877MPD2     N12870   0.282   1.553  15.070 -0.2331 -0.0353 -0.9795
  877MPD2    H512871   0.233   1.538  14.982 -1.9467  0.9965 -0.2122
  877MPD2    N112872   0.284   1.416  15.540 -0.3473 -0.3828  0.6281
  877MPD2    H712873   0.385   1.413  15.533 -0.4072  1.0667 -0.7084
  878MPD2     C12874   4.458   0.653  12.816 -0.4723 -0.0039  0.4502
  878MPD2    C112875   4.582   0.714  12.804 -0.0636  0.0946  0.4652
  878MPD2    C212876   4.668   0.730  12.907  0.5791  0.2980 -0.2798
  878MPD2    C312877   4.629   0.696  13.039 -0.1802  0.3604 -0.2226
  878MPD2    C412878   4.495   0.648  13.055  0.0927 -0.4363  0.6622
  878MPD2    C512879   4.420   0.619  12.945 -0.4901 -0.1332 -0.2688
  878MPD2     H12880   0.043   0.776  12.905  1.0069 -0.5809  0.6299
  878MPD2    H112881   4.460   0.614  13.152 -3.3163 -0.5040 -0.5691
  878MPD2    H212882   4.397   0.638  12.728  0.5667 -0.7627 -0.1478
  878MPD2    H312883   4.329   0.565  12.968 -0.2493 -0.7499 -0.7578
  878MPD2     N12884   4.716   0.712  13.151  0.7184  0.0815  0.3766
  878MPD2    H512885   0.093   0.720  13.135  0.7734 -0.5106  0.4208
  878MPD2    N112886   4.620   0.763  12.671 -0.2265  0.1672  0.2377
  878MPD2    H712887   4.564   0.740  12.589  1.1060 -1.5964 -0.1966
  879MPD2     C12888   0.429   2.974  17.067  0.2227 -0.1866 -0.0451
  879MPD2    C112889   0.447   2.897  17.180 -0.3624  0.0495  0.5345
  879MPD2    C212890   0.363   2.793  17.203 -1.0620 -0.0408  0.2570
  879MPD2    C312891   0.266   2.752  17.109 -0.1034  0.0324 -1.0262
  879MPD2    C412892   0.253   2.830  16.995 -0.4695 -0.6258  0.0626
  879MPD2    C512893   0.325   2.946  16.983  0.9099  0.5204  0.0939
  879MPD2     H12894   0.372   2.733  17.293 -0.4172 -0.6354 -0.1999
  879MPD2    H112895   0.184   2.819  16.913  0.3043 -1.5404 -0.4696
  879MPD2    H212896   0.486   3.062  17.039 -1.7197  0.1564 -2.9814
  879MPD2    H312897   0.304   3.012  16.901  0.5226 -2.0687 -1.8976
  879MPD2     N12898   0.179   2.639  17.127  0.3674 -0.0908 -1.0733
  879MPD2    H512899   0.108   2.627  17.056  1.1074 -0.8699 -1.6807
  879MPD2    N112900   0.546   2.941  17.267  0.2018 -0.5146  0.2039
  879MPD2    H712901   0.615   3.003  17.226  1.3063 -2.8036 -1.3703
  880MPD2     C12902   2.369   3.811   0.523 -0.3438  0.6579 -0.0765
  880MPD2    C112903   2.333   3.925   0.597  0.1527 -0.4514  0.4561
  880MPD2    C212904   2.340   3.924   0.732 -0.2816 -0.0748  0.0153
  880MPD2    C312905   2.383   3.811   0.801  0.0180 -0.3320 -0.0867
  880MPD2    C412906   2.417   3.694   0.727 -0.3494  0.3013  0.0404
  880MPD2    C512907   2.415   3.704   0.591 -0.2085 -0.8344  0.3401
  880MPD2     H12908   2.323   4.016   0.788 -1.4720 -0.6679  0.6411
  880MPD2    H112909   2.447   3.600   0.772 -0.0965 -0.7858 -2.3741
  880MPD2    H212910   2.361   3.816   0.415  0.3997  1.7859 -0.0740
  880MPD2    H312911   2.448   3.620   0.530 -0.9091 -0.0361 -1.1389
  880MPD2     N12912   2.388   3.811   0.944 -0.3503  0.2372 -0.2489
  880MPD2    H512913   2.359   3.898   0.988 -0.3154 -0.0819  0.3953
  880MPD2    N112914   2.280   4.034   0.535 -0.3411  0.3902 -0.1201
  880MPD2    H712915   2.298   4.039   0.435 -0.4245  1.5789 -0.0705
  881MPD2     C12916   2.514   0.044  17.555 -0.2404  0.2824  0.3712
  881MPD2    C112917   2.475   4.630  17.547 -0.1948  0.0685 -0.0512
  881MPD2    C212918   2.426   4.568  17.665 -0.9216  0.9232 -0.1233
  881MPD2    C312919   2.408   4.641   0.087 -0.7336  0.0343  0.0295
  881MPD2    C412920   2.445   0.051   0.099  0.0592 -0.1466 -0.7725
  881MPD2    C512921   2.498   0.115  17.674 -0.1938  0.0646 -0.0746
  881MPD2     H12922   2.395   4.465  17.656  0.0656  0.6557 -0.3978
  881MPD2    H112923   2.430   0.102   0.193 -0.2943 -1.9711  0.1628
  881MPD2    H212924   2.564   0.094  17.473  1.3671 -2.0289 -0.0590
  881MPD2    H312925   2.517   0.221  17.673 -1.4442  0.2994  0.6224
  881MPD2     N12926   2.348   4.583   0.204  0.3538 -0.6231 -0.5937
  881MPD2    H512927   2.324   4.643   0.282 -2.6024 -0.9863 -1.2085
  881MPD2    N112928   2.510   4.560  17.425 -0.0267 -0.2119 -0.3117
  881MPD2    H712929   2.529   4.609  17.338  1.4666  1.3355  0.8945
  882MPD2     C12930   0.148   1.348  14.323  0.0068 -0.1501 -0.8288
  882MPD2    C112931   0.140   1.448  14.409 -0.0886  0.3037  0.1672
  882MPD2    C212932   0.071   1.562  14.369 -1.0918  0.5519  1.2512
  882MPD2    C312933   0.011   1.570  14.246 -0.1879 -0.3436  0.4354
  882MPD2    C412934   0.018   1.464  14.156 -0.5448  0.2534  0.5342
  882MPD2    C512935   0.083   1.350  14.198 -0.0530  0.1919  0.0660
  882MPD2     H12936   0.053   1.645  14.437 -1.5316  2.6592 -1.4306
  882MPD2    H112937   4.691   1.463  14.060 -0.7327  0.2950  0.6313
  882MPD2    H212938   0.210   1.261  14.342 -2.0303 -1.6534 -1.0957
  882MPD2    H312939   0.101   1.271  14.126  0.9684  0.1975  0.3173
  882MPD2     N12940   4.646   1.679  14.221 -0.0936 -0.3243  1.0332
  882MPD2    H512941   4.554   1.661  14.183  1.5846 -0.5921 -2.9947
  882MPD2    N112942   0.215   1.430  14.525 -0.0861 -0.5209 -0.4709
  882MPD2    H712943   0.257   1.339  14.544  0.3655 -0.8359 -3.0380
  883MPD2     C12944   2.288   1.350  16.039  0.3239 -0.1494 -0.0027
  883MPD2    C112945   2.414   1.390  16.003  0.9360  0.8338  0.1898
  883MPD2    C212946   2.512   1.402  16.094  0.3501  0.1248 -0.6013
  883MPD2    C312947   2.489   1.397  16.226 -0.0709 -0.0218  0.2110
  883MPD2    C412948   2.361   1.368  16.270 -0.2287 -0.3570 -0.6569
  883MPD2    C512949   2.265   1.334  16.175 -0.1062  1.0179  0.0074
  883MPD2     H12950   2.606   1.436  16.054  0.0518  0.6245 -0.8739
  883MPD2    H112951   2.331   1.354  16.373 -0.6385 -2.5535 -1.0807
  883MPD2    H212952   2.216   1.319  15.964 -0.8944 -1.8998  1.8875
  883MPD2    H312953   2.166   1.300  16.200 -0.5500  0.6756 -2.2069
  883MPD2     N12954   2.597   1.433  16.313 -0.6846 -0.1784  0.1428
  883MPD2    H512955   2.691   1.431  16.275 -0.0612 -0.1381  1.6795
  883MPD2    N112956   2.452   1.407  15.865  0.2378 -0.2054 -0.5473
  883MPD2    H712957   2.549   1.387  15.844 -0.2421 -3.2886  0.1973
  884MPD2     C12958   4.025   2.407  15.686  0.2404  0.0903 -0.4448
  884MPD2    C112959   4.034   2.464  15.560  0.4739  0.2773 -0.3636
  884MPD2    C212960   3.910   2.506  15.505 -0.0952  0.0110  0.1642
  884MPD2    C312961   3.790   2.486  15.571  0.0247 -0.1253  0.3633
  884MPD2    C412962   3.787   2.408  15.686  0.7149  0.6449  0.5207
  884MPD2    C512963   3.907   2.377  15.745  0.4098 -0.0635  0.7578
  884MPD2     H12964   3.907   2.551  15.406  0.8726 -2.4965 -0.9990
  884MPD2    H112965   3.693   2.394  15.737 -1.0282  0.3752 -2.7725
  884MPD2    H212966   4.107   2.364  15.743  1.2961  2.8121  0.0806
  884MPD2    H312967   3.903   2.319  15.836  0.7540 -0.3470  0.5937
  884MPD2     N12968   3.678   2.529  15.495 -0.5751  0.4431  0.7803
  884MPD2    H512969   3.693   2.597  15.421 -1.4481 -0.2987 -0.0710
  884MPD2    N112970   4.159   2.491  15.484 -0.0963 -0.1928 -0.1946
  884MPD2    H712971   4.145   2.525  15.389  2.7301 -1.1580 -0.9467
  885MPD2     C12972   1.952   2.571   0.016  0.4919 -0.4354 -0.0337
  885MPD2    C112973   2.091   2.555  17.692  0.1183  0.3964 -0.5345
  885MPD2    C212974   2.138   2.546  17.567 -0.3551  0.2861  0.4017
  885MPD2    C312975   2.060   2.576  17.459  0.1010 -0.6248  0.5848
  885MPD2    C412976   1.924   2.596  17.472  0.0442 -0.5445 -0.0298
  885MPD2    C512977   1.868   2.588  17.594  0.1985 -0.8955  0.0416
  885MPD2     H12978   2.243   2.529  17.546 -0.6578 -1.7563  0.5920
  885MPD2    H112979   1.866   2.626  17.386  0.9144  0.0147 -0.4172
  885MPD2    H212980   1.916   2.580   0.118 -0.7823  2.5590 -0.7571
  885MPD2    H312981   1.763   2.605  17.610  0.6034  2.9475 -1.5161
  885MPD2     N12982   2.125   2.573  17.335 -0.4976 -0.5107  0.3035
  885MPD2    H512983   2.224   2.553  17.329 -0.4927  0.0386 -1.3873
  885MPD2    N112984   2.160   2.532   0.120  0.3975 -0.3055 -0.0292
  885MPD2    H712985   2.106   2.545   0.205  0.9875  1.8585  0.0143
  886MPD2     C12986   3.502   0.882  15.312  0.6635 -0.1775  0.0606
  886MPD2    C112987   3.596   0.927  15.403 -0.3562 -1.0451  0.0162
  886MPD2    C212988   3.652   1.054  15.388 -0.5030  0.0773  0.0728
  886MPD2    C312989   3.631   1.115  15.263  0.0068 -0.6252  0.3498
  886MPD2    C412990   3.544   1.060  15.161 -0.0924  0.0922 -0.1584
  886MPD2    C512991   3.475   0.943  15.192 -0.2812  0.4620  0.4077
  886MPD2     H12992   3.728   1.093  15.455 -0.2673  1.4506 -1.0096
  886MPD2    H112993   3.521   1.114  15.069 -1.5833 -2.1432 -1.0866
  886MPD2    H212994   3.464   0.781  15.305 -1.4263  0.4222  2.3520
  886MPD2    H312995   3.411   0.893  15.120  1.2789 -0.3729 -0.4090
  886MPD2     N12996   3.700   1.227  15.220  0.2249  0.2311 -0.1843
  886MPD2    H512997   3.678   1.260  15.127  0.0939  1.8390  0.4132
  886MPD2    N112998   3.643   0.843  15.509 -0.0391  0.4436 -0.1882
  886MPD2    H712999   3.702   0.888  15.579  0.6014 -3.8505  2.0038
  887MPD2     C13000   4.102   0.933  16.061 -0.3153  0.0885  0.1467
  887MPD2    C113001   3.982   0.958  15.989  0.1198  0.1584  0.9882
  887MPD2    C213002   3.946   1.092  15.978 -0.5952 -0.1074  0.3372
  887MPD2    C313003   4.024   1.190  16.023  0.2895  0.3155 -0.5457
  887MPD2    C413004   4.146   1.166  16.082 -0.0612  0.3167 -0.2738
  887MPD2    C513005   4.184   1.036  16.103 -0.3688  1.0905 -0.6550
  887MPD2     H13006   3.869   1.115  15.906  0.1728 -1.2007 -0.8271
  887MPD2    H113007   4.203   1.251  16.118  0.2381  0.2623 -0.6215
  887MPD2    H213008   4.153   0.839  16.076  0.3822  0.3002 -0.9237
  887MPD2    H313009   4.272   1.008  16.160  0.7969 -1.0872 -3.5210
  887MPD2     N13010   3.978   1.325  16.000 -0.8029 -0.4947  0.3570
  887MPD2    H513011   3.884   1.342  15.967 -0.9299  0.5464  1.2422
  887MPD2    N113012   3.900   0.875  15.913 -0.1752  0.5357  0.3058
  887MPD2    H713013   3.830   0.919  15.854  0.5321 -0.0864 -0.9977
  888MPD2     C13014   1.245   1.289  14.735  0.3992  0.2226 -0.4084
  888MPD2    C113015   1.340   1.289  14.838 -0.2865 -0.3737  0.1488
  888MPD2    C213016   1.411   1.406  14.853  0.4137  0.0267  0.7656
  888MPD2    C313017   1.406   1.518  14.770  0.2566  0.1540 -0.1768
  888MPD2    C413018   1.324   1.507  14.657 -0.6719  0.6188 -0.1243
  888MPD2    C513019   1.244   1.394  14.643 -0.6261 -0.1886 -0.0751
  888MPD2     H13020   1.471   1.411  14.944 -0.2823 -0.2199  1.2385
  888MPD2    H113021   1.330   1.593  14.591  0.8189  2.5423  2.5100
  888MPD2    H213022   1.189   1.200  14.708  0.3575  0.4852 -1.1935
  888MPD2    H313023   1.175   1.381  14.560 -0.9253 -2.4032  0.5272
  888MPD2     N13024   1.480   1.633  14.804 -0.2573  0.0056 -0.1282
  888MPD2    H513025   1.514   1.648  14.899  0.2302  0.4882 -0.3735
  888MPD2    N113026   1.355   1.174  14.922  0.1487 -0.1472  0.3893
  888MPD2    H713027   1.280   1.105  14.917 -0.9416  1.1299 -0.9408
  889MPD2     C13028   1.029   0.094  13.036 -0.0563 -0.0923  0.5156
  889MPD2    C113029   1.159   0.087  13.078 -0.4715  0.5154  0.1702
  889MPD2    C213030   1.249   0.192  13.070 -0.2431  0.0678  0.0851
  889MPD2    C313031   1.215   0.304  12.997  0.6438  0.6159 -0.1214
  889MPD2    C413032   1.083   0.316  12.956  0.4507 -0.0244  0.2653
  889MPD2    C513033   0.988   0.215  12.981  0.2929 -0.1859 -0.0830
  889MPD2     H13034   1.347   0.201  13.116 -0.6931  0.2975  0.9916
  889MPD2    H113035   1.040   0.401  12.903 -2.2840 -0.6083  1.5154
  889MPD2    H213036   0.943   0.041  13.076 -1.0470  1.2414  0.1226
  889MPD2    H313037   0.887   0.229  12.945 -0.2646 -0.3697  1.4434
  889MPD2     N13038   1.302   0.407  12.982 -0.5276  0.2416  0.1417
  889MPD2    H513039   1.398   0.398  13.014 -1.3221  1.3999  2.8469
  889MPD2    N113040   1.191   4.716  13.187  0.1243 -0.4842 -0.3542
  889MPD2    H713041   1.277   4.719  13.241  0.5494 -0.0369 -1.0612
  890MPD2     C13042   0.341   2.161  14.574 -0.1475  0.3736  0.5576
  890MPD2    C113043   0.411   2.207  14.685 -0.0933  0.6349  0.2095
  890MPD2    C213044   0.366   2.148  14.803  0.6432  0.6911  0.0966
  890MPD2    C313045   0.278   2.050  14.811  0.4929  0.2805 -0.0113
  890MPD2    C413046   0.223   1.996  14.697 -0.5008  0.4095  0.0632
  890MPD2    C513047   0.257   2.054  14.575 -0.7245 -0.0790 -0.0869
  890MPD2     H13048   0.397   2.183  14.901 -1.7840  1.5254  0.5737
  890MPD2    H113049   0.161   1.907  14.705 -0.0611  0.2604  1.8650
  890MPD2    H213050   0.359   2.206  14.477  2.9379 -1.9174  0.0771
  890MPD2    H313051   0.229   2.010  14.480  1.0100 -3.1914  0.8403
  890MPD2     N13052   0.246   2.003  14.940 -0.0236  0.3374  0.0453
  890MPD2    H513053   0.288   2.057  15.015  1.4512 -0.2764 -0.3384
  890MPD2    N113054   0.504   2.314  14.664  1.2060  0.2023 -0.5027
  890MPD2    H713055   0.506   2.341  14.566 -0.9765 -0.5744 -0.7626
  891MPD2     C13056   3.332   1.122  16.535 -0.5437  0.7835  0.0723
  891MPD2    C113057   3.233   1.054  16.605  0.1810  0.0570  0.4734
  891MPD2    C213058   3.266   0.959  16.694  0.5331  0.2764 -0.4717
  891MPD2    C313059   3.403   0.945  16.732  0.3180  0.6857  0.4806
  891MPD2    C413060   3.499   1.001  16.654 -0.1877  0.4846 -0.3326
  891MPD2    C513061   3.463   1.097  16.564  0.2401  0.6608  0.2048
  891MPD2     H13062   3.193   0.899  16.748  0.5170  0.6293 -0.0993
  891MPD2    H113063   3.605   0.981  16.662 -0.4903 -2.3094 -3.6062
  891MPD2    H213064   3.309   1.197  16.461  0.2112  1.7096  0.7635
  891MPD2    H313065   3.544   1.144  16.509  0.9603 -0.7170  0.0811
  891MPD2     N13066   3.437   0.858  16.839  1.0696 -0.1589 -0.0797
  891MPD2    H513067   3.359   0.832  16.898 -0.4392  2.9917 -0.6899
  891MPD2    N113068   3.098   1.076  16.568  0.0204 -0.5964 -0.4838
  891MPD2    H713069   3.075   1.139  16.491 -1.5970  1.0008  1.3258
  892MPD2     C13070   4.227   1.864  15.028 -0.9290  0.5705  0.4159
  892MPD2    C113071   4.149   1.917  14.925 -0.4979  0.6001 -0.1922
  892MPD2    C213072   4.199   1.953  14.802 -0.0984 -0.4030 -0.2040
  892MPD2    C313073   4.333   1.918  14.783 -0.0997 -0.8373  0.5952
  892MPD2    C413074   4.413   1.866  14.883 -0.0102  0.1399 -0.3763
  892MPD2    C513075   4.361   1.851  15.011 -0.7587  0.1618 -0.3817
  892MPD2     H13076   4.138   2.011  14.735  1.8507  0.8380 -0.8928
  892MPD2    H113077   4.517   1.846  14.860 -0.1824  0.3712 -1.3265
  892MPD2    H213078   4.185   1.838  15.124 -0.1192 -3.5479 -0.3626
  892MPD2    H313079   4.427   1.805  15.083 -1.5900  1.6372  1.3089
  892MPD2     N13080   4.397   1.944  14.656 -0.0622  0.0549  0.2772
  892MPD2    H513081   4.488   1.899  14.651  0.2394  0.7108 -0.2024
  892MPD2    N113082   4.015   1.943  14.944  0.6800  0.3071  0.2179
  892MPD2    H713083   3.960   1.985  14.870 -1.0115  0.8027  1.7621
  893MPD2     C13084   1.224   1.059   2.168 -0.2155 -0.1985  0.0781
  893MPD2    C113085   1.207   0.962   2.075 -0.0076 -0.3064 -0.9992
  893MPD2    C213086   1.090   0.891   2.089  0.9026 -0.6565  0.0939
  893MPD2    C313087   1.001   0.908   2.191  0.2691  0.2617 -0.0472
  893MPD2    C413088   1.015   1.009   2.280  0.3731  0.8268 -0.6394
  893MPD2    C513089   1.136   1.074   2.272  0.4993  0.7159 -0.2843
  893MPD2     H13090   1.073   0.807   2.022 -0.2804 -1.2176  1.0868
  893MPD2    H113091   0.950   1.032   2.364 -1.2494 -1.3631 -1.3106
  893MPD2    H213092   1.312   1.122   2.166 -0.8654  0.6368 -2.1660
  893MPD2    H313093   1.150   1.157   2.339 -0.8522  0.3514  0.4343
  893MPD2     N13094   0.877   0.829   2.196 -0.1432 -0.3235  0.3121
  893MPD2    H513095   0.823   0.854   2.278 -0.3825  0.8900 -0.2112
  893MPD2    N113096   1.295   0.957   1.968  0.1799  0.0555 -0.1575
  893MPD2    H713097   1.357   1.032   1.939 -2.0023  1.9595  0.1561
  894MPD2     C13098   4.409   4.135   1.001 -1.0723  0.0302  0.3676
  894MPD2    C113099   4.506   4.043   1.053 -0.1118  0.2032 -0.5758
  894MPD2    C213100   4.630   4.102   1.097  0.3065 -0.3471 -0.1783
  894MPD2    C313101   4.657   4.234   1.078  0.0631  0.0918 -0.4981
  894MPD2    C413102   4.560   4.313   1.019  0.1938  0.2526  0.6215
  894MPD2    C513103   4.434   4.269   0.985 -0.5296  0.1480  0.2546
  894MPD2     H13104   4.705   4.045   1.150  2.7935 -0.2699 -3.6353
  894MPD2    H113105   4.577   4.419   1.001  1.8782  0.1189  1.4878
  894MPD2    H213106   4.308   4.107   0.976  0.0534 -2.0405 -1.8053
  894MPD2    H313107   4.367   4.348   0.954  0.1339  1.2212  1.5890
  894MPD2     N13108   0.056   4.285   1.123  0.1430  0.5362  0.4755
  894MPD2    H513109   0.100   4.231   1.196 -0.6755 -1.2754 -0.3724
  894MPD2    N113110   4.498   3.904   1.053 -0.1555  0.2597  0.8516
  894MPD2    H713111   4.562   3.859   1.118  0.3959 -1.3774 -0.8481
  895MPD2     C13112   3.719   0.692  13.584  0.3735 -0.2852  0.5852
  895MPD2    C113113   3.673   0.641  13.463  0.2163 -0.1378  0.2868
  895MPD2    C213114   3.705   0.507  13.426  0.1830 -1.1932 -0.3658
  895MPD2    C313115   3.815   0.449  13.492  0.1885  0.3012 -0.5202
  895MPD2    C413116   3.862   0.502  13.608  0.6312 -0.5153 -0.5314
  895MPD2    C513117   3.820   0.627  13.646 -0.3824 -0.3769  0.5053
  895MPD2     H13118   3.672   0.478  13.327 -2.5200  0.2804  0.0915
  895MPD2    H113119   3.942   0.466  13.671  1.4645 -0.1833 -1.4024
  895MPD2    H213120   3.699   0.790  13.625 -1.9210  0.3300 -2.0428
  895MPD2    H313121   3.880   0.669  13.726  2.5822  0.7446 -2.2925
  895MPD2     N13122   3.867   0.333  13.427 -0.6194 -0.5304  0.1786
  895MPD2    H513123   3.823   0.309  13.339 -0.6445 -2.4784  0.7199
  895MPD2    N113124   3.611   0.712  13.366  0.5111  0.1430 -0.1564
  895MPD2    H713125   3.569   0.665  13.287  3.1120  1.4948 -2.3826
  896MPD2     C13126   1.009   3.443   0.885  0.5876  0.1050  0.1419
  896MPD2    C113127   0.990   3.498   1.007 -0.4149 -0.2964  0.2074
  896MPD2    C213128   0.867   3.534   1.045 -0.6617  0.8824 -0.2573
  896MPD2    C313129   0.762   3.528   0.956 -0.3205  0.3114 -0.0813
  896MPD2    C413130   0.785   3.473   0.829 -0.1794  0.3375  0.4868
  896MPD2    C513131   0.912   3.427   0.791 -0.5089 -0.2650 -0.2917
  896MPD2     H13132   0.844   3.569   1.145 -0.4635  0.6243 -0.1218
  896MPD2    H113133   0.707   3.480   0.753  0.5073 -1.4103 -0.3821
  896MPD2    H213134   1.110   3.414   0.856  0.2759 -0.7294 -0.1161
  896MPD2    H313135   0.929   3.396   0.689  1.6603 -0.5840  0.1658
  896MPD2     N13136   0.639   3.567   0.998  0.1181  0.3332  0.0701
  896MPD2    H513137   0.628   3.592   1.096 -0.0694  0.2407  0.0733
  896MPD2    N113138   1.099   3.534   1.095 -0.3476  0.3904 -0.0043
  896MPD2    H713139   1.187   3.485   1.086  0.0328  1.8107 -3.8092
  897MPD2     C13140   1.292   0.399  10.257 -0.3346  0.1465 -0.2693
  897MPD2    C113141   1.368   0.452  10.359 -0.2970  0.0012  0.1750
  897MPD2    C213142   1.324   0.556  10.436 -0.2963 -0.0600 -0.7584
  897MPD2    C313143   1.197   0.605  10.427 -0.4178 -0.2689  0.0999
  897MPD2    C413144   1.116   0.554  10.326  0.5677  0.6891  0.5390
  897MPD2    C513145   1.162   0.449  10.250  0.4838  0.2812 -0.2787
  897MPD2     H13146   1.382   0.573  10.526 -0.2900 -0.3613 -0.7060
  897MPD2    H113147   1.015   0.591  10.313  0.4599 -0.2226 -1.3393
  897MPD2    H213148   1.320   0.317  10.193 -1.3125 -0.2513 -0.1938
  897MPD2    H313149   1.090   0.401  10.185  0.2615  2.2574 -1.5004
  897MPD2     N13150   1.163   0.702  10.523 -0.3504  0.0808 -0.0761
  897MPD2    H513151   1.229   0.720  10.599 -1.9973  1.5214  1.0100
  897MPD2    N113152   1.485   0.378  10.381 -0.1486  0.0518 -0.4309
  897MPD2    H713153   1.491   0.287  10.336 -1.0368 -0.7238  1.0319
  898MPD2     C13154   3.549   1.171   0.246 -0.4788  0.0821  0.7070
  898MPD2    C113155   3.667   1.231   0.220  0.1966 -0.3610 -0.3488
  898MPD2    C213156   3.669   1.328   0.118  0.3407 -0.1532 -0.1924
  898MPD2    C313157   3.555   1.366   0.049 -0.2685  0.4305 -0.6394
  898MPD2    C413158   3.435   1.317   0.085  0.2459  0.1606  0.1745
  898MPD2    C513159   3.433   1.220   0.182 -0.2843  0.1832 -0.0104
  898MPD2     H13160   3.761   1.379   0.092 -0.8050  0.1196 -3.6171
  898MPD2    H113161   3.339   1.341   0.041  1.1201  0.7157 -1.4389
  898MPD2    H213162   3.535   1.095   0.322 -1.4013 -0.6306 -0.1704
  898MPD2    H313163   3.336   1.180   0.210 -0.5194  0.3439 -0.5978
  898MPD2     N13164   3.575   1.477  17.645  0.0065  1.2885  0.3726
  898MPD2    H513165   3.664   1.526  17.646  0.3202  0.7747 -1.7208
  898MPD2    N113166   3.791   1.201   0.275  0.1990  0.5707  0.1156
  898MPD2    H713167   3.869   1.256   0.241 -0.1299  0.1740 -1.3201
  899MPD2     C13168   0.389   2.660   0.034 -0.6895  0.6447  0.0462
  899MPD2    C113169   0.267   2.714  17.692  0.7553 -0.1786 -0.1452
  899MPD2    C213170   0.156   2.680   0.082  0.6004  0.5659  0.4915
  899MPD2    C313171   0.172   2.616   0.208 -0.0057  0.5263 -0.5408
  899MPD2    C413172   0.300   2.572   0.241  0.0522  1.0207 -0.0896
  899MPD2    C513173   0.402   2.586   0.151  0.0125 -0.5995 -0.2646
  899MPD2     H13174   0.055   2.712   0.061  1.1573  1.1795 -1.2652
  899MPD2    H113175   0.321   2.519   0.333 -0.4448 -0.5111 -0.8618
  899MPD2    H213176   0.472   2.676  17.658  2.6991  2.1966  4.5685
  899MPD2    H313177   0.499   2.549   0.181 -0.3172 -2.2605 -1.2421
  899MPD2     N13178   0.068   2.599   0.303  0.5631 -0.0289  0.1635
  899MPD2    H513179   0.094   2.555   0.390  2.2590  1.3959  0.3637
  899MPD2    N113180   0.254   2.785  17.569 -0.8916 -0.1230 -0.0046
  899MPD2    H713181   0.342   2.809  17.524 -1.4221  0.2752 -0.8398
  900MPD2     C13182   4.487   3.511  12.143  0.3436 -0.2895 -0.5132
  900MPD2    C113183   4.406   3.456  12.241 -0.7257  0.6894  0.0610
  900MPD2    C213184   4.269   3.472  12.234  0.2353  0.7046  0.1660
  900MPD2    C313185   4.207   3.532  12.122 -0.4439  0.0134  0.3430
  900MPD2    C413186   4.293   3.569  12.022 -1.1408  0.1622  0.9340
  900MPD2    C513187   4.428   3.561  12.032  0.2171  0.0573  0.0575
  900MPD2     H13188   4.209   3.449  12.321  0.1481  1.0828  0.2077
  900MPD2    H113189   4.261   3.597  11.922 -0.9793  0.0794  0.8579
  900MPD2    H213190   4.595   3.524  12.144  0.2178  0.5262  1.9620
  900MPD2    H313191   4.490   3.588  11.947 -0.0683  0.7017  0.0530
  900MPD2     N13192   4.068   3.541  12.111 -0.3542 -0.3299 -0.2468
  900MPD2    H513193   4.010   3.490  12.176  0.5617  0.0046  0.8236
  900MPD2    N113194   4.478   3.384  12.339 -0.0610 -0.2274 -0.0946
  900MPD2    H713195   4.578   3.403  12.339 -0.2830  0.9740 -0.5580
  901MPD2     C13196   4.475   2.408  12.786  0.4567 -0.4036 -0.4793
  901MPD2    C113197   4.592   2.429  12.714  0.1144  0.4833  0.1114
  901MPD2    C213198   4.621   2.563  12.684 -0.3825 -0.2012  0.4540
  901MPD2    C313199   4.533   2.663  12.720 -0.2997 -0.1149 -0.1789
  901MPD2    C413200   4.415   2.635  12.786 -0.8426  0.4324 -0.5251
  901MPD2    C513201   4.392   2.507  12.830 -0.6784  0.2773 -0.2749
  901MPD2     H13202   4.705   2.590  12.622 -0.5979  0.3883  0.4158
  901MPD2    H113203   4.344   2.715  12.800 -0.9907  0.7785 -3.4395
  901MPD2    H213204   4.451   2.305  12.805 -1.1353  0.4596  2.1674
  901MPD2    H313205   4.310   2.480  12.896  0.0837 -0.5353  0.3357
  901MPD2     N13206   4.565   2.789  12.664 -0.0069 -0.5177  0.8771
  901MPD2    H513207   4.640   2.792  12.596 -1.8941 -0.7601 -1.2442
  901MPD2    N113208   4.663   2.320  12.671 -1.2878  0.2481 -0.6184
  901MPD2    H713209   4.638   2.228  12.706  1.0035  0.2796  1.1287
  902MPD2     C13210   3.047   0.737  12.603  0.3314 -0.7900 -0.2569
  902MPD2    C113211   3.086   0.869  12.620 -0.3807  0.1603  0.5454
  902MPD2    C213212   3.167   0.924  12.524  0.4127  0.1568 -0.4616
  902MPD2    C313213   3.207   0.849  12.410 -0.5948 -0.1056 -0.1696
  902MPD2    C413214   3.167   0.722  12.399 -0.2069 -0.2846 -0.2638
  902MPD2    C513215   3.095   0.665  12.496 -0.1913  0.7780 -0.3122
  902MPD2     H13216   3.199   1.028  12.524  0.9794 -0.0202 -0.1878
  902MPD2    H113217   3.198   0.670  12.310  1.3340  0.8913 -0.4070
  902MPD2    H213218   2.974   0.696  12.672  1.0288 -2.4679 -0.5381
  902MPD2    H313219   3.055   0.566  12.479  0.9101  0.1439  0.7765
  902MPD2     N13220   3.308   0.891  12.315 -0.0543 -0.4410 -0.5102
  902MPD2    H513221   3.326   0.842  12.228 -0.2247  0.0974 -0.8438
  902MPD2    N113222   3.016   0.950  12.713  0.2218  0.2199 -0.5152
  902MPD2    H713223   2.950   0.910  12.778 -0.9617  1.7727 -0.7497
  903MPD2     C13224   3.170   1.382  11.632 -0.0454 -0.2004  0.1387
  903MPD2    C113225   3.141   1.343  11.762  0.0066  0.5040 -0.5697
  903MPD2    C213226   3.011   1.360  11.809 -0.4899  0.3196 -0.0165
  903MPD2    C313227   2.908   1.387  11.723  0.1459 -0.5400 -0.5611
  903MPD2    C413228   2.934   1.413  11.588  0.5088  0.7893 -0.3747
  903MPD2    C513229   3.067   1.415  11.550  0.3451  0.1609 -0.3123
  903MPD2     H13230   2.984   1.333  11.911  1.1428 -0.2384  0.2766
  903MPD2    H113231   2.860   1.425  11.510 -0.7556 -0.0751  0.6813
  903MPD2    H213232   3.270   1.370  11.593  0.1031  0.8319  0.1914
  903MPD2    H313233   3.093   1.418  11.445 -0.2524  1.5953 -0.4287
  903MPD2     N13234   2.774   1.370  11.765  0.7436  0.0422 -0.1897
  903MPD2    H513235   2.779   1.350  11.864  2.0506 -0.4512 -0.3469
  903MPD2    N113236   3.244   1.284  11.834 -0.4585  0.4402 -0.0026
  903MPD2    H713237   3.317   1.237  11.782  0.0956  1.7615 -0.4328
  904MPD2     C13238   3.504   0.119  13.729 -0.5120 -0.5316 -0.1832
  904MPD2    C113239   3.518   0.257  13.734  0.1670  0.2852 -0.3010
  904MPD2    C213240   3.643   0.300  13.778 -0.6602 -0.3730 -0.3471
  904MPD2    C313241   3.755   0.221  13.796 -0.4433 -0.2156 -0.4554
  904MPD2    C413242   3.741   0.085  13.782  0.2950  1.1901 -0.2087
  904MPD2    C513243   3.614   0.041  13.753 -0.5690 -1.3001 -0.6533
  904MPD2     H13244   3.644   0.408  13.786 -2.0007 -0.3671 -0.3638
  904MPD2    H113245   3.817   0.013  13.808  0.7947  2.1027  0.8329
  904MPD2    H213246   3.412   0.070  13.697 -0.7072 -2.9527  4.2133
  904MPD2    H313247   3.608   4.655  13.751  0.1719 -1.3370 -1.2434
  904MPD2     N13248   3.862   0.287  13.857 -0.6276 -0.1532  0.0435
  904MPD2    H513249   3.852   0.387  13.870 -1.1629  0.0676 -2.0685
  904MPD2    N113250   3.412   0.345  13.699 -0.4761  0.5871 -0.0850
  904MPD2    H713251   3.431   0.444  13.713 -1.7226  0.7290  0.6528
  905MPD2     C13252   3.262   0.133  13.018 -0.8883  0.0960 -0.0448
  905MPD2    C113253   3.328   0.230  13.083 -0.0525  0.2804 -0.3935
  905MPD2    C213254   3.465   0.223  13.087 -0.6035 -0.0226  0.1771
  905MPD2    C313255   3.532   0.118  13.028 -0.1268  0.6488  0.9990
  905MPD2    C413256   3.452   0.025  12.956 -0.0287 -0.4108 -0.1109
  905MPD2    C513257   3.320   0.029  12.955 -0.3703  0.7068  0.1605
  905MPD2     H13258   3.522   0.302  13.135 -0.7344 -0.9266  1.8179
  905MPD2    H113259   3.512   4.672  12.905  1.7375  0.6335  0.4194
  905MPD2    H213260   3.154   0.132  13.014 -0.8805 -1.6290 -0.0368
  905MPD2    H313261   3.267   4.677  12.898 -0.7325  1.3402 -0.3299
  905MPD2     N13262   3.662   0.080  13.059  0.1010  0.0486  0.0700
  905MPD2    H513263   3.694   4.712  13.028  0.7553 -0.3236  1.8227
  905MPD2    N113264   3.247   0.316  13.164  0.3791  1.2110 -0.7722
  905MPD2    H713265   3.147   0.303  13.175  0.4845 -1.2533 -2.6621
  906MPD2     C13266   0.280   0.028  11.806 -0.4635  0.2200  0.1244
  906MPD2    C113267   0.189   0.063  11.719 -0.0461  0.2559 -0.6789
  906MPD2    C213268   0.069   0.002  11.735  0.0422  1.1857  0.3112
  906MPD2    C313269   0.044   4.632  11.837 -0.3529  0.4251  0.0494
  906MPD2    C413270   0.144   4.596  11.927  0.7946 -0.2784  0.7521
  906MPD2    C513271   0.261   4.660  11.910 -0.0345  0.5678  0.2239
  906MPD2     H13272   4.717   0.025  11.660 -0.7078 -1.1787  0.3385
  906MPD2    H113273   0.132   4.515  11.999 -2.0769 -3.0349 -2.7934
  906MPD2    H213274   0.385   0.053  11.791 -0.6231  0.5488 -0.4227
  906MPD2    H313275   0.345   4.629  11.972 -0.2527 -1.6770 -0.6128
  906MPD2     N13276   4.641   4.575  11.858 -0.0930  0.4787 -0.1809
  906MPD2    H513277   4.644   4.515  11.940 -0.5528  0.6978 -0.0005
  906MPD2    N113278   0.203   0.149  11.606  0.2181  0.5414  0.0441
  906MPD2    H713279   0.133   0.153  11.532 -3.2659 -0.4523  3.2509
  907MPD2     C13280   4.513   4.458  15.361 -0.5746 -0.0965  0.4409
  907MPD2    C113281   4.473   4.321  15.351  0.1515 -0.0171  1.2586
  907MPD2    C213282   4.521   4.230  15.441 -0.3186 -1.0851  0.5455
  907MPD2    C313283   4.608   4.263  15.543 -0.0311  0.0959  0.3821
  907MPD2    C413284   4.650   4.396  15.550 -0.4382 -0.0270 -0.1459
  907MPD2    C513285   4.603   4.487  15.463 -0.6499 -0.4585 -0.7995
  907MPD2     H13286   4.493   4.125  15.436  0.5254 -1.2722 -0.2281
  907MPD2    H113287   4.705   4.436  15.635  0.8382 -1.2370 -0.4012
  907MPD2    H213288   4.484   4.532  15.288 -1.3634  0.5750  1.4365
  907MPD2    H313289   4.646   4.587  15.465  1.4277 -1.3829  0.4879
  907MPD2     N13290   4.631   4.161  15.636  0.2647 -0.0636  0.0812
  907MPD2    H513291   4.590   4.069  15.624 -1.4306  0.6114  0.6092
  907MPD2    N113292   4.400   4.272  15.237  0.0108 -0.3666  0.1524
  907MPD2    H713293   4.404   4.171  15.228  0.0213 -0.7576  4.4946
  908MPD2     C13294   2.234   4.637   9.936 -0.3044  0.0006  0.1671
  908MPD2    C113295   2.160   4.537   9.996 -0.3339 -0.6874 -0.8311
  908MPD2    C213296   2.071   4.571  10.101  0.1016 -0.0321  0.1984
  908MPD2    C313297   2.047   4.704  10.131 -0.4462 -0.6814 -0.0463
  908MPD2    C413298   2.116   0.080  10.065  0.0375  0.3913 -0.3735
  908MPD2    C513299   2.208   0.048   9.966  0.1617  0.2632 -0.9119
  908MPD2     H13300   2.022   4.489  10.153  1.0419 -0.5761  0.2322
  908MPD2    H113301   2.091   0.185  10.074  0.1104  0.4779 -1.2091
  908MPD2    H213302   2.310   4.614   9.863  0.3016  2.0430  0.1750
  908MPD2    H313303   2.263   0.129   9.920 -1.8046  1.9927 -0.2000
  908MPD2     N13304   1.958   0.015  10.237 -0.2156 -0.3244 -0.1851
  908MPD2    H513305   1.918   4.664  10.295 -1.3429  0.5041  0.1002
  908MPD2    N113306   2.170   4.409   9.941  0.1481 -0.3461  0.1939
  908MPD2    H713307   2.245   4.400   9.873  0.7932  1.3077  0.6907
  909MPD2     C13308   2.166   2.567  11.862 -0.1938 -0.1820 -0.5230
  909MPD2    C113309   2.125   2.665  11.768 -0.1803 -0.0310 -0.3220
  909MPD2    C213310   2.077   2.784  11.814  0.0121  0.3622 -0.5568
  909MPD2    C313311   2.055   2.811  11.952  0.6528 -0.3489 -0.6142
  909MPD2    C413312   2.091   2.712  12.042  0.4752  0.0466  0.1781
  909MPD2    C513313   2.142   2.589  11.998  0.0415  0.3991  0.1031
  909MPD2     H13314   2.041   2.856  11.741  1.1293  1.2048 -0.2716
  909MPD2    H113315   2.062   2.717  12.147 -2.4715  1.3123 -0.6841
  909MPD2    H213316   2.203   2.468  11.842  1.1061 -0.1954  1.9496
  909MPD2    H313317   2.152   2.506  12.067  0.2401 -0.5573 -1.0646
  909MPD2     N13318   1.995   2.938  11.984 -0.0691  0.9969 -0.2643
  909MPD2    H513319   1.967   2.998  11.907  1.1243 -0.0330 -1.4934
  909MPD2    N113320   2.153   2.651  11.631  0.0454 -0.2253  0.5703
  909MPD2    H713321   2.140   2.733  11.573  1.1941 -1.0197 -0.8166
  910MPD2     C13322   3.463   0.282  15.710  0.7272 -0.7938  0.7101
  910MPD2    C113323   3.537   0.198  15.637  0.3579 -0.4134  1.0869
  910MPD2    C213324   3.551   0.209  15.500 -0.4919 -0.6512  0.6079
  910MPD2    C313325   3.490   0.307  15.429  0.2025 -0.6644  0.2877
  910MPD2    C413326   3.414   0.398  15.506 -0.4290 -0.5473 -0.5367
  910MPD2    C513327   3.403   0.383  15.640 -0.3602  0.1346  0.0976
  910MPD2     H13328   3.605   0.127  15.455  0.2981  1.1771 -1.7425
  910MPD2    H113329   3.377   0.482  15.448  0.1585 -0.2718 -0.5158
  910MPD2    H213330   3.433   0.270  15.813 -2.0357 -1.8179 -0.2027
  910MPD2    H313331   3.342   0.458  15.689 -0.5140 -0.3713  0.6782
  910MPD2     N13332   3.497   0.332  15.289  0.4202 -0.2929  0.5904
  910MPD2    H513333   3.472   0.426  15.260  2.8353  0.2363  0.1634
  910MPD2    N113334   3.591   0.082  15.697  0.3207 -0.4022  0.6580
  910MPD2    H713335   3.657   0.026  15.643  1.6714  0.8444  1.0208
  911MPD2     C13336   1.314   0.727  16.389  0.2705  0.0590  0.2350
  911MPD2    C113337   1.373   0.846  16.408 -0.5338  0.0708 -0.3364
  911MPD2    C213338   1.296   0.960  16.395  0.7917 -0.1976 -0.1195
  911MPD2    C313339   1.171   0.949  16.352  0.6474  0.7984 -0.2139
  911MPD2    C413340   1.110   0.824  16.337 -0.2125  0.6224  0.4866
  911MPD2    C513341   1.182   0.712  16.361  1.0126 -0.0685  0.3606
  911MPD2     H13342   1.337   1.058  16.416 -0.6453  0.3212  0.2780
  911MPD2    H113343   1.016   0.805  16.287  0.3324 -1.7565  0.3376
  911MPD2    H213344   1.366   0.638  16.422  0.7730 -1.0179 -3.4830
  911MPD2    H313345   1.138   0.613  16.365  0.6137  0.2404  3.8585
  911MPD2     N13346   1.087   1.058  16.318 -0.6374 -0.6647  0.1165
  911MPD2    H513347   0.997   1.036  16.276 -0.8504 -0.1553  0.3122
  911MPD2    N113348   1.511   0.844  16.439  0.0271 -0.3827 -0.7688
  911MPD2    H713349   1.560   0.755  16.450 -1.8092 -1.4373 -1.0659
  912MPD2     C13350   0.980   0.841  15.723 -0.9609  0.0352 -0.2363
  912MPD2    C113351   0.961   0.864  15.857 -0.2942 -0.0195  0.0238
  912MPD2    C213352   0.953   0.756  15.943  0.1568 -0.0593  0.5434
  912MPD2    C313353   1.002   0.633  15.899 -0.9745 -0.2068 -0.1311
  912MPD2    C413354   1.032   0.615  15.763 -0.4387 -0.3179  0.0074
  912MPD2    C513355   1.022   0.717  15.678 -0.2338  0.1800  0.3570
  912MPD2     H13356   0.940   0.761  16.051 -2.1778 -0.5307  0.2775
  912MPD2    H113357   1.057   0.516  15.725 -0.3198 -0.5930  0.7901
  912MPD2    H213358   0.987   0.930  15.661 -0.4609 -0.6204 -1.1164
  912MPD2    H313359   1.037   0.698  15.572  1.1169  1.6301  0.2832
  912MPD2     N13360   1.000   0.528  15.992 -0.2951 -0.2142 -0.1651
  912MPD2    H513361   0.938   0.538  16.072  1.3305 -0.8216  1.1640
  912MPD2    N113362   0.938   0.995  15.892 -0.5688  0.3755  0.0050
  912MPD2    H713363   0.973   1.061  15.824 -0.0741 -0.5966 -0.6815
  913MPD2     C13364   1.684   1.192  10.263  0.0981  0.9601  0.1350
  913MPD2    C113365   1.775   1.280  10.314  0.0568  1.3458  0.2374
  913MPD2    C213366   1.782   1.410  10.267  0.1096 -0.2411 -0.0586
  913MPD2    C313367   1.697   1.448  10.163  0.1264 -0.5382 -0.1520
  913MPD2    C413368   1.604   1.358  10.112  0.0924  0.4068 -0.7019
  913MPD2    C513369   1.602   1.227  10.158  0.2258 -0.0726  0.1885
  913MPD2     H13370   1.844   1.486  10.314 -2.5181  2.9131 -1.6199
  913MPD2    H113371   1.537   1.393  10.035 -2.1838 -2.0132  0.1674
  913MPD2    H213372   1.668   1.094  10.306  0.5552  0.0626 -1.7694
  913MPD2    H313373   1.528   1.158  10.119 -1.3430  1.4834  0.3988
  913MPD2     N13374   1.691   1.577  10.103  0.0299  0.9258 -0.4180
  913MPD2    H513375   1.632   1.589  10.021  0.4415  1.1084 -0.6894
  913MPD2    N113376   1.864   1.222  10.407 -0.7980 -0.8917  0.3092
  913MPD2    H713377   1.853   1.122  10.422  0.8298 -1.3755 -1.8173
  914MPD2     C13378   4.327   2.428  12.051  0.9414 -0.3831 -0.8303
  914MPD2    C113379   4.410   2.497  12.134 -0.3098 -0.4882 -0.9210
  914MPD2    C213380   4.515   2.428  12.183 -0.7395  0.2767 -0.4773
  914MPD2    C313381   4.525   2.287  12.167  0.0479  0.3638 -0.6066
  914MPD2    C413382   4.445   2.222  12.075  0.2712  0.0739  0.0744
  914MPD2    C513383   4.342   2.291  12.026  0.1148  0.2716 -0.5221
  914MPD2     H13384   4.580   2.480  12.253 -2.2302  1.8571 -0.2687
  914MPD2    H113385   4.443   2.115  12.055  2.4870  0.1816 -0.6859
  914MPD2    H213386   4.249   2.475  11.993  0.1284  0.1602  0.7072
  914MPD2    H313387   4.280   2.242  11.952  0.8248  0.4606 -1.2495
  914MPD2     N13388   4.619   2.223  12.254  0.1225 -0.3845 -0.1234
  914MPD2    H513389   4.675   2.278  12.318 -1.8727  1.6577 -0.1217
  914MPD2    N113390   4.399   2.637  12.143 -0.6246 -0.0412  1.2642
  914MPD2    H713391   4.326   2.684  12.089  0.8424  1.8669  0.9297
  915MPD2     C13392   2.697   2.222  15.323  0.1040 -0.1694  0.2769
  915MPD2    C113393   2.607   2.319  15.295 -0.5886 -0.6251 -0.4574
  915MPD2    C213394   2.548   2.400  15.397  0.1193  0.3601 -0.8662
  915MPD2    C313395   2.595   2.377  15.528 -0.6345 -0.4719 -0.9622
  915MPD2    C413396   2.705   2.296  15.553 -0.4649 -0.8675 -0.0823
  915MPD2    C513397   2.746   2.219  15.447 -0.2063 -0.4415 -0.3781
  915MPD2     H13398   2.458   2.460  15.387 -1.0187 -1.1904  0.1123
  915MPD2    H113399   2.747   2.272  15.650  0.9463  0.1910 -0.4392
  915MPD2    H213400   2.743   2.148  15.257 -0.0523 -0.0428  0.0257
  915MPD2    H313401   2.825   2.149  15.474  1.4830  1.3881 -0.5886
  915MPD2     N13402   2.506   2.431  15.625 -0.1956 -0.5040  0.5755
  915MPD2    H513403   2.437   2.498  15.591  0.6407  1.2100  2.2974
  915MPD2    N113404   2.555   2.320  15.163 -0.9041  0.1262  0.1471
  915MPD2    H713405   2.586   2.240  15.110 -0.5803  1.1587 -1.2400
  916MPD2     C13406   0.657   0.471  15.896 -0.3371 -0.2994  0.4523
  916MPD2    C113407   0.647   0.347  15.950  0.7056 -0.0419  0.2303
  916MPD2    C213408   0.711   0.242  15.890  0.1209  0.6827 -0.2154
  916MPD2    C313409   0.789   0.263  15.775 -0.3364 -0.5603  0.0332
  916MPD2    C413410   0.803   0.385  15.724  0.0963 -0.6888 -0.6550
  916MPD2    C513411   0.730   0.485  15.777 -0.0275 -0.2243  0.0840
  916MPD2     H13412   0.699   0.139  15.920 -4.1255  1.1095 -0.3532
  916MPD2    H113413   0.865   0.406  15.637 -0.8919 -0.0505 -1.2134
  916MPD2    H213414   0.608   0.561  15.931 -0.0407 -0.0397  0.1964
  916MPD2    H313415   0.737   0.587  15.740 -0.2862  0.1147  0.9740
  916MPD2     N13416   0.858   0.151  15.724 -0.7521  0.1577 -0.1875
  916MPD2    H513417   0.844   0.061  15.769  0.6513  0.8028  1.5890
  916MPD2    N113418   0.564   0.328  16.060  0.0450  0.1958  0.0828
  916MPD2    H713419   0.533   0.417  16.098  0.0065 -0.4380  1.5174
  917MPD2     C13420   1.536   2.613  11.238 -0.2048 -0.5538  0.2435
  917MPD2    C113421   1.416   2.652  11.170 -1.5860  0.2545 -0.5954
  917MPD2    C213422   1.416   2.726  11.051  0.2067  0.2620  0.2296
  917MPD2    C313423   1.535   2.767  10.998  0.2690 -0.2181 -0.5145
  917MPD2    C413424   1.652   2.737  11.068  0.6409  0.3590 -0.2519
  917MPD2    C513425   1.652   2.664  11.184 -0.0672 -0.1614 -0.5344
  917MPD2     H13426   1.327   2.767  11.003  0.7903 -0.3652 -1.3913
  917MPD2    H113427   1.746   2.776  11.032  0.5300  1.7361  0.9485
  917MPD2    H213428   1.534   2.574  11.339 -0.2558 -0.4243  0.2928
  917MPD2    H313429   1.747   2.652  11.235 -0.0058  2.3854 -0.0464
  917MPD2     N13430   1.556   2.841  10.876 -0.1463  0.2926 -0.2117
  917MPD2    H513431   1.648   2.880  10.859 -0.1017 -0.0698 -0.8040
  917MPD2    N113432   1.302   2.614  11.239  0.1871  0.2983  0.3935
  917MPD2    H713433   1.310   2.570  11.330  1.5003 -1.1192 -0.4026
  918MPD2     C13434   1.217   3.028  11.987 -0.2541  0.5177 -0.2330
  918MPD2    C113435   1.311   2.940  11.933  0.1476 -0.7692 -0.7062
  918MPD2    C213436   1.272   2.859  11.825 -0.7849 -0.2653  0.9595
  918MPD2    C313437   1.145   2.871  11.774  0.0576 -0.7153  0.2007
  918MPD2    C413438   1.058   2.970  11.825  0.1807 -0.2497  0.4620
  918MPD2    C513439   1.092   3.043  11.936 -0.2116  0.4696 -0.4580
  918MPD2     H13440   1.325   2.769  11.797  1.1499  0.7875  1.2630
  918MPD2    H113441   0.959   2.985  11.784 -0.4411 -4.7511  0.2770
  918MPD2    H213442   1.245   3.087  12.073 -0.5846 -0.0665  0.2747
  918MPD2    H313443   1.038   3.130  11.971  2.1028  1.7375 -0.0494
  918MPD2     N13444   1.119   2.787  11.665  0.5024 -0.2416 -0.5144
  918MPD2    H513445   1.195   2.723  11.646  1.3303  0.1297  1.5715
  918MPD2    N113446   1.436   2.904  11.994  0.4753 -0.1133  0.4002
  918MPD2    H713447   1.503   2.848  11.942 -0.0290  0.1054 -0.4850
  919MPD2     C13448   1.883   1.848  11.845  0.2555 -0.3119 -0.6319
  919MPD2    C113449   1.827   1.726  11.799 -0.3919  0.6098  0.9819
  919MPD2    C213450   1.831   1.706  11.664 -0.4373  0.0017 -0.3432
  919MPD2    C313451   1.907   1.790  11.582 -0.6093  0.6382  0.2271
  919MPD2    C413452   1.960   1.902  11.631  0.3302 -0.5985  0.3594
  919MPD2    C513453   1.944   1.937  11.766  1.0470  0.7393  0.0960
  919MPD2     H13454   1.783   1.616  11.624 -0.0908 -0.5870  0.5785
  919MPD2    H113455   1.992   1.973  11.556 -0.2631 -1.8629 -1.0759
  919MPD2    H213456   1.870   1.883  11.947  0.0703 -0.0260 -0.7525
  919MPD2    H313457   1.969   2.039  11.792 -2.1566  2.0415 -1.9263
  919MPD2     N13458   1.920   1.762  11.444 -0.5012  0.5432  0.1775
  919MPD2    H513459   1.968   1.835  11.393 -1.1489 -0.9874 -2.6459
  919MPD2    N113460   1.776   1.622  11.883  0.3047  0.2912 -0.0296
  919MPD2    H713461   1.764   1.529  11.843  0.2402  0.9631 -1.5827
  920MPD2     C13462   1.652   2.188  10.577 -0.5604 -0.9002 -0.0807
  920MPD2    C113463   1.576   2.074  10.600 -0.1336 -0.5582 -0.0539
  920MPD2    C213464   1.600   2.011  10.720  0.6531  0.0674  0.1072
  920MPD2    C313465   1.715   2.031  10.787  0.0870  0.3109  0.2751
  920MPD2    C413466   1.792   2.141  10.761 -0.5165 -0.1494  0.4410
  920MPD2    C513467   1.761   2.221  10.658  0.8008 -0.3229 -0.8077
  920MPD2     H13468   1.544   1.927  10.758  0.5415 -0.6381 -1.5992
  920MPD2    H113469   1.876   2.161  10.827  0.0354  0.3545 -0.4173
  920MPD2    H213470   1.637   2.257  10.494  0.1185  0.4135  0.8945
  920MPD2    H313471   1.826   2.306  10.638 -1.6668  2.1296  1.6377
  920MPD2     N13472   1.750   1.931  10.890 -0.1975  0.1831 -0.0941
  920MPD2    H513473   1.688   1.852  10.903  0.6841 -0.5700 -0.4062
  920MPD2    N113474   1.470   2.031  10.511 -0.3028 -0.2437  0.0117
  920MPD2    H713475   1.418   1.951  10.546 -1.4132  1.5012  2.3863
  921MPD2     C13476   2.420   1.023  16.981 -0.5770 -0.1217 -0.0562
  921MPD2    C113477   2.403   1.041  16.844  0.2683 -0.1336 -0.0056
  921MPD2    C213478   2.278   1.015  16.792  0.6219  0.4129  0.0681
  921MPD2    C313479   2.177   0.956  16.868  0.2021  0.0280 -0.1871
  921MPD2    C413480   2.194   0.936  17.001  0.4720  0.9228  0.1799
  921MPD2    C513481   2.316   0.977  17.062 -0.3854 -0.6266 -0.1180
  921MPD2     H13482   2.256   1.037  16.688 -0.2014  0.1716  0.2003
  921MPD2    H113483   2.116   0.902  17.068 -0.3960  2.0453 -0.2636
  921MPD2    H213484   2.513   1.050  17.030 -1.5541  0.0624  1.6888
  921MPD2    H313485   2.337   0.972  17.168 -2.1757 -2.2129  0.1737
  921MPD2     N13486   2.054   0.922  16.807  0.1431 -0.5820 -0.3599
  921MPD2    H513487   1.987   0.864  16.856 -1.4715  2.8071  1.4454
  921MPD2    N113488   2.515   1.078  16.769  0.2402  0.1005 -0.1424
  921MPD2    H713489   2.605   1.080  16.817  0.1009  1.9351  0.0653
  922MPD2     C13490   4.070   3.508  17.525  0.2043 -1.0157  0.7025
  922MPD2    C113491   3.999   3.614  17.560 -0.0748 -0.2331 -0.5410
  922MPD2    C213492   3.858   3.607  17.555  0.3631  0.0248 -0.5719
  922MPD2    C313493   3.794   3.489  17.527 -0.5993  0.7940 -0.0762
  922MPD2    C413494   3.869   3.375  17.513  0.0024  0.6602 -0.0586
  922MPD2    C513495   4.005   3.389  17.514  0.1577  0.9601  0.0649
  922MPD2     H13496   3.800   3.694  17.583 -1.0985 -1.1311  0.0033
  922MPD2    H113497   3.832   3.275  17.497  0.0526  0.4336  1.1963
  922MPD2    H213498   4.179   3.513  17.519  0.1509 -0.1796  0.4040
  922MPD2    H313499   4.069   3.302  17.507 -0.3878  0.5308  0.3938
  922MPD2     N13500   3.654   3.497  17.513  0.2143 -0.1843 -0.5008
  922MPD2    H513501   3.616   3.591  17.519  1.5813  0.2877  0.8309
  922MPD2    N113502   4.060   3.739  17.588  0.1377  0.1331  0.4590
  922MPD2    H713503   3.995   3.814  17.610 -0.2290 -0.8404  2.7020
  923MPD2     C13504   0.150   0.665   9.797 -0.4452 -0.3914  0.0277
  923MPD2    C113505   0.073   0.759   9.735  0.1912 -0.6532  0.3974
  923MPD2    C213506   0.140   0.873   9.689  0.1526 -0.2166  0.4746
  923MPD2    C313507   0.265   0.906   9.726 -0.3065 -1.1241  0.5170
  923MPD2    C413508   0.340   0.810   9.795 -0.1831 -0.1811  1.0741
  923MPD2    C513509   0.277   0.692   9.839 -0.6849  0.2222  0.3792
  923MPD2     H13510   0.086   0.935   9.618  0.4297 -1.6061 -0.9640
  923MPD2    H113511   0.443   0.832   9.821  0.4223  1.2083 -2.5038
  923MPD2    H213512   0.097   0.579   9.837 -0.8554  0.3500  1.1084
  923MPD2    H313513   0.337   0.609   9.876 -0.9798 -0.4657 -0.6746
  923MPD2     N13514   0.328   1.032   9.706  0.2990 -0.7623 -0.5713
  923MPD2    H513515   0.427   1.043   9.729  0.6504 -3.8246 -0.6410
  923MPD2    N113516   4.660   0.738   9.703 -0.3744 -0.4034  0.2904
  923MPD2    H713517   4.624   0.647   9.731 -0.5793 -0.4284 -0.0394
  924MPD2     C13518   4.477   3.317  15.564 -0.1822 -0.1518 -0.5936
  924MPD2    C113519   4.431   3.385  15.680  0.2915 -0.5671 -0.4359
  924MPD2    C213520   4.508   3.488  15.722 -0.2269 -0.0343 -0.3084
  924MPD2    C313521   4.625   3.527  15.660 -0.0751  0.6090  0.5957
  924MPD2    C413522   4.659   3.468  15.542 -0.5270  0.4100 -0.2999
  924MPD2    C513523   4.588   3.359  15.499  0.2153  0.1381  0.1579
  924MPD2     H13524   4.491   3.548  15.811 -0.7108 -1.8295  0.8154
  924MPD2    H113525   0.030   3.499  15.497  1.0444 -1.2036  1.8190
  924MPD2    H213526   4.432   3.222  15.538 -0.3659  0.0134 -0.8666
  924MPD2    H313527   4.622   3.303  15.414  1.1270  0.6807  0.1644
  924MPD2     N13528   4.705   3.637  15.708 -0.0540 -0.2164 -0.1904
  924MPD2    H513529   0.050   3.675  15.643 -1.9192  2.5579 -0.4803
  924MPD2    N113530   4.313   3.341  15.750 -0.5935 -1.1183  0.3513
  924MPD2    H713531   4.256   3.268  15.710  0.1350 -0.5980 -1.6536
  925MPD2     C13532   3.308   1.628  14.763  0.0059 -0.0947 -0.0116
  925MPD2    C113533   3.199   1.558  14.710  0.1561 -0.4068 -0.8935
  925MPD2    C213534   3.071   1.581  14.755 -0.2999  0.3288  0.6455
  925MPD2    C313535   3.050   1.680  14.848 -0.7060  0.3961  0.1307
  925MPD2    C413536   3.159   1.751  14.900  0.2265 -0.7012 -0.4883
  925MPD2    C513537   3.282   1.731  14.844  0.3556  0.9587 -0.3056
  925MPD2     H13538   2.984   1.528  14.717  0.4192 -0.9963  0.8237
  925MPD2    H113539   3.149   1.833  14.970  0.8801 -1.5879  0.6272
  925MPD2    H213540   3.408   1.607  14.727 -1.1321 -1.1449 -2.5490
  925MPD2    H313541   3.360   1.794  14.885  0.4409 -1.0910  2.6708
  925MPD2     N13542   2.924   1.712  14.898 -0.2529 -0.0407 -0.4125
  925MPD2    H513543   2.921   1.771  14.980 -0.3997  0.0596 -0.4902
  925MPD2    N113544   3.211   1.452  14.618  0.1123  0.3350 -0.2550
  925MPD2    H713545   3.125   1.407  14.587  0.1625 -0.2728  0.4971
  926MPD2     C13546   2.054   4.220  13.545 -0.3963 -0.0617 -0.2873
  926MPD2    C113547   2.113   4.342  13.524  0.7396  0.4227 -0.2379
  926MPD2    C213548   2.197   4.361  13.411 -0.2876  0.1022  0.8511
  926MPD2    C313549   2.218   4.262  13.323 -0.7201 -0.3726  0.4542
  926MPD2    C413550   2.170   4.134  13.360 -0.3509  0.6783 -0.2969
  926MPD2    C513551   2.085   4.113  13.465 -0.3886 -0.0267  0.4105
  926MPD2     H13552   2.228   4.462  13.387  0.9031 -0.7017 -0.9738
  926MPD2    H113553   2.190   4.049  13.295 -0.2581 -0.1873  0.8603
  926MPD2    H213554   1.990   4.209  13.631  1.4832 -0.1720  1.0941
  926MPD2    H313555   2.048   4.016  13.494  0.8646 -0.6403 -0.0357
  926MPD2     N13556   2.293   4.274  13.202 -0.2076 -0.1556 -0.1948
  926MPD2    H513557   2.324   4.195  13.147 -0.6279 -0.3639 -0.1290
  926MPD2    N113558   2.103   4.451  13.612  0.1168  0.2045  0.0385
  926MPD2    H713559   2.146   4.536  13.575  1.4643 -0.6002 -0.2350
  927MPD2     C13560   1.154   2.929   0.033 -0.3070  0.3399 -0.3044
  927MPD2    C113561   1.178   2.792   0.058 -0.3056 -0.5424 -0.4027
  927MPD2    C213562   1.250   2.720  17.660 -0.3492 -0.3334  0.2772
  927MPD2    C313563   1.307   2.780  17.546  0.3234 -0.2254 -0.0178
  927MPD2    C413564   1.281   2.912  17.526  0.9930  0.6592 -0.3141
  927MPD2    C513565   1.205   2.991  17.613 -0.1172 -0.0881 -0.0162
  927MPD2     H13566   1.273   2.615  17.674 -0.8858 -0.6939 -1.5522
  927MPD2    H113567   1.320   2.954  17.434 -0.0629 -2.4191 -2.1516
  927MPD2    H213568   1.096   2.989   0.101 -1.0252  2.0786 -2.4308
  927MPD2    H313569   1.186   3.097  17.596  2.4954  0.5842  1.2983
  927MPD2     N13570   1.386   2.695  17.461  0.7707 -0.0638 -0.1961
  927MPD2    H513571   1.386   2.597  17.484  3.4101  0.4745  2.1543
  927MPD2    N113572   1.123   2.733   0.171  0.3603  0.2521 -0.0862
  927MPD2    H713573   1.058   2.783   0.230 -0.4858 -1.2417  0.2451
  928MPD2     C13574   0.180   0.784   1.400  0.3020 -0.0617  0.8931
  928MPD2    C113575   0.106   0.897   1.417  0.3612 -0.1266 -0.6019
  928MPD2    C213576   0.041   0.946   1.308  0.0496 -0.5110  0.4083
  928MPD2    C313577   0.031   0.873   1.192  0.4206 -0.5591 -0.2949
  928MPD2    C413578   0.078   0.746   1.196  0.3707 -0.4272 -1.1448
  928MPD2    C513579   0.167   0.703   1.290  0.0477 -0.2265 -0.1980
  928MPD2     H13580   0.007   1.049   1.310  0.2497 -0.4609  1.1776
  928MPD2    H113581   0.066   0.687   1.105 -0.1769  1.4825 -2.3020
  928MPD2    H213582   0.245   0.749   1.479 -1.5755 -3.7510  0.7985
  928MPD2    H313583   0.220   0.609   1.286  0.5418  0.0445  0.0272
  928MPD2     N13584   4.696   0.923   1.065 -0.2714  0.3102  0.6829
  928MPD2    H513585   4.685   0.855   0.991 -0.1237  1.3931 -0.3358
  928MPD2    N113586   0.140   0.982   1.527  0.0642 -0.1749  0.5113
  928MPD2    H713587   0.204   0.937   1.592 -2.0544 -1.3598  1.7716
  929MPD2     C13588   4.325   0.133  11.028  0.3780 -0.0784 -0.4812
  929MPD2    C113589   4.192   0.102  10.991  0.7048 -0.5381 -0.2934
  929MPD2    C213590   4.161   0.092  10.856 -0.6916 -0.3660 -0.3764
  929MPD2    C313591   4.250   0.126  10.759 -0.1465 -1.1179 -0.2356
  929MPD2    C413592   4.380   0.155  10.798 -0.0966  0.2077 -0.7561
  929MPD2    C513593   4.413   0.163  10.929  0.4993 -0.4273  0.1914
  929MPD2     H13594   4.056   0.083  10.829 -0.7083 -1.8285  0.1731
  929MPD2    H113595   4.461   0.173  10.728  1.6606  0.2902  1.2912
  929MPD2    H213596   4.372   0.124  11.126 -2.5620  0.6481  0.9917
  929MPD2    H313597   4.515   0.193  10.951  0.4675 -1.9455  2.4186
  929MPD2     N13598   4.206   0.114  10.620  0.3208 -0.5164 -0.2994
  929MPD2    H513599   4.107   0.100  10.607  0.2131  0.4568 -0.4574
  929MPD2    N113600   4.107   0.062  11.095  0.4920  0.1224 -0.0777
  929MPD2    H713601   4.145   0.056  11.189  1.8222  1.0182 -0.5471
  930MPD2     C13602   1.044   2.721  13.991  0.0627 -0.2924 -0.1931
  930MPD2    C113603   1.161   2.657  14.037  0.0844 -0.2387 -0.5185
  930MPD2    C213604   1.156   2.516  14.050 -0.0475  0.1174 -0.4620
  930MPD2    C313605   1.039   2.451  14.003  0.7354 -0.4466 -0.0928
  930MPD2    C413606   0.932   2.515  13.950 -0.2997  0.0097 -0.0547
  930MPD2    C513607   0.944   2.652  13.952 -0.1525 -0.1527 -0.8413
  930MPD2     H13608   1.243   2.465  14.091 -0.7097  0.0466  0.8779
  930MPD2    H113609   0.840   2.463  13.928 -0.6939  0.3430  0.7899
  930MPD2    H213610   1.038   2.828  13.975  0.1464 -0.2880 -0.1973
  930MPD2    H313611   0.868   2.709  13.900 -0.4886 -0.4447 -0.6662
  930MPD2     N13612   1.027   2.306  13.997 -0.0470  0.3277 -0.9161
  930MPD2    H513613   0.937   2.268  13.969  0.6251 -1.6449 -0.4189
  930MPD2    N113614   1.279   2.730  14.063  0.9265  0.1382 -0.1567
  930MPD2    H713615   1.273   2.830  14.044  2.3784 -0.3366 -3.1373
  931MPD2     C13616   1.221   2.068   0.520  0.2222 -0.4512  0.8035
  931MPD2    C113617   1.132   2.141   0.598  0.1661  0.1929 -1.0255
  931MPD2    C213618   1.097   2.095   0.723  0.5737 -0.2836  0.4203
  931MPD2    C313619   1.159   1.975   0.771  0.3145 -1.0267 -0.1147
  931MPD2    C413620   1.233   1.897   0.686  0.2731 -0.0592  0.0761
  931MPD2    C513621   1.273   1.948   0.566  0.3095 -0.0944  0.7806
  931MPD2     H13622   1.059   2.164   0.797 -1.0969  0.5235 -1.1866
  931MPD2    H113623   1.278   1.806   0.724 -1.2339 -1.2115 -0.8672
  931MPD2    H213624   1.260   2.097   0.423 -1.5400 -0.3067  0.1366
  931MPD2    H313625   1.356   1.902   0.514 -0.3516  0.0450 -0.4038
  931MPD2     N13626   1.153   1.936   0.907  0.1336  0.6806 -0.0497
  931MPD2    H513627   1.227   1.870   0.930  0.1461  0.4385 -0.7711
  931MPD2    N113628   1.099   2.277   0.556  0.0295 -0.3258  0.6149
  931MPD2    H713629   1.138   2.310   0.468 -2.1120 -0.4554 -0.3960
  932MPD2     C13630   2.863   1.415  10.627 -0.5971 -0.3605 -0.6430
  932MPD2    C113631   2.998   1.406  10.667  0.4972 -0.3768 -0.0431
  932MPD2    C213632   3.043   1.293  10.744 -0.3383 -0.7668  0.6318
  932MPD2    C313633   2.954   1.198  10.776  0.2489 -0.2683  1.3607
  932MPD2    C413634   2.824   1.209  10.734  0.2690 -0.8819 -0.5897
  932MPD2    C513635   2.777   1.315  10.655 -0.4138 -0.3932  0.1619
  932MPD2     H13636   3.150   1.293  10.761 -0.3202 -2.7349  0.4420
  932MPD2    H113637   2.752   1.132  10.759 -2.1205  1.6218  0.1009
  932MPD2    H213638   2.818   1.507  10.591  1.8021  1.3303  0.6911
  932MPD2    H313639   2.679   1.316  10.608 -0.6356  0.7714  0.6705
  932MPD2     N13640   2.991   1.081  10.848  0.1974  0.3523  0.4058
  932MPD2    H513641   2.918   1.011  10.859  0.5499 -0.1125 -0.1975
  932MPD2    N113642   3.086   1.510  10.629 -0.0055 -0.1480 -0.3551
  932MPD2    H713643   3.183   1.485  10.616 -0.0094  0.0763 -0.8294
  933MPD2     C13644   0.148   1.559   2.272 -0.2108 -0.1287 -0.3009
  933MPD2    C113645   0.081   1.552   2.153 -0.2835  0.2694  0.4658
  933MPD2    C213646   4.714   1.647   2.117  0.1865  0.0670 -0.8862
  933MPD2    C313647   4.686   1.746   2.214  0.8317  0.3586  0.2645
  933MPD2    C413648   0.032   1.750   2.330 -0.3133  0.1170 -0.3922
  933MPD2    C513649   0.129   1.654   2.360  0.8432  0.1512  0.2962
  933MPD2     H13650   4.665   1.647   2.020  1.1170  0.1114 -1.3486
  933MPD2    H113651   0.026   1.825   2.408 -2.4851 -1.5410  1.0213
  933MPD2    H213652   0.216   1.479   2.297 -1.0786 -0.9337 -0.5225
  933MPD2    H313653   0.178   1.654   2.457 -1.3026  0.2859  1.3690
  933MPD2     N13654   4.595   1.851   2.174 -0.8531 -0.2703  0.3059
  933MPD2    H513655   4.547   1.841   2.085  0.2520 -1.0427 -0.2163
  933MPD2    N113656   0.122   1.457   2.055  0.6039 -0.2634 -0.5683
  933MPD2    H713657   0.214   1.419   2.074  0.1668 -0.1004  1.8467
  934MPD2     C13658   0.817   3.567   2.457 -0.4919  0.3096 -0.0689
  934MPD2    C113659   0.825   3.656   2.343 -0.4206 -0.4636  0.0394
  934MPD2    C213660   0.724   3.652   2.255 -0.5282 -0.3769  0.1507
  934MPD2    C313661   0.613   3.570   2.272 -0.3423  0.6860  0.0603
  934MPD2    C413662   0.603   3.491   2.381 -0.0717  0.0336 -0.2151
  934MPD2    C513663   0.706   3.489   2.474  0.7000 -0.4958 -0.5324
  934MPD2     H13664   0.730   3.723   2.173  0.0326 -0.9754 -0.3273
  934MPD2    H113665   0.513   3.433   2.401  1.3514 -1.7905  0.9067
  934MPD2    H213666   0.895   3.553   2.530  1.5219 -3.5947 -2.9503
  934MPD2    H313667   0.707   3.412   2.550 -1.9424  2.1699  2.1894
  934MPD2     N13668   0.504   3.588   2.185  1.3642 -1.0560 -0.1225
  934MPD2    H513669   0.427   3.522   2.190 -0.2787  0.9371  0.7040
  934MPD2    N113670   0.932   3.745   2.311  0.2857 -0.3221  0.3538
  934MPD2    H713671   0.935   3.795   2.223 -0.6991  0.7477  0.9115
  935MPD2     C13672   0.352   2.879   1.828 -0.1968 -0.4396  0.1018
  935MPD2    C113673   0.352   2.962   1.716 -0.0618  0.9560 -0.3013
  935MPD2    C213674   0.336   3.099   1.731 -0.4765  0.8738 -0.0725
  935MPD2    C313675   0.321   3.149   1.860 -0.3835  0.6582  0.6291
  935MPD2    C413676   0.322   3.069   1.972  0.1351 -0.0696 -0.0738
  935MPD2    C513677   0.335   2.930   1.953 -0.0826  0.0906  0.1217
  935MPD2     H13678   0.342   3.168   1.648  2.3813  0.6948 -0.0248
  935MPD2    H113679   0.319   3.112   2.071 -2.6688  0.3783 -0.3542
  935MPD2    H213680   0.372   2.772   1.819 -3.0077 -0.9184 -0.6669
  935MPD2    H313681   0.322   2.857   2.032 -0.8220  0.8909  0.7429
  935MPD2     N13682   0.295   3.284   1.886  0.2841 -0.7562  0.8666
  935MPD2    H513683   0.293   3.307   1.985 -1.9101 -2.6186  1.2704
  935MPD2    N113684   0.363   2.912   1.581 -0.1256  0.2138  0.3326
  935MPD2    H713685   0.351   2.976   1.503 -1.9945  1.8014  1.9180
  936MPD2     C13686   3.734   4.498  12.853  0.2108  0.0977  0.2505
  936MPD2    C113687   3.788   4.431  12.962  0.0492  0.5490 -0.0398
  936MPD2    C213688   3.909   4.473  13.018 -0.3412  1.3252  0.7806
  936MPD2    C313689   3.986   4.573  12.957 -0.7105 -0.5260  0.2910
  936MPD2    C413690   3.929   4.649  12.852 -0.9134 -0.2350 -0.3939
  936MPD2    C513691   3.800   4.612  12.814 -0.2948  0.1147  0.1585
  936MPD2     H13692   3.948   4.413  13.100  0.8410 -1.2641 -1.6455
  936MPD2    H113693   3.985   0.000  12.795  3.1380 -2.3732  0.7880
  936MPD2    H213694   3.644   4.464  12.802  1.7067 -2.1549 -0.8517
  936MPD2    H313695   3.769   4.659  12.721 -0.9521  1.9139  1.3048
  936MPD2     N13696   4.123   4.596  13.002 -0.0611 -0.2518  0.3132
  936MPD2    H513697   4.176   4.656  12.939 -0.4347  2.0049  2.1189
  936MPD2    N113698   3.734   4.311  13.015 -0.0762  0.4297 -0.0654
  936MPD2    H713699   3.774   4.267  13.097 -1.0506  0.5566  0.4890
  937MPD2     C13700   1.691   0.917  11.825  0.3025  0.7380  0.3368
  937MPD2    C113701   1.753   1.039  11.815 -1.1855  0.4559  0.4105
  937MPD2    C213702   1.814   1.076  11.694  0.3702  0.3467  0.6150
  937MPD2    C313703   1.840   0.983  11.600 -0.1050 -0.0581  0.3188
  937MPD2    C413704   1.793   0.852  11.616  0.0407  0.7400 -0.6063
  937MPD2    C513705   1.710   0.828  11.722 -0.7095  0.2184  0.3482
  937MPD2     H13706   1.846   1.179  11.690  2.5510 -0.3159  0.7346
  937MPD2    H113707   1.816   0.773  11.545 -1.4722  0.4794 -0.8208
  937MPD2    H213708   1.620   0.902  11.906  0.4978 -0.3491  0.3076
  937MPD2    H313709   1.666   0.730  11.736  1.1873 -0.9926 -2.2110
  937MPD2     N13710   1.925   1.016  11.492 -0.2367  0.3061 -0.4863
  937MPD2    H513711   1.982   1.100  11.501 -0.1813  0.3472 -1.1904
  937MPD2    N113712   1.726   1.146  11.906  0.3947 -0.0493  0.2318
  937MPD2    H713713   1.771   1.230  11.870  0.8658 -1.3436 -2.1655
  938MPD2     C13714   4.237   2.786   0.881 -0.2750 -0.4365 -0.1228
  938MPD2    C113715   4.220   2.914   0.921 -0.3933  0.1618 -0.1511
  938MPD2    C213716   4.250   2.932   1.055 -0.3170 -0.0957 -0.0639
  938MPD2    C313717   4.286   2.828   1.145 -0.0678 -0.1508 -0.0998
  938MPD2    C413718   4.311   2.702   1.094 -0.0403 -0.8814 -0.1391
  938MPD2    C513719   4.296   2.688   0.955  0.3350  0.4450  0.0930
  938MPD2     H13720   4.236   3.031   1.096  1.0793 -1.2014  3.0894
  938MPD2    H113721   4.350   2.619   1.152 -0.3830 -0.4045  0.7830
  938MPD2    H213722   4.231   2.769   0.774 -2.4165 -2.0619  0.2538
  938MPD2    H313723   4.299   2.587   0.915 -1.8112  0.0555  0.9013
  938MPD2     N13724   4.280   2.837   1.287 -0.4224  0.0776  0.3592
  938MPD2    H513725   4.279   2.748   1.337 -1.7733  0.4616  1.0225
  938MPD2    N113726   4.197   3.018   0.833 -0.3894 -0.0098 -0.2859
  938MPD2    H713727   4.233   3.106   0.870  0.2663 -0.9992  1.4671
  939MPD2     C13728   0.938   4.293   0.843  0.1150 -0.2668  0.1370
  939MPD2    C113729   1.023   4.270   0.951  0.4957 -0.0563  0.0797
  939MPD2    C213730   1.152   4.229   0.924  0.0500  0.0306  0.3458
  939MPD2    C313731   1.187   4.203   0.790  0.2881 -0.4927 -0.0861
  939MPD2    C413732   1.097   4.211   0.691 -0.1643 -0.1393 -0.4087
  939MPD2    C513733   0.970   4.262   0.718  0.0515 -0.2889 -0.0836
  939MPD2     H13734   1.228   4.220   1.001 -0.9934  1.2385  1.5311
  939MPD2    H113735   1.128   4.190   0.590 -0.4218 -0.7819 -0.3542
  939MPD2    H213736   0.840   4.335   0.859 -0.2579 -1.3381  0.6949
  939MPD2    H313737   0.899   4.302   0.647 -1.7697 -1.7032  0.9068
  939MPD2     N13738   1.320   4.165   0.767 -0.0148 -0.1188 -0.2742
  939MPD2    H513739   1.384   4.174   0.846 -2.4816  0.3997  1.6396
  939MPD2    N113740   0.978   4.284   1.078  0.0075 -0.3914  0.5194
  939MPD2    H713741   0.888   4.329   1.089 -1.4141 -3.3793  0.9143
  940MPD2     C13742   0.086   4.697  13.040 -0.4482 -0.4325 -0.0750
  940MPD2    C113743   0.117   4.592  13.125  0.3077 -0.2970 -0.1852
  940MPD2    C213744   0.200   4.491  13.085 -0.4234 -0.7962 -0.1830
  940MPD2    C313745   0.246   4.485  12.955 -0.1401  0.7372  0.0038
  940MPD2    C413746   0.216   4.587  12.867 -0.1284 -0.3540  0.1587
  940MPD2    C513747   0.137   4.694  12.909  0.0540 -0.3508 -0.5394
  940MPD2     H13748   0.223   4.416  13.160 -1.5988 -1.9069 -0.9263
  940MPD2    H113749   0.249   4.584  12.764 -0.5016 -1.6183  0.0762
  940MPD2    H213750   0.020   0.054  13.072 -0.3983  0.9424 -3.3091
  940MPD2    H313751   0.111   0.050  12.839 -0.2299  0.1481  0.1297
  940MPD2     N13752   0.300   4.372  12.891  0.7686  0.0124  0.3991
  940MPD2    H513753   0.341   4.391  12.800  1.0619 -1.6933  0.1654
  940MPD2    N113754   0.067   4.578  13.247 -0.8893 -0.5767  0.4702
  940MPD2    H713755   0.110   4.500  13.297 -1.2755 -0.3708  1.1283
  941MPD2     C13756   3.727   3.657   9.053  0.9926  0.1974  0.2653
  941MPD2    C113757   3.742   3.641   9.189  0.6961 -0.9125 -0.2503
  941MPD2    C213758   3.661   3.557   9.254 -0.3358 -0.4490 -0.0994
  941MPD2    C313759   3.553   3.493   9.192  0.0916 -0.6991  0.3958
  941MPD2    C413760   3.538   3.512   9.053 -0.2356 -0.1936 -0.0798
  941MPD2    C513761   3.622   3.601   8.989  0.0040 -0.0278  0.7601
  941MPD2     H13762   3.662   3.533   9.360 -0.7856  0.5525  0.1256
  941MPD2    H113763   3.461   3.469   8.990 -0.1244  0.8318 -0.9204
  941MPD2    H213764   3.779   3.737   9.003 -0.0901  0.3208 -0.6809
  941MPD2    H313765   3.603   3.624   8.885  0.1912  0.9241  0.9412
  941MPD2     N13766   3.470   3.413   9.271 -0.1347 -0.1769  0.0717
  941MPD2    H513767   3.478   3.414   9.372  1.4578 -0.5313 -0.0445
  941MPD2    N113768   3.843   3.697   9.265 -0.4799 -0.3423  0.0720
  941MPD2    H713769   3.827   3.669   9.361  0.6390 -2.8190 -0.4442
  942MPD2     C13770   2.878   0.360   9.265 -0.4015 -0.3679  0.7494
  942MPD2    C113771   2.916   0.268   9.167  0.5083 -0.2616 -1.0279
  942MPD2    C213772   3.036   0.206   9.174  0.3320  0.0358 -0.2521
  942MPD2    C313773   3.118   0.240   9.275 -0.5138 -0.1333  0.0519
  942MPD2    C413774   3.090   0.338   9.371  0.5097  0.3930 -0.4601
  942MPD2    C513775   2.970   0.397   9.367 -0.0491  0.0550 -0.2857
  942MPD2     H13776   3.069   0.130   9.104  0.6901  0.0621 -0.1111
  942MPD2    H113777   3.144   0.364   9.461 -2.2442  0.1842  1.2622
  942MPD2    H213778   2.788   0.420   9.265  0.8318  1.5104 -0.1492
  942MPD2    H313779   2.954   0.479   9.436 -2.2977  0.3448 -1.1418
  942MPD2     N13780   3.234   0.168   9.305  0.2172  0.4303 -0.1070
  942MPD2    H513781   3.302   0.218   9.361 -0.3217  2.0656 -0.9212
  942MPD2    N113782   2.822   0.229   9.070 -0.7508  0.1464 -0.3838
  942MPD2    H713783   2.836   0.149   9.009  0.9289  0.7747 -0.8233
  943MPD2     C13784   2.429   3.063  10.052 -0.0658  0.8137 -0.4265
  943MPD2    C113785   2.395   3.030   9.923 -0.5438  0.4247 -0.0348
  943MPD2    C213786   2.491   3.048   9.828 -0.3227 -0.0189  0.4972
  943MPD2    C313787   2.623   3.087   9.850  0.2813 -0.7380  0.0642
  943MPD2    C413788   2.656   3.111   9.985  0.1556 -0.5784  0.0540
  943MPD2    C513789   2.557   3.107  10.082 -0.3951 -0.0827 -0.1738
  943MPD2     H13790   2.465   3.020   9.726  0.7140 -0.0834  0.2504
  943MPD2    H113791   2.757   3.141  10.010  0.7153 -0.9066 -1.8027
  943MPD2    H213792   2.358   3.062  10.134  1.7359 -0.7720  1.1247
  943MPD2    H313793   2.580   3.142  10.182  1.3961 -0.0983 -0.5881
  943MPD2     N13794   2.727   3.105   9.752 -0.4016 -0.0347  0.8173
  943MPD2    H513795   2.817   3.141   9.780 -1.0221  1.9755  0.2912
  943MPD2    N113796   2.266   2.972   9.906 -0.4736 -0.4073 -0.1659
  943MPD2    H713797   2.199   2.963   9.982 -0.4183  0.4331 -0.0227
  944MPD2     C13798   2.314   2.619  10.591 -0.9452 -0.3352 -0.7349
  944MPD2    C113799   2.263   2.491  10.582  0.4276 -0.0630  0.0517
  944MPD2    C213800   2.217   2.430  10.693 -0.1172 -0.0371 -0.8732
  944MPD2    C313801   2.205   2.503  10.815  0.2918  0.5150  0.0149
  944MPD2    C413802   2.254   2.627  10.824  0.1559 -0.5397  0.5665
  944MPD2    C513803   2.312   2.681  10.715 -0.0031 -0.2806 -0.7231
  944MPD2     H13804   2.174   2.331  10.685 -1.1123  0.3556 -0.3498
  944MPD2    H113805   2.249   2.680  10.919 -0.8015 -1.7885  1.2167
  944MPD2    H213806   2.361   2.668  10.506  0.4401  0.4475  0.4725
  944MPD2    H313807   2.374   2.770  10.711  0.8547 -0.7980  0.8880
  944MPD2     N13808   2.140   2.436  10.920 -0.0699  0.1447 -0.6497
  944MPD2    H513809   2.123   2.338  10.900  0.7751 -0.8866  3.5596
  944MPD2    N113810   2.293   2.434  10.458  0.7672 -0.0846 -0.1805
  944MPD2    H713811   2.319   2.507  10.393  0.2951 -0.6174 -0.9598
    1TCq1    O113812   4.706   3.519  14.460 -0.0164  0.5035  0.1085
    1TCq1    C113813   4.684   3.579  14.581  0.5432 -0.5112 -0.0418
    1TCq1    O213814   4.611   3.538  14.670  0.5224  0.7229 -0.2574
    1TCq1    C213815   0.083   3.643  14.619  0.2308  0.1885 -0.8855
    1TCq1    C313816   0.141   3.612  14.739  0.5486  0.1972 -0.0607
    1TCq1    C413817   0.244   3.691  14.797  0.2570 -0.3311  0.0929
    1TCq1    C513818   0.282   3.798  14.722  0.3312  0.3408  0.4970
    1TCq1    C613819   0.228   3.825  14.595  0.4946 -0.5500  0.9075
    1TCq1    C713820   0.125   3.748  14.549  0.0047 -0.4660 -0.0912
    1TCq1    C813821   0.262   3.938  14.503 -0.3240  0.1447 -0.2603
    1TCq1    O413822   0.191   3.951  14.403 -0.4940  0.0974  0.0844
    1TCq1    C913823   0.320   3.645  14.915  0.0824 -0.2467  0.0559
    1TCq1    O513824   0.253   3.563  14.986 -0.0021  0.7019  0.7908
    1TCq1    O613825   0.414   3.720  14.951  0.9157  0.1065 -0.0441
    1TCq1    H113826   0.058   3.563  14.415  1.1482 -0.7774  0.8024
    1TCq1    H213827   0.100   3.527  14.792 -0.7535  0.7834 -0.1195
    1TCq1    H313828   0.355   3.866  14.764 -0.4883 -0.6007  3.4209
    1TCq1    H413829   0.072   3.776  14.459 -1.0709 -2.8838 -0.2231
    2MPD2     C13830   0.554   4.341  14.366  0.3008 -0.2113  0.2584
    2MPD2    C113831   0.420   4.313  14.330 -0.2045 -0.0548  0.7871
    2MPD2    C213832   0.356   4.196  14.370  0.1349 -0.5954 -0.2152
    2MPD2    C313833   0.426   4.116  14.468  0.1079 -0.2083 -0.0812
    2MPD2    C413834   0.561   4.134  14.488  0.3158  0.0545  0.2473
    2MPD2    C513835   0.622   4.243  14.433 -0.3127 -0.0131 -0.0484
    2MPD2     H13836   0.253   4.175  14.347  0.4690 -3.6008  1.0334
    2MPD2    H113837   0.608   4.061  14.553  2.8273  0.8619 -0.6620
    2MPD2    H213838   0.601   4.439  14.360  0.5182 -0.2243  1.7662
    2MPD2    H313839   0.725   4.259  14.466  0.8961 -4.1116 -1.8400
    2MPD2     N13840   0.375   4.010  14.540 -0.5043 -0.4036 -0.6665
    2MPD2    H513841   0.435   3.980  14.616 -1.6089  0.1468  0.4222
    2MPD2    N113842   0.356   4.411  14.263  0.2711  0.3679 -0.1565
    2MPD2    H713843   0.412   4.483  14.219 -1.9532  0.9833 -1.9815
    3TMC2    C113844   0.184   4.536  14.167 -0.1789 -0.6932 -0.3644
    3TMC2    C213845   0.084   4.626  14.197  0.1443  0.0715 -0.0453
    3TMC2    C313846   0.073   0.020  14.117 -0.9453  0.5973 -0.7066
    3TMC2    C413847   0.269   4.557  14.064 -0.0179 -0.3555  0.4093
    3TMC2    C513848   0.268   4.674  14.000  0.1819  0.0458  0.3393
    3TMC2    C613849   0.175   0.042  14.026  0.4066  0.7905 -0.0405
    3TMC2     C13850   0.223   4.429  14.256  0.1006  0.0528 -0.3607
    3TMC2     O13851   0.133   4.388  14.330  0.2000  0.7039  0.2137
    3TMC2     H13852   0.013   4.598  14.274  0.6337 -2.2817 -0.4655
    3TMC2    H113853   0.338   4.486  14.021 -1.2642 -0.4615 -1.4356
    3TMC2    H213854   0.179   0.139  13.977  1.1993  1.4779  1.3845
    3TMC2    C713855   0.332   4.670  13.872 -0.5140  0.2516  0.1714
    3TMC2    C813856   4.700   0.115  14.156  0.2568  0.0117  0.3058
    3TMC2    O113857   0.441   4.608  13.870  0.1004  0.0552  0.2041
    3TMC2    O213858   4.644   0.107  14.267  0.4608  0.3028 -0.2448
    3TMC2    O513859   4.653   0.177  14.045 -0.3138  0.4110 -0.6626
    3TMC2    H513860   4.697   0.153  13.961  1.3881  1.3712 -0.0325
    4MPD2     C13861   4.058   0.240  12.752  0.6847  0.0867  0.5613
    4MPD2    C113862   4.160   0.265  12.658  0.9783 -0.2538 -0.4761
    4MPD2    C213863   4.286   0.267  12.711 -0.5248  0.6697  0.1291
    4MPD2    C313864   4.312   0.263  12.848 -0.0879  0.1005  1.0036
    4MPD2    C413865   4.204   0.243  12.931  0.4175 -0.0284 -0.4535
    4MPD2    C513866   4.077   0.229  12.881 -0.6106 -0.2915  0.0648
    4MPD2     H13867   4.370   0.274  12.643  0.3590  3.5688  1.5225
    4MPD2    H113868   4.207   0.236  13.039  1.0408  1.0086 -0.3971
    4MPD2    H213869   3.964   0.216  12.704  0.0101  2.9054  0.4649
    4MPD2    H313870   3.993   0.220  12.949 -1.0436 -2.9123 -0.8599
    4MPD2     N13871   4.444   0.284  12.893  0.0003 -0.3598 -0.3850
    4MPD2    H513872   4.515   0.288  12.820  0.8744  0.1959  0.4991
    4MPD2    N113873   4.124   0.265  12.526  0.0712 -0.0934  0.2092
    4MPD2    H713874   4.033   0.226  12.502  0.2779 -0.7530  0.4951
    5TCq2    C113875   4.482   0.303  13.024 -0.1749  0.9234  0.1288
    5TCq2    O213876   4.423   0.310  13.129  0.1625  0.3697 -0.2240
    5TCq2    C213877   4.624   0.335  13.045 -0.1312  0.0478  0.2247
    5TCq2    C313878   4.714   0.355  12.945  0.2003 -0.7158 -0.0728
    5TCq2    C413879   0.121   0.356  12.983  0.8421  0.3103  0.2902
    5TCq2    C513880   0.160   0.340  13.113  0.2141  0.4332 -0.0861
    5TCq2    C613881   0.065   0.326  13.211 -0.0848  0.8091  0.3055
    5TCq2    C713882   4.657   0.331  13.177  0.4084 -0.0213  0.7927
    5TCq2    C813883   0.105   0.251  13.333  0.2958 -0.7528 -1.0759
    5TCq2    O413884   0.035   0.255  13.436  0.4931  0.6803  0.2171
    5TCq2    C913885   0.221   0.374  12.879  0.0978 -0.5411  0.1259
    5TCq2    O513886   0.336   0.338  12.920 -0.1625 -1.1889 -0.0179
    5TCq2    O613887   0.188   0.378  12.757  0.0391  0.2887  0.3941
    5TCq2    H213888   4.674   0.361  12.845 -1.0656 -2.6376  0.3140
    5TCq2    H313889   0.267   0.344  13.135 -0.0641 -0.7317  1.5023
    5TCq2    H413890   4.586   0.308  13.256  0.5632 -2.7072  0.1454
    6MPD1     C13891   3.431   1.592  11.889 -0.2390 -0.1812  0.3554
    6MPD1    C113892   3.388   1.619  12.019 -0.0808 -0.1154  0.2073
    6MPD1    C213893   3.459   1.558  12.122 -0.3180  0.0693  1.1092
    6MPD1    C313894   3.572   1.488  12.099  0.0832 -0.2498 -0.1021
    6MPD1    C413895   3.615   1.469  11.974 -0.7795 -0.4376 -0.3744
    6MPD1    C513896   3.542   1.522  11.872  0.1839 -0.0614 -0.2260
    6MPD1     H13897   3.432   1.572  12.226  0.6454 -1.0372  1.5047
    6MPD1    H113898   3.707   1.416  11.948 -0.0660 -0.6077  2.4449
    6MPD1    H213899   3.382   1.637  11.803  0.0467  0.9437  0.7695
    6MPD1    H313900   3.579   1.503  11.772  0.3046 -0.4913 -0.1019
    6MPD1     N13901   3.650   1.429  12.198 -0.0136 -0.2901 -0.1961
    6MPD1    H513902   3.727   1.372  12.164  0.6072  0.4785 -0.0840
    6MPD1    N113903   3.284   1.712  12.039 -0.6754  0.1287 -0.2797
    6MPD1    H613904   3.217   1.701  11.964 -0.6047 -1.1927 -0.1586
    6MPD1    H713905   3.243   1.702  12.132  1.5868  2.5003  0.9949
    7MPD2     C13906   3.505   0.802  12.590  0.2744 -0.6618  0.0749
    7MPD2    C113907   3.631   0.843  12.546 -0.5087  0.1143 -0.4219
    7MPD2    C213908   3.714   0.750  12.477 -0.0355 -0.6185  0.2129
    7MPD2    C313909   3.676   0.627  12.449  0.8158 -0.0552  0.4945
    7MPD2    C413910   3.559   0.588  12.502  0.1450 -0.4696 -0.2912
    7MPD2    C513911   3.466   0.677  12.557 -0.2755 -0.5034 -0.1092
    7MPD2     H13912   3.817   0.775  12.453  0.1038 -0.7827  0.6365
    7MPD2    H113913   3.540   0.482  12.491  1.8370 -0.8065 -0.1107
    7MPD2    H213914   3.428   0.868  12.628 -0.7620 -0.0833 -2.9981
    7MPD2    H313915   3.365   0.647  12.585 -0.3048 -2.1943 -2.0609
    7MPD2     N13916   3.757   0.536  12.372  0.1861  0.6516 -0.1399
    7MPD2    H513917   3.731   0.438  12.367  0.2382  0.6568 -0.5473
    7MPD2    N113918   3.667   0.978  12.567  0.1826  0.5350  0.1035
    7MPD2    H713919   3.591   1.037  12.600 -0.2364  0.4412 -0.7031
    8TMC3    C113920   3.936   0.468  12.229 -0.0095  0.7721 -0.0103
    8TMC3    C213921   3.993   0.384  12.320  0.2016  0.8574  0.8552
    8TMC3    C313922   4.130   0.347  12.300  0.0650  0.0635 -0.4863
    8TMC3    C413923   4.005   0.512  12.116 -0.2968 -0.5024  0.0207
    8TMC3    C513924   4.139   0.483  12.108  0.1886 -0.3428  0.5803
    8TMC3    C613925   4.203   0.401  12.199 -0.5787 -0.6922  0.5506
    8TMC3     C13926   3.860   0.574  12.285 -0.8842 -0.2780  0.3580
    8TMC3     O13927   3.897   0.685  12.250  0.2459  0.5497  0.2839
    8TMC3     H13928   3.933   0.352  12.404  0.0629 -1.7637 -0.2440
    8TMC3    H113929   3.959   0.583  12.049  0.5891 -0.6144 -0.7062
    8TMC3    H213930   4.310   0.388  12.199 -0.4368  0.6119 -3.8219
    8TMC3    C713931   4.212   0.601  12.076  0.2502  0.3195  0.4675
    8TMC3    C813932   4.202   0.314  12.423  1.2793  0.0179 -0.2868
    8TMC3    O113933   4.331   0.581  12.048  0.2550  0.6606 -1.2566
    8TMC3    O213934   4.320   0.349  12.422 -0.1493 -0.2825  0.0769
    9TMC3    C113935   3.718   1.341  12.396 -0.1206 -0.2102  0.8378
    9TMC3    C213936   3.848   1.386  12.384  0.6650  0.0293  0.5241
    9TMC3    C313937   3.945   1.313  12.443  0.0986  0.3503  0.7111
    9TMC3    C413938   3.686   1.244  12.482  0.4730 -0.0803 -0.2097
    9TMC3    C513939   3.789   1.176  12.552 -0.0425  0.2305  0.3454
    9TMC3    C613940   3.920   1.215  12.537  0.5055  0.0525  0.2862
    9TMC3     C13941   3.616   1.418  12.327  0.2578  0.1504  0.1998
    9TMC3     O13942   3.531   1.462  12.402 -0.1263  0.0207  0.0052
    9TMC3     H13943   3.871   1.463  12.312 -0.4036  0.1526  0.3206
    9TMC3    H113944   3.584   1.210  12.478  0.2580  0.6116 -0.6014
    9TMC3    H213945   3.990   1.156  12.595  1.0411  1.4964  1.0957
    9TMC3    C713946   3.787   1.030  12.536 -0.2769 -0.1168 -0.7843
    9TMC3    C813947   4.056   1.273  12.354 -0.3056  0.4340  0.0466
    9TMC3    O113948   3.884   0.974  12.490 -0.1820  0.1262 -0.1716
    9TMC3    O213949   4.088   1.358  12.269  0.2231 -0.1484  0.5530
   10MPD2     C13950   4.283   0.901  12.067 -0.3024  0.3879  0.7505
   10MPD2    C113951   4.183   0.844  12.146  0.1397 -0.4251 -0.4630
   10MPD2    C213952   4.115   0.919  12.238  0.0984 -0.0857 -0.4740
   10MPD2    C313953   4.143   1.054  12.249  0.2569 -0.0998 -0.0223
   10MPD2    C413954   4.247   1.109  12.176 -0.6236  0.0167  0.1844
   10MPD2    C513955   4.319   1.035  12.087  0.4449  0.6449  0.4604
   10MPD2     H13956   4.047   0.875  12.310 -2.0379  0.4666 -2.1675
   10MPD2    H113957   4.274   1.210  12.205  1.7258 -0.4498 -0.3477
   10MPD2    H213958   4.340   0.848  11.992  0.4091 -2.9470  3.6238
   10MPD2    H313959   4.398   1.077  12.025  1.6526 -0.6835  1.0985
   10MPD2     N13960   4.079   1.134  12.354  0.0284 -0.5222 -0.6653
   10MPD2    H513961   4.015   1.085  12.416 -0.5505 -0.2345 -1.0311
   10MPD2    N113962   4.150   0.709  12.139 -0.1516 -1.1309  0.4762
   10MPD2    H713963   4.061   0.688  12.182 -0.1284 -2.0818  0.0697
   11MPD2     C13964   0.369   4.606  13.582 -0.2236  0.4375 -0.2389
   11MPD2    C113965   0.291   4.709  13.631  0.2205 -0.0214 -0.1555
   11MPD2    C213966   0.221   0.069  13.539 -0.1896 -0.5709 -0.4667
   11MPD2    C313967   0.266   0.081  13.405  0.2316  0.3739 -0.5480
   11MPD2    C413968   0.357   4.701  13.365  0.1369  0.3765  0.3691
   11MPD2    C513969   0.399   4.606  13.448 -0.4243  0.1983  0.3234
   11MPD2     H13970   0.161   0.151  13.577  0.3926 -0.2620 -0.2169
   11MPD2    H113971   0.377   4.685  13.259 -0.2427  2.1916  0.0274
   11MPD2    H213972   0.404   4.522  13.642  1.1260  0.0781 -1.5137
   11MPD2    H313973   0.450   4.518  13.411  0.5686  0.9106 -0.0141
   11MPD2     N13974   0.219   0.175  13.312 -0.5468  0.2244  0.2438
   11MPD2    H513975   0.267   0.174  13.222  0.6985 -0.2787  0.9089
   11MPD2    N113976   0.253   4.715  13.770  0.8668  0.0496 -0.7878
   11MPD2    H713977   0.164   0.036  13.794  0.5822  1.0468 -3.6515
    1MPD1     C13978   1.226   1.478   0.344 -0.5919  0.4471  0.0859
    1MPD1    C113979   1.288   1.361   0.309  0.2782 -0.4136  0.5662
    1MPD1    C213980   1.417   1.371   0.265 -0.6784 -0.6132  0.2640
    1MPD1    C313981   1.475   1.488   0.223  0.0208  0.5620  0.0626
    1MPD1    C413982   1.406   1.605   0.247  0.6786  0.5423 -0.2049
    1MPD1    C513983   1.282   1.588   0.312 -0.0674  0.0956 -1.0460
    1MPD1     H13984   1.472   1.281   0.242  3.0671  2.1721 -1.6865
    1MPD1    H113985   1.441   1.706   0.229  0.4120  0.8104  0.7714
    1MPD1    H213986   1.128   1.489   0.390 -1.9971 -1.1860 -2.5533
    1MPD1    H313987   1.220   1.675   0.329 -0.5483 -0.6725  1.0757
    1MPD1     N13988   1.598   1.500   0.158 -0.0014 -0.5271  0.4010
    1MPD1    H513989   1.620   1.591   0.118  1.1957 -1.6983 -1.6461
    1MPD1    N113990   1.220   1.240   0.346 -0.2210  0.0142  0.0833
    1MPD1    H613991   1.271   1.172   0.289  0.6643  2.3305 -1.8778
    1MPD1    H713992   1.122   1.237   0.317  0.5002  1.3080 -2.4984
    2MPD1     C13993   2.611   1.296  17.519  0.4034 -0.5089  0.5688
    2MPD1    C113994   2.537   1.323  17.408  0.2798 -0.4409  0.0129
    2MPD1    C213995   2.407   1.369  17.429  0.7470  0.4137 -0.2553
    2MPD1    C313996   2.359   1.401  17.552  0.6500 -0.1264  0.2791
    2MPD1    C413997   2.443   1.382  17.658  0.2979  0.1769  0.8296
    2MPD1    C513998   2.571   1.344  17.643 -0.0463 -0.6660 -0.3729
    2MPD1     H13999   2.348   1.379  17.338  3.1117 -0.3101 -1.8593
    2MPD1    H114000   2.417   1.410   0.067  1.8877  1.1210  0.9818
    2MPD1    H214001   2.706   1.244  17.520 -0.0872 -1.4369 -1.7252
    2MPD1    H314002   2.625   1.316   0.040  1.0463  0.8242 -0.5732
    2MPD1     N14003   2.222   1.443  17.563  0.2035  0.5698  0.5814
    2MPD1    H514004   2.173   1.434  17.475  1.5898  1.3394 -0.2767
    2MPD1    N114005   2.573   1.274  17.279  0.1221  0.2241 -0.1852
    2MPD1    H614006   2.535   1.322  17.198  2.4229  2.9414  0.3092
    2MPD1    H714007   2.671   1.247  17.271 -0.1319 -1.2656  1.8453
    3TMC3    C114008   2.013   1.473  17.652  0.6212  0.0880  0.2435
    3TMC3    C214009   1.976   1.556  17.558  0.2189 -0.0508  0.4891
    3TMC3    C314010   1.853   1.599  17.555 -0.3589 -0.5444  0.1967
    3TMC3    C414011   1.919   1.411   0.039 -0.1583 -0.4461 -0.5437
    3TMC3    C514012   1.789   1.453   0.027  0.4895 -0.1953 -0.4574
    3TMC3    C614013   1.752   1.554  17.639  0.0685  0.6188 -0.7560
    3TMC3     C14014   2.150   1.442  17.676 -0.4071 -0.4790 -0.2854
    3TMC3     O14015   2.173   1.379   0.086 -0.1811 -0.7101  0.1922
    3TMC3     H14016   2.049   1.604  17.494 -1.1500  0.8477 -0.3947
    3TMC3    H114017   1.939   1.343   0.121  1.7445 -0.3929 -0.9506
    3TMC3    H214018   1.652   1.590  17.620 -0.1287  0.1091 -0.6819
    3TMC3    C714019   1.687   1.400   0.118  0.1154  0.2687  0.3572
    3TMC3    C814020   1.823   1.700  17.463 -0.0454 -0.1289 -0.4176
    3TMC3    O114021   1.697   1.290   0.161 -0.0270  0.7353  0.2027
    3TMC3    O214022   1.719   1.695  17.393 -0.1112  0.1994 -0.2073
    4MPD1     C14023   1.890   2.195  17.364  0.2528  0.2319 -0.8104
    4MPD1    C114024   1.948   2.165  17.485  0.6980 -0.1168 -0.6839
    4MPD1    C214025   1.947   2.034  17.525  0.3033  0.0459  0.5500
    4MPD1    C314026   1.897   1.937  17.440  0.4089 -0.0004 -0.0345
    4MPD1    C414027   1.853   1.960  17.317  0.0208 -0.6935  0.0668
    4MPD1    C514028   1.848   2.095  17.279  0.9019 -0.1981  0.0998
    4MPD1     H14029   1.984   2.005  17.623 -0.5856  0.4126  0.9936
    4MPD1    H114030   1.821   1.878  17.253  1.3480 -0.4755 -0.8987
    4MPD1    H214031   1.870   2.297  17.332 -2.8133 -0.7167 -1.9452
    4MPD1    H314032   1.808   2.127  17.184  2.1887 -1.3622 -0.8373
    4MPD1     N14033   1.910   1.803  17.495 -0.0529  0.1419 -0.1736
    4MPD1    H514034   1.972   1.798  17.575 -0.2071  0.5638 -0.0259
    4MPD1    N114035   1.988   2.260  17.589  0.1934 -0.5201  0.3504
    4MPD1    H614036   2.007   2.353  17.552 -1.7757 -0.8016 -1.3345
    4MPD1    H714037   2.075   2.235  17.636 -0.5897 -2.6180  0.6615
    1TCq1    O114038   3.323   1.522  10.850  0.0398 -0.3778  0.5008
    1TCq1    C114039   3.372   1.442  10.753 -0.1891 -0.5383 -0.9389
    1TCq1    O214040   3.350   1.437  10.634  1.0147  0.4046 -0.3429
    1TCq1    C214041   3.499   1.389  10.806  0.4365  0.3609 -0.1783
    1TCq1    C314042   3.490   1.301  10.906 -0.2397 -0.8107 -0.3280
    1TCq1    C414043   3.581   1.197  10.914  0.2299 -0.1231  0.1475
    1TCq1    C514044   3.698   1.206  10.852  0.0094 -0.0448 -0.6932
    1TCq1    C614045   3.707   1.291  10.746 -0.4907 -0.8096 -0.0123
    1TCq1    C714046   3.602   1.374  10.719 -0.9650 -0.1580  0.0561
    1TCq1    C814047   3.808   1.285  10.654  0.5354  0.6489  0.0136
    1TCq1    O414048   3.803   1.361  10.561 -0.5864 -0.2702  1.3061
    1TCq1    C914049   3.574   1.107  11.021 -0.0970 -0.0380  0.1997
    1TCq1    O514050   3.636   0.998  11.006 -0.1847  0.0741  0.2172
    1TCq1    O614051   3.501   1.132  11.123  0.0765 -0.2896  0.5971
    1TCq1    H114052   3.382   1.525  10.929 -3.6588  1.6963  3.1663
    1TCq1    H214053   3.399   1.291  10.963  0.7792 -1.1778  1.2493
    1TCq1    H314054   3.776   1.138  10.885  1.1013  1.4986 -0.0982
    1TCq1    H414055   3.610   1.442  10.635 -0.1350  0.3071  0.5089
    2MPD1     C14056   4.203   1.058  10.438 -0.8238 -0.5102  0.4807
    2MPD1    C114057   4.171   0.977  10.540 -0.6533  0.9123  0.1637
    2MPD1    C214058   4.071   1.026  10.621  0.7156  0.0150  0.3957
    2MPD1    C314059   4.012   1.152  10.604  0.5113  0.2912 -0.0563
    2MPD1    C414060   4.068   1.236  10.511 -0.5930 -0.2369  0.1719
    2MPD1    C514061   4.152   1.179  10.421 -0.1202 -0.0356 -0.3963
    2MPD1     H14062   4.019   0.962  10.692  0.4151 -0.2997 -0.1130
    2MPD1    H114063   4.022   1.331  10.488  0.2242 -0.0823 -0.8099
    2MPD1    H214064   4.273   1.026  10.361  0.1532  0.9300  0.7777
    2MPD1    H314065   4.186   1.248  10.345 -1.0478  0.3957 -0.4210
    2MPD1     N14066   3.897   1.185  10.678  0.6145  0.0470  0.0971
    2MPD1    H514067   3.869   1.116  10.747 -2.4637 -0.1835 -1.4015
    2MPD1    N114068   4.198   0.838  10.544 -0.0871  0.6903 -0.6345
    2MPD1    H614069   4.205   0.804  10.640 -0.4642 -0.3418 -0.9747
    2MPD1    H714070   4.293   0.824  10.509  0.0574  1.6267 -0.6173
    1TCq1    O114071   2.258   0.135   1.354 -0.1357  0.3384  0.2022
    1TCq1    C114072   2.171   0.057   1.283  0.4476 -0.2455  0.8519
    1TCq1    O214073   2.050   0.077   1.276  0.4041  0.5080 -0.0037
    1TCq1    C214074   2.252   4.671   1.226 -0.1785  0.5507  0.4777
    1TCq1    C314075   2.201   4.544   1.217  0.0321  0.2913 -0.6713
    1TCq1    C414076   2.272   4.455   1.139 -0.6530  0.1355  0.2118
    1TCq1    C514077   2.380   4.498   1.068  0.2947  0.3138 -0.0315
    1TCq1    C614078   2.418   4.628   1.075  0.7873  0.3810 -0.9503
    1TCq1    C714079   2.345   4.719   1.140 -0.2974 -0.2326  0.4081
    1TCq1    C814080   2.528   4.675   0.992  0.2566  0.3053  0.3903
    1TCq1    O414081   2.504   0.061   0.937 -0.1527  0.3147  0.6690
    1TCq1    C914082   2.211   4.335   1.099 -0.0841  0.4670  0.0452
    1TCq1    O514083   2.266   4.265   1.011  0.6454 -0.2367  1.1728
    1TCq1    O614084   2.092   4.327   1.130  0.8182  0.5892 -0.0925
    1TCq1    H114085   2.349   0.101   1.363 -1.1024 -2.2476  0.3566
    1TCq1    H214086   2.095   4.532   1.231  0.1859  1.5937  1.6316
    1TCq1    H314087   2.424   4.424   1.001 -0.4103  1.5502 -1.8584
    1TCq1    H414088   2.366   0.103   1.133  0.4562 -0.5077 -1.2747
    2MPD1     C14089   2.919   4.617   0.678  0.3957  0.1864  0.9196
    2MPD1    C114090   2.864   4.491   0.687 -0.2565 -0.2385 -0.5976
    2MPD1    C214091   2.769   4.475   0.785 -0.4927  0.7381  0.1093
    2MPD1    C314092   2.717   4.581   0.863  0.1860 -0.2167 -0.3045
    2MPD1    C414093   2.765   4.705   0.839  0.2330 -0.0322  0.2771
    2MPD1    C514094   2.866   4.720   0.752  0.2589  0.1665  0.1095
    2MPD1     H14095   2.720   4.380   0.803  0.5437 -0.1365 -1.6815
    2MPD1    H114096   2.739   0.069   0.899 -1.3690 -1.0397  1.0315
    2MPD1    H214097   3.005   4.621   0.612  0.9354 -1.4438  1.5168
    2MPD1    H314098   2.899   0.097   0.728 -1.5226  0.4248 -1.2738
    2MPD1     N14099   2.617   4.567   0.957  0.4728 -0.4235 -0.1936
    2MPD1    H514100   2.597   4.472   0.987  0.0316  1.1252  4.5540
    2MPD1    N114101   2.907   4.394   0.603 -0.4496 -0.5071  0.6187
    2MPD1    H614102   2.833   4.330   0.574  1.8652 -1.9989 -1.8649
    2MPD1    H714103   2.941   4.438   0.518 -0.1529 -0.4315  0.7800
    1MPD1     C14104   0.868   1.840  11.363 -0.0131 -0.0083  0.0067
    1MPD1    C114105   0.998   1.891  11.361  0.4400 -0.3399  0.4304
    1MPD1    C214106   1.065   1.901  11.480 -0.5013  0.0460  0.3314
    1MPD1    C314107   1.013   1.862  11.601 -0.3552 -0.1617 -0.2181
    1MPD1    C414108   0.887   1.807  11.599  0.2398 -0.0929 -0.5177
    1MPD1    C514109   0.817   1.805  11.485  0.1938 -0.6288  0.2368
    1MPD1     H14110   1.166   1.941  11.478  0.1126 -1.4871  0.9869
    1MPD1    H114111   0.838   1.787  11.694  1.1354  1.1552  0.2160
    1MPD1    H214112   0.800   1.836  11.278 -1.2092  4.4033  0.7815
    1MPD1    H314113   0.717   1.766  11.473 -0.3314  0.6682  0.4414
    1MPD1     N14114   1.095   1.866  11.719 -0.0086  0.4348 -0.2837
    1MPD1    H514115   1.189   1.902  11.706  0.0614 -0.2777 -1.8040
    1MPD1    N114116   1.052   1.933  11.234  0.0943 -0.1240 -0.3953
    1MPD1    H614117   1.113   2.014  11.232 -0.5025  0.3536  0.7625
    1MPD1    H714118   0.979   1.945  11.165 -2.1862 -1.4397  1.7717
    2MPD1     C14119   0.192   1.865  11.083 -0.7042 -0.3773 -0.3861
    2MPD1    C114120   0.322   1.831  11.066 -0.3882 -0.3298 -0.8560
    2MPD1    C214121   0.363   1.697  11.065  0.4458 -0.4446  0.9316
    2MPD1    C314122   0.265   1.596  11.084 -0.1610  0.0258  0.5317
    2MPD1    C414123   0.127   1.632  11.091  0.2890  0.0028  0.4309
    2MPD1    C514124   0.098   1.768  11.094  0.8642  0.2732  0.2150
    2MPD1     H14125   0.468   1.674  11.050  0.3479 -0.7046  0.6657
    2MPD1    H114126   0.051   1.556  11.099  0.3276 -0.1058 -0.2021
    2MPD1    H214127   0.167   1.970  11.069  2.7555  0.5060  0.0090
    2MPD1    H314128   4.718   1.795  11.114  0.1315 -1.0534 -1.7326
    2MPD1     N14129   0.295   1.461  11.082  0.1510 -0.0835 -0.1394
    2MPD1    H514130   0.220   1.393  11.074  0.5963 -0.5516 -0.3349
    2MPD1    N114131   0.415   1.927  11.036  0.2268 -0.2709  0.0463
    2MPD1    H614132   0.390   2.012  11.086 -0.1680 -1.1745  1.3948
    2MPD1    H714133   0.505   1.894  11.072 -0.6053 -0.2920  2.1361
    3MPD1     C14134   0.137   0.667  10.515 -0.1418  0.8644  0.3862
    3MPD1    C114135   0.183   0.631  10.639 -0.0920 -0.3262  0.4753
    3MPD1    C214136   0.235   0.732  10.725  0.4182 -0.1374  0.6826
    3MPD1    C314137   0.256   0.859  10.670 -0.6522 -0.3126 -0.6127
    3MPD1    C414138   0.211   0.890  10.543  0.0574 -0.0429  0.3219
    3MPD1    C514139   0.147   0.794  10.475  0.3232 -0.0769 -0.2843
    3MPD1     H14140   0.247   0.714  10.831 -0.1192 -0.1507  0.7405
    3MPD1    H114141   0.237   0.988  10.505 -2.1144  0.4026 -0.0096
    3MPD1    H214142   0.087   0.598  10.448  1.3016  0.2359 -0.0355
    3MPD1    H314143   0.110   0.819  10.376 -1.9736 -2.7634 -0.0854
    3MPD1     N14144   0.323   0.956  10.752  0.3329  0.4015 -0.4404
    3MPD1    H514145   0.365   0.918  10.836 -2.3952 -0.4392  0.5485
    3MPD1    N114146   0.158   0.506  10.694  0.1625  0.2312 -0.6761
    3MPD1    H614147   0.171   0.443  10.614 -0.2747 -1.2305  0.4001
    3MPD1    H714148   0.224   0.479  10.766  1.2675  0.7065 -1.5117
    4MPD2     C14149   1.471   1.865  11.393 -0.1482  0.2104 -1.0170
    4MPD2    C114150   1.490   1.762  11.481  0.0906  0.1751 -0.9176
    4MPD2    C214151   1.512   1.636  11.453  0.3508  0.6471  0.4477
    4MPD2    C314152   1.515   1.597  11.322  0.2565 -0.3977  0.3397
    4MPD2    C414153   1.499   1.691  11.223 -1.2171 -0.8833 -0.0665
    4MPD2    C514154   1.476   1.823  11.260 -0.6319 -0.0864  0.4956
    4MPD2     H14155   1.544   1.563  11.527  1.0315  0.0860 -0.3898
    4MPD2    H114156   1.487   1.662  11.120  1.2380 -0.2246 -0.5407
    4MPD2    H214157   1.447   1.968  11.417 -0.2261  0.5577 -2.5264
    4MPD2    H314158   1.457   1.893  11.179  3.4528  0.6086  0.1838
    4MPD2     N14159   1.521   1.459  11.282 -1.0260  0.7068  1.1058
    4MPD2    H514160   1.513   1.437  11.183 -0.1357 -1.4247  1.5013
    4MPD2    N114161   1.481   1.783  11.622  0.3303  0.5948 -0.6268
    4MPD2    H714162   1.499   1.699  11.676 -0.1527  2.2489  2.0787
    5TMC3    C114163   1.407   1.876  11.826  0.1725 -0.1807 -0.8447
    5TMC3    C214164   1.279   1.923  11.854  0.4730 -0.2610 -0.1401
    5TMC3    C314165   1.195   1.834  11.916 -0.1749 -0.1872  0.2145
    5TMC3    C414166   1.444   1.753  11.874 -1.0388 -0.5902 -0.0903
    5TMC3    C514167   1.355   1.668  11.931 -0.5524 -0.8753 -0.0803
    5TMC3    C614168   1.230   1.707  11.957 -0.5458  0.4926  0.8631
    5TMC3     C14169   1.439   1.896  11.683 -0.4157  0.2059 -0.1416
    5TMC3     O14170   1.378   1.988  11.628 -0.1857  0.1332 -0.0147
    5TMC3     H14171   1.257   2.019  11.809  1.4679 -0.1156 -0.3182
    5TMC3    H114172   1.542   1.710  11.852  0.2297  2.1810  0.1793
    5TMC3    H214173   1.151   1.648  12.001 -1.6552  0.6103 -0.9627
    5TMC3    C714174   1.383   1.535  11.868 -0.2288  0.2688  0.3412
    5TMC3    C814175   1.069   1.829  11.850  0.1050  0.3868  0.1180
    5TMC3    O114176   1.467   1.529  11.782  0.5915 -0.4330 -0.1553
    5TMC3    O214177   0.972   1.769  11.896  0.4202 -0.7539  0.2203
    6TMC3    C114178   0.423   1.277  11.049 -0.8008 -0.6114 -0.4727
    6TMC3    C214179   0.358   1.247  10.930 -0.3768  0.3530 -0.3263
    6TMC3    C314180   0.414   1.152  10.845  0.1866  0.1110  0.3105
    6TMC3    C414181   0.536   1.215  11.076 -0.2894  0.1344  0.5414
    6TMC3    C514182   0.591   1.124  10.988 -0.2200 -0.2202  0.1875
    6TMC3    C614183   0.521   1.081  10.879  0.2856 -0.1990  0.1368
    6TMC3     C14184   0.422   1.413  11.091  0.5342 -0.0328 -0.4613
    6TMC3     O14185   0.527   1.456  11.133 -0.0465 -0.2856  0.1364
    6TMC3     H14186   0.270   1.302  10.899 -0.2471  0.7352 -0.0147
    6TMC3    H114187   0.585   1.235  11.171 -1.4868 -1.0755  1.4009
    6TMC3    H214188   0.566   1.020  10.800 -0.3626 -0.6336  0.1049
    6TMC3    C714189   0.735   1.114  10.990  0.4288  0.3689  0.0480
    6TMC3    C814190   0.324   1.098  10.742 -0.2276 -0.4040 -0.5887
    6TMC3    O114191   0.786   1.108  11.102 -0.3024 -0.1460  0.2041
    6TMC3    O214192   0.250   1.170  10.671 -0.4113 -0.2184  0.3218
    7MPD2     C14193   1.319   1.033  11.793  0.4544  0.5449 -0.0828
    7MPD2    C114194   1.361   1.131  11.702 -0.2769 -0.0905  0.7490
    7MPD2    C214195   1.356   1.263  11.751  0.4638 -0.1747  0.2890
    7MPD2    C314196   1.305   1.296  11.872 -0.4472  0.0514 -0.1473
    7MPD2    C414197   1.256   1.199  11.954  0.1519  1.0466  1.0805
    7MPD2    C514198   1.275   1.067  11.914  0.1204 -0.4534 -0.3109
    7MPD2     H14199   1.371   1.340  11.675 -0.1817  0.0548  0.3891
    7MPD2    H114200   1.221   1.217  12.056 -0.5257  4.3407  0.2531
    7MPD2    H214201   1.323   0.926  11.774 -2.2288  0.0922  1.9203
    7MPD2    H314202   1.232   0.997  11.984  1.6736  0.1515  1.2448
    7MPD2     N14203   1.302   1.431  11.917 -0.6674  0.2779  0.1773
    7MPD2    H514204   1.252   1.447  12.004  0.3124  3.4217  0.1805
    7MPD2    N114205   1.418   1.106  11.573 -0.2653  0.2797  0.3819
    7MPD2    H714206   1.455   1.186  11.522  1.7843  0.2092  1.7418
    8TMC3    C114207   1.490   1.008  11.379 -0.1458  0.0504  0.3803
    8TMC3    C214208   1.388   0.992  11.291 -0.8057  0.0574  0.6338
    8TMC3    C314209   1.367   1.093  11.206  0.0827  0.1484  0.0677
    8TMC3    C414210   1.570   1.117  11.384  0.5033  0.9051  0.1099
    8TMC3    C514211   1.547   1.219  11.293 -0.6073  0.4747 -0.3468
    8TMC3    C614212   1.435   1.208  11.207 -0.2199 -0.4295 -0.5576
    8TMC3     C14213   1.439   0.988  11.511  0.0596 -0.3200 -0.4146
    8TMC3     O14214   1.399   0.874  11.546 -0.1707  0.3088 -0.1485
    8TMC3     H14215   1.317   0.910  11.298 -2.2702  1.3117  0.4870
    8TMC3    H114216   1.647   1.127  11.460  1.3654 -2.1708 -0.3381
    8TMC3    H214217   1.399   1.292  11.148  0.2864  1.2250  1.5247
    8TMC3    C714218   1.534   1.349  11.363  0.4462 -0.2163  0.2805
    8TMC3    C814219   1.248   1.080  11.123 -0.7296 -0.5770 -0.1755
    8TMC3    O114220   1.545   1.343  11.486  0.0906 -0.1808 -0.5258
    8TMC3    O214221   1.156   1.005  11.157  0.0153  0.0511 -0.0118
    9MPD2     C14222   1.193   1.196  10.784 -0.0739  0.2234  0.3079
    9MPD2    C114223   1.154   1.163  10.910  0.7759  0.3571 -0.0170
    9MPD2    C214224   1.025   1.139  10.944  0.4738 -0.6200  0.2373
    9MPD2    C314225   0.931   1.156  10.841  0.5129 -0.5128  0.1554
    9MPD2    C414226   0.968   1.184  10.711  0.3220 -0.1931  0.7246
    9MPD2    C514227   1.101   1.205  10.692 -0.2008 -0.0619  1.1657
    9MPD2     H14228   0.999   1.109  11.045 -0.8607 -2.3786 -0.6238
    9MPD2    H114229   0.895   1.189  10.630  1.1258  2.4463  0.1432
    9MPD2    H214230   1.295   1.210  10.750  0.7685 -0.9767  2.3781
    9MPD2    H314231   1.126   1.208  10.586 -0.5065 -2.4947  1.0109
    9MPD2     N14232   0.793   1.130  10.871 -0.1870 -0.5075  0.2145
    9MPD2    H514233   0.733   1.131  10.789  2.4318  0.1172 -1.7036
    9MPD2    N114234   1.259   1.136  11.004 -0.5440  0.2148 -0.4270
    9MPD2    H714235   1.346   1.179  10.976  0.4542 -2.6522 -1.6780
    1MPD1     C14236   1.903   0.496  17.207 -0.3974  0.2280  0.3146
    1MPD1    C114237   1.851   0.512  17.329  0.6762 -0.3086 -0.0538
    1MPD1    C214238   1.712   0.494  17.344  0.7422 -0.0431  0.2059
    1MPD1    C314239   1.635   0.478  17.230 -0.1287  0.2540  0.7697
    1MPD1    C414240   1.695   0.488  17.104  0.1955 -0.0680  0.1973
    1MPD1    C514241   1.829   0.499  17.100  0.4527 -0.3717 -0.2796
    1MPD1     H14242   1.675   0.484  17.445 -2.7331 -0.9771 -1.1700
    1MPD1    H114243   1.639   0.480  17.011 -0.5692 -2.1133  0.8248
    1MPD1    H214244   2.010   0.506  17.192 -0.4770  0.2529 -0.2550
    1MPD1    H314245   1.878   0.496  17.004  0.0757 -1.2179 -0.4437
    1MPD1     N14246   1.497   0.446  17.236 -0.3741  0.5853 -0.0976
    1MPD1    H514247   1.450   0.430  17.147 -0.4274 -1.0369  0.2210
    1MPD1    N114248   1.947   0.507  17.432  0.4807 -0.5743  0.5647
    1MPD1    H614249   1.920   0.542  17.524 -1.0756 -1.3713  0.4006
    1MPD1    H714250   2.035   0.556  17.419  0.1585 -0.2852 -0.4502
    2MPD1     C14251   0.794   4.677  16.781 -0.1452  0.2344 -0.2700
    2MPD1    C114252   0.712   0.036  16.851 -0.4464 -0.4228  0.6122
    2MPD1    C214253   0.771   0.114  16.954 -0.4364 -0.2507  0.2319
    2MPD1    C314254   0.912   0.101  16.967  0.0473 -0.0270 -0.5430
    2MPD1    C414255   0.996   0.033  16.882  1.0303  0.3891 -0.0483
    2MPD1    C514256   0.928   4.673  16.791  0.4684 -0.5808 -0.1792
    2MPD1     H14257   0.724   0.168  17.034 -0.5930 -0.4250  0.2562
    2MPD1    H114258   1.104   0.033  16.883  1.0264  0.8913  0.3567
    2MPD1    H214259   0.752   4.603  16.714  0.5679  0.5993 -1.1147
    2MPD1    H314260   0.977   4.598  16.730  0.2940 -1.8868  1.2902
    2MPD1     N14261   0.963   0.184  17.072  0.3307  0.0326  0.6229
    2MPD1    H514262   0.891   0.239  17.117  1.6294  2.0696  0.2175
    2MPD1    N114263   0.578   0.034  16.826  0.2336 -0.7574 -0.3311
    2MPD1    H614264   0.550   0.016  16.730  2.4745 -0.4183 -1.0460
    2MPD1    H714265   0.540   0.125  16.851 -0.1649 -1.3947  1.3987
    3TCq2    C114266   1.095   0.219  17.093 -0.0793  0.4301 -0.1788
    3TCq2    O214267   1.193   0.194  17.020 -0.1765 -0.0696  0.2533
    3TCq2    C214268   1.116   0.311  17.197  0.1805 -0.2978 -0.0935
    3TCq2    C314269   1.012   0.361  17.270 -0.0462  0.2565 -0.0102
    3TCq2    C414270   1.047   0.447  17.374 -1.2337  0.6613 -0.0288
    3TCq2    C514271   1.176   0.489  17.395  1.0044 -0.5566 -0.0793
    3TCq2    C614272   1.272   0.439  17.316 -0.2820  0.5599 -0.0166
    3TCq2    C714273   1.248   0.355  17.214 -0.0250 -0.1103 -0.8114
    3TCq2    C814274   1.413   0.467  17.348  0.9357 -0.6580 -0.6876
    3TCq2    O414275   1.440   0.508  17.463  0.7013  1.2300 -0.3345
    3TCq2    C914276   0.946   0.478  17.475 -0.2145 -0.3390  0.0454
    3TCq2    O514277   0.841   0.411  17.477  0.3558 -0.1535  0.0106
    3TCq2    O614278   0.980   0.552  17.573 -0.4638  0.4306 -0.1265
    3TCq2    H214279   0.910   0.324  17.261  0.4805 -1.1794 -0.0725
    3TCq2    H314280   1.194   0.545  17.487  0.0110  0.6941 -0.6513
    3TCq2    H414281   1.331   0.291  17.184  0.6438  0.4353 -0.1388
    1TCq1    O114282   2.719   4.211  12.406  0.8331 -0.5201 -0.1739
    1TCq1    C114283   2.765   4.089  12.395  0.1650  0.4853 -0.0205
    1TCq1    O214284   2.700   3.989  12.420  0.1644 -0.0850 -0.6387
    1TCq1    C214285   2.904   4.087  12.359 -0.1775  0.1286 -0.0259
    1TCq1    C314286   2.951   3.963  12.378  0.0726  0.3597  0.0048
    1TCq1    C414287   3.085   3.950  12.360 -0.2946 -0.5233 -0.7973
    1TCq1    C514288   3.162   4.050  12.317  0.5197 -0.1321 -0.2112
    1TCq1    C614289   3.098   4.157  12.270 -0.1154 -0.0284 -0.0882
    1TCq1    C714290   2.968   4.186  12.292 -0.2099 -0.2731 -0.4792
    1TCq1    C814291   3.185   4.267  12.236  0.1628 -0.0457 -0.5261
    1TCq1    O414292   3.139   4.361  12.173 -0.5504 -0.1213 -0.3295
    1TCq1    C914293   3.132   3.836  12.424 -0.3647  0.0330 -0.9916
    1TCq1    O514294   3.259   3.816  12.423 -0.4234  0.6714 -0.0152
    1TCq1    O614295   3.047   3.741  12.439  0.1300 -0.0596  0.3771
    1TCq1    H114296   2.788   4.280  12.416  1.1856 -0.9285  0.1852
    1TCq1    H214297   2.895   3.894  12.439 -0.6983  0.1286 -0.9558
    1TCq1    H314298   3.264   4.025  12.293  0.5156 -1.0025  0.6578
    1TCq1    H414299   2.923   4.284  12.281 -0.3612 -0.5869 -2.5315
    2MPD2     C14300   3.430   4.453  12.210  0.1859 -0.1480  0.4317
    2MPD2    C114301   3.423   4.326  12.278  0.6222  0.1362  0.4811
    2MPD2    C214302   3.527   4.296  12.350  0.3589 -0.3395 -0.7522
    2MPD2    C314303   3.638   4.381  12.357 -0.3556 -0.1589 -0.4722
    2MPD2    C414304   3.642   4.505  12.295  0.1374  0.1328 -0.0630
    2MPD2    C514305   3.539   4.530  12.212  0.0614 -0.6814  0.4051
    2MPD2     H14306   3.525   4.208  12.414  2.0323 -0.3700 -0.7441
    2MPD2    H114307   3.728   4.572  12.300 -2.0710  3.0337 -0.7725
    2MPD2    H214308   3.352   4.498  12.149  1.9514 -1.1670 -2.5517
    2MPD2    H314309   3.531   4.627  12.166 -1.7292 -0.1738  1.7557
    2MPD2     N14310   3.739   4.331  12.445  0.2635 -0.2557  0.2805
    2MPD2    H514311   3.710   4.264  12.516  0.6114 -1.6471 -0.8953
    2MPD2    N114312   3.306   4.250  12.300 -0.2678 -1.3821  0.7688
    2MPD2    H714313   3.321   4.162  12.347  1.4936  0.0519  2.8743
    3TCq1    O114314   4.271   4.472  12.742  0.3158  0.1126  0.1383
    3TCq1    C114315   4.242   4.347  12.791  0.0992 -0.4087  0.3826
    3TCq1    O214316   4.268   4.305  12.901 -0.0701  0.0205 -0.2123
    3TCq1    C214317   4.136   4.290  12.708  0.5905 -0.2595 -0.0708
    3TCq1    C314318   4.105   4.164  12.736 -0.1451  0.3115  0.0469
    3TCq1    C414319   3.989   4.113  12.691 -0.1290  0.0498  0.5378
    3TCq1    C514320   3.902   4.186  12.610 -0.1793  0.1683  0.0187
    3TCq1    C614321   3.940   4.315  12.580  0.5414  0.1345  0.2438
    3TCq1    C714322   4.050   4.369  12.635 -0.0521  0.5032  0.0440
    3TCq1    C814323   3.869   4.387  12.470 -0.3735  0.2065 -0.5710
    3TCq1    O414324   3.915   4.487  12.421  0.4361  0.5734  0.0096
    3TCq1    C914325   3.952   3.979  12.725 -0.8072  0.5007  0.9687
    3TCq1    O514326   3.867   3.913  12.657  0.1656 -0.1385 -0.7249
    3TCq1    O614327   3.997   3.931  12.829  0.8609  0.0021  0.0051
    3TCq1    H114328   4.249   4.483  12.646  3.0309  0.7869 -0.3911
    3TCq1    H214329   4.170   4.117  12.809  0.6307  0.0438 -0.8172
    3TCq1    H314330   3.810   4.139  12.578  0.0672  1.4083 -2.4902
    3TCq1    H414331   4.061   4.477  12.638  2.2379  0.3390 -2.1647
    1MPD2     C14332   3.298   4.536  14.991  0.2854  0.0213 -0.2769
    1MPD2    C114333   3.221   4.539  14.875 -0.2743 -0.0044 -0.2712
    1MPD2    C214334   3.261   4.466  14.768  0.6771  0.4224 -0.2030
    1MPD2    C314335   3.381   4.398  14.764  0.1380 -0.0091  0.5579
    1MPD2    C414336   3.458   4.386  14.877  1.0459 -0.2196 -0.2569
    1MPD2    C514337   3.413   4.465  14.984  0.3201  0.2119 -0.5755
    1MPD2     H14338   3.197   4.476  14.681 -0.2281 -0.3796  0.3643
    1MPD2    H114339   3.554   4.336  14.878  2.0842  1.7332 -1.4173
    1MPD2    H214340   3.265   4.574  15.087  1.7914 -1.3180  0.7589
    1MPD2    H314341   3.466   4.465  15.078 -1.0539  0.0719  0.1903
    1MPD2     N14342   3.425   4.334  14.644 -0.2517 -0.6179  0.7477
    1MPD2    H514343   3.522   4.305  14.635 -1.3939 -3.6506 -1.9648
    1MPD2    N114344   3.094   4.600  14.876  0.1056 -0.3309 -0.8859
    1MPD2    H714345   3.055   4.637  14.962  1.3237  1.0480 -0.9289
    2TMC3    C114346   2.886   4.685  14.800  0.8679 -0.0407  0.2261
    2TMC3    C214347   2.780   4.636  14.729  0.1779 -0.1695  0.2354
    2TMC3    C314348   2.719   0.003  14.649 -0.3637  0.4379 -0.1892
    2TMC3    C414349   2.908   0.098  14.815 -0.4211  1.0044 -0.0631
    2TMC3    C514350   2.824   0.181  14.745 -0.8282 -0.3865 -0.3030
    2TMC3    C614351   2.733   0.135  14.657  0.2804 -0.0232  0.1000
    2TMC3     C14352   3.004   4.617  14.767 -0.9247  0.5572 -0.7507
    2TMC3     O14353   3.010   4.583  14.646 -0.3864  0.3562 -0.0170
    2TMC3     H14354   2.773   4.529  14.710 -1.5816  0.0074 -0.0590
    2TMC3    H114355   2.988   0.137  14.877  1.9471 -1.5044 -1.5053
    2TMC3    H214356   2.684   0.203  14.588 -1.2833  1.0198  2.2203
    2TMC3    C714357   2.849   0.322  14.763  0.1616 -0.3168  0.8264
    2TMC3    C814358   2.701   4.681  14.512  0.0004 -0.0945 -0.1172
    2TMC3    O114359   2.841   0.366  14.875  0.3393  0.3656 -0.3140
    2TMC3    O214360   2.622   0.004  14.434 -0.1523  0.2012 -0.7676
    3TCq1    O114361   2.928   0.993  13.851  0.4631 -0.1726  0.2852
    3TCq1    C114362   3.032   1.042  13.923  0.2928  0.0342  0.6539
    3TCq1    O214363   3.029   1.152  13.984  0.2063  0.5689 -0.6854
    3TCq1    C214364   3.085   0.929  14.003  0.0030 -0.5136 -0.3209
    3TCq1    C314365   3.105   0.813  13.935 -0.4786  0.0684  0.4159
    3TCq1    C414366   3.174   0.717  14.002 -0.3569 -0.2670  0.7948
    3TCq1    C514367   3.221   0.731  14.124  0.0610 -0.3779 -0.3257
    3TCq1    C614368   3.200   0.846  14.198  0.0149  0.2913  0.4617
    3TCq1    C714369   3.138   0.949  14.134  0.4069 -0.0892 -0.6402
    3TCq1    C814370   3.181   0.840  14.344  0.3932 -0.4674  0.6147
    3TCq1    O414371   3.186   0.943  14.404 -0.2870 -0.6019  0.2370
    3TCq1    C914372   3.192   0.593  13.932  0.4830  0.3715 -0.4839
    3TCq1    O514373   3.102   0.563  13.849 -0.0653  0.0267  0.1077
    3TCq1    O614374   3.263   0.506  13.990  0.2049  0.3083 -0.2334
    3TCq1    H114375   2.923   0.902  13.816 -2.5533  0.4724 -0.9802
    3TCq1    H214376   3.087   0.793  13.830 -0.3700  1.4602  0.1319
    3TCq1    H314377   3.263   0.642  14.169  0.1044 -0.9384 -1.4869
    3TCq1    H414378   3.129   1.046  14.181  2.3339  0.3717 -1.1944
    4MPD2     C14379   3.064   0.765  14.613 -0.6873 -0.4034  0.4235
    4MPD2    C114380   3.072   0.675  14.511  0.9502  0.5899  0.3381
    4MPD2    C214381   3.016   0.549  14.523 -0.1360 -0.4797 -0.7294
    4MPD2    C314382   2.955   0.508  14.640  0.1402 -0.3923 -0.1722
    4MPD2    C414383   2.950   0.599  14.751  0.7042  0.0968  0.3106
    4MPD2    C514384   3.003   0.728  14.728  0.0495 -0.1247 -0.9021
    4MPD2     H14385   3.009   0.476  14.442  1.5826  2.1451 -3.2485
    4MPD2    H114386   2.902   0.570  14.844  1.2095  1.5854  1.0453
    4MPD2    H214387   3.110   0.864  14.615 -1.3623 -0.0224 -1.9299
    4MPD2    H314388   2.999   0.795  14.813  3.7401 -1.1380  0.0620
    4MPD2     N14389   2.902   0.377  14.643 -0.3449  0.1549 -0.2455
    4MPD2    H514390   2.913   0.312  14.567  2.1808  0.0822  0.1809
    4MPD2    N114391   3.139   0.714  14.384 -0.4570 -0.6058 -0.0567
    4MPD2    H714392   3.139   0.648  14.307 -0.6028  0.7832 -1.2437
    5TMC2    C114393   3.333   4.255  14.205 -0.2531 -0.5110  0.4361
    5TMC2    C214394   3.360   4.123  14.195  0.4431 -0.1794  0.2154
    5TMC2    C314395   3.417   4.068  14.307 -0.6725  0.0397 -0.6256
    5TMC2    C414396   3.375   4.326  14.315  0.1336  0.3451 -0.1215
    5TMC2    C514397   3.429   4.265  14.426 -0.1821  0.3654  0.1743
    5TMC2    C614398   3.459   4.137  14.422  0.1898  0.1243 -0.2723
    5TMC2     C14399   3.201   4.285  14.152 -0.1725  0.2820 -0.1970
    5TMC2     O14400   3.154   4.212  14.065 -0.5017  0.1399  0.4133
    5TMC2     H14401   3.321   4.052  14.123 -2.0860 -0.0613  1.4686
    5TMC2    H114402   3.361   4.433  14.322  0.4475  0.3792 -0.0180
    5TMC2    H214403   3.513   4.093  14.505 -3.2547 -1.2879  1.2315
    5TMC2    C714404   3.347   4.315  14.530 -0.0293  0.5067 -0.4530
    5TMC2    C814405   3.473   3.942  14.279  0.4555  0.3087  0.7520
    5TMC2    O114406   3.224   4.323  14.515  0.4303 -0.2635 -0.0430
    5TMC2    O214407   3.499   3.905  14.167 -0.2428  0.0012 -0.7693
    5TMC2    O514408   3.503   3.886  14.399  0.7428 -0.0148 -0.0284
    5TMC2    H514409   3.449   3.926  14.470  1.8186  0.5838  0.4622
    6MPD2     C14410   2.740   4.493  14.258  0.1294 -0.1036  0.6889
    6MPD2    C114411   2.823   4.500  14.366 -0.3380 -0.0352  0.8365
    6MPD2    C214412   2.951   4.454  14.364 -0.3040 -0.1305 -0.0855
    6MPD2    C314413   3.000   4.398  14.244  0.0969  0.0425  0.3805
    6MPD2    C414414   2.920   4.389  14.132  0.8412  0.6793 -0.0716
    6MPD2    C514415   2.790   4.436  14.142 -0.1283  0.1538  0.6467
    6MPD2     H14416   3.009   4.464  14.455 -2.3029  1.3227  1.0176
    6MPD2    H114417   2.948   4.354  14.033  0.0515  1.1383 -0.4644
    6MPD2    H214418   2.635   4.516  14.269  0.1229  1.4422 -2.5618
    6MPD2    H314419   2.727   4.436  14.054  0.7854  0.6944 -0.0106
    6MPD2     N14420   3.131   4.368  14.241  0.1058 -0.1542 -1.0949
    6MPD2    H514421   3.178   4.391  14.328  0.3230 -1.2492 -0.9145
    6MPD2    N114422   2.793   4.576  14.480 -0.3325 -0.2234 -0.0744
    6MPD2    H714423   2.869   4.566  14.546 -0.5706 -0.7415  0.1272
  945NH4     N114424   4.535   1.318   2.128 -0.0825 -0.6994 -0.4028
  945NH4     H214425   4.498   1.221   2.125  1.4371 -1.2987  0.5721
  945NH4     H314426   4.475   1.375   2.063  2.0210  0.7743 -1.0441
  945NH4     H414427   4.634   1.315   2.097 -0.2455  1.2325 -1.1303
  945NH4     H514428   4.544   1.350   2.226  1.4830  0.2690 -0.8730
  946SOD     NA14429   3.945   3.693   9.954  0.0454 -0.2506 -0.1245
  947SOD     NA14430   2.939   0.292  12.027  0.0852 -0.3674 -0.5532
  948SOD     NA14431   3.285   2.341  10.617 -0.4474  0.6875 -0.3934
  949SOD     NA14432   2.294   1.885  15.992 -0.4320  0.2651  0.5200
  950SOD     NA14433   0.889   2.484   1.202  0.1487 -0.3125 -0.3351
  951SOD     NA14434   3.942   3.730  12.776  0.0438 -0.3313 -0.5515
  952SOD     NA14435   4.303   3.462  14.366  0.1897  0.3528 -0.0047
  953SOD     NA14436   2.970   0.740   9.070 -0.4433 -0.2295 -0.0552
  954SOD     NA14437   4.569   3.573  14.228  0.2602 -0.4352 -0.6532
  955SOD     NA14438   3.888   1.459   0.820  0.0393 -0.3722 -0.1707
  956SOD     NA14439   0.321   2.535  12.618  0.3828 -0.9354  0.0991
  957SOD     NA14440   0.666   4.554  13.843 -0.1368 -0.1928  0.0042
  958SOD     NA14441   3.752   2.825   0.410  0.9498  0.6169  0.0932
  959SOD     NA14442   3.760   3.493  11.341  0.2772  0.0402 -0.0200
  960SOD     NA14443   3.460   1.868  11.979  0.5363 -0.0191 -0.7917
  961SOD     NA14444   3.049   3.896   9.805 -0.7139  0.0180 -0.2796
  962SOD     NA14445   0.932   2.302   0.950 -0.2022 -0.6172  0.0134
  963SOD     NA14446   1.962   0.711   9.815 -0.2552 -0.1059  0.1681
  964SOD     NA14447   3.557   0.989  11.267 -0.2751  0.3796  0.0993
  965SOD     NA14448   3.020   0.961   1.178  0.4231  0.5315 -0.1914
  966SOD     NA14449   1.872   4.307   1.094  0.3690 -0.5029  0.2639
  967SOD     NA14450   3.288   3.277  16.929  0.0537  0.0009 -0.3432
  968SOD     NA14451   0.799   1.917   5.850  0.1397 -0.1922 -0.2250
  969SOD     NA14452   3.315   2.536   9.531 -0.2849  0.0060 -0.2506
  970SOD     NA14453   1.285   3.603   2.829 -0.3654  0.3271  0.4522
  971SOD     NA14454   4.198   0.576   5.383 -0.1168 -0.3601 -0.1797
  972SOD     NA14455   1.151   1.958  14.336 -0.0612  0.0523  0.1066
  973SOD     NA14456   3.100   0.028  10.419  0.5122 -0.2283  0.0111
  974SOD     NA14457   0.280   2.412   8.132  0.1658 -0.1106 -0.5016
  975SOD     NA14458   3.156   3.743  10.079 -0.0491  0.0719 -0.1187
  976SOD     NA14459   1.847   2.938  12.828  0.1974 -0.3598 -0.5208
  977SOD     NA14460   3.080   4.313  15.371  0.7781 -0.3207  0.0728
  978SOD     NA14461   3.115   3.375   9.852  0.9043  0.1581 -0.3133
  979SOD     NA14462   0.156   3.410  15.105  0.0921  0.0566  0.1106
  980SOD     NA14463   3.355   3.530   3.654  0.1494  0.0186  0.0866
  981SOD     NA14464   2.218   4.149   9.108  0.3482 -0.5892  0.5831
  982SOD     NA14465   3.638   0.379  10.168  0.0038 -0.8136 -0.0186
  983SOD     NA14466   0.233   0.534  12.589 -0.1899  0.5251  0.2899
  984SOD     NA14467   0.763   0.524  17.643 -0.2546  0.0707  0.1572
  985SOD     NA14468   0.516   3.652   0.567  0.4070  0.0411  0.3564
  986SOD     NA14469   3.548   0.484  14.310  0.5377  0.1040 -0.3185
  987SOD     NA14470   3.170   3.136  15.418  0.1370 -0.6286 -0.0960
  988SOD     NA14471   1.597   1.801   2.433  0.4982  0.2060 -0.1563
  989SOD     NA14472   3.186   2.632  10.496 -0.2392  0.1566 -0.0514
  990SOD     NA14473   0.490   2.612  10.530  0.0326 -0.4820  0.3890
  991SOD     NA14474   2.097   4.180   0.915 -0.7261 -0.0729 -0.0657
  992SOD     NA14475   0.645   0.904  13.704  0.0985 -0.2623  0.2155
  993SOD     NA14476   0.625   3.737  14.858  0.6171 -0.1529 -0.1220
  994SOD     NA14477   0.001   2.355  16.705  0.2729 -0.4427  0.2158
  995SOD     NA14478   0.680   3.843   1.456 -0.3920 -0.1670 -0.4828
  996SOD     NA14479   3.793   3.815  12.483  0.0930  0.0791  0.0107
  997SOD     NA14480   1.976   3.927   8.732 -0.0460 -0.1988  0.4500
  998SOD     NA14481   2.837   0.447  10.724 -0.4679 -0.1295 -0.0732
  999SOD     NA14482   3.391   3.834  11.599  0.0169  0.0572 -0.1111
 1000SOD     NA14483   0.827   4.449  16.014 -0.0869 -0.4598  0.1023
 1001SOD     NA14484   4.065   0.345  15.143 -0.2877 -0.6318  0.2868
 1002SOD     NA14485   1.912   1.077   9.357  0.0944  0.1992 -0.0007
 1003SOD     NA14486   0.364   3.506   9.309  0.0840  0.1933  0.5217
 1004SOD     NA14487   0.906   4.147  15.040 -0.8340 -0.4805 -0.0202
 1005SOD     NA14488   4.490   0.642  13.536 -0.0820  0.1758  0.1095
 1006SOD     NA14489   3.221   3.619  12.544  0.4101  0.3233 -0.2972
 1007SOD     NA14490   2.041   0.202   2.205 -0.4236  0.0129  0.3204
 1008SOD     NA14491   3.799   0.645  10.296 -0.2893 -0.2864  0.0099
 1009SOD     NA14492   0.221   4.564  11.151  0.6199  0.3116 -0.7883
 1010SOD     NA14493   1.456   0.734   9.142 -0.0964  0.6247  0.4011
 1011SOL     OW14494   0.681   2.582   2.954  0.1731  0.0528 -0.0800
 1011SOL    HW114495   0.695   2.601   3.047  1.1963 -1.3247  0.0357
 1011SOL    HW214496   0.585   2.575   2.948  0.0977  1.3707 -0.4660
 1012SOL     OW14497   0.526   4.032   1.803  0.7084  0.1327 -0.6542
 1012SOL    HW114498   0.596   4.077   1.756  2.9350 -0.1162  2.4361
 1012SOL    HW214499   0.457   4.098   1.806 -0.7575 -1.4943  1.9264
 1013SOL     OW14500   2.524   0.750   3.630 -0.0058  0.1905  0.0365
 1013SOL    HW114501   2.538   0.751   3.535 -0.2610 -1.0774 -0.0056
 1013SOL    HW214502   2.454   0.815   3.639  1.5805  2.0978 -1.3391
 1014SOL     OW14503   1.333   0.571  12.413 -0.1510 -0.0296 -0.4178
 1014SOL    HW114504   1.301   0.627  12.484 -1.0046 -0.1720 -0.6917
 1014SOL    HW214505   1.419   0.612  12.411  0.7560 -1.9276 -0.7309
 1015SOL     OW14506   4.309   3.145   4.945 -0.3068 -0.3250 -0.3321
 1015SOL    HW114507   4.396   3.119   4.916 -0.1438 -0.3623  0.1857
 1015SOL    HW214508   4.330   3.187   5.029 -0.9539 -1.2744  0.3075
 1016SOL     OW14509   2.466   4.493  11.612  0.3198 -0.0018  0.6303
 1016SOL    HW114510   2.463   4.443  11.694  2.3724 -0.4078  0.4532
 1016SOL    HW214511   2.381   4.473  11.573  1.1768  2.1302 -2.2692
 1017SOL     OW14512   2.335   0.084   1.712 -0.5651 -0.4968  0.1857
 1017SOL    HW114513   2.288   0.001   1.717 -0.4454 -0.6491 -1.1401
 1017SOL    HW214514   2.393   0.084   1.788  0.1759 -1.9775 -0.3799
 1018SOL     OW14515   1.166   2.215   8.207 -0.0523  0.2128 -0.3783
 1018SOL    HW114516   1.233   2.153   8.237 -0.6406  0.4613  1.4829
 1018SOL    HW214517   1.186   2.293   8.259 -0.2396 -0.7269  1.1031
 1019SOL     OW14518   2.160   2.149   5.734  0.2161 -0.0971 -0.5582
 1019SOL    HW114519   2.122   2.177   5.651 -1.6027  1.1978  0.6987
 1019SOL    HW214520   2.089   2.165   5.796 -0.3871  0.3977 -1.3799
 1020SOL     OW14521   3.352   4.633   8.656  0.4144 -0.0574  0.2470
 1020SOL    HW114522   3.314   4.546   8.665 -2.2571  1.1568  0.7916
 1020SOL    HW214523   3.305   4.675   8.583  0.1069 -1.5894 -0.4343
 1021SOL     OW14524   3.864   2.214   4.998 -0.4224 -0.2807 -0.2357
 1021SOL    HW114525   3.778   2.179   4.979 -1.5634  1.3228  2.0321
 1021SOL    HW214526   3.890   2.221   4.906 -1.3336  2.8578 -0.2663
 1022SOL     OW14527   3.958   2.694  12.664  0.1005  0.4201  0.4382
 1022SOL    HW114528   3.885   2.713  12.723 -1.6169  0.7997 -1.8224
 1022SOL    HW214529   4.005   2.774  12.688  2.3041 -1.2336  1.6856
 1023SOL     OW14530   0.852   2.585  10.825  0.5526  0.1712  0.3109
 1023SOL    HW114531   0.858   2.506  10.878  1.0416 -0.7178 -1.0867
 1023SOL    HW214532   0.925   2.645  10.845  0.7604  0.0860 -0.1808
 1024SOL     OW14533   2.309   2.253   1.989  0.2917  0.1849 -0.5411
 1024SOL    HW114534   2.256   2.252   1.910 -0.4640  0.2379 -0.0358
 1024SOL    HW214535   2.325   2.159   1.978  0.3075  0.2940 -1.4072
 1025SOL     OW14536   3.975   3.621  14.312 -0.1972 -0.3923 -0.1532
 1025SOL    HW114537   3.972   3.658  14.400 -0.8209 -0.8582  0.0208
 1025SOL    HW214538   3.893   3.664  14.288 -0.0793  0.0683  0.2566
 1026SOL     OW14539   3.417   2.904   6.386  0.3207 -0.3218  0.1725
 1026SOL    HW114540   3.501   2.923   6.427  1.3223  0.4822 -2.2199
 1026SOL    HW214541   3.423   2.945   6.299 -1.0735 -0.7231 -0.1208
 1027SOL     OW14542   1.176   4.519   4.329 -0.8303 -0.1894  0.7842
 1027SOL    HW114543   1.105   4.457   4.311 -0.7630  0.0008 -0.1792
 1027SOL    HW214544   1.255   4.464   4.332 -1.5877 -1.3136  0.2726
 1028SOL     OW14545   1.117   2.716   4.281 -0.2331  0.5866 -0.0838
 1028SOL    HW114546   1.124   2.740   4.189 -2.3359 -2.5507 -1.0588
 1028SOL    HW214547   1.054   2.644   4.278  0.3117  0.0407  1.8316
 1029SOL     OW14548   4.222   2.051  11.825 -0.2076  1.0034  0.2990
 1029SOL    HW114549   4.248   1.965  11.858  0.7727  1.3946  0.5452
 1029SOL    HW214550   4.143   2.058  11.880  0.6867 -1.4940  1.9285
 1030SOL     OW14551   3.293   0.248   3.084 -0.1990 -0.4200 -0.3861
 1030SOL    HW114552   3.290   0.248   2.988 -0.3904 -0.5295 -0.3812
 1030SOL    HW214553   3.205   0.266   3.117  0.2195  2.3695 -0.8498
 1031SOL     OW14554   3.684   2.272   1.452  0.1938  0.4787 -0.1576
 1031SOL    HW114555   3.653   2.256   1.542  1.7248 -2.8670 -0.2444
 1031SOL    HW214556   3.627   2.341   1.419 -0.1708 -0.9649 -2.5240
 1032SOL     OW14557   3.154   3.649   5.508 -0.2101  0.2781  0.2912
 1032SOL    HW114558   3.224   3.696   5.463 -1.3646  1.3437 -0.3528
 1032SOL    HW214559   3.185   3.616   5.593 -2.9559 -0.9143  0.8250
 1033SOL     OW14560   4.026   2.911   4.076 -0.2024 -0.2780  0.5271
 1033SOL    HW114561   4.097   2.964   4.113 -0.0486  0.5859 -0.9939
 1033SOL    HW214562   4.061   2.863   4.000  0.0035  1.6874 -0.6317
 1034SOL     OW14563   1.088   3.407   2.234 -0.2292  0.2169  0.1780
 1034SOL    HW114564   1.031   3.384   2.307  0.0907 -2.2472 -0.3362
 1034SOL    HW214565   1.167   3.424   2.285  0.9805  0.3108 -1.7141
 1035SOL     OW14566   4.710   4.365   8.610  0.1960  0.0379  0.3868
 1035SOL    HW114567   0.063   4.392   8.559 -0.2273  0.4441 -0.0295
 1035SOL    HW214568   4.686   4.444   8.658 -0.9390 -0.8026  1.1998
 1036SOL     OW14569   3.443   3.066   5.035  0.2977 -1.2687 -0.2892
 1036SOL    HW114570   3.376   3.133   5.045  2.3284  0.4346  2.0742
 1036SOL    HW214571   3.420   3.030   4.950 -1.2206 -0.5845 -0.1602
 1037SOL     OW14572   0.403   2.181   8.714  0.5260  0.2860 -0.1561
 1037SOL    HW114573   0.436   2.251   8.770 -0.0251 -0.1615  0.7299
 1037SOL    HW214574   0.411   2.224   8.629  1.1292  0.5089  0.0109
 1038SOL     OW14575   1.416   2.409   3.695  0.2182 -0.5118 -0.5033
 1038SOL    HW114576   1.473   2.412   3.618 -0.7048 -2.7526 -1.3005
 1038SOL    HW214577   1.360   2.484   3.673  0.2209  0.1599  1.8460
 1039SOL     OW14578   4.065   3.451  14.980 -0.0918  0.0118  0.6282
 1039SOL    HW114579   4.145   3.445  15.032  0.5962  1.2416 -0.3126
 1039SOL    HW214580   4.046   3.365  14.941  1.4666  1.0326 -2.3089
 1040SOL     OW14581   2.975   0.884   8.379  0.2079 -0.6237 -0.3053
 1040SOL    HW114582   2.996   0.951   8.314  0.2841 -1.0961 -0.7688
 1040SOL    HW214583   3.061   0.863   8.415 -0.7943 -1.2097  1.7744
 1041SOL     OW14584   3.164   1.434   4.893  0.1564 -0.2618  0.3198
 1041SOL    HW114585   3.102   1.391   4.952  0.1306  0.6431  0.9495
 1041SOL    HW214586   3.137   1.410   4.804  3.4312 -0.9928 -0.4915
 1042SOL     OW14587   1.319   0.095   5.021  0.4007 -0.8482  0.0816
 1042SOL    HW114588   1.345   0.099   4.929 -1.4457 -1.2687 -0.4607
 1042SOL    HW214589   1.227   0.122   5.026  0.5997 -0.0477 -0.6971
 1043SOL     OW14590   0.390   2.341  13.502 -0.9991  0.2808 -0.3180
 1043SOL    HW114591   0.308   2.374  13.539 -1.6606 -1.0659 -0.5979
 1043SOL    HW214592   0.446   2.419  13.496  0.2381 -0.7661 -2.1776
 1044SOL     OW14593   3.501   4.000   4.366  0.4992  0.6113 -0.1660
 1044SOL    HW114594   3.469   4.058   4.297 -1.6196  1.0506  1.1689
 1044SOL    HW214595   3.434   4.029   4.429 -0.7062  2.1913 -2.1690
 1045SOL     OW14596   2.824   2.521   7.422 -0.2769  0.1506  0.2993
 1045SOL    HW114597   2.852   2.440   7.466  0.4453 -0.4601 -1.2877
 1045SOL    HW214598   2.728   2.516   7.428 -0.3757  2.4899  0.5838
 1046SOL     OW14599   2.401   4.039  16.054  0.2524  0.0077  0.6046
 1046SOL    HW114600   2.401   4.124  16.098  2.9109  0.0553  0.5357
 1046SOL    HW214601   2.374   3.983  16.127  0.9008 -2.1408 -0.7989
 1047SOL     OW14602   3.019   2.066   7.854  0.7478 -0.1525 -0.0814
 1047SOL    HW114603   3.035   2.136   7.918 -1.1652  1.1411 -1.0264
 1047SOL    HW214604   3.094   2.067   7.794  2.4646  0.0158  2.0322
 1048SOL     OW14605   2.083   1.014   6.403 -0.4345 -0.0473  0.3772
 1048SOL    HW114606   2.067   1.081   6.470  0.0773  0.2006  0.2505
 1048SOL    HW214607   2.077   1.071   6.327  1.3176 -0.0465  0.2288
 1049SOL     OW14608   2.591   2.266   2.131 -0.3200  0.0052 -0.1010
 1049SOL    HW114609   2.571   2.355   2.161  1.9937  0.1109  1.1994
 1049SOL    HW214610   2.561   2.278   2.041 -0.9644 -2.8420 -0.2643
 1050SOL     OW14611   0.093   1.130   8.000  0.0884 -0.4314 -0.0517
 1050SOL    HW114612   0.155   1.169   8.062 -0.5331  0.8971 -0.2552
 1050SOL    HW214613   0.139   1.052   7.971  0.0533 -1.3792  2.4432
 1051SOL     OW14614   0.216   3.347   7.249 -0.3366 -0.5642  0.9517
 1051SOL    HW114615   0.275   3.321   7.320 -0.7196 -0.0013  1.4781
 1051SOL    HW214616   0.158   3.270   7.242  0.5883 -1.3954  2.3375
 1052SOL     OW14617   2.964   2.916  13.311  0.1371 -0.0864 -0.3202
 1052SOL    HW114618   2.898   2.886  13.373  0.2532  1.6363  0.6607
 1052SOL    HW214619   2.987   2.999  13.353  1.2512 -0.3205 -0.4643
 1053SOL     OW14620   0.609   2.622   3.482 -0.5492 -0.4832  0.0947
 1053SOL    HW114621   0.527   2.617   3.434 -1.2409  1.6260  1.0657
 1053SOL    HW214622   0.591   2.579   3.566  1.1603 -2.9909 -0.8070
 1054SOL     OW14623   0.481   3.040   0.546 -0.1343 -0.1282  0.8203
 1054SOL    HW114624   0.507   2.948   0.551  0.8177  0.0750 -0.3015
 1054SOL    HW214625   0.391   3.039   0.580 -0.4525 -2.0471 -0.0854
 1055SOL     OW14626   4.609   0.684   6.207  0.1851 -0.0238  0.4144
 1055SOL    HW114627   4.653   0.762   6.242  1.2208 -0.7766  0.8170
 1055SOL    HW214628   4.652   0.615   6.258 -0.1425  0.1942  0.9923
 1056SOL     OW14629   2.622   1.668   5.533 -0.4898  0.4490 -0.4164
 1056SOL    HW114630   2.543   1.715   5.506 -1.9015 -1.8368 -0.3298
 1056SOL    HW214631   2.609   1.656   5.627  2.1708 -0.6536 -0.1780
 1057SOL     OW14632   1.758   0.458   3.145 -0.1506 -0.1872 -0.4631
 1057SOL    HW114633   1.700   0.384   3.161  0.0988 -0.3866 -0.4806
 1057SOL    HW214634   1.837   0.405   3.131  0.5488  0.7005  0.0883
 1058SOL     OW14635   2.939   0.413   6.021 -0.2918 -0.3997  0.4111
 1058SOL    HW114636   3.003   0.342   6.029  0.1184  0.0116  0.8001
 1058SOL    HW214637   2.977   0.499   6.004  1.8485 -1.3272  0.4330
 1059SOL     OW14638   2.903   3.648  12.232  0.4081  0.2552  0.1753
 1059SOL    HW114639   2.820   3.693  12.248  1.7039  2.1322  1.5537
 1059SOL    HW214640   2.966   3.695  12.287  0.5089  1.4887 -0.9960
 1060SOL     OW14641   0.621   3.031   6.851 -0.3303 -0.4809 -0.3837
 1060SOL    HW114642   0.635   3.125   6.838  1.9481 -0.9276 -1.1179
 1060SOL    HW214643   0.554   3.011   6.785  1.0533  0.8564 -2.1738
 1061SOL     OW14644   3.624   0.048   0.669 -0.2108  0.2485  0.3188
 1061SOL    HW114645   3.562   0.080   0.734  1.1799  1.5258  1.0092
 1061SOL    HW214646   3.619   4.676   0.682 -0.8279  0.2786  0.3060
 1062SOL     OW14647   0.523   4.696   4.975 -0.0696 -0.1034 -0.4517
 1062SOL    HW114648   0.536   0.059   5.014 -0.3908 -0.2972  0.0911
 1062SOL    HW214649   0.594   4.647   5.016 -0.2644 -0.4123 -0.4803
 1063SOL     OW14650   3.144   2.573   2.901 -0.1271 -0.1697 -0.8238
 1063SOL    HW114651   3.076   2.529   2.850 -2.0519  1.5881  0.2201
 1063SOL    HW214652   3.177   2.631   2.833  0.1039 -0.3614 -0.8760
 1064SOL     OW14653   2.314   0.105  11.695  0.0245 -0.2265 -0.1497
 1064SOL    HW114654   2.379   0.048  11.735  0.9791  1.0709  0.1325
 1064SOL    HW214655   2.369   0.135  11.622 -0.5768  0.2872 -0.3924
 1065SOL     OW14656   1.805   1.974   3.297  0.1640 -0.5793 -0.5094
 1065SOL    HW114657   1.779   1.882   3.294 -0.7695 -0.3842  1.7631
 1065SOL    HW214658   1.880   1.971   3.237  0.2973 -2.9733 -0.2139
 1066SOL     OW14659   3.365   4.338   5.154  0.4058  0.0796 -0.3086
 1066SOL    HW114660   3.288   4.300   5.111  0.3251 -0.5896  0.4177
 1066SOL    HW214661   3.428   4.346   5.082  0.8992 -2.5931 -0.1820
 1067SOL     OW14662   2.484   0.374   1.329 -0.1961  0.3730  0.4928
 1067SOL    HW114663   2.564   0.339   1.290 -1.1061 -2.2290  0.9358
 1067SOL    HW214664   2.425   0.362   1.255 -0.2920 -0.7996  0.7606
 1068SOL     OW14665   1.300   2.602   3.341  0.0249 -0.5945  0.5270
 1068SOL    HW114666   1.352   2.646   3.274 -0.5583  1.1665  1.2202
 1068SOL    HW214667   1.218   2.628   3.299  0.2137 -2.6171 -1.0949
 1069SOL     OW14668   0.921   1.794  15.188 -0.2443 -0.2332 -0.4527
 1069SOL    HW114669   0.866   1.838  15.123 -1.1289  0.3651  0.6994
 1069SOL    HW214670   0.870   1.715  15.204 -0.3770 -0.6086 -2.7497
 1070SOL     OW14671   1.168   2.345   9.536 -0.1134 -0.3667  0.2845
 1070SOL    HW114672   1.224   2.416   9.567  0.6038 -0.3088 -1.1329
 1070SOL    HW214673   1.203   2.284   9.601 -0.6848  0.1155  1.0410
 1071SOL     OW14674   1.568   2.465  13.603 -0.7601 -0.1457  0.5927
 1071SOL    HW114675   1.563   2.477  13.698  1.3201 -1.3085  0.8490
 1071SOL    HW214676   1.654   2.434  13.577 -1.5365 -0.3466 -1.7287
 1072SOL     OW14677   3.587   3.638   7.215  0.0484 -0.1208  0.6362
 1072SOL    HW114678   3.610   3.556   7.259 -0.7415 -0.7552 -0.1334
 1072SOL    HW214679   3.646   3.633   7.140 -0.3263  2.3482  0.1725
 1073SOL     OW14680   4.013   3.939  16.528  0.0221  0.5580 -0.2899
 1073SOL    HW114681   4.086   3.885  16.559 -0.4490 -0.2094 -0.5180
 1073SOL    HW214682   3.940   3.879  16.511 -2.3486  3.1250  0.7066
 1074SOL     OW14683   0.897   0.033   8.547 -0.5429  0.1388 -0.2239
 1074SOL    HW114684   0.876   0.057   8.637  1.2294  0.4199  0.1258
 1074SOL    HW214685   0.933   4.668   8.562 -0.4733  0.4338  1.3761
 1075SOL     OW14686   1.417   1.160  13.684  0.0435 -0.0472 -0.3069
 1075SOL    HW114687   1.484   1.227  13.692  1.1757 -1.3212  0.8780
 1075SOL    HW214688   1.411   1.129  13.775 -1.0151  0.7976 -0.0774
 1076SOL     OW14689   0.342   3.876   8.125 -0.0850  0.3911 -0.1001
 1076SOL    HW114690   0.420   3.820   8.121 -0.4943 -0.0896 -1.0955
 1076SOL    HW214691   0.380   3.963   8.135  0.4758 -0.1184  2.4207
 1077SOL     OW14692   4.130   2.696   6.537 -0.1304  0.2416  0.0049
 1077SOL    HW114693   4.209   2.690   6.484  0.6394 -0.9822  1.2857
 1077SOL    HW214694   4.107   2.604   6.547  2.9409 -0.3939  1.0593
 1078SOL     OW14695   3.879   2.143   6.028 -0.9555 -0.2977 -0.3750
 1078SOL    HW114696   3.926   2.069   6.066 -2.1833 -0.7532  0.2851
 1078SOL    HW214697   3.791   2.104   6.037 -1.3919  0.7590 -0.0781
 1079SOL     OW14698   2.370   1.665  16.406  0.3676  0.5528  0.6633
 1079SOL    HW114699   2.427   1.601  16.449  1.0634  0.4529 -0.4259
 1079SOL    HW214700   2.287   1.618  16.403  0.9430 -0.0858 -3.9900
 1080SOL     OW14701   0.838   0.362  10.709  0.0085  0.1697  0.2847
 1080SOL    HW114702   0.832   0.456  10.693  0.7840 -0.2112 -2.3421
 1080SOL    HW214703   0.909   0.362  10.773  0.3211  0.7319 -0.0607
 1081SOL     OW14704   4.571   1.911   3.430  0.3153 -0.2610 -0.0626
 1081SOL    HW114705   4.524   1.947   3.506  2.5381 -1.1098  1.7123
 1081SOL    HW214706   4.539   1.960   3.355  1.1035  1.0449  0.4426
 1082SOL     OW14707   2.330   3.629   7.564 -0.0392 -0.4712  0.2180
 1082SOL    HW114708   2.248   3.679   7.564  0.6589  0.6794 -0.5757
 1082SOL    HW214709   2.355   3.631   7.471 -3.8454  1.8129 -0.7750
 1083SOL     OW14710   3.944   0.921   9.382  0.2858  0.0974 -0.4765
 1083SOL    HW114711   3.866   0.976   9.377  0.1510 -0.1637 -1.2420
 1083SOL    HW214712   3.951   0.879   9.296 -0.0683 -1.3661  0.2175
 1084SOL     OW14713   0.782   3.068   9.121  0.6984 -0.2572  0.2363
 1084SOL    HW114714   0.856   3.119   9.152 -0.9005  1.6916  0.8912
 1084SOL    HW214715   0.772   3.008   9.195  0.8163  0.1075  0.5474
 1085SOL     OW14716   2.333   2.486   1.020 -0.2052 -0.5713 -0.2980
 1085SOL    HW114717   2.277   2.456   0.948 -2.8813 -1.4850  2.1615
 1085SOL    HW214718   2.389   2.548   0.973 -2.3804  2.4778  1.1122
 1086SOL     OW14719   3.259   1.487   2.760  0.1207  0.2674 -0.4168
 1086SOL    HW114720   3.216   1.573   2.760 -0.6676 -0.1233 -0.0055
 1086SOL    HW214721   3.207   1.434   2.820  0.9799 -0.3735 -0.2486
 1087SOL     OW14722   3.546   4.226  17.212  0.3805 -0.1852 -0.2612
 1087SOL    HW114723   3.527   4.137  17.181  1.0937 -0.0824 -0.9946
 1087SOL    HW214724   3.531   4.207  17.305 -0.3812  1.1476 -0.1157
 1088SOL     OW14725   2.870   4.130   9.393 -0.1745  0.3079  0.0161
 1088SOL    HW114726   2.916   4.058   9.435 -0.4240  0.2433  0.1805
 1088SOL    HW214727   2.790   4.122   9.445  0.9174 -0.7833  1.5220
 1089SOL     OW14728   3.592   3.715  12.523 -0.3659  0.1782  0.3460
 1089SOL    HW114729   3.512   3.690  12.476  0.6582 -0.2930 -1.1309
 1089SOL    HW214730   3.591   3.663  12.603  0.2605 -2.2290 -1.2363
 1090SOL     OW14731   2.046   2.992   2.288 -0.4013 -0.7918  0.4044
 1090SOL    HW114732   2.135   3.001   2.253 -1.2043  3.2807 -0.5410
 1090SOL    HW214733   2.058   2.917   2.346 -0.5494  0.3740  1.9212
 1091SOL     OW14734   1.027   0.534  14.019 -0.4304 -0.1938  0.4639
 1091SOL    HW114735   1.024   0.466  13.951  1.5580  0.7114 -0.5266
 1091SOL    HW214736   0.946   0.578  13.993 -0.8864 -0.8556  0.7361
 1092SOL     OW14737   1.984   0.953   2.647 -0.1137  0.4461 -0.5576
 1092SOL    HW114738   1.948   0.886   2.588 -1.5991 -0.3267  1.2299
 1092SOL    HW214739   2.078   0.932   2.651 -0.1566  0.4901  0.5625
 1093SOL     OW14740   0.066   2.697   2.035 -0.3629  0.4211 -0.1508
 1093SOL    HW114741   0.141   2.648   2.001  1.7399  3.3065  0.2322
 1093SOL    HW214742   0.047   2.759   1.964  0.1642 -1.2010 -1.6998
 1094SOL     OW14743   2.939   4.140   1.823  0.1956  0.2990  0.1883
 1094SOL    HW114744   2.932   4.069   1.759 -1.8531 -0.5668  1.3595
 1094SOL    HW214745   3.020   4.181   1.793  0.6745  0.4048  1.6586
 1095SOL     OW14746   0.626   4.599  11.685 -0.3779  0.1864  0.6759
 1095SOL    HW114747   0.689   4.526  11.682  0.3025  0.9854 -3.5125
 1095SOL    HW214748   0.544   4.554  11.705 -1.5998  1.5744 -1.2890
 1096SOL     OW14749   0.093   0.693   4.713 -0.1513  0.6271  0.1935
 1096SOL    HW114750   0.175   0.644   4.715 -0.4898  0.0849  1.1910
 1096SOL    HW214751   0.055   0.685   4.801 -2.6842 -2.1477 -1.1350
 1097SOL     OW14752   3.023   1.626   3.794 -0.0162  0.0413 -0.1676
 1097SOL    HW114753   2.960   1.595   3.859  1.4164 -1.5261  0.4771
 1097SOL    HW214754   3.076   1.547   3.784  0.0330 -0.0660  0.9290
 1098SOL     OW14755   2.245   1.345   3.302 -0.1256 -0.6499 -0.1222
 1098SOL    HW114756   2.271   1.322   3.213  1.1470  1.4194 -0.2953
 1098SOL    HW214757   2.331   1.363   3.341 -1.1813 -0.6032  2.1716
 1099SOL     OW14758   2.332   1.155   4.263  0.5816  0.0541  0.7726
 1099SOL    HW114759   2.334   1.223   4.196  1.4767 -2.3470 -1.6720
 1099SOL    HW214760   2.285   1.082   4.223  1.2592  0.7096 -1.1988
 1100SOL     OW14761   3.656   0.623   1.227  0.6458  0.3344  0.0043
 1100SOL    HW114762   3.711   0.674   1.168 -1.1726  1.0276 -1.1053
 1100SOL    HW214763   3.594   0.693   1.246 -0.4539 -0.1333 -1.7701
 1101SOL     OW14764   0.010   2.976   6.184  0.0992  0.6138 -0.2610
 1101SOL    HW114765   0.098   3.011   6.202 -0.0070  0.0066  1.4193
 1101SOL    HW214766   0.022   2.900   6.240  0.8604  0.8929 -0.0455
 1102SOL     OW14767   2.872   0.280   4.061 -0.7044  0.7478 -0.3854
 1102SOL    HW114768   2.868   0.355   4.121 -0.0792  1.9378 -1.8381
 1102SOL    HW214769   2.947   0.296   4.005 -0.9245 -1.7134 -1.3552
 1103SOL     OW14770   0.089   2.587   1.783 -0.1330 -0.2380  0.2631
 1103SOL    HW114771   0.130   2.536   1.853  1.8179  1.1854  0.1660
 1103SOL    HW214772   4.721   2.584   1.815  0.0672  1.1933  0.9620
 1104SOL     OW14773   1.547   4.428   6.798 -0.2052  0.3776  0.0922
 1104SOL    HW114774   1.469   4.476   6.772  0.0964  0.1928 -1.1442
 1104SOL    HW214775   1.625   4.467   6.760  0.2742 -0.7447 -0.0913
 1105SOL     OW14776   4.654   0.098  16.850 -0.2770  0.1786 -0.6304
 1105SOL    HW114777   4.683   0.033  16.786  3.5336  1.0620  0.2106
 1105SOL    HW214778   4.721   0.089  16.918 -2.9692  0.9332  2.1187
 1106SOL     OW14779   4.003   3.782   8.009  0.5327 -0.4238 -0.0560
 1106SOL    HW114780   4.019   3.688   8.003  1.7564 -0.1235 -1.5977
 1106SOL    HW214781   4.030   3.810   7.922  1.9786 -2.6075 -0.3149
 1107SOL     OW14782   2.963   1.677   2.559 -0.2351  0.5157 -0.0103
 1107SOL    HW114783   3.025   1.713   2.623  0.5065 -0.3506 -0.2406
 1107SOL    HW214784   2.948   1.754   2.504 -3.5572 -2.4365 -3.1867
 1108SOL     OW14785   3.452   4.051  17.023  0.0680 -0.7581 -0.2873
 1108SOL    HW114786   3.395   4.097  16.962 -1.6920  2.9173  4.1463
 1108SOL    HW214787   3.515   4.019  16.958 -0.5035 -1.2856 -0.5873
 1109SOL     OW14788   4.076   1.651   5.657  0.2828 -0.1432  0.4482
 1109SOL    HW114789   4.024   1.630   5.579  1.2988  1.2291 -0.6011
 1109SOL    HW214790   4.004   1.671   5.717  1.4837  1.4000  1.3689
 1110SOL     OW14791   1.151   2.871   3.324  0.6757 -0.3785 -0.2001
 1110SOL    HW114792   1.100   2.791   3.316  0.3632 -0.1930 -0.0827
 1110SOL    HW214793   1.090   2.917   3.382  0.8794  0.3574 -0.5667
 1111SOL     OW14794   2.065   2.637   8.954 -0.6335  0.2389 -0.1152
 1111SOL    HW114795   2.106   2.596   9.031  2.1330  0.7657 -1.3200
 1111SOL    HW214796   2.002   2.567   8.937 -2.5403  2.4286 -2.0873
 1112SOL     OW14797   3.331   1.332  10.014  0.4622 -0.4604  0.9542
 1112SOL    HW114798   3.403   1.275   9.988  1.1206 -0.4723  2.8241
 1112SOL    HW214799   3.262   1.307   9.952  0.8190 -2.2940  1.3145
 1113SOL     OW14800   4.441   2.944   3.764  0.0291 -0.6271  0.5477
 1113SOL    HW114801   4.388   2.867   3.784 -0.6392  0.0296  1.3114
 1113SOL    HW214802   4.374   3.001   3.726 -1.2126 -2.2713  0.2918
 1114SOL     OW14803   2.469   2.979   4.599 -0.3760  0.4062 -0.0484
 1114SOL    HW114804   2.535   2.998   4.533 -0.6360  0.2115 -0.3637
 1114SOL    HW214805   2.497   2.890   4.620 -0.0103  0.4232 -0.4801
 1115SOL     OW14806   0.725   4.033   0.804 -0.3200 -0.2727 -0.1082
 1115SOL    HW114807   0.785   3.978   0.754  0.1065  0.6213 -0.5722
 1115SOL    HW214808   0.747   4.012   0.895  0.4748  3.2117  0.4919
 1116SOL     OW14809   2.229   1.291   7.952 -0.5342 -0.7292 -0.3170
 1116SOL    HW114810   2.242   1.378   7.916 -1.8008 -0.2727  0.3385
 1116SOL    HW214811   2.156   1.254   7.902  0.0061 -1.7246 -0.3710
 1117SOL     OW14812   3.222   0.554  10.635 -0.6007  0.0984 -1.0840
 1117SOL    HW114813   3.244   0.532  10.726 -0.5213 -0.2466 -1.1881
 1117SOL    HW214814   3.213   0.649  10.644  0.0402  0.2870 -2.5135
 1118SOL     OW14815   3.779   0.164   3.618 -0.1985 -0.3364 -0.2190
 1118SOL    HW114816   3.717   0.110   3.570 -0.5131  1.1682 -1.4838
 1118SOL    HW214817   3.861   0.122   3.592 -0.0152  0.6942 -1.2839
 1119SOL     OW14818   1.656   3.060   7.941 -0.0218  0.3372  0.0178
 1119SOL    HW114819   1.632   3.066   7.849 -2.4841  1.3722  0.7245
 1119SOL    HW214820   1.729   3.002   7.924 -1.3705 -1.4276  0.2390
 1120SOL     OW14821   3.441   0.064   5.594 -0.5043  0.3328  0.1823
 1120SOL    HW114822   3.395   4.704   5.610  1.3010 -0.2863  2.1197
 1120SOL    HW214823   3.523   0.038   5.637 -1.3761  0.8834  2.1718
 1121SOL     OW14824   3.496   0.008   1.590 -0.0159 -0.6666  0.2046
 1121SOL    HW114825   3.579   0.039   1.628 -1.0275  0.9494  1.0881
 1121SOL    HW214826   3.502   0.069   1.517  1.0045  0.1891  0.9949
 1122SOL     OW14827   0.084   3.468  10.475 -0.6935  0.1047 -0.3371
 1122SOL    HW114828   0.088   3.387  10.525 -1.0825  0.9842  1.1351
 1122SOL    HW214829   0.124   3.445  10.392  0.1727 -0.2824  0.1918
 1123SOL     OW14830   2.255   3.493   8.490 -0.3966 -0.2641 -0.5849
 1123SOL    HW114831   2.233   3.413   8.537 -1.4826  0.6096  0.3924
 1123SOL    HW214832   2.345   3.503   8.522 -0.1254 -0.3824 -1.2937
 1124SOL     OW14833   1.005   4.414   7.909 -0.3047  0.2776  0.6075
 1124SOL    HW114834   1.083   4.358   7.908  0.7624  1.7546 -0.5040
 1124SOL    HW214835   1.018   4.433   7.816 -0.5485  2.2580  0.9733
 1125SOL     OW14836   1.796   3.967  14.692 -0.6848 -0.3332 -0.4987
 1125SOL    HW114837   1.832   3.935  14.774  1.6019  2.7320 -0.3237
 1125SOL    HW214838   1.870   3.947  14.633 -0.3001  1.6118 -0.6706
 1126SOL     OW14839   1.618   3.306  11.445 -0.1271  0.5651  0.4199
 1126SOL    HW114840   1.540   3.280  11.493  0.1702 -0.2657  0.4528
 1126SOL    HW214841   1.672   3.227  11.447 -0.5485  0.1386 -3.5939
 1127SOL     OW14842   0.318   0.929   2.773 -0.2144  0.5688  0.3215
 1127SOL    HW114843   0.225   0.910   2.770  0.2992 -1.7412 -0.4574
 1127SOL    HW214844   0.316   1.005   2.832  1.7463 -1.1868  2.6889
 1128SOL     OW14845   1.951   1.188   6.607 -0.3798  0.2562 -0.1671
 1128SOL    HW114846   2.029   1.202   6.661 -1.1423  1.1319  0.6989
 1128SOL    HW214847   1.931   1.271   6.564 -1.8954  0.3068  0.6237
 1129SOL     OW14848   3.433   1.373   4.730  0.2839  0.3007  0.2016
 1129SOL    HW114849   3.502   1.321   4.771 -1.1916 -0.8996  1.1545
 1129SOL    HW214850   3.358   1.316   4.748  0.9446 -0.0277  1.9344
 1130SOL     OW14851   3.234   1.935  16.594  0.4545 -0.6089 -0.1187
 1130SOL    HW114852   3.200   1.884  16.668  0.4230 -0.2534  0.1102
 1130SOL    HW214853   3.163   1.920  16.531 -0.1979 -0.3546  0.5559
 1131SOL     OW14854   2.093   1.623   4.363  0.1750 -0.3169 -0.1251
 1131SOL    HW114855   2.183   1.642   4.391 -0.1015 -0.0606  0.5934
 1131SOL    HW214856   2.039   1.633   4.442  0.8645 -1.4175  0.4912
 1132SOL     OW14857   2.463   2.060  17.415  1.1166 -0.3680  0.0986
 1132SOL    HW114858   2.420   2.106  17.486 -1.3551 -0.3361 -1.4088
 1132SOL    HW214859   2.453   1.967  17.434 -1.6835 -0.6069 -2.4607
 1133SOL     OW14860   0.838   3.225  13.730 -0.3459 -0.0318 -0.1497
 1133SOL    HW114861   0.851   3.314  13.764 -0.0227 -0.7158  1.5420
 1133SOL    HW214862   0.745   3.212  13.745  0.2603  1.0030  4.4526
 1134SOL     OW14863   0.279   0.797   7.301  0.0375  0.7535 -0.1458
 1134SOL    HW114864   0.277   0.720   7.243 -0.7886  0.5195  0.2013
 1134SOL    HW214865   0.312   0.856   7.234 -1.3436  1.6809 -0.0076
 1135SOL     OW14866   1.705   1.753   4.296 -0.5617  0.9512  0.4501
 1135SOL    HW114867   1.728   1.840   4.261 -2.4921  0.4067 -2.1210
 1135SOL    HW214868   1.770   1.744   4.366 -0.4724 -1.1603  0.0973
 1136SOL     OW14869   2.974   2.080   5.399 -0.1960 -0.2030 -0.2411
 1136SOL    HW114870   2.961   2.105   5.308  0.8529 -1.1584 -0.6629
 1136SOL    HW214871   2.903   2.016   5.404  0.5525 -0.9997  0.3447
 1137SOL     OW14872   3.006   4.175   5.825  0.5856 -0.4390  0.1006
 1137SOL    HW114873   2.952   4.100   5.848  0.0483  0.1087  0.6019
 1137SOL    HW214874   2.981   4.178   5.733  0.0601 -1.1366  0.2194
 1138SOL     OW14875   3.691   1.677  15.782  0.2460  0.2419 -0.3868
 1138SOL    HW114876   3.760   1.612  15.795 -0.3967 -0.1819  0.9102
 1138SOL    HW214877   3.610   1.626  15.788  0.1424  0.5486  0.7140
 1139SOL     OW14878   2.474   1.650   3.322  0.2166 -0.0580  0.2991
 1139SOL    HW114879   2.505   1.738   3.342 -2.2410  0.5032  1.5392
 1139SOL    HW214880   2.380   1.664   3.309 -0.1224 -1.5640  1.1124
 1140SOL     OW14881   1.007   2.912  10.402 -0.3984 -0.0656 -0.0808
 1140SOL    HW114882   0.943   2.867  10.347 -2.0214  1.3309  0.6805
 1140SOL    HW214883   1.033   2.838  10.457  0.4000 -0.4067 -0.9171
 1141SOL     OW14884   0.892   4.012   1.040  0.3642  0.3118  0.4346
 1141SOL    HW114885   0.978   4.018   1.082  0.6511  1.8686 -0.3823
 1141SOL    HW214886   0.882   4.097   0.997 -1.3143  0.2977  0.7713
 1142SOL     OW14887   0.004   0.643  12.047  0.0429 -0.4514  0.2948
 1142SOL    HW114888   4.678   0.630  12.128 -0.8055  0.7073 -0.0257
 1142SOL    HW214889   4.672   0.604  11.979  0.0548  0.2901 -0.1441
 1143SOL     OW14890   0.162   4.457   6.671 -0.0351  0.4025  0.0426
 1143SOL    HW114891   0.234   4.503   6.628  0.4771  0.2125  0.6932
 1143SOL    HW214892   0.173   4.369   6.635  0.1921 -0.1394  1.4293
 1144SOL     OW14893   1.070   4.624   9.013  0.0824 -0.2238  0.1599
 1144SOL    HW114894   1.123   4.555   9.055  0.0966 -0.7046 -0.6615
 1144SOL    HW214895   0.992   4.622   9.069  0.3938  2.5651  0.6894
 1145SOL     OW14896   0.812   3.608   5.311  0.2035 -0.5911 -0.4815
 1145SOL    HW114897   0.829   3.689   5.263  0.0176 -0.7436 -0.8093
 1145SOL    HW214898   0.735   3.568   5.269  0.5335 -0.6593 -1.0229
 1146SOL     OW14899   4.031   2.644  16.942 -0.0491  0.2853  0.3168
 1146SOL    HW114900   4.093   2.642  16.869  1.3091  2.2790  1.3995
 1146SOL    HW214901   3.978   2.565  16.931 -1.2125  1.1531 -0.2283
 1147SOL     OW14902   1.335   0.912   2.571 -0.4087  0.1310  0.4697
 1147SOL    HW114903   1.330   1.001   2.606  0.6843  0.2098  0.4231
 1147SOL    HW214904   1.243   0.903   2.547 -0.2630  1.4576 -0.5484
 1148SOL     OW14905   1.971   3.280   9.633 -0.4992 -0.1831 -0.5070
 1148SOL    HW114906   1.899   3.342   9.642  0.8016  1.4111 -1.2210
 1148SOL    HW214907   1.913   3.212   9.599 -0.7185  0.6869 -1.8375
 1149SOL     OW14908   0.499   2.376   4.911  0.6506 -0.5103  0.1384
 1149SOL    HW114909   0.557   2.355   4.985  2.0471 -2.8979 -1.6696
 1149SOL    HW214910   0.529   2.316   4.844  2.4839  0.3989  0.1305
 1150SOL     OW14911   0.696   2.907   7.091 -0.3765 -0.3231  0.0706
 1150SOL    HW114912   0.666   2.977   7.033 -0.5812 -2.7093 -2.6770
 1150SOL    HW214913   0.665   2.830   7.044 -0.5188 -0.8232  0.9994
 1151SOL     OW14914   1.411   3.864  17.479 -0.1512 -0.7432 -0.2165
 1151SOL    HW114915   1.330   3.909  17.457 -1.0713 -2.4542 -0.3496
 1151SOL    HW214916   1.451   3.920  17.546  1.0212  0.6909 -2.1278
 1152SOL     OW14917   0.352   2.368   3.852 -0.0032  0.5420  0.4480
 1152SOL    HW114918   0.430   2.353   3.799  0.0785  0.0784  0.7003
 1152SOL    HW214919   0.374   2.328   3.936  3.4336  0.3585 -0.5660
 1153SOL     OW14920   2.486   1.530   8.064 -0.0483 -0.1014 -0.0801
 1153SOL    HW114921   2.505   1.576   7.982 -0.5510  1.1507  0.5135
 1153SOL    HW214922   2.574   1.505   8.093  0.9967  1.0541 -2.3206
 1154SOL     OW14923   3.924   1.627  12.088  0.0934  0.0375  0.0442
 1154SOL    HW114924   3.896   1.611  11.998 -0.6907 -0.1591  0.3177
 1154SOL    HW214925   3.975   1.548  12.104 -2.2726 -1.8336 -1.5577
 1155SOL     OW14926   0.091   3.745   6.537 -0.3650 -0.2100  0.7302
 1155SOL    HW114927   0.069   3.652   6.550 -1.1751 -0.3079 -1.4627
 1155SOL    HW214928   0.168   3.747   6.594 -0.6133  0.5160  1.0396
 1156SOL     OW14929   1.449   3.630  11.016  0.7915  0.3322 -0.4698
 1156SOL    HW114930   1.472   3.543  10.982  0.7090  0.4709 -0.8926
 1156SOL    HW214931   1.530   3.679  11.006  1.3978 -0.3818  1.0480
 1157SOL     OW14932   0.086   2.410   4.705 -0.0176 -0.4908 -0.3015
 1157SOL    HW114933   0.044   2.325   4.717  0.5585 -0.9520 -1.5683
 1157SOL    HW214934   0.091   2.417   4.610  0.2186 -2.3327 -0.4220
 1158SOL     OW14935   0.263   1.234   7.195 -0.2822 -0.0688 -0.9767
 1158SOL    HW114936   0.251   1.321   7.156 -0.9028 -0.6831 -2.1778
 1158SOL    HW214937   0.351   1.241   7.230 -1.3080 -0.3706  1.6384
 1159SOL     OW14938   0.505   4.314   2.998 -0.6802  0.1249 -0.4011
 1159SOL    HW114939   0.576   4.305   3.061 -1.4284 -1.1160  0.2621
 1159SOL    HW214940   0.443   4.366   3.049  0.0756 -0.1321  0.7851
 1160SOL     OW14941   1.630   0.601   4.335 -0.2500 -0.5673 -0.1185
 1160SOL    HW114942   1.670   0.650   4.263  0.4400  0.0102  0.6393
 1160SOL    HW214943   1.549   0.645   4.360  1.3958  2.6423 -0.3348
 1161SOL     OW14944   2.049   3.192   2.868 -0.6936  0.0227  0.3393
 1161SOL    HW114945   2.049   3.137   2.946 -0.8244 -1.6895 -0.8543
 1161SOL    HW214946   1.956   3.191   2.845 -0.9907 -1.2883  1.6133
 1162SOL     OW14947   0.801   3.362   2.077 -0.2811 -0.0951  0.2494
 1162SOL    HW114948   0.886   3.325   2.101 -1.2951 -4.8945 -3.3407
 1162SOL    HW214949   0.779   3.413   2.154 -1.5366 -1.2242  0.6289
 1163SOL     OW14950   0.191   2.408   4.111  0.5858 -0.7001  0.4019
 1163SOL    HW114951   0.106   2.388   4.149 -0.5468  0.6964 -1.4049
 1163SOL    HW214952   0.167   2.486   4.060  0.4697 -0.2741  1.1073
 1164SOL     OW14953   0.606   3.451   4.762  0.2602 -0.9722 -0.4000
 1164SOL    HW114954   0.648   3.521   4.712 -0.2822  1.7347  2.9325
 1164SOL    HW214955   0.609   3.367   4.716  0.2262 -1.9491  1.3856
 1165SOL     OW14956   1.809   4.610   6.808 -0.1405  0.7412  0.4719
 1165SOL    HW114957   1.826   4.608   6.902  1.7428  0.9286  0.1287
 1165SOL    HW214958   1.793   4.704   6.800  1.5637  0.8324 -1.9378
 1166SOL     OW14959   1.089   3.770   6.633  0.2290 -0.2467  0.6456
 1166SOL    HW114960   1.107   3.853   6.589  1.3119 -0.4694  0.6697
 1166SOL    HW214961   1.139   3.715   6.574 -1.2877  1.0657 -1.8935
 1167SOL     OW14962   1.032   3.579   4.341 -0.4296  0.2472 -0.1719
 1167SOL    HW114963   0.985   3.542   4.416  0.5560 -1.5052 -0.4153
 1167SOL    HW214964   1.124   3.581   4.368 -0.4952  1.5729 -0.0414
 1168SOL     OW14965   3.044   3.165   0.578 -0.2482 -0.4178  0.2185
 1168SOL    HW114966   3.092   3.178   0.660  0.0954  3.6904 -0.6414
 1168SOL    HW214967   3.104   3.212   0.520  1.2235 -0.6848  1.5163
 1169SOL     OW14968   1.953   4.444  12.929 -0.6125 -0.0241  0.0633
 1169SOL    HW114969   2.008   4.397  12.866 -0.1624 -3.2734  2.8388
 1169SOL    HW214970   1.944   4.383  13.003  0.8105  1.8547  1.7952
 1170SOL     OW14971   4.154   2.789   3.863 -0.8007 -0.0398 -0.2892
 1170SOL    HW114972   4.119   2.714   3.816  0.7762  0.1895 -1.8104
 1170SOL    HW214973   4.136   2.859   3.800 -0.3905  0.8466  0.5679
 1171SOL     OW14974   3.356   1.054  17.259  0.2544  0.6836 -0.0940
 1171SOL    HW114975   3.392   1.092  17.339  1.1099 -0.4934  0.0798
 1171SOL    HW214976   3.437   1.028  17.217 -0.9230 -1.6589 -0.9455
 1172SOL     OW14977   1.534   0.273   5.133  1.0776 -0.2541  0.1401
 1172SOL    HW114978   1.521   0.273   5.228  0.4487 -1.6186  0.0585
 1172SOL    HW214979   1.479   0.207   5.090  0.1991  0.4973  0.1362
 1173SOL     OW14980   1.230   4.480   5.301  0.2985 -0.2438  0.1188
 1173SOL    HW114981   1.188   4.542   5.360 -2.4403 -0.2913 -1.7888
 1173SOL    HW214982   1.179   4.471   5.221  0.0666 -1.6186  0.4174
 1174SOL     OW14983   1.540   3.400   2.006  0.9836  0.1701 -0.6979
 1174SOL    HW114984   1.555   3.324   1.951  1.4989  1.0413 -1.7516
 1174SOL    HW214985   1.446   3.401   2.025  1.6017  1.5039  2.3170
 1175SOL     OW14986   0.940   3.359   4.450 -0.5659 -0.0587  0.3162
 1175SOL    HW114987   0.883   3.303   4.397 -1.8339  0.1226  1.5019
 1175SOL    HW214988   0.951   3.303   4.527 -4.2922  0.9139  1.5252
 1176SOL     OW14989   0.010   3.294   9.012  0.8617  0.3999  0.4491
 1176SOL    HW114990   0.080   3.360   9.011  1.2102  0.0029 -1.1219
 1176SOL    HW214991   0.049   3.224   8.959  0.1779 -1.0388  1.8356
 1177SOL     OW14992   1.371   0.973   5.942  0.1087  0.1179  0.1312
 1177SOL    HW114993   1.414   1.005   6.021  2.2786 -0.9091 -0.6263
 1177SOL    HW214994   1.398   1.040   5.879 -1.1368  0.7126  0.2398
 1178SOL     OW14995   0.551   3.017   0.230 -0.3046 -0.3212  0.0613
 1178SOL    HW114996   0.633   2.968   0.221 -1.2092 -1.5409 -1.3794
 1178SOL    HW214997   0.589   3.086   0.284 -1.0290 -0.0379  0.2117
 1179SOL     OW14998   4.441   4.421  13.916  0.3067  0.2959 -0.0019
 1179SOL    HW114999   4.384   4.451  13.845 -1.4097 -1.0724  0.8124
 1179SOL    HW215000   4.412   4.333  13.940  0.0505  0.4816  0.3717
 1180SOL     OW15001   3.742   2.610   0.310  0.1522 -0.1825  0.5067
 1180SOL    HW115002   3.681   2.561   0.256  1.4143 -0.1009 -0.9869
 1180SOL    HW215003   3.795   2.538   0.344 -0.8912 -0.3562  1.7383
 1181SOL     OW15004   2.579   0.443   6.510 -0.0015 -0.2663 -0.0320
 1181SOL    HW115005   2.602   0.363   6.464  1.2753 -1.0805  2.0176
 1181SOL    HW215006   2.617   0.431   6.597 -1.3188 -2.5318  0.2455
 1182SOL     OW15007   3.245   0.837   1.986 -0.2535  0.6170 -0.0745
 1182SOL    HW115008   3.166   0.794   1.952  2.0587 -3.0599 -0.8776
 1182SOL    HW215009   3.222   0.928   1.972 -0.8123  0.3436 -0.9552
 1183SOL     OW15010   3.209   1.989   1.275  0.0426  0.0053 -0.0134
 1183SOL    HW115011   3.286   1.936   1.252  0.2218  0.4473 -0.4298
 1183SOL    HW215012   3.229   2.074   1.236 -0.7366  1.0151  1.7994
 1184SOL     OW15013   0.349   0.878   7.029 -0.5438 -0.3540  0.3029
 1184SOL    HW115014   0.258   0.850   7.039  0.0376 -1.9691  0.9771
 1184SOL    HW215015   0.387   0.795   7.001 -1.5807 -1.6320  2.7133
 1185SOL     OW15016   2.144   2.930  13.473  0.5871 -0.3439  0.8291
 1185SOL    HW115017   2.211   2.945  13.539  0.7018 -1.6553  1.0102
 1185SOL    HW215018   2.194   2.894  13.400  0.0777 -0.2709  0.4434
 1186SOL     OW15019   3.328   3.000   7.526 -0.1122  0.0525 -0.0330
 1186SOL    HW115020   3.410   2.952   7.536 -1.3392 -2.2152 -0.6812
 1186SOL    HW215021   3.357   3.071   7.469 -0.9171  1.4144  1.2547
 1187SOL     OW15022   0.540   3.260   5.720  0.3458  0.1446  0.3694
 1187SOL    HW115023   0.503   3.176   5.692  0.9881 -0.7404  2.1547
 1187SOL    HW215024   0.500   3.266   5.807  0.3383  2.9320  0.1541
 1188SOL     OW15025   2.357   1.148   0.586 -0.6570 -0.1268  0.3518
 1188SOL    HW115026   2.356   1.226   0.530 -0.0738  0.6733  1.4726
 1188SOL    HW215027   2.343   1.090   0.511 -0.5438 -1.9710  1.7635
 1189SOL     OW15028   0.513   3.771   7.822  0.1418  0.0902 -0.2523
 1189SOL    HW115029   0.603   3.738   7.823 -0.2966 -1.0638  0.7463
 1189SOL    HW215030   0.483   3.723   7.899 -0.4269  0.0866 -0.4825
 1190SOL     OW15031   2.480   3.075  10.494 -0.1057 -0.5416  0.0677
 1190SOL    HW115032   2.478   3.117  10.580  1.4710  0.2495 -0.2835
 1190SOL    HW215033   2.387   3.090  10.476 -0.1408 -1.2432 -0.3200
 1191SOL     OW15034   0.309   0.933   9.012 -0.1335 -0.6416  0.6599
 1191SOL    HW115035   0.312   1.001   9.080 -1.0629 -1.6576  1.7224
 1191SOL    HW215036   0.403   0.916   9.013 -0.6708 -3.6049 -0.7656
 1192SOL     OW15037   0.334   2.219   5.576 -0.5234  0.4461 -0.4867
 1192SOL    HW115038   0.288   2.271   5.511 -1.3582 -1.6834 -1.5695
 1192SOL    HW215039   0.356   2.296   5.629 -3.1504  1.3258 -0.6963
 1193SOL     OW15040   0.315   3.617  13.218 -0.2952 -0.3950  0.3750
 1193SOL    HW115041   0.410   3.610  13.210  0.0905  2.9859  1.6343
 1193SOL    HW215042   0.297   3.545  13.279  0.6414 -1.0805 -0.1695
 1194SOL     OW15043   3.543   4.025   1.673 -0.0156 -0.1342 -0.3188
 1194SOL    HW115044   3.624   3.985   1.641  1.4734 -0.6208  4.0505
 1194SOL    HW215045   3.551   3.997   1.765 -1.2244 -2.8475 -1.0508
 1195SOL     OW15046   4.658   4.139  16.448 -0.2413  0.0315 -0.1710
 1195SOL    HW115047   4.694   4.227  16.462  2.3116 -0.9533 -0.6797
 1195SOL    HW215048   4.667   4.118  16.355 -0.6490 -2.0093  0.2542
 1196SOL     OW15049   0.593   4.346  13.763  0.2753  0.2500  0.2477
 1196SOL    HW115050   0.523   4.284  13.743  0.4270  0.3198 -0.4989
 1196SOL    HW215051   0.662   4.320  13.701  1.7187  0.5303  1.7335
 1197SOL     OW15052   2.944   1.234   2.671 -0.5469 -0.3932 -0.2679
 1197SOL    HW115053   2.939   1.326   2.699  1.3255 -0.1496 -0.7239
 1197SOL    HW215054   3.014   1.232   2.606  0.4903  2.1755  0.7622
 1198SOL     OW15055   3.513   1.117   1.063  0.1111  0.4688  0.3815
 1198SOL    HW115056   3.547   1.100   1.151  3.8505 -3.0405 -1.7422
 1198SOL    HW215057   3.535   1.210   1.059 -1.7772  0.9648  1.5144
 1199SOL     OW15058   0.921   3.694  12.022  0.0343 -1.1075  0.2026
 1199SOL    HW115059   0.964   3.610  12.002  3.3420  0.8909 -1.1140
 1199SOL    HW215060   0.990   3.744  12.066  0.0649 -1.7264  0.8552
 1200SOL     OW15061   3.404   1.693   8.161 -0.2930  0.2265  0.1581
 1200SOL    HW115062   3.340   1.621   8.160 -0.9129  0.7814  0.4281
 1200SOL    HW215063   3.480   1.674   8.106  0.4864  0.0326  1.3000
 1201SOL     OW15064   3.672   1.821  11.949 -0.3017 -0.2899  0.1722
 1201SOL    HW115065   3.745   1.805  12.008  0.2340 -0.5240 -0.5563
 1201SOL    HW215066   3.709   1.822  11.861  0.0294 -1.5084  0.3068
 1202SOL     OW15067   4.036   2.644   2.612 -0.3128  0.7656 -0.9167
 1202SOL    HW115068   3.964   2.672   2.555  0.5477  1.1478 -1.8178
 1202SOL    HW215069   4.102   2.712   2.598  0.6345  0.2511  1.1399
 1203SOL     OW15070   0.882   1.216  14.616 -0.5964 -0.0096  0.0218
 1203SOL    HW115071   0.826   1.259  14.681  1.1501  1.3601  0.6408
 1203SOL    HW215072   0.939   1.166  14.674 -1.2607 -2.6772 -1.6190
 1204SOL     OW15073   2.549   0.683   1.506 -0.5541 -0.0885  0.0741
 1204SOL    HW115074   2.499   0.706   1.584 -1.3263  0.9250 -0.7192
 1204SOL    HW215075   2.613   0.620   1.538 -1.6913 -0.4522  1.6358
 1205SOL     OW15076   4.527   2.124   2.573 -0.1406  0.2017 -0.2372
 1205SOL    HW115077   4.440   2.088   2.558 -0.3572  1.2495 -1.5151
 1205SOL    HW215078   4.561   2.086   2.493  0.1260  1.7106 -0.8492
 1206SOL     OW15079   3.820   2.821   2.617 -0.3691 -0.1419  0.1358
 1206SOL    HW115080   3.863   2.899   2.652 -2.5736  1.0756  0.1601
 1206SOL    HW215081   3.808   2.765   2.694 -2.0307  2.7417  1.9481
 1207SOL     OW15082   4.367   2.787   6.087 -0.5486 -0.6243  0.2866
 1207SOL    HW115083   4.445   2.761   6.039  1.0960  1.5984  1.7502
 1207SOL    HW215084   4.295   2.781   6.025 -1.1772  0.4881  0.9015
 1208SOL     OW15085   0.826   1.168   9.150 -0.5888 -0.1203  0.0401
 1208SOL    HW115086   0.898   1.230   9.136  0.4786 -0.5504  3.7526
 1208SOL    HW215087   0.881   1.105   9.197 -0.5695 -1.7929 -2.2376
 1209SOL     OW15088   4.432   4.175   1.886  0.5103 -0.1704 -0.1012
 1209SOL    HW115089   4.395   4.142   1.968  1.5809  0.9432  0.8232
 1209SOL    HW215090   4.527   4.168   1.900  0.6409 -2.3069 -2.0595
 1210SOL     OW15091   2.575   3.670   3.846 -0.2057  0.1021 -0.1690
 1210SOL    HW115092   2.492   3.624   3.852 -1.3241  1.9751 -1.2279
 1210SOL    HW215093   2.528   3.753   3.838  0.1554  0.3249 -0.0088
 1211SOL     OW15094   4.635   0.000   1.038 -0.1652 -0.1652 -0.4380
 1211SOL    HW115095   4.603   4.670   1.112 -0.2724  0.6155  0.0738
 1211SOL    HW215096   0.006   0.005   1.055 -0.2914  2.2441 -0.4114
 1212SOL     OW15097   0.708   3.325   5.043 -0.5012 -0.0424 -0.1765
 1212SOL    HW115098   0.666   3.406   5.014 -0.5080 -0.6241 -1.7869
 1212SOL    HW215099   0.794   3.342   5.006 -0.1168 -1.8591 -0.1358
 1213SOL     OW15100   2.592   2.706  16.248 -0.1160 -0.4453  0.2405
 1213SOL    HW115101   2.577   2.643  16.318 -0.2535  0.3732  0.9470
 1213SOL    HW215102   2.638   2.776  16.295 -3.0685  1.3631  0.4553
 1214SOL     OW15103   3.541   2.900   7.985  0.0564  0.0876  0.3141
 1214SOL    HW115104   3.537   2.963   7.913 -0.1608 -0.9152 -0.5467
 1214SOL    HW215105   3.591   2.831   7.940  0.3836  1.4869 -1.4623
 1215SOL     OW15106   3.815   2.654  13.944  0.0884  0.5576 -0.0180
 1215SOL    HW115107   3.789   2.597  13.871 -1.6929  1.4296 -0.0678
 1215SOL    HW215108   3.848   2.593  14.009 -0.5370 -0.3700 -0.5724
 1216SOL     OW15109   3.490   4.258   5.997  0.0005  0.7218  0.6065
 1216SOL    HW115110   3.435   4.221   6.067 -1.7551 -2.7016 -2.5888
 1216SOL    HW215111   3.525   4.179   5.956 -2.0280  0.1523 -0.0376
 1217SOL     OW15112   2.752   0.521   2.076 -0.3580  0.5457 -0.5341
 1217SOL    HW115113   2.701   0.440   2.075  3.1053 -1.6694  0.1297
 1217SOL    HW215114   2.694   0.586   2.115  0.3209  1.1549 -0.5479
 1218SOL     OW15115   3.407   0.983   4.916 -0.2303 -0.2264 -0.3859
 1218SOL    HW115116   3.478   0.985   4.852  0.1583  2.5341  0.1166
 1218SOL    HW215117   3.338   1.024   4.863 -0.0300 -0.3723 -0.7569
 1219SOL     OW15118   3.252   0.387   8.572  0.1483 -0.2037 -0.2235
 1219SOL    HW115119   3.347   0.387   8.555  0.5850  0.0635  2.2786
 1219SOL    HW215120   3.250   0.441   8.650  1.9576  0.2999 -0.5223
 1220SOL     OW15121   0.660   3.884  10.961  0.0535 -0.3251  0.2316
 1220SOL    HW115122   0.596   3.867  10.892 -1.0028 -2.1864  1.6462
 1220SOL    HW215123   0.738   3.841  10.926  0.1153 -0.5215  0.6120
 1221SOL     OW15124   1.103   4.273  15.068 -0.3491 -0.2808  0.2497
 1221SOL    HW115125   1.142   4.346  15.019 -1.7629 -1.2892 -2.3852
 1221SOL    HW215126   1.108   4.312  15.156  0.6486 -0.2610  0.1858
 1222SOL     OW15127   3.142   0.815   2.312  0.2922  0.0275  0.2805
 1222SOL    HW115128   3.138   0.898   2.263 -0.7989  0.8462  1.7575
 1222SOL    HW215129   3.224   0.819   2.362  0.8368 -0.7133 -0.5581
 1223SOL     OW15130   4.530   2.514   5.179 -0.3913 -0.2831  0.6182
 1223SOL    HW115131   4.566   2.564   5.106  0.1635 -0.9813  0.4157
 1223SOL    HW215132   4.522   2.577   5.251 -0.2463  0.1374  0.2694
 1224SOL     OW15133   4.682   0.182   5.954 -0.0556  0.6473 -0.1667
 1224SOL    HW115134   0.034   0.237   5.979  1.1057 -0.5386 -0.9998
 1224SOL    HW215135   4.636   0.171   6.037 -2.0452 -2.8301 -1.7419
 1225SOL     OW15136   3.456   4.034   5.172  0.9842 -0.3258  0.2101
 1225SOL    HW115137   3.512   4.055   5.247 -1.3449  1.0131  1.5916
 1225SOL    HW215138   3.507   4.081   5.106  1.9690 -0.0663  1.1621
 1226SOL     OW15139   1.769   1.319   6.768  0.0041 -0.2565  0.3278
 1226SOL    HW115140   1.704   1.252   6.748  0.0026  0.6450 -2.7231
 1226SOL    HW215141   1.849   1.270   6.751  1.4229  1.8180  1.0387
 1227SOL     OW15142   1.992   3.185   0.400 -0.4257  0.3346  0.2767
 1227SOL    HW115143   1.958   3.096   0.391 -1.4743  0.5701  1.9291
 1227SOL    HW215144   1.905   3.224   0.395  0.3506  1.9802 -0.1648
 1228SOL     OW15145   3.766   0.677   9.626  0.5276  0.9610  0.6271
 1228SOL    HW115146   3.740   0.734   9.554  0.8555  1.7973  1.1792
 1228SOL    HW215147   3.859   0.660   9.615  0.0102 -1.2924 -0.4134
 1229SOL     OW15148   3.191   0.872   8.587  0.1955 -0.3972 -0.1139
 1229SOL    HW115149   3.190   0.788   8.632 -1.7966  0.5460  1.5864
 1229SOL    HW215150   3.260   0.924   8.628  1.2022 -1.1602 -0.7990
 1230SOL     OW15151   1.803   3.349   4.380  0.1605  0.1734 -0.1094
 1230SOL    HW115152   1.855   3.276   4.344  1.8326  0.8208  1.0026
 1230SOL    HW215153   1.867   3.420   4.383 -0.0867  0.4578 -1.5150
 1231SOL     OW15154   1.430   0.022   0.933 -0.1086 -0.3569  0.6196
 1231SOL    HW115155   1.412   4.670   0.990 -1.3812  0.4916  1.3228
 1231SOL    HW215156   1.438   4.694   0.852  1.7425 -0.6076  0.9658
 1232SOL     OW15157   1.014   1.331   8.137  0.2320 -0.1974 -0.4567
 1232SOL    HW115158   0.931   1.336   8.091 -0.4354 -1.8218  0.5819
 1232SOL    HW215159   1.006   1.244   8.176 -0.4396 -0.4498 -1.1591
 1233SOL     OW15160   0.830   2.112   2.745 -0.3876  0.5519  0.3674
 1233SOL    HW115161   0.808   2.206   2.747  0.2748  0.7402 -1.3943
 1233SOL    HW215162   0.825   2.089   2.837 -0.9505 -1.7748 -0.2621
 1234SOL     OW15163   2.290   3.379   8.014  0.9349 -0.4106  0.1237
 1234SOL    HW115164   2.292   3.323   8.092  0.1305  0.7591  0.9880
 1234SOL    HW215165   2.350   3.327   7.960 -1.1887 -0.4634 -2.1400
 1235SOL     OW15166   0.754   3.642   7.813 -0.4116 -0.2021  0.3172
 1235SOL    HW115167   0.767   3.585   7.888 -1.9422  0.1952  0.8811
 1235SOL    HW215168   0.815   3.600   7.752 -1.4865  1.4078 -1.8854
 1236SOL     OW15169   4.072   4.613   5.612  0.1057 -0.4977 -0.3460
 1236SOL    HW115170   3.991   4.585   5.655 -0.4729  0.3553 -0.8775
 1236SOL    HW215171   4.140   4.570   5.664  1.1437  2.7994  1.0724
 1237SOL     OW15172   3.693   0.108  10.776 -0.6067 -0.3389  0.1862
 1237SOL    HW115173   3.709   0.135  10.866  1.1352 -0.5842 -0.0534
 1237SOL    HW215174   3.624   0.167  10.746  1.3576  0.5873 -2.5145
 1238SOL     OW15175   3.084   1.780   3.337 -0.3548  0.2189  0.2280
 1238SOL    HW115176   3.136   1.744   3.409  0.3743  1.2498  0.2192
 1238SOL    HW215177   3.078   1.871   3.366  0.8178 -0.5211  2.7976
 1239SOL     OW15178   3.409   1.793   3.223  0.0098  0.0221  0.6590
 1239SOL    HW115179   3.365   1.857   3.167  1.5323  0.2681 -0.2738
 1239SOL    HW215180   3.343   1.787   3.292  0.7252 -0.4249  1.3026
 1240SOL     OW15181   3.882   2.267   2.609  0.1238 -0.1328 -0.2814
 1240SOL    HW115182   3.794   2.229   2.610  0.1561 -0.1313  1.6362
 1240SOL    HW215183   3.865   2.344   2.554 -0.2003 -0.3212 -0.4456
 1241SOL     OW15184   2.117   1.977   1.947 -0.4751  0.1448 -0.3287
 1241SOL    HW115185   2.083   1.891   1.920  1.3097 -0.5102 -0.5152
 1241SOL    HW215186   2.205   1.982   1.911 -0.6286 -0.1271 -0.7532
 1242SOL     OW15187   3.022   1.067   4.178  0.3222 -0.2945 -0.3149
 1242SOL    HW115188   2.939   1.042   4.220  1.4339  1.4587  2.8767
 1242SOL    HW215189   2.983   1.127   4.115  1.6816  1.6594  0.7156
 1243SOL     OW15190   3.185   1.967   5.735 -0.1485 -0.5024 -0.4276
 1243SOL    HW115191   3.238   2.047   5.735 -0.9221  0.0141 -1.8393
 1243SOL    HW215192   3.130   1.982   5.812 -0.0723 -0.4534 -0.3834
 1244SOL     OW15193   3.042   1.959   5.019  0.4240  0.0539 -0.0533
 1244SOL    HW115194   3.063   1.972   4.926 -1.0214  0.2118 -0.3582
 1244SOL    HW215195   3.106   1.891   5.039  2.6570  2.7161  1.8827
 1245SOL     OW15196   1.726   0.520   0.829  0.3663 -0.1382 -0.2569
 1245SOL    HW115197   1.678   0.451   0.874  1.2673 -0.3775  0.3338
 1245SOL    HW215198   1.659   0.588   0.824 -0.2309 -0.6080  1.6080
 1246SOL     OW15199   3.161   1.642   3.112  0.1607  1.0177 -0.3881
 1246SOL    HW115200   3.109   1.694   3.051 -0.0557  0.1243 -0.9654
 1246SOL    HW215201   3.129   1.676   3.195 -0.6976 -1.0375  0.1323
 1247SOL     OW15202   2.419   2.445   3.979 -0.5674  0.1119  0.4678
 1247SOL    HW115203   2.414   2.515   3.914  0.4944  0.2862  0.5863
 1247SOL    HW215204   2.370   2.484   4.052  0.1948 -0.5089  1.3171
 1248SOL     OW15205   1.178   0.895   4.454 -0.7568  0.6977 -0.5866
 1248SOL    HW115206   1.091   0.859   4.439 -1.3175  0.7622  2.3937
 1248SOL    HW215207   1.159   0.981   4.492 -1.8745  1.1250 -2.1355
 1249SOL     OW15208   4.282   3.893   8.541 -0.3694 -0.4107 -0.1680
 1249SOL    HW115209   4.189   3.904   8.523 -0.7406 -3.4578 -0.0131
 1249SOL    HW215210   4.319   3.980   8.525 -0.5833 -0.2185  0.3909
 1250SOL     OW15211   4.173   0.181   3.956 -0.4512  0.0025 -0.3850
 1250SOL    HW115212   4.080   0.204   3.956  0.1586  2.4567 -1.6927
 1250SOL    HW215213   4.179   0.125   4.033 -1.2526 -1.2524 -1.2467
 1251SOL     OW15214   2.957   3.269   0.239 -0.3462 -0.5105 -0.4746
 1251SOL    HW115215   3.019   3.232   0.300  1.5730  3.4625  0.0184
 1251SOL    HW215216   3.018   3.309   0.177  0.6003  0.6222  1.2004
 1252SOL     OW15217   1.850   3.622  16.397  0.3552 -0.2847 -0.1681
 1252SOL    HW115218   1.866   3.647  16.488 -2.2610 -2.5662  0.9252
 1252SOL    HW215219   1.857   3.527  16.408  0.8457 -0.4430 -1.7913
 1253SOL     OW15220   0.892   4.465  12.956 -0.6781  0.6297 -0.0341
 1253SOL    HW115221   0.864   4.377  12.981  0.0512 -0.4119 -2.9968
 1253SOL    HW215222   0.924   4.501  13.039 -0.8598 -0.4038  0.4856
 1254SOL     OW15223   0.947   2.084   7.022  0.9444  0.1082  0.0371
 1254SOL    HW115224   1.017   2.084   7.086  1.5330 -1.0952 -0.6231
 1254SOL    HW215225   0.987   2.059   6.939 -0.9050 -0.3295 -0.7433
 1255SOL     OW15226   3.785   0.005   0.087 -0.0654 -0.4079  0.0341
 1255SOL    HW115227   3.704   0.034   0.045 -0.0293 -1.2221 -0.6019
 1255SOL    HW215228   3.764   0.045   0.172 -2.3685 -2.8057  0.6071
 1256SOL     OW15229   2.046   4.452  14.689 -0.7236  0.0462 -0.2172
 1256SOL    HW115230   2.073   4.377  14.635  0.3567  0.1142  0.2326
 1256SOL    HW215231   1.964   4.425  14.731  0.0049 -0.1249  1.0989
 1257SOL     OW15232   0.237   0.149   8.407 -0.5229  0.0873  0.1643
 1257SOL    HW115233   0.207   0.179   8.321  0.2512 -0.0172 -0.1405
 1257SOL    HW215234   0.315   0.204   8.412 -1.0705  0.9331 -0.5932
 1258SOL     OW15235   2.032   2.957   6.722 -0.1172  0.5811 -0.1051
 1258SOL    HW115236   1.971   2.897   6.763  2.2078 -1.0305  1.0262
 1258SOL    HW215237   1.994   3.044   6.732  1.0023  0.9500  0.9614
 1259SOL     OW15238   2.908   2.019   8.590 -0.2349 -0.5940  0.0158
 1259SOL    HW115239   2.981   1.961   8.572  0.8732  0.2397  1.8252
 1259SOL    HW215240   2.838   1.958   8.611 -0.0682 -0.7601  0.0861
 1260SOL     OW15241   4.212   1.446   6.708 -0.9256 -0.3288  0.1249
 1260SOL    HW115242   4.280   1.496   6.754 -0.6105 -1.6463  1.0928
 1260SOL    HW215243   4.142   1.446   6.773 -0.7665 -2.2392  0.2981
 1261SOL     OW15244   1.309   0.837   3.813  0.0329 -0.6276  0.0563
 1261SOL    HW115245   1.361   0.863   3.889  0.6044 -1.1062 -0.1670
 1261SOL    HW215246   1.347   0.873   3.732  0.0335 -0.3654  0.1744
 1262SOL     OW15247   4.345   2.940   5.138 -0.4567  0.1230 -0.0370
 1262SOL    HW115248   4.325   2.962   5.229 -0.4077  1.1509 -0.2696
 1262SOL    HW215249   4.300   3.008   5.086  0.6191  0.7181 -0.1984
 1263SOL     OW15250   3.845   0.179   3.324 -0.2001 -0.1536 -0.0141
 1263SOL    HW115251   3.787   0.252   3.300  0.5212 -0.0505 -1.4511
 1263SOL    HW215252   3.787   0.106   3.303  0.6903 -0.9010  0.1535
 1264SOL     OW15253   4.491   4.412   7.593 -0.1628  0.1289 -0.2792
 1264SOL    HW115254   4.529   4.415   7.681  1.1044 -2.5741 -0.7528
 1264SOL    HW215255   4.514   4.499   7.559  0.5421 -0.5552 -1.5302
 1265SOL     OW15256   3.206   0.878   6.018  0.3818  0.4746 -0.1857
 1265SOL    HW115257   3.261   0.922   5.953 -0.4920 -0.1621 -1.3509
 1265SOL    HW215258   3.267   0.880   6.092 -0.0535 -1.1288  0.2030
 1266SOL     OW15259   0.922   2.130   5.935 -0.7459  0.2952  0.7090
 1266SOL    HW115260   0.976   2.208   5.942 -1.6965  0.9544  0.6938
 1266SOL    HW215261   0.832   2.163   5.933 -1.4226 -1.5356  0.8096
 1267SOL     OW15262   1.868   2.373   7.646 -0.0113 -0.2731  0.3197
 1267SOL    HW115263   1.938   2.378   7.581  1.2854 -0.9167  1.6713
 1267SOL    HW215264   1.901   2.416   7.725  0.4654  0.0412 -0.0528
 1268SOL     OW15265   3.206   2.546   6.482 -0.2370  0.0703 -0.4044
 1268SOL    HW115266   3.146   2.496   6.538 -0.6420  0.5130 -0.4400
 1268SOL    HW215267   3.150   2.552   6.405 -0.8989 -2.2327 -0.1186
 1269SOL     OW15268   3.773   3.793   2.488 -0.3930  0.0646 -0.1407
 1269SOL    HW115269   3.783   3.767   2.397 -2.3945 -0.5903 -0.1950
 1269SOL    HW215270   3.691   3.746   2.504 -0.5359 -0.0225 -1.1364
 1270SOL     OW15271   0.967   0.210   5.706 -0.1184 -0.0902 -0.5500
 1270SOL    HW115272   0.968   0.189   5.800 -1.1058 -1.7784 -0.9163
 1270SOL    HW215273   0.983   0.304   5.713  0.0012  0.0209 -2.3137
 1271SOL     OW15274   1.607   0.324   8.285 -0.1667 -0.0705  0.1908
 1271SOL    HW115275   1.614   0.287   8.373 -0.1502 -0.0631  0.1925
 1271SOL    HW215276   1.512   0.330   8.273  0.2118  1.2961 -2.0826
 1272SOL     OW15277   1.092   2.387  17.454  0.5097  0.2318 -0.0004
 1272SOL    HW115278   1.043   2.444  17.395 -0.7118  0.5371  1.2924
 1272SOL    HW215279   1.010   2.363  17.498 -1.1272  2.8749 -1.6166
 1273SOL     OW15280   0.049   0.941   2.790  0.3335 -0.6287  0.0238
 1273SOL    HW115281   0.025   1.028   2.759  0.1365 -0.9033 -0.5970
 1273SOL    HW215282   0.011   0.937   2.878 -2.8203  0.8927 -1.2848
 1274SOL     OW15283   3.855   3.098   8.683  0.2255 -0.3329 -0.6110
 1274SOL    HW115284   3.801   3.177   8.684  0.2557 -0.3184  0.0173
 1274SOL    HW215285   3.819   3.037   8.748  1.2259  0.4802  0.7159
 1275SOL     OW15286   1.142   4.592   0.865  0.0030  0.5341 -0.7344
 1275SOL    HW115287   1.171   4.585   0.955  1.0308 -0.6217 -1.1517
 1275SOL    HW215288   1.205   4.538   0.817 -2.1896 -2.3144 -0.3846
 1276SOL     OW15289   1.934   3.565  15.388  0.1349 -0.0445  0.0497
 1276SOL    HW115290   2.019   3.527  15.366 -0.4300 -1.0267 -0.4520
 1276SOL    HW215291   1.882   3.547  15.309 -0.1013 -0.3248  0.2726
 1277SOL     OW15292   1.112   1.342   4.786  0.0298 -0.2535 -0.2007
 1277SOL    HW115293   1.155   1.412   4.835  1.9964 -0.5823 -1.4682
 1277SOL    HW215294   1.067   1.395   4.721 -3.0492 -1.6638  0.7836
 1278SOL     OW15295   3.211   4.309   8.942  0.5052  0.4338  0.8005
 1278SOL    HW115296   3.240   4.297   9.033 -0.7927 -0.5433  1.0793
 1278SOL    HW215297   3.205   4.404   8.939  1.8951  0.5152  0.5671
 1279SOL     OW15298   2.066   1.208   0.344 -0.3885 -0.3909  0.3232
 1279SOL    HW115299   2.003   1.235   0.412  0.9531 -4.3529  3.1405
 1279SOL    HW215300   2.006   1.151   0.296  1.0391 -0.3883 -1.4605
 1280SOL     OW15301   2.634   2.131  14.944 -0.0239 -0.2635 -0.4753
 1280SOL    HW115302   2.703   2.177  14.897 -1.0078  1.7139  0.0270
 1280SOL    HW215303   2.574   2.100  14.877  0.0217 -0.8039 -0.2723
 1281SOL     OW15304   0.951   2.194  14.779  0.5146 -0.0076  0.0796
 1281SOL    HW115305   0.996   2.253  14.839 -0.1295 -1.1410  1.6747
 1281SOL    HW215306   0.906   2.131  14.835 -2.3462  1.0714 -1.0273
 1282SOL     OW15307   2.276   2.194  17.617 -0.3458  0.0086 -0.0563
 1282SOL    HW115308   2.269   2.132  17.690 -0.8735 -0.8894 -0.8665
 1282SOL    HW215309   2.324   2.266  17.657 -0.7728 -0.7832  1.9018
 1283SOL     OW15310   1.477   2.755   9.754 -0.4800  0.1342  0.0091
 1283SOL    HW115311   1.519   2.834   9.721 -0.2074  0.9104  2.2448
 1283SOL    HW215312   1.456   2.777   9.844  0.5815 -0.2444  0.3491
 1284SOL     OW15313   4.531   2.343   7.067  0.4696  0.1266  0.1146
 1284SOL    HW115314   4.610   2.379   7.105 -0.7137  0.9675  1.7633
 1284SOL    HW215315   4.480   2.333   7.147  0.6461  2.0924  0.4577
 1285SOL     OW15316   2.281   2.771   6.815 -0.0354  0.1017  0.1143
 1285SOL    HW115317   2.228   2.795   6.739  1.5965  0.9798 -0.7468
 1285SOL    HW215318   2.349   2.718   6.771  1.4969  0.1735  2.4043
 1286SOL     OW15319   2.978   0.300  13.854  0.2600 -0.1264  0.2705
 1286SOL    HW115320   3.032   0.377  13.872  0.1673 -0.3765  1.6281
 1286SOL    HW215321   3.041   0.231  13.876  0.8967 -0.4809 -2.7004
 1287SOL     OW15322   3.048   4.092   4.271  0.1857 -0.4049 -0.1840
 1287SOL    HW115323   3.142   4.107   4.282  0.0988 -1.0377  1.3737
 1287SOL    HW215324   3.031   4.149   4.195  0.1736  1.9850  1.6202
 1288SOL     OW15325   2.243   0.973   2.361  0.6817 -0.1194  0.3575
 1288SOL    HW115326   2.187   1.031   2.311  0.8288 -0.9857 -0.8184
 1288SOL    HW215327   2.267   1.029   2.435  1.9658 -0.3790  0.1369
 1289SOL     OW15328   2.521   1.590   7.777  0.7968  0.4599 -0.6364
 1289SOL    HW115329   2.498   1.584   7.685  1.4030  0.6126 -0.7941
 1289SOL    HW215330   2.587   1.520   7.778 -0.1144 -0.4093 -0.5964
 1290SOL     OW15331   2.731   3.281  16.205 -0.2820 -0.3312 -0.2274
 1290SOL    HW115332   2.677   3.355  16.177 -1.9823 -0.3423  2.9719
 1290SOL    HW215333   2.725   3.218  16.133 -1.8066  0.5749 -0.9058
 1291SOL     OW15334   0.318   1.015   5.727  0.3157  0.1789 -0.6261
 1291SOL    HW115335   0.363   1.093   5.761 -0.0383  0.6253 -1.1843
 1291SOL    HW215336   0.230   1.047   5.706  0.7282  1.5171 -0.3556
 1292SOL     OW15337   0.709   3.686   9.812  0.2915  0.0994  0.1364
 1292SOL    HW115338   0.775   3.624   9.843  2.7417  2.9269  0.5008
 1292SOL    HW215339   0.743   3.770   9.842  1.0746 -0.2131  0.0981
 1293SOL     OW15340   4.274   0.202   5.421 -0.0173 -0.2076  0.1262
 1293SOL    HW115341   4.362   0.235   5.405 -0.5074  0.8857 -0.3890
 1293SOL    HW215342   4.233   0.226   5.337  1.1710  2.1258  0.2100
 1294SOL     OW15343   0.401   2.015   1.894  0.1541 -1.0568 -0.0673
 1294SOL    HW115344   0.351   2.009   1.813  2.1140 -0.3014 -1.3242
 1294SOL    HW215345   0.479   1.962   1.876  1.7425  1.2838 -0.1338
 1295SOL     OW15346   0.849   2.749  10.256  0.3377 -0.4247 -0.8521
 1295SOL    HW115347   0.836   2.655  10.259 -0.6632 -0.2313  1.4318
 1295SOL    HW215348   0.847   2.775  10.164 -1.1493  0.0088 -0.6918
 1296SOL     OW15349   0.738   4.553   8.956  0.1262 -0.0999  0.0750
 1296SOL    HW115350   0.647   4.537   8.981  0.0667 -1.1290 -0.8052
 1296SOL    HW215351   0.755   4.622   9.020  0.2257  0.1067 -0.1721
 1297SOL     OW15352   4.715   0.831   7.827  0.5708 -0.0305 -0.4355
 1297SOL    HW115353   0.071   0.844   7.879 -0.4465 -0.5760  1.2253
 1297SOL    HW215354   0.013   0.886   7.751 -0.9041  2.4275  0.9494
 1298SOL     OW15355   4.453   2.008  17.340 -0.1183  0.1019 -0.3122
 1298SOL    HW115356   4.380   1.986  17.399  1.0145  0.2098  1.1247
 1298SOL    HW215357   4.507   1.929  17.349  1.1073  0.6375 -3.1537
 1299SOL     OW15358   3.661   3.621   5.685  0.3737 -0.1187  0.1616
 1299SOL    HW115359   3.613   3.622   5.768 -1.1599  0.7400 -0.7473
 1299SOL    HW215360   3.711   3.703   5.685 -0.1867  0.2217  0.9431
 1300SOL     OW15361   1.450   1.646   9.916  0.2049 -0.2103 -0.2664
 1300SOL    HW115362   1.393   1.635   9.991  3.6929 -0.3104  2.3950
 1300SOL    HW215363   1.385   1.651   9.846 -2.1428  1.0099  2.0159
 1301SOL     OW15364   0.416   2.308  12.723  0.1283 -0.5526 -0.2967
 1301SOL    HW115365   0.411   2.219  12.689 -3.9296 -0.9299  1.3265
 1301SOL    HW215366   0.509   2.331  12.732 -0.0327 -1.0452  2.4575
 1302SOL     OW15367   3.634   2.901   4.569  0.4334  0.4767 -0.0356
 1302SOL    HW115368   3.578   2.940   4.502  0.0694  0.5599  0.3179
 1302SOL    HW215369   3.705   2.867   4.515  0.1545 -0.8962  0.4660
 1303SOL     OW15370   2.486   2.737  16.575 -0.0388 -0.2909  0.5081
 1303SOL    HW115371   2.531   2.819  16.592  2.1405 -1.3293 -0.3186
 1303SOL    HW215372   2.404   2.758  16.619 -0.3407  1.8801 -1.0754
 1304SOL     OW15373   1.000   0.806  12.526 -0.4923 -0.1162 -0.7120
 1304SOL    HW115374   0.931   0.865  12.558  0.8383  0.1271  1.6559
 1304SOL    HW215375   0.986   0.728  12.580 -0.8021 -0.7740 -1.7364
 1305SOL     OW15376   1.264   4.442  12.975 -0.1503 -0.5732 -0.0824
 1305SOL    HW115377   1.259   4.520  12.919  2.5188 -1.3480 -1.4443
 1305SOL    HW215378   1.322   4.389  12.920  0.9495  0.4455  0.0782
 1306SOL     OW15379   3.526   4.444   4.958 -0.1543 -0.1685 -0.1487
 1306SOL    HW115380   3.496   4.532   4.932  1.8375 -0.4604 -3.3678
 1306SOL    HW215381   3.578   4.420   4.882 -1.7677 -1.0570 -0.9635
 1307SOL     OW15382   3.755   2.852   4.065 -0.4287 -0.3630 -0.0971
 1307SOL    HW115383   3.843   2.890   4.060 -1.0576  0.8512 -1.8961
 1307SOL    HW215384   3.773   2.768   4.022  3.7442  0.8118 -0.6463
 1308SOL     OW15385   3.400   0.527   3.418 -0.2796  0.5143 -0.2157
 1308SOL    HW115386   3.470   0.481   3.464 -0.9487 -0.8589 -0.5580
 1308SOL    HW215387   3.326   0.477   3.453 -0.4690  0.5076 -0.6310
 1309SOL     OW15388   1.371   0.092   6.912 -0.0791  0.3117  0.3696
 1309SOL    HW115389   1.331   0.106   6.827 -0.0377  0.8148  0.4327
 1309SOL    HW215390   1.459   0.065   6.886 -0.5182 -0.5207 -0.2411
 1310SOL     OW15391   1.966   4.628  16.853  0.0726 -0.1918  0.2490
 1310SOL    HW115392   1.989   4.614  16.761 -0.8728 -1.6685  0.2511
 1310SOL    HW215393   2.044   4.682  16.870 -0.1175  0.0335  0.3963
 1311SOL     OW15394   2.040   4.616  16.597  0.7106  0.5034  0.8917
 1311SOL    HW115395   1.987   4.568  16.534  2.4929 -0.2005 -0.0886
 1311SOL    HW215396   2.129   4.602  16.563  0.1387 -0.6307 -0.1271
 1312SOL     OW15397   0.578   2.447   9.648  0.0216  0.0138 -0.1302
 1312SOL    HW115398   0.508   2.490   9.598 -0.4043 -0.1468  0.3226
 1312SOL    HW215399   0.542   2.360   9.665  0.7690 -0.2591  0.0455
 1313SOL     OW15400   4.328   2.864   2.581  0.2526 -0.1731  0.4017
 1313SOL    HW115401   4.411   2.833   2.617 -0.4883 -1.1233  1.2952
 1313SOL    HW215402   4.360   2.905   2.501 -0.9610 -3.3843 -1.7243
 1314SOL     OW15403   4.645   0.335  17.400  0.0419  0.3411  0.0603
 1314SOL    HW115404   4.700   0.322  17.477 -1.0754  0.5964  0.8984
 1314SOL    HW215405   4.604   0.248  17.393 -0.7441  0.6948  0.3299
 1315SOL     OW15406   0.703   0.061   3.999 -0.0211  0.2377  0.4740
 1315SOL    HW115407   0.793   0.086   3.977 -0.1473  0.6557  0.4222
 1315SOL    HW215408   0.647   0.127   3.957  1.8137  0.7719 -1.1484
 1316SOL     OW15409   4.210   4.508   3.174  0.1133 -0.0511 -0.1833
 1316SOL    HW115410   4.130   4.525   3.125 -0.5021  2.5196  1.7275
 1316SOL    HW215411   4.183   4.548   3.257 -1.9919  0.0066 -0.9059
 1317SOL     OW15412   0.718   0.199  12.375  0.5252 -0.2429 -0.0986
 1317SOL    HW115413   0.652   0.183  12.307  1.6281  1.1860 -1.5152
 1317SOL    HW215414   0.721   0.294  12.366 -0.8472 -0.1143  0.8900
 1318SOL     OW15415   1.753   1.118   5.025  0.1326  0.0984 -0.1448
 1318SOL    HW115416   1.685   1.102   5.091 -0.8116 -0.5725 -1.2633
 1318SOL    HW215417   1.701   1.146   4.950 -0.3204  0.4085  0.2808
 1319SOL     OW15418   0.898   2.892   5.310 -0.0964 -0.7174  0.1871
 1319SOL    HW115419   0.833   2.864   5.374  0.6943 -2.0796  0.3942
 1319SOL    HW215420   0.868   2.979   5.286 -1.1104 -1.0909  0.1007
 1320SOL     OW15421   0.725   2.904   5.566  0.1253  0.0505 -0.0324
 1320SOL    HW115422   0.715   2.992   5.529 -1.7032  1.0117  2.7889
 1320SOL    HW215423   0.812   2.911   5.606  1.2140 -1.6867 -2.0975
 1321SOL     OW15424   3.101   2.587   4.248 -0.3022  0.5959  0.1546
 1321SOL    HW115425   3.157   2.623   4.180  1.7241  3.2149  3.2346
 1321SOL    HW215426   3.064   2.509   4.206 -0.7111  0.4058  0.8701
 1322SOL     OW15427   4.049   4.615   3.662 -0.1969 -0.1247  0.0949
 1322SOL    HW115428   4.039   4.623   3.568  0.9135  0.1713 -0.0063
 1322SOL    HW215429   4.139   4.646   3.672  0.2569 -1.4618  0.1288
 1323SOL     OW15430   4.535   0.490  12.551 -0.6188  0.0331  0.5086
 1323SOL    HW115431   4.555   0.401  12.580 -1.0405 -0.4332 -0.6319
 1323SOL    HW215432   4.458   0.492  12.494  2.4111 -2.9010 -3.6933
 1324SOL     OW15433   4.454   3.732  13.571  0.0853 -0.1314 -0.3081
 1324SOL    HW115434   4.402   3.808  13.596  0.3202 -0.1353  0.1813
 1324SOL    HW215435   4.529   3.736  13.631  1.5065  0.0400 -2.0785
 1325SOL     OW15436   0.965   2.577   8.694  0.1755  0.3663  0.8448
 1325SOL    HW115437   0.993   2.506   8.636 -2.7090 -0.2055  0.1876
 1325SOL    HW215438   1.047   2.626   8.701  0.6758 -0.3562  0.0853
 1326SOL     OW15439   0.157   1.037  12.939 -0.6065 -0.3753  0.6591
 1326SOL    HW115440   0.083   1.028  12.999 -1.3411  0.6926 -0.1053
 1326SOL    HW215441   0.129   0.988  12.862  0.0719 -0.2145  0.3059
 1327SOL     OW15442   4.521   1.876  11.732  0.6649  0.3658  0.1620
 1327SOL    HW115443   4.512   1.780  11.729 -1.0889  0.6235 -2.1978
 1327SOL    HW215444   4.530   1.891  11.827 -1.1172 -1.0664  0.5625
 1328SOL     OW15445   2.692   4.291   7.477 -0.2500  0.1334 -0.1566
 1328SOL    HW115446   2.728   4.203   7.467 -0.9004  0.0767 -1.8923
 1328SOL    HW215447   2.760   4.343   7.433 -0.0669 -0.3757 -0.4679
 1329SOL     OW15448   1.023   0.831   7.149  1.0480 -0.0492  0.1885
 1329SOL    HW115449   1.117   0.812   7.143  1.1961  0.8895 -0.3381
 1329SOL    HW215450   0.999   0.816   7.058 -1.6256  0.3305  0.8260
 1330SOL     OW15451   4.295   4.250   6.078  0.5036 -0.0409 -0.0069
 1330SOL    HW115452   4.279   4.156   6.092 -1.0135  0.0404 -1.1311
 1330SOL    HW215453   4.298   4.254   5.982 -2.4453 -1.4249 -0.1662
 1331SOL     OW15454   4.657   4.708   6.959 -0.2739 -0.5143  0.5802
 1331SOL    HW115455   4.639   4.671   7.045 -1.4484 -3.4783 -0.9347
 1331SOL    HW215456   4.589   4.664   6.908 -0.4406  0.0825  0.2818
 1332SOL     OW15457   0.467   1.222   4.020  0.1111 -0.3140 -0.3979
 1332SOL    HW115458   0.550   1.178   4.041  1.2747  1.8805 -0.4219
 1332SOL    HW215459   0.455   1.226   3.925 -1.2893 -0.3176 -0.2239
 1333SOL     OW15460   1.748   1.962   2.506  0.6097 -0.5295 -0.2307
 1333SOL    HW115461   1.837   1.948   2.538  0.5602 -0.0141  0.1467
 1333SOL    HW215462   1.747   2.055   2.482  0.9219 -0.4576  0.0293
 1334SOL     OW15463   2.250   0.368  11.760  0.0433  0.2102  0.2950
 1334SOL    HW115464   2.155   0.374  11.747  0.0996 -1.3381 -0.7685
 1334SOL    HW215465   2.265   0.274  11.754  1.0585  0.2407  2.2194
 1335SOL     OW15466   1.861   3.402   7.109 -0.0292  0.1887 -0.2847
 1335SOL    HW115467   1.867   3.477   7.050  0.9658  0.4282  0.1208
 1335SOL    HW215468   1.770   3.408   7.138 -0.2741  0.6388 -1.1420
 1336SOL     OW15469   1.322   3.701   8.811  0.4721  0.2371 -0.6468
 1336SOL    HW115470   1.266   3.643   8.863  0.2571  0.6186 -0.4549
 1336SOL    HW215471   1.270   3.720   8.733  1.7964  1.6603 -1.1723
 1337SOL     OW15472   0.559   3.205  16.399  0.0439  0.5225  0.0923
 1337SOL    HW115473   0.486   3.260  16.374 -1.2348 -0.9561  0.5475
 1337SOL    HW215474   0.601   3.257  16.467 -0.2558  1.9730 -0.8260
 1338SOL     OW15475   0.083   2.052   3.390  0.0241 -0.7631 -0.1500
 1338SOL    HW115476   0.052   2.073   3.301  1.1576 -1.2494 -0.6609
 1338SOL    HW215477   0.006   2.000   3.415  0.2295 -0.0327  1.9266
 1339SOL     OW15478   3.805   0.040   0.389  0.0268 -0.2854 -0.7526
 1339SOL    HW115479   3.764   0.026   0.475 -1.4830 -0.8064 -1.5413
 1339SOL    HW215480   3.839   4.676   0.366  0.3432  0.1583 -1.9539
 1340SOL     OW15481   1.983   2.527   9.453  0.7830 -0.0775  0.0666
 1340SOL    HW115482   2.054   2.540   9.517  0.5666  0.5034  0.1905
 1340SOL    HW215483   1.930   2.459   9.494 -0.4781  0.2768 -0.9694
 1341SOL     OW15484   2.767   3.094   2.052  0.1883 -0.0423 -0.3721
 1341SOL    HW115485   2.800   3.026   2.111  0.6104  2.3129  2.1006
 1341SOL    HW215486   2.704   3.139   2.108  0.8726  0.4493  0.0081
 1342SOL     OW15487   0.501   2.912   8.717 -0.3753 -0.0879  0.2594
 1342SOL    HW115488   0.511   2.926   8.811  1.2479  0.0350  0.0791
 1342SOL    HW215489   0.407   2.896   8.712 -0.5317  1.0867 -0.6586
 1343SOL     OW15490   2.323   3.947   5.813 -0.3559 -0.9406  0.0466
 1343SOL    HW115491   2.308   3.854   5.800  2.0834 -1.2623 -0.4953
 1343SOL    HW215492   2.372   3.971   5.735 -0.2558  2.4120  1.1326
 1344SOL     OW15493   2.531   1.608   5.777  0.7872 -0.1014 -0.2800
 1344SOL    HW115494   2.475   1.542   5.736  0.8330 -1.2853  1.5776
 1344SOL    HW215495   2.467   1.673   5.805  1.9592 -0.2443  2.7619
 1345SOL     OW15496   3.621   4.320   1.657 -0.3738  0.7806 -0.3062
 1345SOL    HW115497   3.596   4.233   1.624  1.0546  0.8374 -1.5235
 1345SOL    HW215498   3.617   4.300   1.751  0.6044  0.9601 -0.2291
 1346SOL     OW15499   2.873   2.364  15.892  0.1411 -0.0288 -0.0936
 1346SOL    HW115500   2.861   2.434  15.955  0.6705  0.1689 -0.2125
 1346SOL    HW215501   2.882   2.420  15.815 -1.7936  0.8485  0.3373
 1347SOL     OW15502   2.450   0.738   6.990 -0.2752  0.4318  0.4940
 1347SOL    HW115503   2.448   0.824   6.947  0.2720  0.9915  1.6121
 1347SOL    HW215504   2.374   0.736   7.049 -0.3132  1.9166  0.4912
 1348SOL     OW15505   4.091   1.777  15.373 -0.7855 -0.1056  0.3938
 1348SOL    HW115506   4.093   1.869  15.347 -0.1049 -0.2894 -0.2109
 1348SOL    HW215507   3.997   1.762  15.368 -0.1434 -3.5746 -1.5361
 1349SOL     OW15508   2.560   0.299  11.428 -1.1186  0.0026 -0.2015
 1349SOL    HW115509   2.514   0.372  11.469 -0.0270  1.5762 -1.7744
 1349SOL    HW215510   2.631   0.294  11.491 -1.3714  0.6887  0.1306
 1350SOL     OW15511   2.824   0.437  12.450 -0.3388 -0.1418  0.1093
 1350SOL    HW115512   2.736   0.419  12.415  0.3904 -0.6757 -1.4431
 1350SOL    HW215513   2.809   0.509  12.510  1.9566 -0.0761  0.5889
 1351SOL     OW15514   3.793   1.598  16.425  0.0452  0.0317  0.0904
 1351SOL    HW115515   3.886   1.610  16.408  0.2495  1.3225  2.0659
 1351SOL    HW215516   3.765   1.599  16.333  0.4971 -1.3297 -0.0652
 1352SOL     OW15517   2.592   2.782   2.858  0.3862  0.5239  0.3156
 1352SOL    HW115518   2.594   2.776   2.954  0.4100 -0.6593  0.2475
 1352SOL    HW215519   2.506   2.742   2.846  0.7948 -0.2321 -0.1233
 1353SOL     OW15520   4.144   0.686  17.336  0.4254  0.4711  0.6260
 1353SOL    HW115521   4.062   0.639  17.349 -0.2022  1.6348  0.8003
 1353SOL    HW215522   4.131   0.771  17.379 -0.8366 -0.0184  1.2162
 1354SOL     OW15523   4.648   1.675  12.341  0.7430 -0.2092 -0.1428
 1354SOL    HW115524   4.712   1.603  12.338 -0.6392 -1.4508 -0.1911
 1354SOL    HW215525   4.685   1.736  12.278 -1.8866 -0.4180 -1.8889
 1355SOL     OW15526   2.503   2.547  12.971  0.0675 -0.1174  0.2585
 1355SOL    HW115527   2.410   2.571  12.972 -0.1308 -0.7308 -2.3417
 1355SOL    HW215528   2.533   2.614  12.909 -0.2548  0.6299  0.9170
 1356SOL     OW15529   2.428   1.931   9.982 -0.2118 -0.0536  0.2845
 1356SOL    HW115530   2.357   1.916   9.919 -1.2900  0.3780  1.3954
 1356SOL    HW215531   2.392   1.888  10.059  0.0472 -1.5437 -0.4279
 1357SOL     OW15532   4.220   0.070   2.596  0.3546  0.0220  0.2486
 1357SOL    HW115533   4.242   0.053   2.687  0.8678 -0.9571 -0.0571
 1357SOL    HW215534   4.260   4.717   2.553 -0.3754 -0.3113  0.1466
 1358SOL     OW15535   0.313   4.277   6.300 -0.3359 -0.9700  0.2160
 1358SOL    HW115536   0.318   4.339   6.227 -1.0036  0.5798  1.4967
 1358SOL    HW215537   0.381   4.213   6.281 -0.0987 -1.6393  3.3192
 1359SOL     OW15538   0.567   1.963   2.127  0.1707 -0.0509  0.0595
 1359SOL    HW115539   0.580   1.913   2.047  0.7967 -0.7385  0.6022
 1359SOL    HW215540   0.519   1.896   2.176 -0.8573 -0.1573 -1.0736
 1360SOL     OW15541   0.700   2.400  10.355  0.0765  0.2262 -0.2781
 1360SOL    HW115542   0.610   2.375  10.374  0.4020 -0.8011 -0.0654
 1360SOL    HW215543   0.731   2.310  10.344  0.7838  0.1108  2.7801
 1361SOL     OW15544   3.882   3.570   2.177  0.1173 -0.0197 -0.2255
 1361SOL    HW115545   3.832   3.648   2.202  0.5379 -0.0996  0.8614
 1361SOL    HW215546   3.904   3.526   2.259  0.1883  1.0561  0.3322
 1362SOL     OW15547   1.896   4.265   5.204  0.2329  0.2895 -0.4698
 1362SOL    HW115548   1.884   4.356   5.178 -2.3310 -0.0978 -0.6886
 1362SOL    HW215549   1.882   4.213   5.124  0.9205 -0.7752  0.0979
 1363SOL     OW15550   1.859   1.346   8.038  0.0495 -0.0198 -0.2375
 1363SOL    HW115551   1.864   1.315   7.948 -0.6862  1.3659 -0.7473
 1363SOL    HW215552   1.826   1.435   8.031 -1.9436 -0.7869 -0.5997
 1364SOL     OW15553   4.139   1.641  17.558  0.0996  0.1910  0.7133
 1364SOL    HW115554   4.175   1.576  17.497  1.9034  0.8412  1.0924
 1364SOL    HW215555   4.049   1.653  17.529  0.6432 -0.7246 -1.3453
 1365SOL     OW15556   1.124   2.624   7.576 -0.1266  0.2962 -0.3144
 1365SOL    HW115557   1.054   2.687   7.593 -1.1224  0.1560 -3.8640
 1365SOL    HW215558   1.131   2.640   7.482 -1.4758 -0.2877 -0.5200
 1366SOL     OW15559   2.436   3.300  17.241 -0.5188  0.0016  0.6266
 1366SOL    HW115560   2.341   3.312  17.247 -0.5040  0.3631  0.1176
 1366SOL    HW215561   2.459   3.291  17.334 -1.1009 -1.0428  0.6645
 1367SOL     OW15562   1.802   4.000  10.996 -0.3335 -0.0090 -0.0793
 1367SOL    HW115563   1.843   3.920  11.031  0.5036  1.5353  2.4537
 1367SOL    HW215564   1.867   4.007  10.926  0.5311  0.7680  0.8027
 1368SOL     OW15565   0.946   4.013  14.348 -0.0851 -0.1939 -0.2636
 1368SOL    HW115566   1.009   3.957  14.303  1.0980  0.3568  0.6870
 1368SOL    HW215567   0.889   4.047  14.280  1.9750 -1.0747 -2.4272
 1369SOL     OW15568   3.728   2.304   7.363  0.0156 -0.3194  0.6865
 1369SOL    HW115569   3.694   2.245   7.296 -3.8002  1.5894  0.9594
 1369SOL    HW215570   3.793   2.355   7.316 -0.7778  1.7620  1.8445
 1370SOL     OW15571   0.916   1.275  11.801 -0.1766  0.1625 -0.1721
 1370SOL    HW115572   0.831   1.264  11.843  0.2359 -0.0133  0.5974
 1370SOL    HW215573   0.970   1.299  11.876 -0.9427  2.7813 -0.4487
 1371SOL     OW15574   4.443   3.253   1.281 -0.3447 -0.5391  0.4440
 1371SOL    HW115575   4.386   3.177   1.290 -0.1851 -0.7375 -0.2759
 1371SOL    HW215576   4.389   3.308   1.338 -0.5321 -1.3706  1.0701
 1372SOL     OW15577   4.560   3.598   7.949  0.1345  0.0969  0.3541
 1372SOL    HW115578   4.540   3.670   7.889  0.4949  0.5181  0.7383
 1372SOL    HW215579   4.532   3.638   8.031  1.0141  0.4083  0.5050
 1373SOL     OW15580   2.644   2.847   5.954  0.1935 -0.6756  0.3996
 1373SOL    HW115581   2.584   2.897   5.898 -1.5362 -1.9072  1.1597
 1373SOL    HW215582   2.694   2.915   5.998  0.2484 -0.6379  0.2782
 1374SOL     OW15583   2.770   3.373   5.934  0.1439  0.6288 -0.3209
 1374SOL    HW115584   2.687   3.327   5.919  0.0078  1.7557 -3.1255
 1374SOL    HW215585   2.749   3.414   6.018 -0.6192 -0.6146  0.0935
 1375SOL     OW15586   3.281   1.416   8.131 -0.4083 -0.3482  0.4527
 1375SOL    HW115587   3.334   1.375   8.198 -0.2273 -0.8381  0.0040
 1375SOL    HW215588   3.336   1.401   8.055 -1.2531 -1.4807  0.0746
 1376SOL     OW15589   3.598   1.937  17.075 -0.3734 -0.1730 -0.2124
 1376SOL    HW115590   3.594   1.848  17.041  0.8121  0.2715 -1.5013
 1376SOL    HW215591   3.528   1.972  17.020 -0.5215  1.3809  0.9347
 1377SOL     OW15592   2.376   2.655   7.077  0.2142 -0.6148 -0.3416
 1377SOL    HW115593   2.358   2.702   6.995  1.9099 -0.1615 -0.4554
 1377SOL    HW215594   2.458   2.698   7.103  0.5964 -2.4734  1.4834
 1378SOL     OW15595   4.598   2.721   8.476  0.1860 -0.3713  0.2331
 1378SOL    HW115596   4.580   2.629   8.495 -0.8180 -0.0161  0.9670
 1378SOL    HW215597   4.658   2.706   8.403  2.3901  0.6466  1.8608
 1379SOL     OW15598   2.813   2.795   4.408 -0.5141 -0.1890  0.2879
 1379SOL    HW115599   2.887   2.741   4.438 -1.2912 -1.6579 -0.4351
 1379SOL    HW215600   2.843   2.823   4.321 -1.0253 -0.0412  0.1625
 1380SOL     OW15601   1.223   1.811  14.192 -0.4257 -0.0825  0.1973
 1380SOL    HW115602   1.252   1.795  14.102 -0.2091 -1.4014  0.5030
 1380SOL    HW215603   1.239   1.728  14.238  0.3405  1.0411  1.9684
 1381SOL     OW15604   0.268   3.211  15.082  0.1377  0.1377 -0.3759
 1381SOL    HW115605   0.240   3.151  15.013 -2.8370  1.0790  0.0159
 1381SOL    HW215606   0.345   3.172  15.123  2.2813  1.0072 -3.6239
 1382SOL     OW15607   0.083   3.030   7.477  0.1712  0.4635 -0.4098
 1382SOL    HW115608   0.167   3.010   7.518 -0.0939 -0.8515 -0.4920
 1382SOL    HW215609   0.033   2.948   7.487 -0.4381  0.7037 -1.4560
 1383SOL     OW15610   0.517   0.420  10.586  0.1540  0.3227 -0.1226
 1383SOL    HW115611   0.594   0.478  10.589  1.7091 -1.8598  1.7567
 1383SOL    HW215612   0.500   0.423  10.492  0.5146  0.4281 -0.1847
 1384SOL     OW15613   1.994   2.024   1.372  0.1046 -0.0710  0.1302
 1384SOL    HW115614   2.036   2.107   1.351  0.8868 -0.9090 -1.6423
 1384SOL    HW215615   1.955   2.009   1.286  1.4641 -1.1976 -0.2971
 1385SOL     OW15616   2.702   2.461   6.173 -0.1250  0.6103  0.2118
 1385SOL    HW115617   2.663   2.439   6.089 -0.3061 -0.6831  0.6195
 1385SOL    HW215618   2.750   2.383   6.201  0.7767  1.1964  0.3040
 1386SOL     OW15619   2.272   3.710   9.966  0.5166 -0.2357 -0.4295
 1386SOL    HW115620   2.201   3.688  10.026  0.2616  0.1941 -0.5729
 1386SOL    HW215621   2.337   3.648   9.999  0.9130 -0.4985 -1.7101
 1387SOL     OW15622   1.164   3.120   0.715  0.0898  0.1122  0.2737
 1387SOL    HW115623   1.129   3.151   0.631  0.0746  1.4071  0.7630
 1387SOL    HW215624   1.081   3.122   0.761 -0.1124  1.8660 -0.1369
 1388SOL     OW15625   2.560   3.977   2.788 -0.2210  0.4532  0.0030
 1388SOL    HW115626   2.555   3.917   2.713  0.2100 -0.0754  0.3983
 1388SOL    HW215627   2.511   4.055   2.761 -0.7350 -0.4237 -1.6324
 1389SOL     OW15628   1.638   4.625   8.697 -0.2639  0.6453 -0.1639
 1389SOL    HW115629   1.588   4.612   8.617  1.4354  0.8757 -1.2683
 1389SOL    HW215630   1.722   4.661   8.666  1.7005 -0.6595  3.5727
 1390SOL     OW15631   1.152   2.517   3.065  0.2436  0.0728  0.6176
 1390SOL    HW115632   1.231   2.539   3.016 -1.3699 -0.6870 -2.3045
 1390SOL    HW215633   1.086   2.550   3.004 -0.4514 -1.2602  0.6460
 1391SOL     OW15634   1.275   4.037  15.534  0.0473  0.2561 -0.4714
 1391SOL    HW115635   1.323   4.077  15.461  1.3731  1.8971  1.2862
 1391SOL    HW215636   1.205   4.012  15.474 -1.5041  2.8961  0.2340
 1392SOL     OW15637   0.443   2.584  16.020  0.1589  0.1347  0.6435
 1392SOL    HW115638   0.488   2.664  16.049 -0.1757  0.3981  0.4384
 1392SOL    HW215639   0.447   2.590  15.925 -1.9065 -0.9239  0.4967
 1393SOL     OW15640   1.832   3.289   5.575 -0.1356 -0.5436  0.8501
 1393SOL    HW115641   1.846   3.200   5.607  1.3564  0.3930  2.7943
 1393SOL    HW215642   1.804   3.261   5.488 -1.5557 -0.2290  1.2137
 1394SOL     OW15643   2.727   2.834   3.890 -0.4310  0.3014  0.7847
 1394SOL    HW115644   2.650   2.888   3.870  1.1088  1.6624 -1.5300
 1394SOL    HW215645   2.687   2.756   3.852  1.3629 -0.6826  0.9562
 1395SOL     OW15646   1.216   1.733  16.175 -0.4614 -0.0153  0.0028
 1395SOL    HW115647   1.271   1.799  16.132 -0.5315  0.7583  1.0941
 1395SOL    HW215648   1.278   1.660  16.175  1.0232  1.2111 -4.6705
 1396SOL     OW15649   4.275   0.480   6.638 -0.3292  0.2015  0.0770
 1396SOL    HW115650   4.244   0.569   6.659  0.3443  0.8858 -1.8279
 1396SOL    HW215651   4.245   0.443   6.721 -0.1075  0.9550  0.4962
 1397SOL     OW15652   2.258   2.238  13.537  0.5383 -0.2136 -1.0458
 1397SOL    HW115653   2.219   2.262  13.453  0.0273 -0.4088 -0.8657
 1397SOL    HW215654   2.322   2.309  13.544  1.2513 -1.0738  1.2675
 1398SOL     OW15655   2.788   0.607   9.071  0.0860 -0.0693  0.3345
 1398SOL    HW115656   2.756   0.517   9.059 -0.1649  0.1674 -0.7627
 1398SOL    HW215657   2.715   0.649   9.026 -1.1523  0.0523  2.4690
 1399SOL     OW15658   3.036   0.806   0.995  0.5325 -0.3864  0.5548
 1399SOL    HW115659   3.095   0.837   0.926 -0.5814  0.3092 -0.0884
 1399SOL    HW215660   3.037   0.713   0.973  3.0570  0.1110 -1.4003
 1400SOL     OW15661   1.922   3.208   3.737 -0.0330  0.1507  0.0260
 1400SOL    HW115662   1.968   3.162   3.806 -2.4408  0.0440  1.5570
 1400SOL    HW215663   1.852   3.252   3.784 -0.4466  0.2216 -0.6509
 1401SOL     OW15664   2.994   1.025   1.729  0.5806 -0.5816 -0.1621
 1401SOL    HW115665   2.933   0.956   1.754 -2.0599  2.3784  1.6919
 1401SOL    HW215666   2.955   1.082   1.663 -1.9557  0.5535  2.3448
 1402SOL     OW15667   4.561   0.287  10.170  0.5385  0.8129 -0.2895
 1402SOL    HW115668   4.635   0.252  10.120  0.6090  0.0981  0.3215
 1402SOL    HW215669   4.597   0.280  10.258  0.4364  1.2848 -0.2097
 1403SOL     OW15670   2.234   0.043   4.874 -0.0565 -0.2689 -0.1507
 1403SOL    HW115671   2.217   0.120   4.821 -3.9286 -0.5496  0.6799
 1403SOL    HW215672   2.147   0.029   4.913 -1.1722  2.4388 -1.6714
 1404SOL     OW15673   0.484   4.005   6.515 -0.2544  0.2870  0.9081
 1404SOL    HW115674   0.545   3.986   6.444 -0.7234  1.1627  0.2812
 1404SOL    HW215675   0.398   3.973   6.487  0.8617 -1.4229 -0.5599
 1405SOL     OW15676   2.070   2.514   5.635 -0.0557  0.2443 -0.5342
 1405SOL    HW115677   1.979   2.484   5.626  0.4038 -1.4233  0.3912
 1405SOL    HW215678   2.118   2.446   5.588 -0.0488 -0.2525  0.1840
 1406SOL     OW15679   4.073   4.660   1.354 -0.1511  0.3650 -0.7943
 1406SOL    HW115680   4.079   4.710   1.272  2.3502  0.2495 -0.6982
 1406SOL    HW215681   4.018   4.722   1.401 -1.6572 -1.5978  0.0345
 1407SOL     OW15682   2.576   3.488   6.357 -0.3304 -0.0972  0.0333
 1407SOL    HW115683   2.594   3.394   6.361  2.2999  0.4021  0.2442
 1407SOL    HW215684   2.616   3.512   6.441  0.3526  2.0794 -0.8985
 1408SOL     OW15685   1.312   4.531   4.008  0.6137  0.0975 -0.3863
 1408SOL    HW115686   1.377   4.500   3.945 -1.2199  1.4981 -2.9576
 1408SOL    HW215687   1.356   4.607   4.047 -2.6254  1.6949  0.1330
 1409SOL     OW15688   2.430   1.167   8.804 -0.4707 -0.3281  0.1554
 1409SOL    HW115689   2.338   1.193   8.798 -0.1347  1.2796  1.7932
 1409SOL    HW215690   2.463   1.234   8.863 -0.8533 -0.0475  0.0520
 1410SOL     OW15691   0.279   3.414  13.410  0.0873  0.0945 -0.2330
 1410SOL    HW115692   0.317   3.338  13.452  0.0091 -0.0761 -0.4708
 1410SOL    HW215693   0.267   3.468  13.488  1.2537  1.6849 -1.1394
 1411SOL     OW15694   1.982   3.263   8.560 -0.2391 -0.2032  0.9573
 1411SOL    HW115695   1.965   3.339   8.505  0.0353 -2.0790 -1.7187
 1411SOL    HW215696   2.069   3.283   8.593  1.4605 -1.6596 -2.6779
 1412SOL     OW15697   1.992   2.111   0.190  0.6314 -0.5679  0.0020
 1412SOL    HW115698   1.915   2.113   0.133 -1.3322  1.1322  2.7329
 1412SOL    HW215699   2.016   2.204   0.195 -0.7324 -0.1031 -2.1689
 1413SOL     OW15700   3.655   2.963   7.598  0.6684 -0.0174  0.1180
 1413SOL    HW115701   3.738   3.005   7.576  0.6296  0.0733  0.1445
 1413SOL    HW215702   3.648   2.915   7.515 -0.5020 -2.3884  1.5812
 1414SOL     OW15703   4.588   1.507   4.155 -0.5157 -0.0735  0.5316
 1414SOL    HW115704   4.509   1.542   4.196 -0.7773  0.6106 -0.5641
 1414SOL    HW215705   4.559   1.488   4.066 -0.6219  0.9717  0.3458
 1415SOL     OW15706   4.087   4.615   5.337  0.8374 -0.0992  0.3793
 1415SOL    HW115707   4.059   4.687   5.281  2.1389  2.4593  3.0098
 1415SOL    HW215708   4.086   4.638   5.430  1.1721  2.5843 -0.2873
 1416SOL     OW15709   4.699   3.862   8.630  0.1123 -0.2506  0.0337
 1416SOL    HW115710   4.638   3.793   8.603  2.7428 -2.1430 -1.0828
 1416SOL    HW215711   4.657   3.892   8.711  0.7956 -1.7232  0.9499
 1417SOL     OW15712   0.377   3.475  11.785  0.8198  0.4323 -0.0294
 1417SOL    HW115713   0.470   3.457  11.798  0.6024 -0.5442  0.2120
 1417SOL    HW215714   0.342   3.404  11.732  0.6494  0.0805  0.5481
 1418SOL     OW15715   3.919   4.119  14.572 -0.3070 -0.1733  0.5831
 1418SOL    HW115716   4.009   4.129  14.540 -1.2820  0.6664 -1.9237
 1418SOL    HW215717   3.925   4.055  14.643  0.0419  1.6660  2.2108
 1419SOL     OW15718   2.703   3.620   6.983  0.2302 -0.2941  0.0238
 1419SOL    HW115719   2.745   3.534   6.985  1.7295  0.4515  0.9537
 1419SOL    HW215720   2.614   3.593   6.961  1.5492 -2.9676 -2.0982
 1420SOL     OW15721   1.573   0.359  15.933 -0.7787  1.2276  0.1362
 1420SOL    HW115722   1.534   0.370  15.847 -0.0374  0.1458 -0.3353
 1420SOL    HW215723   1.557   0.266  15.950  0.0022  1.2117  0.8381
 1421SOL     OW15724   3.016   1.380   3.259  0.0185 -0.0094 -0.3124
 1421SOL    HW115725   3.088   1.368   3.197 -1.3136  1.2463 -2.1019
 1421SOL    HW215726   2.948   1.388   3.193  1.7512 -1.2567 -2.2366
 1422SOL     OW15727   2.615   4.334   3.412  0.1255  0.3956 -0.5201
 1422SOL    HW115728   2.551   4.401   3.388 -0.8805 -1.2893 -2.5319
 1422SOL    HW215729   2.671   4.319   3.336  1.5699  0.2063  0.5717
 1423SOL     OW15730   1.433   0.097  10.359  0.4969  0.3191  0.0010
 1423SOL    HW115731   1.463   0.078  10.448 -1.7470 -0.3798  0.6076
 1423SOL    HW215732   1.472   0.020  10.318  0.1922 -0.4993  1.2397
 1424SOL     OW15733   2.835   2.565  16.731  0.5597 -0.1616 -0.2622
 1424SOL    HW115734   2.877   2.566  16.645  2.5711  0.7708  0.7041
 1424SOL    HW215735   2.789   2.649  16.733  0.6650 -0.1177  0.5850
 1425SOL     OW15736   1.972   4.365   3.902  0.0942  0.1894 -0.3190
 1425SOL    HW115737   1.955   4.380   3.995  0.7659  1.7616 -0.4569
 1425SOL    HW215738   1.895   4.318   3.870 -0.5962  2.7061 -2.3147
 1426SOL     OW15739   0.934   1.615   4.384 -0.3454  0.1132  0.1039
 1426SOL    HW115740   0.951   1.641   4.294 -0.7278 -0.6513 -0.1890
 1426SOL    HW215741   0.946   1.695   4.435  0.2270 -0.2060  0.4701
 1427SOL     OW15742   1.985   1.765   5.689 -0.1208  0.3438 -0.6551
 1427SOL    HW115743   1.891   1.758   5.676  0.4133 -1.6338 -3.4970
 1427SOL    HW215744   2.011   1.818   5.613 -2.2693  0.2089 -1.4708
 1428SOL     OW15745   3.675   2.044   1.298 -0.2905  0.4521  0.5761
 1428SOL    HW115746   3.706   2.046   1.208  1.9099  0.9644  1.3563
 1428SOL    HW215747   3.705   2.130   1.326 -0.6407  1.0397 -0.9180
 1429SOL     OW15748   3.702   3.435   6.468 -0.0921 -0.2970  0.2536
 1429SOL    HW115749   3.672   3.491   6.397  0.3884 -2.5485 -1.7280
 1429SOL    HW215750   3.688   3.493   6.543 -1.2970  0.6675 -0.7346
 1430SOL     OW15751   4.697   1.516   6.743 -0.1878  0.1556 -0.2803
 1430SOL    HW115752   4.674   1.567   6.665 -3.2615 -0.2703  0.3608
 1430SOL    HW215753   4.690   1.584   6.810 -0.6680 -0.0636 -0.1113
 1431SOL     OW15754   3.763   2.135  15.952  0.0991  0.4986 -0.4616
 1431SOL    HW115755   3.853   2.116  15.929 -0.1756 -2.0056  0.5681
 1431SOL    HW215756   3.715   2.096  15.879  2.3896 -1.6405 -0.7832
 1432SOL     OW15757   4.657   0.048  17.405  0.1963  0.5644 -0.6863
 1432SOL    HW115758   4.690   4.682  17.419 -0.4104  0.2183 -1.4488
 1432SOL    HW215759   4.589   0.028  17.341 -0.3300 -1.4947  0.5403
 1433SOL     OW15760   2.849   1.310  12.121  0.1489 -0.1573  0.3520
 1433SOL    HW115761   2.813   1.333  12.207  1.0699  0.4215  0.5769
 1433SOL    HW215762   2.924   1.252  12.133  2.2673  1.9537 -2.7746
 1434SOL     OW15763   3.289   3.806  11.055  0.1840  0.2316  0.6356
 1434SOL    HW115764   3.207   3.782  11.012  0.8472 -0.6786 -0.1204
 1434SOL    HW215765   3.347   3.748  11.005 -0.2573 -1.7762  2.4495
 1435SOL     OW15766   4.226   0.503  16.726 -0.1066  0.2300  0.7868
 1435SOL    HW115767   4.280   0.425  16.711 -3.4426 -1.6946 -1.1745
 1435SOL    HW215768   4.137   0.468  16.729 -0.3612  0.7996  0.0044
 1436SOL     OW15769   0.552   2.731  12.317 -0.3397 -0.0608  0.0059
 1436SOL    HW115770   0.526   2.761  12.404  1.6446 -0.5057  0.7465
 1436SOL    HW215771   0.618   2.667  12.343  0.5229  2.1267  3.1980
 1437SOL     OW15772   1.469   0.740   8.642 -0.1104 -0.1486 -1.1400
 1437SOL    HW115773   1.390   0.753   8.696  0.2398  0.5896 -0.8031
 1437SOL    HW215774   1.468   0.817   8.585  1.7639  0.5393 -0.2380
 1438SOL     OW15775   3.300   2.900   5.271 -0.0758  0.5119 -0.2580
 1438SOL    HW115776   3.356   2.825   5.292 -1.4762  0.2435  2.5377
 1438SOL    HW215777   3.367   2.962   5.242 -0.6042  1.0398 -0.3540
 1439SOL     OW15778   0.057   3.882   2.505 -0.7850  0.8593  0.5651
 1439SOL    HW115779   0.095   3.874   2.593  1.4564  2.9790 -0.2216
 1439SOL    HW215780   0.121   3.934   2.457  1.1694 -0.2979  1.8990
 1440SOL     OW15781   1.019   4.161   4.916 -0.3049 -0.2630 -0.0909
 1440SOL    HW115782   0.970   4.225   4.864 -2.7146 -1.4769  0.7359
 1440SOL    HW215783   1.086   4.122   4.859  0.3802  0.5521  0.1462
 1441SOL     OW15784   1.351   2.923   1.803  0.1200  0.0414 -0.2977
 1441SOL    HW115785   1.387   2.837   1.782  0.3150 -0.0503  0.4005
 1441SOL    HW215786   1.311   2.904   1.888  2.0622 -1.6969  0.2375
 1442SOL     OW15787   3.028   1.125   1.346  0.1113 -0.8201  0.7894
 1442SOL    HW115788   3.070   1.209   1.325 -1.2009 -0.2516  0.4346
 1442SOL    HW215789   2.960   1.149   1.408 -0.2658 -0.3835  0.2084
 1443SOL     OW15790   4.622   1.986   4.848 -0.1425 -0.3693  0.1802
 1443SOL    HW115791   4.701   1.980   4.900  0.1797  0.1690 -0.2425
 1443SOL    HW215792   4.583   1.901   4.869 -1.6246 -0.0317 -1.1465
 1444SOL     OW15793   0.427   1.252   3.749 -0.0627  0.7538 -0.3177
 1444SOL    HW115794   0.345   1.213   3.718 -0.7304  1.1430  0.9581
 1444SOL    HW215795   0.492   1.211   3.692  2.8113  1.3290  2.5837
 1445SOL     OW15796   0.327   0.374   1.417 -0.3999 -0.4901 -0.3752
 1445SOL    HW115797   0.409   0.420   1.398 -0.2592  0.0609  1.5944
 1445SOL    HW215798   0.345   0.287   1.383 -1.9902 -1.0077  0.1044
 1446SOL     OW15799   3.096   0.090  11.031  0.2135 -0.2162 -0.1651
 1446SOL    HW115800   3.011   0.118  11.065 -0.4460 -1.8723 -0.4393
 1446SOL    HW215801   3.123   0.019  11.090  0.9153 -0.6557 -1.0227
 1447SOL     OW15802   0.536   0.211  15.175  0.1393  0.1315  0.3033
 1447SOL    HW115803   0.480   0.265  15.231 -0.2648  0.7196 -0.6524
 1447SOL    HW215804   0.614   0.204  15.230 -0.3898 -1.5440  0.8286
 1448SOL     OW15805   1.576   0.817   5.765 -0.0615 -0.2636  0.5563
 1448SOL    HW115806   1.569   0.820   5.669 -1.7289 -1.2385  0.6378
 1448SOL    HW215807   1.492   0.845   5.800 -0.2503 -1.9027  1.4289
 1449SOL     OW15808   0.598   1.929   5.510 -0.5835  0.0082 -0.8745
 1449SOL    HW115809   0.638   2.016   5.505  0.6085 -0.3453  2.3642
 1449SOL    HW215810   0.624   1.889   5.593  1.7138  2.0596 -0.5982
 1450SOL     OW15811   3.314   0.467   3.855  0.7022  0.9283 -0.4582
 1450SOL    HW115812   3.395   0.422   3.879  0.1288  0.6441  0.8913
 1450SOL    HW215813   3.318   0.562   3.847  0.2852  1.0673  1.1206
 1451SOL     OW15814   3.716   3.344   4.335  0.3039  0.0258  0.1745
 1451SOL    HW115815   3.754   3.368   4.419  1.1638 -1.5897  0.2304
 1451SOL    HW215816   3.711   3.430   4.293  1.7929 -0.2120 -0.4878
 1452SOL     OW15817   2.476   4.471   6.547  0.7224 -0.4093  0.5669
 1452SOL    HW115818   2.541   4.405   6.571  0.7603 -0.4587  0.3352
 1452SOL    HW215819   2.522   4.546   6.585  0.6639 -0.2140  0.2582
 1453SOL     OW15820   4.591   4.337   6.254 -0.2442 -0.0842  0.1544
 1453SOL    HW115821   4.526   4.303   6.315  1.9627 -0.0422  2.5314
 1453SOL    HW215822   4.658   4.382   6.305 -0.2950  0.2351 -0.0623
 1454SOL     OW15823   2.946   1.949   4.267  0.0796  0.1798  0.4580
 1454SOL    HW115824   3.021   1.969   4.323 -0.5830  0.4636  1.2544
 1454SOL    HW215825   2.995   1.930   4.187 -1.2419 -1.3124  0.0099
 1455SOL     OW15826   0.437   2.551   8.211 -0.1126 -0.1140 -0.0718
 1455SOL    HW115827   0.393   2.631   8.237 -1.7017 -1.1986  0.5969
 1455SOL    HW215828   0.526   2.576   8.235  0.2951 -1.8364  0.2687
 1456SOL     OW15829   3.085   3.950   9.440  0.1869  0.0977 -0.7806
 1456SOL    HW115830   3.118   4.025   9.490  0.6029  0.2682 -1.3054
 1456SOL    HW215831   3.097   3.876   9.499 -0.0571 -1.4216 -2.6307
 1457SOL     OW15832   0.166   2.382   4.419  0.0915  0.2234  0.0245
 1457SOL    HW115833   0.125   2.376   4.332  1.2772  0.0706 -0.5236
 1457SOL    HW215834   0.229   2.454   4.410 -1.4792  1.9604  3.1192
 1458SOL     OW15835   2.374   0.563   3.792  0.3356 -0.1090  0.3891
 1458SOL    HW115836   2.407   0.591   3.878  0.6406 -2.1784  0.9461
 1458SOL    HW215837   2.439   0.595   3.729 -0.1821 -0.7868 -0.4837
 1459SOL     OW15838   3.684   1.477   1.657  0.4373  0.3206  0.4417
 1459SOL    HW115839   3.628   1.531   1.602  0.6407 -0.2635 -0.3246
 1459SOL    HW215840   3.741   1.549   1.684  1.7176  0.1625 -1.9191
 1460SOL     OW15841   2.390   0.369   4.693  0.3771  0.2779 -0.5602
 1460SOL    HW115842   2.460   0.396   4.753 -0.3863  0.1377  0.3914
 1460SOL    HW215843   2.324   0.329   4.750 -0.7924  0.9763 -1.4089
 1461SOL     OW15844   0.804   0.085   5.253 -0.8371 -0.2293  0.0355
 1461SOL    HW115845   0.784   0.147   5.323 -1.3454 -0.2047 -0.1320
 1461SOL    HW215846   0.789   4.721   5.290 -0.7593 -1.4700 -2.7697
 1462SOL     OW15847   3.135   4.620   5.062  0.1270  0.4441 -0.3176
 1462SOL    HW115848   3.179   4.551   5.112  0.7111  1.2210  0.2410
 1462SOL    HW215849   3.055   4.577   5.032  0.2313 -1.0405  1.5382
 1463SOL     OW15850   0.190   1.554   3.144  0.7602 -0.1556  0.0802
 1463SOL    HW115851   0.178   1.478   3.200 -1.4225 -1.0139 -1.5715
 1463SOL    HW215852   0.145   1.614   3.203  0.2457  1.0802 -1.5567
 1464SOL     OW15853   3.898   0.428   5.152  0.1785  0.7220  0.3465
 1464SOL    HW115854   3.875   0.383   5.234 -0.1793  1.1867  0.5044
 1464SOL    HW215855   3.837   0.381   5.095  0.6880  0.0763  0.3436
 1465SOL     OW15856   3.611   1.287  12.981  0.1771 -0.5106 -0.3279
 1465SOL    HW115857   3.622   1.293  12.886  0.9173  1.5650 -0.1019
 1465SOL    HW215858   3.517   1.304  12.985  0.3766  0.8580 -1.6980
 1466SOL     OW15859   2.802   1.404  15.831  0.6217  0.0410  0.4097
 1466SOL    HW115860   2.766   1.473  15.886 -3.5003 -1.3906 -0.4967
 1466SOL    HW215861   2.892   1.433  15.813  1.3889 -0.4171  3.4695
 1467SOL     OW15862   0.122   3.127   2.649  0.1854  0.0921 -0.3131
 1467SOL    HW115863   0.060   3.056   2.666  1.3133 -0.7386  0.3035
 1467SOL    HW215864   0.085   3.151   2.564  0.6112 -0.9943 -0.8020
 1468SOL     OW15865   3.616   0.446   6.814  0.0846  0.1265  0.2588
 1468SOL    HW115866   3.531   0.483   6.790  0.7416  0.4088 -1.6190
 1468SOL    HW215867   3.670   0.472   6.740  0.2547 -0.6385  0.1165
 1469SOL     OW15868   3.781   3.954   1.581 -0.3542 -0.2075  0.0149
 1469SOL    HW115869   3.826   3.885   1.532  1.9546  1.6585 -0.4896
 1469SOL    HW215870   3.850   3.975   1.645 -2.1207 -0.1816  1.9021
 1470SOL     OW15871   2.273   3.987  17.482 -0.2017 -0.4880 -0.3968
 1470SOL    HW115872   2.261   3.921  17.550 -3.3474  0.3041 -0.1764
 1470SOL    HW215873   2.272   4.058  17.547 -1.9265  1.1347 -2.2020
 1471SOL     OW15874   0.630   0.109  11.840 -0.3524 -0.6742 -0.0269
 1471SOL    HW115875   0.641   0.030  11.787  0.1054 -0.1943 -0.6379
 1471SOL    HW215876   0.603   0.174  11.775  0.6288 -0.8883 -0.6535
 1472SOL     OW15877   0.320   0.923   2.296 -0.1721  0.1276  0.0019
 1472SOL    HW115878   0.235   0.897   2.334 -0.1055 -0.4566 -0.2541
 1472SOL    HW215879   0.384   0.865   2.337  1.3317  1.2564 -0.7449
 1473SOL     OW15880   1.883   3.583   6.889 -1.1846 -0.1036 -0.2668
 1473SOL    HW115881   1.943   3.637   6.940 -1.3828  0.0454 -0.1890
 1473SOL    HW215882   1.957   3.538   6.849 -1.5050 -0.8905  0.0243
 1474SOL     OW15883   4.155   2.954  11.087 -0.7950 -0.4931 -0.0020
 1474SOL    HW115884   4.238   2.930  11.046 -0.8800 -0.0203 -0.4509
 1474SOL    HW215885   4.181   3.027  11.143 -0.9322 -0.1357 -0.4018
 1475SOL     OW15886   4.720   0.637   8.071 -0.2937  0.3165  0.3926
 1475SOL    HW115887   4.688   0.723   8.046  2.4961  1.2020 -0.1390
 1475SOL    HW215888   4.685   0.624   8.159 -1.1043 -1.7873 -0.2383
 1476SOL     OW15889   0.932   1.080   5.182 -0.1857  0.9776  0.1081
 1476SOL    HW115890   0.839   1.062   5.164  0.2808 -2.0837  0.7637
 1476SOL    HW215891   0.928   1.172   5.210  1.7404  1.3265 -0.8022
 1477SOL     OW15892   0.528   0.629  16.179  0.0448 -0.1898  0.1039
 1477SOL    HW115893   0.569   0.699  16.129  0.2771 -0.6216 -0.3128
 1477SOL    HW215894   0.532   0.664  16.268  2.0255  1.1901 -0.5310
 1478SOL     OW15895   4.153   3.682   1.241 -0.1913  0.5995 -0.1063
 1478SOL    HW115896   4.215   3.656   1.309 -2.1060 -0.0990  1.3864
 1478SOL    HW215897   4.176   3.771   1.213  0.5880  0.3079 -0.3800
 1479SOL     OW15898   1.084   4.616  13.683  0.0648 -0.2349 -0.0738
 1479SOL    HW115899   1.159   4.669  13.660 -0.2003 -0.2700 -1.0204
 1479SOL    HW215900   1.012   4.653  13.631  1.7199  2.9770 -0.1028
 1480SOL     OW15901   4.394   1.549   2.058 -0.0583  0.6873 -0.1393
 1480SOL    HW115902   4.342   1.604   2.000 -2.3369  0.2543  1.4790
 1480SOL    HW215903   4.359   1.568   2.145 -0.5952 -2.6635  0.3952
 1481SOL     OW15904   2.043   1.132  14.665  0.2003  0.3499 -0.1191
 1481SOL    HW115905   2.085   1.214  14.688  1.3619 -0.2497 -0.1304
 1481SOL    HW215906   2.118   1.072  14.665 -0.4336 -0.4348 -1.5242
 1482SOL     OW15907   3.150   3.765   1.807  0.0177  0.4058  0.5635
 1482SOL    HW115908   3.107   3.714   1.875  1.5642  0.1023  1.3189
 1482SOL    HW215909   3.071   3.794   1.762  0.5530  0.2066 -0.4848
 1483SOL     OW15910   4.676   0.509  14.586 -0.0835 -0.1356  0.1824
 1483SOL    HW115911   4.674   0.430  14.532 -1.8083 -1.2125  1.8038
 1483SOL    HW215912   4.590   0.543  14.560 -0.1710 -0.6818 -0.2631
 1484SOL     OW15913   3.877   1.741   5.970  0.2025 -0.1698 -0.0324
 1484SOL    HW115914   3.952   1.797   5.989  0.6287  0.2783 -3.1210
 1484SOL    HW215915   3.793   1.787   5.978 -0.8944 -2.0737 -0.5011
 1485SOL     OW15916   1.064   1.522   9.812  0.1579 -0.2483 -0.1452
 1485SOL    HW115917   0.999   1.533   9.742 -1.2614 -3.4139  0.6570
 1485SOL    HW215918   1.035   1.587   9.875 -3.4230 -0.7122 -1.2953
 1486SOL     OW15919   0.268   0.287   9.290 -0.2836  0.1434  0.0480
 1486SOL    HW115920   0.330   0.217   9.271  0.8270  0.9151  0.8715
 1486SOL    HW215921   0.188   0.249   9.327 -1.9327  0.9320 -2.7176
 1487SOL     OW15922   2.301   1.700   2.419  0.4111 -0.2343 -0.5274
 1487SOL    HW115923   2.391   1.710   2.388 -0.5644  2.5579 -2.4439
 1487SOL    HW215924   2.275   1.630   2.360 -0.6348  0.7998 -1.2704
 1488SOL     OW15925   3.721   0.529  14.006  0.3492 -0.3843  0.3140
 1488SOL    HW115926   3.787   0.597  14.023  0.2347 -0.7265  2.1212
 1488SOL    HW215927   3.717   0.494  14.095 -3.2445 -1.5647 -0.3508
 1489SOL     OW15928   4.008   4.113   0.406  0.2083 -0.1112  0.5805
 1489SOL    HW115929   3.983   4.063   0.328  1.6074  1.5483 -0.9522
 1489SOL    HW215930   3.919   4.109   0.440 -1.0741  0.5592 -2.6346
 1490SOL     OW15931   3.466   3.616   0.228 -0.4393 -0.0644 -0.1098
 1490SOL    HW115932   3.441   3.547   0.289  0.7753 -0.5320 -0.1482
 1490SOL    HW215933   3.386   3.637   0.178  0.4214  3.0910 -0.1514
 1491SOL     OW15934   1.902   3.374  13.944 -0.1623 -0.5765 -0.1132
 1491SOL    HW115935   1.931   3.363  13.853  2.4517 -1.1280  0.8028
 1491SOL    HW215936   1.834   3.441  13.938  1.0255  0.6988  0.5853
 1492SOL     OW15937   3.775   3.047   8.142 -0.2779 -0.0214  0.2326
 1492SOL    HW115938   3.694   3.014   8.101 -1.8379  0.8779  2.5924
 1492SOL    HW215939   3.832   2.988   8.093 -0.3801 -0.5311  0.7261
 1493SOL     OW15940   3.909   0.645  14.632  0.2263 -0.0025  0.0193
 1493SOL    HW115941   3.840   0.663  14.695  1.3730  4.5377 -0.0279
 1493SOL    HW215942   3.911   0.550  14.618 -2.3515  0.0816 -0.9218
 1494SOL     OW15943   0.340   2.293   9.178 -0.3351  0.5503  1.0696
 1494SOL    HW115944   0.269   2.356   9.162  0.4667  0.9916 -0.7949
 1494SOL    HW215945   0.410   2.337   9.129  0.2751 -0.3823  1.0985
 1495SOL     OW15946   3.779   0.234   7.386  0.1193 -0.3773  0.0421
 1495SOL    HW115947   3.859   0.284   7.404 -0.2685 -0.1457  1.1607
 1495SOL    HW215948   3.727   0.287   7.326 -1.8124 -2.0323  0.2801
 1496SOL     OW15949   1.026   3.143  15.336 -0.3632 -0.6519  0.0207
 1496SOL    HW115950   1.105   3.089  15.335 -1.2891 -1.9797 -2.4689
 1496SOL    HW215951   1.062   3.231  15.334  1.8723 -1.5589  0.1134
 1497SOL     OW15952   0.487   2.067  13.817  0.3499 -0.9233  0.4709
 1497SOL    HW115953   0.563   2.124  13.803 -1.5299  1.0931 -1.4494
 1497SOL    HW215954   0.466   2.085  13.909  1.9885 -0.4823  0.7633
 1498SOL     OW15955   3.887   2.917   0.255  0.4933  0.0164  0.0459
 1498SOL    HW115956   3.935   2.985   0.209 -0.4728 -0.7241 -2.0603
 1498SOL    HW215957   3.904   2.840   0.201  1.0167 -0.5917  1.0697
 1499SOL     OW15958   3.960   2.275   8.608  0.5740  0.0082 -0.3823
 1499SOL    HW115959   4.017   2.352   8.601 -1.0453  1.2811  0.6416
 1499SOL    HW215960   3.952   2.248   8.516 -0.4887 -3.4379  0.7556
 1500SOL     OW15961   3.329   0.004  12.014 -0.0786  0.3230 -0.2422
 1500SOL    HW115962   3.409   0.014  11.963 -0.5016 -0.2480 -1.0186
 1500SOL    HW215963   3.292   4.651  11.970 -0.5668 -0.2062  1.0892
 1501SOL     OW15964   3.604   4.205  12.648  0.7960  0.0243  0.1623
 1501SOL    HW115965   3.553   4.225  12.727 -0.2364  0.2813 -0.5679
 1501SOL    HW215966   3.602   4.109  12.646  0.2371 -0.0141  2.3379
 1502SOL     OW15967   4.492   1.826   5.271 -0.4967  0.5201 -0.0812
 1502SOL    HW115968   4.487   1.829   5.367  2.5419 -1.8098  0.1411
 1502SOL    HW215969   4.399   1.845   5.258 -1.0028 -1.4884  0.4849
 1503SOL     OW15970   0.059   2.264  12.024  0.1079  0.2000  0.2939
 1503SOL    HW115971   4.696   2.232  12.053  0.0481  0.2165  0.1359
 1503SOL    HW215972   0.034   2.331  11.960  2.5355  0.6279 -0.2111
 1504SOL     OW15973   3.957   2.962  14.961 -0.0003 -0.2993 -0.0848
 1504SOL    HW115974   3.925   2.873  14.944 -0.9273 -0.2435  1.3818
 1504SOL    HW215975   3.893   3.007  15.015 -0.0102  1.0083 -1.1936
 1505SOL     OW15976   0.602   3.848   0.562  0.5539 -0.4796  0.1349
 1505SOL    HW115977   0.641   3.900   0.491 -0.1616 -0.7260 -0.4448
 1505SOL    HW215978   0.665   3.857   0.633  1.4589  1.0626 -0.8677
 1506SOL     OW15979   3.560   1.436   7.725 -0.0819  0.1843  0.4925
 1506SOL    HW115980   3.649   1.470   7.735  0.0761 -0.5444  1.5740
 1506SOL    HW215981   3.521   1.447   7.639 -0.2192 -0.6812  0.4456
 1507SOL     OW15982   3.236   3.477   3.849 -0.0683  0.5411 -0.7176
 1507SOL    HW115983   3.151   3.435   3.835  1.4245 -2.9066  0.5058
 1507SOL    HW215984   3.248   3.446   3.939  0.8490 -1.4707 -1.5454
 1508SOL     OW15985   2.841   2.301   1.321  0.1136 -0.6153  0.5534
 1508SOL    HW115986   2.894   2.368   1.365 -0.7637 -0.5501  1.5101
 1508SOL    HW215987   2.826   2.239   1.393 -3.1907  1.4577  1.6708
 1509SOL     OW15988   4.709   1.259   4.969 -0.1687 -0.7878 -0.1521
 1509SOL    HW115989   4.640   1.260   4.903 -0.6756 -0.0768  0.3879
 1509SOL    HW215990   0.047   1.202   4.923  0.2860 -1.6433  1.4927
 1510SOL     OW15991   0.242   0.517   5.367  0.3332 -0.1207  0.2066
 1510SOL    HW115992   0.252   0.424   5.345 -0.1075  0.1566 -1.1864
 1510SOL    HW215993   0.327   0.533   5.408  0.1122 -4.4997  2.4461
 1511SOL     OW15994   2.115   0.571   2.063  0.0462 -0.4090  0.0677
 1511SOL    HW115995   2.132   0.654   2.018  0.5268 -0.5969 -0.0965
 1511SOL    HW215996   2.041   0.576   2.123 -1.0710  3.1868 -1.6035
 1512SOL     OW15997   4.112   3.178  15.586  0.9469 -0.1032 -0.1061
 1512SOL    HW115998   4.157   3.099  15.556  1.3233  0.5560 -1.2424
 1512SOL    HW215999   4.021   3.149  15.581  0.9981 -0.6419  2.1934
 1513SOL     OW16000   3.179   0.223   7.088  0.1763  0.0846 -0.0333
 1513SOL    HW116001   3.258   0.258   7.129  0.7388  0.4266 -1.3991
 1513SOL    HW216002   3.112   0.271   7.137  0.1471  0.9636 -0.9316
 1514SOL     OW16003   3.117   4.715   0.096  0.3849 -0.4520 -0.5718
 1514SOL    HW116004   3.152   4.696   0.182  3.1515 -0.6296 -1.7457
 1514SOL    HW216005   3.134   4.629   0.056  0.4708 -1.3608  1.4596
 1515SOL     OW16006   4.282   0.825  14.858  0.1595  0.3165  0.5294
 1515SOL    HW116007   4.275   0.744  14.808 -0.1410  0.3050  0.5931
 1515SOL    HW216008   4.223   0.806  14.931 -0.3275  0.6024  0.2128
 1516SOL     OW16009   4.525   4.652   2.932  0.4606  0.5233  0.5067
 1516SOL    HW116010   4.517   4.592   3.006 -1.4653 -1.2444 -1.1276
 1516SOL    HW216011   4.566   4.603   2.860 -1.4402  1.5288 -1.2770
 1517SOL     OW16012   3.294   3.655  11.869 -0.8701  0.6981  0.1677
 1517SOL    HW116013   3.383   3.681  11.842 -0.9466  0.8329  0.0434
 1517SOL    HW216014   3.243   3.687  11.795  0.1853  0.1573 -0.7892
 1518SOL     OW16015   1.866   2.833   2.994  0.7944  0.3866  0.0485
 1518SOL    HW116016   1.795   2.827   2.930 -0.5300 -0.3353  1.5826
 1518SOL    HW216017   1.850   2.920   3.031 -1.7692  1.5826 -3.8152
 1519SOL     OW16018   4.614   1.674  10.164  0.7095 -0.2069 -0.1618
 1519SOL    HW116019   4.651   1.697  10.078 -1.5226 -0.3481 -1.1724
 1519SOL    HW216020   4.519   1.677  10.151  0.5792 -1.1457  0.5941
 1520SOL     OW16021   2.191   4.651   6.442 -0.2053 -0.6876  0.1249
 1520SOL    HW116022   2.184   4.557   6.424 -2.0925 -0.8499  1.6556
 1520SOL    HW216023   2.263   4.673   6.384 -0.1199  1.4078  1.0456
 1521SOL     OW16024   3.005   1.318   6.367 -0.2071  0.3207  0.2390
 1521SOL    HW116025   3.065   1.303   6.293  1.3249  0.5967  1.4328
 1521SOL    HW216026   2.920   1.318   6.324 -1.1854  1.0785  2.1833
 1522SOL     OW16027   1.287   0.604  15.420 -0.4505  0.0127 -0.4423
 1522SOL    HW116028   1.257   0.513  15.429  0.7089 -0.6320 -3.1577
 1522SOL    HW216029   1.371   0.610  15.464 -0.0745  2.3196 -1.5029
 1523SOL     OW16030   0.545   0.827   6.656 -0.0980  0.1849 -0.5290
 1523SOL    HW116031   0.600   0.766   6.607  0.3126  1.3011 -1.4458
 1523SOL    HW216032   0.536   0.785   6.741 -3.9615 -1.8817 -1.9377
 1524SOL     OW16033   0.196   2.817  15.463 -0.5415 -0.0825  0.7788
 1524SOL    HW116034   0.177   2.769  15.544  0.2716 -0.5731  0.6821
 1524SOL    HW216035   0.182   2.740  15.407 -0.2397  1.0672 -0.8656
 1525SOL     OW16036   2.775   1.276   5.613  0.4243  0.3118  0.0687
 1525SOL    HW116037   2.778   1.261   5.708 -0.7924  0.0436  0.0766
 1525SOL    HW216038   2.727   1.358   5.601  1.0610  0.9523  1.8778
 1526SOL     OW16039   1.482   2.117   2.696  0.9387  0.2517 -0.4152
 1526SOL    HW116040   1.406   2.161   2.735  0.4111 -1.5483  0.5865
 1526SOL    HW216041   1.482   2.038   2.751  0.7416 -0.5933 -1.6291
 1527SOL     OW16042   3.901   2.989  15.257  1.0619 -0.7233  0.2038
 1527SOL    HW116043   3.934   3.079  15.250  0.3510 -0.4957 -0.2690
 1527SOL    HW216044   3.979   2.944  15.289  1.3852  0.9071  1.6793
 1528SOL     OW16045   0.810   2.512   5.312 -0.5153 -0.2235  0.2999
 1528SOL    HW116046   0.788   2.492   5.403  1.0457  3.9943  1.5770
 1528SOL    HW216047   0.767   2.597   5.309  1.8321  0.9061 -0.8328
 1529SOL     OW16048   1.844   4.611   2.236 -0.6430 -0.4154  0.3546
 1529SOL    HW116049   1.921   4.555   2.243 -0.1991  0.2764  0.9521
 1529SOL    HW216050   1.860   4.663   2.157 -0.9838 -3.7710 -1.9330
 1530SOL     OW16051   1.513   2.248  17.255 -0.1626  0.5138  0.2650
 1530SOL    HW116052   1.564   2.259  17.336 -0.4866  4.1481  0.0005
 1530SOL    HW216053   1.427   2.223  17.288  0.2107  0.5802  1.2945
 1531SOL     OW16054   2.573   4.424  14.869  0.7256 -0.3914  0.2216
 1531SOL    HW116055   2.589   4.434  14.775  0.5819  4.1244  0.6835
 1531SOL    HW216056   2.478   4.428  14.871  0.6996 -0.6058 -0.6584
 1532SOL     OW16057   1.777   3.164   2.869  1.2552  0.7289 -0.4804
 1532SOL    HW116058   1.697   3.216   2.881  0.8491  0.2970 -1.3517
 1532SOL    HW216059   1.777   3.110   2.948 -0.9476 -1.3203 -1.8766
 1533SOL     OW16060   2.270   4.411   6.177  0.0346  0.0951  0.0490
 1533SOL    HW116061   2.240   4.468   6.106  0.0633  0.0225 -0.0219
 1533SOL    HW216062   2.191   4.414   6.230  0.8764 -1.1526  1.3621
 1534SOL     OW16063   0.593   4.651   4.663 -0.0827 -0.5462 -0.3143
 1534SOL    HW116064   0.516   4.682   4.710 -0.7968 -1.3261 -0.9693
 1534SOL    HW216065   0.609   4.720   4.598  1.1077  1.0375  1.6756
 1535SOL     OW16066   1.800   4.621  13.098  0.0660 -0.1551  0.4154
 1535SOL    HW116067   1.829   4.568  13.024 -0.5414 -0.3179  0.2990
 1535SOL    HW216068   1.714   4.645  13.065  0.1898  0.9855  0.9323
 1536SOL     OW16069   3.287   4.335   5.800  0.0581  0.0270 -0.3144
 1536SOL    HW116070   3.355   4.290   5.850 -0.5361 -0.2852  0.2104
 1536SOL    HW216071   3.234   4.259   5.776  1.8149 -0.8618 -1.3707
 1537SOL     OW16072   4.113   3.190   3.231 -0.2414 -0.0404  0.2468
 1537SOL    HW116073   4.030   3.144   3.217  0.6831 -1.2994 -1.0856
 1537SOL    HW216074   4.164   3.186   3.150 -1.2116 -0.6539 -0.3340
 1538SOL     OW16075   2.029   2.513   0.560 -0.0037 -0.5205 -0.1509
 1538SOL    HW116076   2.077   2.434   0.582  1.0638  0.0922 -0.2507
 1538SOL    HW216077   1.946   2.508   0.608  1.1753 -1.5427  1.7801
 1539SOL     OW16078   0.698   2.951   3.278 -0.4153  0.0871 -0.9187
 1539SOL    HW116079   0.729   3.037   3.249 -1.4440  0.3982 -1.1131
 1539SOL    HW216080   0.775   2.904   3.248  0.1884 -0.8849  2.1476
 1540SOL     OW16081   2.830   3.921   3.678  0.0470 -0.2510  0.2839
 1540SOL    HW116082   2.871   3.949   3.596 -0.5413  2.1387  0.7984
 1540SOL    HW216083   2.743   3.893   3.650  0.2713  2.4513 -3.1801
 1541SOL     OW16084   1.817   0.794  16.064 -0.5343  0.3968  0.0483
 1541SOL    HW116085   1.851   0.779  16.152  1.4496 -0.3954 -0.8611
 1541SOL    HW216086   1.745   0.730  16.068 -0.9789  0.9089  0.1782
 1542SOL     OW16087   4.617   2.630   4.654 -0.8217  0.1853 -0.4222
 1542SOL    HW116088   4.676   2.680   4.598 -1.4427  1.1996 -0.1579
 1542SOL    HW216089   4.686   2.570   4.680 -1.8896 -0.3707  1.1161
 1543SOL     OW16090   4.573   0.904   3.338  0.5699 -0.3515 -0.0331
 1543SOL    HW116091   4.528   0.865   3.412 -1.7589  3.1516  0.4131
 1543SOL    HW216092   4.496   0.925   3.286  1.2515 -1.8970 -1.6574
 1544SOL     OW16093   0.546   1.602   7.304  0.1466 -0.6755  0.1457
 1544SOL    HW116094   0.576   1.600   7.213  0.4366 -1.5236  0.2579
 1544SOL    HW216095   0.454   1.622   7.290 -0.0900 -1.3161  0.8103
 1545SOL     OW16096   2.609   0.999  17.345  0.6203  0.1280  0.2790
 1545SOL    HW116097   2.581   1.090  17.353  0.3681  0.1556 -0.9724
 1545SOL    HW216098   2.691   1.004  17.297  0.2166 -0.8678 -0.5338
 1546SOL     OW16099   0.103   3.282   9.639  0.0833  0.2449  0.5616
 1546SOL    HW116100   0.058   3.332   9.570  1.0779  1.5687  0.8717
 1546SOL    HW216101   0.084   3.338   9.714  0.2395  1.0095  0.0278
 1547SOL     OW16102   3.979   1.315   8.400  0.8017  0.6896 -0.2049
 1547SOL    HW116103   4.023   1.361   8.329  1.1048 -0.1442 -0.5669
 1547SOL    HW216104   3.893   1.357   8.405 -0.0268 -0.8248 -1.7796
 1548SOL     OW16105   4.301   2.646   4.150 -0.2120 -0.2570  0.0690
 1548SOL    HW116106   4.264   2.733   4.163  0.1944 -0.1091  0.2288
 1548SOL    HW216107   4.231   2.597   4.108 -0.1724 -0.5440  0.3319
 1549SOL     OW16108   1.463   2.943   5.703  0.5374  0.4462  0.0575
 1549SOL    HW116109   1.480   3.025   5.657 -0.6892  0.6891  0.0184
 1549SOL    HW216110   1.400   2.901   5.645  2.3316 -0.0907 -1.4720
 1550SOL     OW16111   4.498   3.131   7.073 -0.1355  0.3516  0.4822
 1550SOL    HW116112   4.481   3.045   7.111 -1.3825 -0.3214 -1.5981
 1550SOL    HW216113   4.407   3.154   7.053 -0.0670  0.3749  0.1907
 1551SOL     OW16114   2.036   2.341   3.676 -0.1529  0.5251  0.4903
 1551SOL    HW116115   2.018   2.287   3.599  0.8158  1.0092 -0.0819
 1551SOL    HW216116   1.947   2.359   3.706  0.7940  3.3983  1.5479
 1552SOL     OW16117   1.427   1.095   7.210  0.0600 -0.1063 -0.3615
 1552SOL    HW116118   1.401   1.098   7.118 -0.9123 -0.7396 -0.0976
 1552SOL    HW216119   1.365   1.026   7.232 -0.9693  0.1027 -2.6434
 1553SOL     OW16120   2.944   0.397   6.311 -1.1909 -0.3544 -0.7059
 1553SOL    HW116121   2.865   0.365   6.355 -0.4486  0.1825  1.0221
 1553SOL    HW216122   2.918   0.389   6.219  0.3658 -0.3575 -1.1374
 1554SOL     OW16123   2.369   4.004   4.628 -0.1646 -0.3932  0.8421
 1554SOL    HW116124   2.410   4.054   4.699 -0.6085  0.5205  0.4588
 1554SOL    HW216125   2.368   4.079   4.568  0.4223  0.0986  1.4475
 1555SOL     OW16126   0.482   2.667   8.537  0.4273  0.6529  0.0253
 1555SOL    HW116127   0.528   2.750   8.548  2.1640 -0.3041  0.0736
 1555SOL    HW216128   0.549   2.602   8.516  0.6234  1.3935 -1.6370
 1556SOL     OW16129   4.417   0.418   0.617 -0.1959  0.4379  0.4832
 1556SOL    HW116130   4.472   0.494   0.632 -0.2991  0.7564 -0.7951
 1556SOL    HW216131   4.481   0.349   0.601 -1.6143 -0.9230  0.5870
 1557SOL     OW16132   2.512   2.991  16.692 -0.3813 -0.3537  0.2113
 1557SOL    HW116133   2.562   3.051  16.747  0.1717 -1.5134  0.9846
 1557SOL    HW216134   2.421   3.003  16.720  0.9500  1.7754  3.5852
 1558SOL     OW16135   4.498   1.716   4.931 -0.9548 -0.5533 -0.4523
 1558SOL    HW116136   4.541   1.688   5.012  0.1870  0.7878 -0.6076
 1558SOL    HW216137   4.408   1.731   4.963 -0.4582  1.2434  0.1163
 1559SOL     OW16138   3.219   4.026   3.988  0.1820 -0.2332  0.4173
 1559SOL    HW116139   3.247   4.053   3.900  0.7099  4.3785  1.9933
 1559SOL    HW216140   3.150   3.962   3.972 -1.3549  1.5398 -0.1059
 1560SOL     OW16141   2.970   0.517   2.723 -0.2481  0.3109 -1.1167
 1560SOL    HW116142   3.046   0.569   2.747 -0.2782  0.3621 -1.1314
 1560SOL    HW216143   2.916   0.590   2.693  0.1593  0.0924 -2.3800
 1561SOL     OW16144   3.465   0.128   1.880 -0.1280  0.2627 -0.0728
 1561SOL    HW116145   3.484   0.038   1.855  0.1957  0.5366 -0.8126
 1561SOL    HW216146   3.413   0.104   1.957  0.7432  0.0279  0.4472
 1562SOL     OW16147   3.280   1.333  14.885 -0.0542  0.8388 -0.4919
 1562SOL    HW116148   3.192   1.298  14.895  0.2358  0.2577  0.0370
 1562SOL    HW216149   3.306   1.301  14.798 -0.3089  0.3971 -0.4078
 1563SOL     OW16150   2.118   2.406   6.036  0.3037 -0.5408 -0.0747
 1563SOL    HW116151   2.178   2.459   5.983  0.4371 -0.6905 -0.0723
 1563SOL    HW216152   2.050   2.470   6.059  1.3466  0.3258  0.6301
 1564SOL     OW16153   3.565   4.571   8.395  0.0688 -0.0838  1.1059
 1564SOL    HW116154   3.476   4.582   8.362 -0.4252 -1.5670  1.9674
 1564SOL    HW216155   3.571   4.476   8.387 -0.1137  0.1647 -2.0944
 1565SOL     OW16156   2.768   2.230  16.535  0.0850  0.5358  0.3528
 1565SOL    HW116157   2.800   2.297  16.476 -1.9781  0.5822 -0.6953
 1565SOL    HW216158   2.805   2.150  16.498 -0.1436 -0.0573  1.3719
 1566SOL     OW16159   0.489   0.548   9.453 -0.3453  0.7413  0.2720
 1566SOL    HW116160   0.404   0.561   9.412  0.6820  2.5138 -1.2972
 1566SOL    HW216161   0.487   0.452   9.461  1.2236  0.5743 -1.1973
 1567SOL     OW16162   1.513   3.888   7.777  0.0431 -0.5822  0.2969
 1567SOL    HW116163   1.558   3.824   7.832  0.6092  0.5498  1.1539
 1567SOL    HW216164   1.470   3.835   7.710  1.1672 -2.8116  1.3428
 1568SOL     OW16165   4.175   2.229   3.943  0.3190  0.9039  0.0647
 1568SOL    HW116166   4.169   2.158   3.879  3.3552 -0.5235  1.4016
 1568SOL    HW216167   4.237   2.198   4.009  0.5738 -0.2655 -0.7260
 1569SOL     OW16168   0.040   3.496  12.359 -0.3356  0.4928  0.2043
 1569SOL    HW116169   0.078   3.557  12.296  0.7285  1.6477  1.9377
 1569SOL    HW216170   0.004   3.566  12.414 -2.4935  0.5546 -1.2750
 1570SOL     OW16171   0.010   0.919   5.368  0.1820  0.3252 -0.2345
 1570SOL    HW116172   0.011   0.844   5.427 -0.0715  0.1050 -0.5078
 1570SOL    HW216173   0.096   0.914   5.327  0.0837  1.4452 -0.5832
 1571SOL     OW16174   4.145   2.964   3.636 -0.4621 -0.2210  0.5263
 1571SOL    HW116175   4.073   2.983   3.576 -0.7928 -0.8187  0.7324
 1571SOL    HW216176   4.206   2.923   3.574  0.8114  1.3238  0.7466
 1572SOL     OW16177   3.961   0.330  14.616 -0.4724  0.5838  0.3371
 1572SOL    HW116178   3.881   0.281  14.597  1.0419 -1.7780  0.1613
 1572SOL    HW216179   3.946   0.389  14.541  1.2506 -0.4785 -0.8252
 1573SOL     OW16180   2.045   1.924   2.599 -0.5563  0.1532  0.5591
 1573SOL    HW116181   2.053   1.935   2.504  2.4672  0.6492  0.8783
 1573SOL    HW216182   2.113   1.985   2.627  1.6828 -1.7043 -0.7998
 1574SOL     OW16183   3.934   4.128  12.276  0.1731  0.7587  0.3228
 1574SOL    HW116184   3.972   4.058  12.223 -0.5252 -0.0014  0.8373
 1574SOL    HW216185   3.849   4.090  12.300 -0.3742  1.3201 -0.6895
 1575SOL     OW16186   0.548   4.259  15.460 -0.2369 -0.3501  0.1941
 1575SOL    HW116187   0.464   4.276  15.502  0.4994  0.5624  1.2962
 1575SOL    HW216188   0.531   4.287  15.371  0.2372 -0.2182  0.1429
 1576SOL     OW16189   0.709   0.610  10.565  0.5962 -0.3919  0.0567
 1576SOL    HW116190   0.788   0.639  10.518  0.9421 -1.2201  0.1241
 1576SOL    HW216191   0.646   0.662  10.514  3.0834  0.6443 -1.9743
 1577SOL     OW16192   4.036   0.194   7.909 -0.1163  0.1151  0.1574
 1577SOL    HW116193   4.113   0.158   7.866 -0.2185  1.3512 -1.0478
 1577SOL    HW216194   4.020   0.269   7.852  2.2601  1.2241  0.9545
 1578SOL     OW16195   3.553   3.740   4.344 -0.3250 -0.0606 -0.4862
 1578SOL    HW116196   3.465   3.729   4.378 -1.1852  2.7806 -1.7704
 1578SOL    HW216197   3.556   3.836   4.339  1.6479 -0.2782 -3.7710
 1579SOL     OW16198   0.146   4.492   2.303 -0.2489  0.3162 -0.7235
 1579SOL    HW116199   0.212   4.423   2.299 -0.7659 -0.1011 -2.1530
 1579SOL    HW216200   0.194   4.572   2.323  1.7086 -1.2063  0.6996
 1580SOL     OW16201   1.572   1.512   1.968  0.2777 -0.5559 -0.0996
 1580SOL    HW116202   1.528   1.597   1.977  1.5298 -0.1545  2.3227
 1580SOL    HW216203   1.626   1.510   2.047  0.5115 -0.7246 -0.2613
 1581SOL     OW16204   4.197   2.477   8.125 -0.3820 -0.0049 -0.2852
 1581SOL    HW116205   4.186   2.506   8.216 -0.8018 -2.2386  0.3939
 1581SOL    HW216206   4.169   2.557   8.081 -0.6069 -0.3061 -0.6929
 1582SOL     OW16207   3.048   2.607   9.930 -0.3964  0.2141  0.1511
 1582SOL    HW116208   2.956   2.622   9.909  0.3265  2.0553 -1.7836
 1582SOL    HW216209   3.074   2.658  10.006 -1.8582  1.6094 -0.2852
 1583SOL     OW16210   0.846   1.766  12.121 -0.5809  0.1601 -0.0052
 1583SOL    HW116211   0.862   1.848  12.168  2.0571 -0.6157  0.4463
 1583SOL    HW216212   0.906   1.769  12.047  0.3297 -2.5053  0.6445
 1584SOL     OW16213   0.649   4.068   3.747  0.0689  0.8913 -0.1782
 1584SOL    HW116214   0.741   4.073   3.772  0.0354 -1.3636  0.3445
 1584SOL    HW216215   0.630   3.975   3.738  0.1385  0.5886  2.6885
 1585SOL     OW16216   0.712   0.655  10.134 -0.2850 -0.0511  0.1778
 1585SOL    HW116217   0.656   0.671  10.210  1.2168 -3.0226  1.9045
 1585SOL    HW216218   0.770   0.585  10.164  1.2782  0.7194 -1.0489
 1586SOL     OW16219   0.071   4.225  17.078 -0.2910  0.5352 -0.3513
 1586SOL    HW116220   0.158   4.237  17.115 -0.8091 -0.1385  1.0839
 1586SOL    HW216221   0.095   4.219  16.985  2.0146 -0.1459  0.2858
 1587SOL     OW16222   3.573   0.238  10.335  0.4981  0.0746  0.2421
 1587SOL    HW116223   3.506   0.287  10.382 -0.6723 -1.1882 -0.1031
 1587SOL    HW216224   3.533   0.150  10.333  0.1704  0.2233  0.1924
 1588SOL     OW16225   0.058   2.132   6.078  0.5691  0.2916  0.1352
 1588SOL    HW116226   0.036   2.215   6.036  1.9555  0.2803 -0.6349
 1588SOL    HW216227   0.103   2.101   5.999 -1.1972  0.0864 -0.7989
 1589SOL     OW16228   2.972   1.911   8.886 -0.5225 -0.1720 -0.2015
 1589SOL    HW116229   2.985   1.826   8.844 -1.5557  0.0215 -0.9150
 1589SOL    HW216230   2.879   1.905   8.908 -0.5920  2.7870  0.3597
 1590SOL     OW16231   4.090   2.091   5.608  0.0292  0.1475 -0.1164
 1590SOL    HW116232   4.056   2.040   5.534 -0.3971  1.3305 -0.7343
 1590SOL    HW216233   4.135   2.156   5.554 -1.3795  0.6083 -0.7435
 1591SOL     OW16234   4.159   0.653  15.657 -0.7125  1.0484 -0.2418
 1591SOL    HW116235   4.159   0.576  15.714  0.2921 -0.4065 -2.2422
 1591SOL    HW216236   4.235   0.639  15.600 -0.1440 -0.9779  1.0243
 1592SOL     OW16237   3.844   1.616   2.231  0.1855 -0.4299  0.1877
 1592SOL    HW116238   3.760   1.570   2.238 -1.1794  1.8393 -1.2626
 1592SOL    HW216239   3.902   1.571   2.293  1.5851  2.7410  1.1883
 1593SOL     OW16240   2.471   2.625  17.561 -0.1558 -0.1145 -0.4750
 1593SOL    HW116241   2.544   2.658  17.614  1.1741  0.3430 -2.6159
 1593SOL    HW216242   2.425   2.566  17.622  1.6306  0.9335  1.9070
 1594SOL     OW16243   2.723   0.527   2.996  0.6286 -0.8086  0.3538
 1594SOL    HW116244   2.725   0.563   3.084 -2.2529 -1.3366  0.6235
 1594SOL    HW216245   2.768   0.589   2.938  2.6918 -1.1999  1.5480
 1595SOL     OW16246   1.029   1.479   1.574  0.1311  0.4783  0.2392
 1595SOL    HW116247   0.983   1.408   1.530  0.5002  1.6489 -2.0587
 1595SOL    HW216248   0.987   1.476   1.660  3.2920  3.7494  1.9080
 1596SOL     OW16249   1.927   4.010   2.271  0.0318 -0.2837 -0.3068
 1596SOL    HW116250   1.954   3.980   2.357  0.1592  0.9798  0.0997
 1596SOL    HW216251   1.857   3.949   2.248 -0.3535 -0.3966  1.2064
 1597SOL     OW16252   3.195   3.257   1.390  0.3821 -0.6812  0.8423
 1597SOL    HW116253   3.192   3.342   1.435 -1.2827 -0.9548  1.2642
 1597SOL    HW216254   3.114   3.265   1.340  0.9398  1.0861  0.2337
 1598SOL     OW16255   4.158   4.179   1.399 -0.5159 -0.0481  0.0630
 1598SOL    HW116256   4.196   4.092   1.383  0.6592  1.0492 -3.2342
 1598SOL    HW216257   4.070   4.179   1.361 -0.4267 -0.7263 -0.1499
 1599SOL     OW16258   4.247   2.491   2.969  0.3719 -0.3562  0.2834
 1599SOL    HW116259   4.166   2.468   2.923  1.5574 -1.3173 -1.3487
 1599SOL    HW216260   4.310   2.480   2.898 -2.0980 -0.5101 -1.8550
 1600SOL     OW16261   2.112   1.949   4.125 -0.3420 -0.0733  0.0559
 1600SOL    HW116262   2.119   1.999   4.207  2.3686 -0.4348  0.0464
 1600SOL    HW216263   2.129   2.013   4.055 -0.3749 -1.8562 -1.5626
 1601SOL     OW16264   3.348   2.099  13.851  0.0018 -0.7826 -0.2231
 1601SOL    HW116265   3.325   2.034  13.785 -1.5524 -2.4784  1.9884
 1601SOL    HW216266   3.291   2.070  13.922 -2.0525 -0.0301 -1.5689
 1602SOL     OW16267   3.662   2.128   5.232  0.3246 -0.0164  1.0112
 1602SOL    HW116268   3.611   2.130   5.151 -1.0341 -0.7496  1.8563
 1602SOL    HW216269   3.630   2.051   5.279 -1.8482 -0.7853 -1.6867
 1603SOL     OW16270   1.506   2.257   3.994 -0.3337  0.5422 -0.1528
 1603SOL    HW116271   1.490   2.165   4.016  1.9412 -0.7001 -3.6589
 1603SOL    HW216272   1.504   2.243   3.900  2.2788  0.2034 -0.1559
 1604SOL     OW16273   3.273   0.612   4.610 -0.5344 -0.5863  0.4493
 1604SOL    HW116274   3.358   0.655   4.621 -0.1234 -1.7149  1.7323
 1604SOL    HW216275   3.234   0.666   4.679  1.0022  1.5152 -0.3230
 1605SOL     OW16276   1.397   1.517   6.817  0.2329 -0.0781 -0.2440
 1605SOL    HW116277   1.315   1.543   6.858  0.7455  0.3579  0.5084
 1605SOL    HW216278   1.448   1.597   6.829  1.6615 -0.9786 -0.2884
 1606SOL     OW16279   0.676   1.007   7.383  0.4227  0.5305 -0.1683
 1606SOL    HW116280   0.767   1.019   7.357  1.2641 -0.3740  2.3179
 1606SOL    HW216281   0.632   1.058   7.315  1.5626  1.5093 -0.1606
 1607SOL     OW16282   2.425   4.455   5.080 -0.2119 -0.0164 -0.2299
 1607SOL    HW116283   2.487   4.392   5.116  1.3127  1.4914 -0.2440
 1607SOL    HW216284   2.352   4.395   5.067  2.1837 -2.9283 -0.2127
 1608SOL     OW16285   0.433   1.422  12.809 -0.4970  0.2632  0.0571
 1608SOL    HW116286   0.500   1.370  12.852 -0.6461  0.9349  1.1103
 1608SOL    HW216287   0.361   1.396  12.866 -0.8086  0.4815 -0.2359
 1609SOL     OW16288   3.317   2.400  10.110 -0.4615  0.1141 -0.2011
 1609SOL    HW116289   3.350   2.337  10.046 -3.8826  0.3775 -2.2622
 1609SOL    HW216290   3.225   2.378  10.126 -0.0188 -0.0576  2.1172
 1610SOL     OW16291   3.810   3.506   1.498 -0.1169 -0.0057 -0.3132
 1610SOL    HW116292   3.772   3.580   1.546 -0.1838 -0.3381  0.1477
 1610SOL    HW216293   3.733   3.475   1.450 -1.2992  2.9494 -0.3556
 1611SOL     OW16294   2.107   0.628   7.627 -0.0429 -0.0842 -0.0205
 1611SOL    HW116295   2.165   0.700   7.654 -1.7351  1.5742 -0.8171
 1611SOL    HW216296   2.152   0.546   7.648 -0.6582  0.3033  2.8036
 1612SOL     OW16297   4.589   0.276  14.478  0.1828  0.2730 -0.0980
 1612SOL    HW116298   4.501   0.261  14.513  0.8623  1.3332  2.0857
 1612SOL    HW216299   4.584   0.240  14.390 -2.3630  0.9101 -0.2245
 1613SOL     OW16300   0.533   1.354   2.737 -0.1201  0.2633 -0.5845
 1613SOL    HW116301   0.607   1.300   2.709 -0.2129 -0.9954  1.6049
 1613SOL    HW216302   0.564   1.391   2.820  1.5374 -0.2429 -0.9708
 1614SOL     OW16303   2.143   2.520   3.214  0.7004 -0.3556  0.6436
 1614SOL    HW116304   2.070   2.579   3.228 -0.2549 -1.0256 -1.5309
 1614SOL    HW216305   2.208   2.573   3.260 -1.2354  1.4850  1.2468
 1615SOL     OW16306   2.508   4.038   4.006  0.8763  0.0420  0.2495
 1615SOL    HW116307   2.505   4.043   4.101  0.4121  1.4656  0.1701
 1615SOL    HW216308   2.594   4.068   3.977  1.0307 -2.3519 -1.7060
 1616SOL     OW16309   3.557   2.886   3.727  0.0302  0.1866  0.1931
 1616SOL    HW116310   3.492   2.822   3.756  0.2462  0.3623  1.0640
 1616SOL    HW216311   3.541   2.959   3.787  1.4867  1.8058 -1.3657
 1617SOL     OW16312   1.835   3.501   1.710 -0.0888  0.1939 -0.1058
 1617SOL    HW116313   1.927   3.526   1.699  0.9838 -2.9329  1.8518
 1617SOL    HW216314   1.811   3.519   1.800 -2.0667 -0.0749 -0.5840
 1618SOL     OW16315   2.891   0.378   8.001  0.3306 -0.0181 -0.7174
 1618SOL    HW116316   2.887   0.469   8.027  2.7992  0.0914 -0.6612
 1618SOL    HW216317   2.870   0.329   8.080 -0.6726  0.6998 -0.5416
 1619SOL     OW16318   3.251   3.565   9.911 -0.2440 -0.2766 -0.0593
 1619SOL    HW116319   3.325   3.539   9.855  0.3662 -0.3281  0.7646
 1619SOL    HW216320   3.273   3.658   9.907  0.3142 -0.3843  0.5613
 1620SOL     OW16321   0.205   0.143   6.086 -0.1068 -0.0526  0.4844
 1620SOL    HW116322   0.194   0.170   6.177  2.4170  2.4093  0.0526
 1620SOL    HW216323   0.223   0.050   6.100  0.3127 -0.0885 -0.2588
 1621SOL     OW16324   3.174   3.469  12.365 -0.0047 -0.2075 -0.3151
 1621SOL    HW116325   3.127   3.392  12.334 -2.3757  0.2642  2.1406
 1621SOL    HW216326   3.157   3.534  12.297  0.4906  0.1789 -0.0765
 1622SOL     OW16327   3.651   3.723  15.301 -0.0164 -0.0978  0.0819
 1622SOL    HW116328   3.646   3.669  15.379 -0.4858 -1.5322 -0.9450
 1622SOL    HW216329   3.716   3.679  15.246 -0.1558 -0.7450  0.4379
 1623SOL     OW16330   1.146   1.775  15.338  0.1889 -0.2569  1.0104
 1623SOL    HW116331   1.065   1.802  15.293  0.2411 -0.3904  0.8382
 1623SOL    HW216332   1.201   1.751  15.263 -0.4611  0.0020  0.4440
 1624SOL     OW16333   3.205   2.513   1.173 -0.4040  0.2617  0.3273
 1624SOL    HW116334   3.244   2.548   1.093 -2.1748 -2.0427 -1.5216
 1624SOL    HW216335   3.112   2.523   1.153 -0.3778  0.2838  0.2154
 1625SOL     OW16336   2.933   2.806  14.613  0.5857 -0.2928 -0.1810
 1625SOL    HW116337   2.911   2.755  14.691  1.0752 -0.6840 -0.2964
 1625SOL    HW216338   2.931   2.741  14.543  0.3711  0.5037 -0.9269
 1626SOL     OW16339   3.547   2.591   7.813 -0.0262 -0.4043  0.4992
 1626SOL    HW116340   3.475   2.607   7.874  0.1568 -0.1668  0.6487
 1626SOL    HW216341   3.490   2.572   7.738 -0.7404  0.7352  0.7628
 1627SOL     OW16342   2.037   3.284  11.350  0.2404  0.2022 -0.1526
 1627SOL    HW116343   2.127   3.300  11.322  0.1281 -0.7254 -1.0498
 1627SOL    HW216344   2.051   3.248  11.438  1.8810 -1.3373 -1.0455
 1628SOL     OW16345   0.071   2.908   5.859 -0.3963  0.7285 -0.2450
 1628SOL    HW116346   0.077   3.002   5.878  3.5570  0.3315  0.5230
 1628SOL    HW216347   0.113   2.879   5.940 -1.3873  0.1228  0.0427
 1629SOL     OW16348   2.472   4.221   6.097 -0.0966  0.1904 -0.3376
 1629SOL    HW116349   2.411   4.270   6.152 -0.5574 -0.9898  0.2076
 1629SOL    HW216350   2.551   4.247   6.143  0.3143 -0.0794 -0.8918
 1630SOL     OW16351   4.243   2.582  15.006  0.0239  0.5036 -0.4065
 1630SOL    HW116352   4.240   2.675  14.983  1.8692  0.7650  0.4010
 1630SOL    HW216353   4.268   2.546  14.921  0.1175 -0.6320  0.1041
 1631SOL     OW16354   4.506   0.946   7.415  0.3437 -0.2601  0.2334
 1631SOL    HW116355   4.483   0.888   7.487  0.3613 -0.7812 -0.1831
 1631SOL    HW216356   4.597   0.919   7.409 -0.0162 -1.5411  0.7011
 1632SOL     OW16357   0.364   0.904  17.067  0.0294 -0.4369  0.6074
 1632SOL    HW116358   0.296   0.906  16.999  1.3806  1.3889 -0.6935
 1632SOL    HW216359   0.338   0.829  17.120  0.9163 -0.2611  1.3040
 1633SOL     OW16360   3.096   2.508   8.769  0.2049  0.6269 -0.3377
 1633SOL    HW116361   3.084   2.505   8.864  1.8175 -2.0568 -0.2276
 1633SOL    HW216362   3.018   2.478   8.723 -0.1732  1.1062  0.0031
 1634SOL     OW16363   2.398   3.569  14.047  0.0139 -0.2260  0.2473
 1634SOL    HW116364   2.428   3.657  14.067 -1.6407  0.1638  1.0317
 1634SOL    HW216365   2.418   3.560  13.953  1.7975 -0.3777  0.6374
 1635SOL     OW16366   2.238   2.035   4.577 -0.2300 -0.5273  0.1081
 1635SOL    HW116367   2.259   2.124   4.603 -1.4420 -0.4499  0.8209
 1635SOL    HW216368   2.320   1.987   4.585 -0.2365 -0.5152  0.2404
 1636SOL     OW16369   3.539   1.978   3.457 -0.7064  0.0008 -0.3950
 1636SOL    HW116370   3.460   2.012   3.414 -1.3705 -0.1264  0.7195
 1636SOL    HW216371   3.505   1.894   3.486  2.1413 -0.0503  2.8046
 1637SOL     OW16372   1.187   1.002   5.358 -0.0071 -0.4009 -0.0263
 1637SOL    HW116373   1.272   0.973   5.324 -0.2386 -0.6143 -0.4296
 1637SOL    HW216374   1.131   0.986   5.282  0.7814  2.0389 -1.1426
 1638SOL     OW16375   0.560   2.375   8.824 -0.7107  0.3211 -0.7912
 1638SOL    HW116376   0.494   2.422   8.874  0.1641  2.9472 -2.0616
 1638SOL    HW216377   0.605   2.448   8.780  1.2512 -1.6044 -1.9517
 1639SOL     OW16378   2.963   2.113   3.790 -0.5918  0.1788 -0.0192
 1639SOL    HW116379   2.984   2.177   3.857  3.3920  1.9451 -2.9529
 1639SOL    HW216380   3.014   2.039   3.821 -1.2214 -1.2321 -2.2751
 1640SOL     OW16381   1.175   2.803   5.333  0.3422 -0.1162 -0.0171
 1640SOL    HW116382   1.181   2.714   5.297 -1.8048 -0.2121 -0.1541
 1640SOL    HW216383   1.081   2.820   5.325  0.6536  0.8141 -1.7270
 1641SOL     OW16384   3.814   0.017  15.515  0.5687  0.4278 -0.5580
 1641SOL    HW116385   3.845   0.106  15.501 -0.5279  0.3733 -3.3283
 1641SOL    HW216386   3.862   4.698  15.443  0.1634  0.7844 -1.0305
 1642SOL     OW16387   3.752   1.509   2.759  0.1080 -0.0725  0.3020
 1642SOL    HW116388   3.792   1.431   2.722 -0.9034 -0.5729  0.2611
 1642SOL    HW216389   3.660   1.492   2.739  0.2377 -0.1646 -0.2201
 1643SOL     OW16390   2.839   0.807   5.398  0.2267  0.2722  0.0962
 1643SOL    HW116391   2.870   0.895   5.420  0.4466 -0.3467  2.2666
 1643SOL    HW216392   2.851   0.763   5.482 -2.2053  1.3691  1.0150
 1644SOL     OW16393   1.023   2.774   9.300 -0.4510 -0.4984  0.3429
 1644SOL    HW116394   1.060   2.797   9.215  0.3917 -0.5690  0.6809
 1644SOL    HW216395   1.101   2.741   9.346  1.4289  2.5458 -0.6263
 1645SOL     OW16396   0.600   2.693  15.111 -0.0430  0.4557 -0.7215
 1645SOL    HW116397   0.683   2.740  15.120  1.8953 -2.7801 -1.7742
 1645SOL    HW216398   0.552   2.742  15.178 -2.2383 -1.3824 -0.9456
 1646SOL     OW16399   1.772   3.453   6.609  0.7490 -0.1584 -0.3559
 1646SOL    HW116400   1.679   3.432   6.617  0.7384 -0.1970 -0.5702
 1646SOL    HW216401   1.775   3.531   6.664  1.2670 -0.4556  0.0383
 1647SOL     OW16402   1.782   2.837   2.208  0.0183  0.0819  0.6721
 1647SOL    HW116403   1.857   2.891   2.232 -1.6044  2.0435  1.3354
 1647SOL    HW216404   1.707   2.890   2.235  2.2959  2.9522  1.3619
 1648SOL     OW16405   2.809   1.144   9.953 -0.6989 -0.5964  0.1420
 1648SOL    HW116406   2.824   1.219   9.896  0.1208  0.1073  1.3049
 1648SOL    HW216407   2.834   1.188  10.034 -0.5403 -0.4757  0.0249
 1649SOL     OW16408   2.378   4.017   8.071  0.3658 -0.1434  0.0825
 1649SOL    HW116409   2.384   4.046   8.162 -0.2984 -0.2938  0.1777
 1649SOL    HW216410   2.373   4.098   8.020  0.3409  0.1953  0.6213
 1650SOL     OW16411   1.647   3.668   4.469 -0.3658  0.0088  0.0029
 1650SOL    HW116412   1.650   3.620   4.552  1.1893  0.3045  0.1076
 1650SOL    HW216413   1.734   3.694   4.441 -0.3906  0.4347  0.3301
 1651SOL     OW16414   1.986   2.868  11.047  0.3684 -0.4365 -0.1497
 1651SOL    HW116415   2.035   2.889  11.127 -1.1790 -0.1368  0.7248
 1651SOL    HW216416   2.026   2.782  11.052  2.5290  0.5881  0.2655
 1652SOL     OW16417   3.815   1.398  11.668  0.2542 -0.2043 -0.5316
 1652SOL    HW116418   3.867   1.337  11.615 -1.0446  0.5467 -2.6736
 1652SOL    HW216419   3.746   1.347  11.709  1.2239  0.8376  2.4125
 1653SOL     OW16420   3.357   4.360   8.171 -0.2062 -1.0596  0.1723
 1653SOL    HW116421   3.304   4.391   8.098 -1.0771 -0.5618  1.0217
 1653SOL    HW216422   3.346   4.436   8.229  4.6005 -0.5862  0.5165
 1654SOL     OW16423   1.640   0.260   3.253  0.1404 -0.4516  0.0909
 1654SOL    HW116424   1.548   0.276   3.273  0.6234  0.1826  1.7938
 1654SOL    HW216425   1.652   0.168   3.276  0.8590 -0.2543  0.4902
 1655SOL     OW16426   3.375   0.836   6.267 -0.2073  0.1528  0.4331
 1655SOL    HW116427   3.299   0.815   6.320 -1.4004  0.4332 -1.1815
 1655SOL    HW216428   3.426   0.760   6.295  1.4057  0.2669 -2.2252
 1656SOL     OW16429   3.669   4.333  10.496  0.1591 -0.6357 -0.1248
 1656SOL    HW116430   3.659   4.268  10.426  2.6318 -0.9791 -0.1427
 1656SOL    HW216431   3.618   4.402  10.453  1.2720 -0.1412 -0.6360
 1657SOL     OW16432   3.080   3.361   9.051 -0.1823 -0.6683  0.4081
 1657SOL    HW116433   3.161   3.340   9.098 -0.0330 -1.5793 -0.2575
 1657SOL    HW216434   3.024   3.284   9.046 -1.3400  0.3575 -2.4621
 1658SOL     OW16435   4.019   3.146   8.921 -0.2303 -0.2206 -0.2106
 1658SOL    HW116436   3.993   3.057   8.897  3.0154  0.0190 -4.5380
 1658SOL    HW216437   3.971   3.191   8.851 -0.5456 -1.6042 -0.8871
 1659SOL     OW16438   1.098   2.086   1.969 -0.7367 -0.4858 -0.6740
 1659SOL    HW116439   1.025   2.095   2.030  1.1100 -1.0620  1.5826
 1659SOL    HW216440   1.087   2.168   1.920 -0.8636  0.2910  0.6595
 1660SOL     OW16441   3.609   3.776  10.846 -0.6308  0.6385 -0.5955
 1660SOL    HW116442   3.703   3.756  10.843 -0.3179  2.5158 -3.3571
 1660SOL    HW216443   3.569   3.705  10.897  2.2783 -0.0053  0.7955
 1661SOL     OW16444   3.018   2.451   3.216 -0.1639  0.2231 -0.4110
 1661SOL    HW116445   3.063   2.527   3.179 -0.4814 -0.0093 -1.2769
 1661SOL    HW216446   2.986   2.490   3.297 -2.5788  0.5495 -1.5398
 1662SOL     OW16447   0.164   4.516  10.923 -0.3537 -0.5571  0.2067
 1662SOL    HW116448   0.077   4.555  10.913 -0.8466 -1.1906  2.0115
 1662SOL    HW216449   0.147   4.438  10.870  0.0235 -1.7644  1.8855
 1663SOL     OW16450   2.567   4.625   4.160  0.2363 -0.3163  0.3891
 1663SOL    HW116451   2.481   4.594   4.186  0.3113  0.4627  1.5742
 1663SOL    HW216452   2.578   4.598   4.069 -0.7766  0.5522  0.0158
 1664SOL     OW16453   1.221   1.279   7.050 -0.2825  0.2690 -0.5677
 1664SOL    HW116454   1.199   1.197   7.006  1.7736 -0.3974 -0.3562
 1664SOL    HW216455   1.138   1.318   7.078  0.0305  1.8289 -1.8029
 1665SOL     OW16456   2.130   1.829   5.890 -0.4684 -0.5852 -0.7375
 1665SOL    HW116457   2.044   1.862   5.917 -1.1539 -1.5753 -1.6835
 1665SOL    HW216458   2.103   1.774   5.816 -2.2831  1.1104 -1.3505
 1666SOL     OW16459   1.110   1.310  13.948 -0.3869  0.2547  0.2255
 1666SOL    HW116460   1.135   1.241  14.010  0.1148  0.7161  0.5382
 1666SOL    HW216461   1.187   1.367  13.945 -0.2531  0.0292 -0.5845
 1667SOL     OW16462   0.823   2.556   7.088 -0.2677 -0.1068 -0.0622
 1667SOL    HW116463   0.838   2.523   7.000  0.4005 -0.3293  0.1333
 1667SOL    HW216464   0.770   2.635   7.077  2.8932  1.4665 -3.8624
 1668SOL     OW16465   1.772   1.496   5.700 -0.7060 -0.1438 -0.0298
 1668SOL    HW116466   1.714   1.487   5.624  0.4543  1.8166 -1.1538
 1668SOL    HW216467   1.719   1.438   5.754 -1.4407 -0.2642 -0.8900
 1669SOL     OW16468   1.964   1.770   2.822 -0.5503 -0.2239  0.6694
 1669SOL    HW116469   1.956   1.816   2.738  0.8354 -0.9371  0.1500
 1669SOL    HW216470   1.905   1.830   2.868 -0.6547  1.7837 -2.1341
 1670SOL     OW16471   1.595   0.040  10.627 -0.0013  0.5479  0.0269
 1670SOL    HW116472   1.653   0.031  10.703 -0.9621 -2.9146  0.3606
 1670SOL    HW216473   1.632   4.700  10.565 -0.3876  0.6543 -0.3077
 1671SOL     OW16474   4.538   3.183   0.511  0.2104 -0.0376  0.3608
 1671SOL    HW116475   4.499   3.104   0.549  0.6965 -0.8496 -0.8262
 1671SOL    HW216476   4.563   3.239   0.584  0.9913 -1.4790  1.1945
 1672SOL     OW16477   1.257   1.704   5.726 -0.6187  0.2003 -0.9991
 1672SOL    HW116478   1.337   1.723   5.677  0.0104  2.3228  0.8285
 1672SOL    HW216479   1.224   1.792   5.744 -1.1120  0.2084 -1.9466
 1673SOL     OW16480   2.242   4.218  11.086 -0.2784 -0.0535 -0.8118
 1673SOL    HW116481   2.319   4.229  11.029 -0.1365 -0.1704 -0.6449
 1673SOL    HW216482   2.209   4.307  11.092  1.3514  0.4759  0.2705
 1674SOL     OW16483   1.010   1.462  17.302 -0.5151 -0.4726  0.0515
 1674SOL    HW116484   1.065   1.521  17.251  0.9399 -1.6693  0.2429
 1674SOL    HW216485   1.046   1.382  17.265  1.2255 -0.7169  2.3123
 1675SOL     OW16486   3.927   2.945   6.507  0.0918 -0.1062  0.3653
 1675SOL    HW116487   3.929   2.858   6.548 -2.1024 -1.0947 -1.5921
 1675SOL    HW216488   4.019   2.970   6.507  0.1510 -0.3225 -1.0010
 1676SOL     OW16489   1.077   0.554   1.942 -0.4269 -0.2161  0.3650
 1676SOL    HW116490   1.147   0.604   1.901 -0.5804 -0.8234 -0.6732
 1676SOL    HW216491   1.019   0.629   1.950  0.4901  0.3273  1.7625
 1677SOL     OW16492   0.907   2.978   7.991 -0.0524  0.2591  0.1380
 1677SOL    HW116493   0.915   2.981   8.087  0.1123 -0.6987  0.1532
 1677SOL    HW216494   0.981   2.919   7.985 -1.6326 -1.9368  2.2530
 1678SOL     OW16495   4.112   0.049   0.557 -0.1884  0.1619  0.1498
 1678SOL    HW116496   4.054   0.125   0.546  0.7920  0.8999  0.0562
 1678SOL    HW216497   4.067   0.004   0.629 -0.6992  1.7036  0.7976
 1679SOL     OW16498   3.401   0.342  10.083 -0.2039 -0.2055 -0.4103
 1679SOL    HW116499   3.400   0.407  10.154 -0.6923 -0.4493 -0.1926
 1679SOL    HW216500   3.317   0.355  10.039 -1.9880  0.5226  3.2028
 1680SOL     OW16501   0.109   3.341   7.611 -0.5628  0.2824  0.5877
 1680SOL    HW116502   0.127   3.268   7.553  0.1150 -1.1205  2.5835
 1680SOL    HW216503   0.195   3.351   7.653 -0.4792 -0.0368  0.4866
 1681SOL     OW16504   1.014   1.413  12.062 -0.8722 -0.1281 -0.2911
 1681SOL    HW116505   0.922   1.436  12.047 -0.5067  0.0866 -2.1888
 1681SOL    HW216506   1.004   1.350  12.133  0.9992  0.8415  0.8398
 1682SOL     OW16507   2.279   3.178   2.729 -0.3386 -0.0061  0.3797
 1682SOL    HW116508   2.240   3.161   2.643  1.4127  1.0927 -0.6339
 1682SOL    HW216509   2.202   3.183   2.786 -0.7337 -1.1059 -0.0461
 1683SOL     OW16510   1.606   2.956   8.199  0.2340  0.0512  0.1966
 1683SOL    HW116511   1.600   3.008   8.119 -0.4807 -0.9464 -0.3957
 1683SOL    HW216512   1.571   3.024   8.257 -0.3234 -0.5614  0.5845
 1684SOL     OW16513   3.408   1.796   9.817 -0.6893  0.1755 -0.6847
 1684SOL    HW116514   3.442   1.777   9.905  1.4631 -1.0538 -1.7718
 1684SOL    HW216515   3.481   1.773   9.759  0.1313  0.3162  0.2834
 1685SOL     OW16516   4.621   0.975   8.105 -0.0732 -0.5056  0.6496
 1685SOL    HW116517   4.601   1.034   8.178  0.7054  0.2724  0.2403
 1685SOL    HW216518   4.699   1.016   8.068 -2.2691  1.8329 -1.3913
 1686SOL     OW16519   1.262   1.251   5.543 -0.4405 -0.2291  0.0364
 1686SOL    HW116520   1.258   1.190   5.470 -1.8969  1.3184 -1.1686
 1686SOL    HW216521   1.181   1.297   5.523 -0.2748  0.0236 -0.0421
 1687SOL     OW16522   0.160   1.262   5.505  0.1223  0.2602  0.0067
 1687SOL    HW116523   0.102   1.196   5.542  1.8171 -2.1870 -1.6554
 1687SOL    HW216524   0.174   1.314   5.584  0.3923  0.4288 -0.1528
 1688SOL     OW16525   3.236   3.760   4.869  0.0182  0.4560 -0.0459
 1688SOL    HW116526   3.314   3.812   4.847  0.1779 -0.6353 -2.1068
 1688SOL    HW216527   3.180   3.781   4.794  0.7405 -0.3689 -0.8221
 1689SOL     OW16528   2.675   0.399  17.474  0.0841 -0.0780  0.1418
 1689SOL    HW116529   2.626   0.474  17.509 -0.6341  0.1206 -1.3066
 1689SOL    HW216530   2.712   0.365  17.556 -0.5707 -2.5081 -0.5640
 1690SOL     OW16531   4.659   0.897  17.115  0.2216 -0.2773 -0.4062
 1690SOL    HW116532   4.702   0.970  17.070 -1.1307 -0.3407 -1.8114
 1690SOL    HW216533   0.000   0.882  17.185  0.0722  0.1639 -0.1720
 1691SOL     OW16534   3.560   3.633  16.111  1.4216 -0.0550  0.2835
 1691SOL    HW116535   3.591   3.721  16.089 -0.2301  0.4177 -0.0890
 1691SOL    HW216536   3.466   3.650  16.108  1.3644 -0.2952  0.6755
 1692SOL     OW16537   1.901   0.188   4.254 -0.0593 -0.2170  0.3453
 1692SOL    HW116538   1.921   0.125   4.324  0.5041 -0.3599  0.0525
 1692SOL    HW216539   1.924   0.133   4.180  0.2577  1.1442 -0.5684
 1693SOL     OW16540   0.794   1.747  13.221 -0.0294  0.0001  0.6557
 1693SOL    HW116541   0.782   1.774  13.130 -2.9789 -1.4854  0.5942
 1693SOL    HW216542   0.714   1.702  13.251  0.1523  0.2648  1.5253
 1694SOL     OW16543   2.629   2.380   6.693 -0.7036 -0.4435 -0.3992
 1694SOL    HW116544   2.534   2.386   6.703 -0.7011 -0.7600 -0.2088
 1694SOL    HW216545   2.641   2.414   6.604 -0.6872 -2.2925 -1.1000
 1695SOL     OW16546   3.807   3.321   0.133 -0.1643 -0.0934 -0.8157
 1695SOL    HW116547   3.826   3.237   0.091 -0.6887 -1.2335  1.2172
 1695SOL    HW216548   3.865   3.294   0.204  1.3713  0.3465 -1.9163
 1696SOL     OW16549   2.304   4.083   8.894  0.3567  0.0075  0.0923
 1696SOL    HW116550   2.384   4.048   8.854 -0.0906 -0.3243 -0.5186
 1696SOL    HW216551   2.250   4.103   8.818 -1.2410 -0.3203  1.1470
 1697SOL     OW16552   1.333   2.339  13.804 -0.5809  0.3755  0.1182
 1697SOL    HW116553   1.412   2.290  13.782 -0.4959  0.5393  0.0534
 1697SOL    HW216554   1.350   2.349  13.897 -2.0118 -0.2731  0.4550
 1698SOL     OW16555   4.027   0.586  15.104  0.5898  0.5007 -0.0637
 1698SOL    HW116556   3.955   0.608  15.164  1.7168  1.2239  1.0354
 1698SOL    HW216557   4.073   0.670  15.097  2.9148 -0.7475  0.1014
 1699SOL     OW16558   3.361   1.897   1.997  0.5975  0.3283  0.3567
 1699SOL    HW116559   3.270   1.908   2.026  0.8165 -0.1265  1.2258
 1699SOL    HW216560   3.382   1.989   1.985  1.4719  0.1413  0.4342
 1700SOL     OW16561   2.175   1.789  16.695 -0.4634  0.3364 -0.0526
 1700SOL    HW116562   2.098   1.835  16.659  1.5307  2.3194 -1.7779
 1700SOL    HW216563   2.155   1.697  16.680 -0.3472  0.4407 -0.8356
 1701SOL     OW16564   0.411   3.187   4.092 -0.0020 -0.2510  0.1567
 1701SOL    HW116565   0.389   3.096   4.074  4.8442 -0.9910 -2.2749
 1701SOL    HW216566   0.332   3.240   4.088 -0.2497 -0.5131  1.7046
 1702SOL     OW16567   3.448   4.079   9.347  0.0106  0.4210 -0.0028
 1702SOL    HW116568   3.399   4.091   9.428  0.0169  1.7210 -0.1900
 1702SOL    HW216569   3.380   4.112   9.288 -0.6457 -0.9278  0.0007
 1703SOL     OW16570   4.105   2.023   7.347  0.6560 -0.0647  0.4927
 1703SOL    HW116571   4.082   2.058   7.433 -0.8616  1.9332 -0.7305
 1703SOL    HW216572   4.039   2.067   7.294 -0.7721 -0.7893  1.6715
 1704SOL     OW16573   1.408   0.369   3.758  0.1423  0.0417  0.0086
 1704SOL    HW116574   1.499   0.354   3.733  0.6493  2.4343  0.4098
 1704SOL    HW216575   1.397   0.463   3.745 -0.2918  0.1152  0.9193
 1705SOL     OW16576   3.763   1.098   6.005 -0.3095  0.4311  0.6969
 1705SOL    HW116577   3.782   1.109   6.098 -2.4186  0.7488  1.0869
 1705SOL    HW216578   3.670   1.122   6.009 -0.5731 -0.3709 -0.5833
 1706SOL     OW16579   0.662   3.877   2.555 -0.9901  0.4088  0.0805
 1706SOL    HW116580   0.750   3.842   2.551 -1.7911 -1.7367  1.3074
 1706SOL    HW216581   0.641   3.853   2.645 -1.3718  0.2804 -0.0412
 1707SOL     OW16582   1.708   4.115  12.277  1.1423 -0.5026 -0.3504
 1707SOL    HW116583   1.718   4.193  12.332  1.2113 -2.5166  2.4727
 1707SOL    HW216584   1.773   4.134  12.210 -1.9329  1.4057 -2.7783
 1708SOL     OW16585   3.619   2.682   2.045  0.0454  0.1978 -0.7591
 1708SOL    HW116586   3.611   2.761   1.992  0.7326  0.1212 -0.9733
 1708SOL    HW216587   3.588   2.624   1.976 -1.5916  0.7113 -0.4632
 1709SOL     OW16588   3.767   3.127   9.742  0.1543 -0.2110 -0.3048
 1709SOL    HW116589   3.678   3.115   9.773  0.7524 -1.5274  0.8659
 1709SOL    HW216590   3.739   3.154   9.654 -0.7185 -0.7570 -0.1916
 1710SOL     OW16591   2.966   3.644   3.063 -0.2014 -0.0038 -0.9105
 1710SOL    HW116592   2.917   3.600   2.994 -1.6863  1.6160 -0.8941
 1710SOL    HW216593   3.000   3.569   3.112 -1.6232  0.8247  1.3643
 1711SOL     OW16594   0.588   2.539   2.369  0.2310 -0.6087  0.1785
 1711SOL    HW116595   0.669   2.497   2.400 -0.7128 -0.6838  2.5474
 1711SOL    HW216596   0.587   2.505   2.280  2.3482  1.2665 -0.5561
 1712SOL     OW16597   0.958   4.131   3.822 -0.2334  0.6285 -0.2828
 1712SOL    HW116598   0.929   4.051   3.778 -0.4290  0.3269  0.3940
 1712SOL    HW216599   1.051   4.126   3.802 -0.1444 -0.1920  0.3590
 1713SOL     OW16600   1.047   0.768  12.017 -0.1159 -0.1138  0.3696
 1713SOL    HW116601   1.022   0.817  11.939  0.0502  1.4875  1.3045
 1713SOL    HW216602   1.048   0.830  12.091 -0.6792 -0.4620  0.6703
 1714SOL     OW16603   3.363   3.800   5.983  0.0830 -0.2810 -0.1559
 1714SOL    HW116604   3.274   3.833   5.973  0.1795  0.9073  2.7750
 1714SOL    HW216605   3.365   3.807   6.079  0.0084 -2.3879 -0.0111
 1715SOL     OW16606   0.837   4.649   5.899  0.0674  0.1413 -0.0665
 1715SOL    HW116607   0.841   4.662   5.994 -0.2695  0.6355 -0.1199
 1715SOL    HW216608   0.847   4.554   5.899 -0.0957  0.1306 -1.3487
 1716SOL     OW16609   2.430   3.420   2.236 -0.4683 -0.6434  0.3040
 1716SOL    HW116610   2.347   3.448   2.196 -1.1611 -1.5802  1.0791
 1716SOL    HW216611   2.466   3.507   2.253  0.9405 -1.4415  1.3601
 1717SOL     OW16612   3.502   3.530   4.998  0.3652  0.3276 -0.3411
 1717SOL    HW116613   3.498   3.496   5.087 -0.5120 -2.6745 -1.5174
 1717SOL    HW216614   3.417   3.514   4.956  0.8819 -0.1050 -1.2225
 1718SOL     OW16615   2.593   4.041   3.090 -0.0826 -0.3666  0.7315
 1718SOL    HW116616   2.626   4.130   3.101 -1.2722  0.2515 -0.6727
 1718SOL    HW216617   2.575   4.031   2.996  0.0211 -1.8151  0.8541
 1719SOL     OW16618   2.936   4.153   2.326 -0.5365 -0.3308 -0.4896
 1719SOL    HW116619   3.002   4.222   2.320 -0.5453 -0.2242  0.7328
 1719SOL    HW216620   2.967   4.086   2.265  0.2285 -0.9308  0.5455
 1720SOL     OW16621   3.655   2.501   7.100 -0.1333 -0.0639  0.6265
 1720SOL    HW116622   3.748   2.506   7.124  0.4706 -1.3053 -1.4278
 1720SOL    HW216623   3.651   2.593   7.076  0.5014 -1.0592 -3.2607
 1721SOL     OW16624   0.440   1.143  13.315 -0.3183  0.5028 -0.1808
 1721SOL    HW116625   0.458   1.223  13.265 -0.3109  0.8595  0.3924
 1721SOL    HW216626   0.356   1.114  13.280  0.0624 -0.9587  0.1370
 1722SOL     OW16627   1.874   2.409  13.773 -0.0630 -0.4042  0.0055
 1722SOL    HW116628   1.787   2.427  13.808  1.0776  2.8835  1.1190
 1722SOL    HW216629   1.931   2.432  13.847 -0.5069 -0.5918  0.4108
 1723SOL     OW16630   4.677   2.881   3.614  0.0901  0.5344 -0.5821
 1723SOL    HW116631   4.608   2.903   3.676 -2.4788 -0.6116 -3.0814
 1723SOL    HW216632   4.657   2.799   3.570  1.1336  1.4062 -2.6775
 1724SOL     OW16633   1.570   4.418   7.610  0.2021 -0.7245 -0.2999
 1724SOL    HW116634   1.494   4.366   7.585  1.3525 -2.4854 -0.1995
 1724SOL    HW216635   1.605   4.374   7.688  0.6212 -2.1818 -1.2964
 1725SOL     OW16636   1.244   3.872   5.590 -0.1905 -0.3356  0.4477
 1725SOL    HW116637   1.208   3.907   5.508 -1.8182  0.0342  1.3221
 1725SOL    HW216638   1.320   3.827   5.552 -0.6974  0.1083 -1.1059
 1726SOL     OW16639   3.374   2.102   7.498 -0.9322 -0.1570 -0.8207
 1726SOL    HW116640   3.407   2.102   7.408 -1.4155  1.0755 -1.0084
 1726SOL    HW216641   3.443   2.148   7.546 -1.9917  0.5696  0.0179
 1727SOL     OW16642   0.689   4.587   8.078 -0.1053 -0.1129 -0.2414
 1727SOL    HW116643   0.717   4.669   8.038  0.7721 -0.1641  0.2555
 1727SOL    HW216644   0.700   4.534   7.999  1.2074 -0.8166  0.4165
 1728SOL     OW16645   4.128   0.918  17.462 -0.1597 -0.5792  0.4611
 1728SOL    HW116646   4.221   0.899  17.462  0.2098  1.2212 -2.1021
 1728SOL    HW216647   4.112   0.934  17.555  3.1685  1.5066  0.6439
 1729SOL     OW16648   0.358   3.783   7.610 -0.2200 -0.1413  0.0132
 1729SOL    HW116649   0.273   3.763   7.649 -0.7220  1.3531 -0.3300
 1729SOL    HW216650   0.410   3.778   7.691  0.4825  1.8827 -0.3223
 1730SOL     OW16651   1.849   2.012   1.137  0.2312  0.0821 -0.1973
 1730SOL    HW116652   1.784   1.957   1.091  2.6184 -1.2117 -2.0200
 1730SOL    HW216653   1.920   2.005   1.073  1.1718  1.5937  0.7002
 1731SOL     OW16654   0.984   1.716   8.876 -0.3170 -0.0769  0.0298
 1731SOL    HW116655   1.076   1.741   8.874 -0.5202  0.7521  0.8959
 1731SOL    HW216656   0.988   1.658   8.801  2.2053  1.0461 -0.6973
 1732SOL     OW16657   3.646   3.578  15.529  0.4854 -0.2360 -0.0606
 1732SOL    HW116658   3.624   3.632  15.605 -1.6729  0.3086 -1.0871
 1732SOL    HW216659   3.739   3.569  15.551  0.7688 -0.7046 -1.4901
 1733SOL     OW16660   3.919   2.883   7.971  0.6423  0.7707 -0.2017
 1733SOL    HW116661   3.997   2.901   7.919  1.4525 -0.5794  0.5352
 1733SOL    HW216662   3.853   2.868   7.904 -0.5601 -1.0386  1.3952
 1734SOL     OW16663   4.454   2.360   4.404 -0.2356 -0.2177  0.0179
 1734SOL    HW116664   4.507   2.438   4.387  0.7558 -0.0817  3.8410
 1734SOL    HW216665   4.374   2.391   4.445  0.6710  0.8780  0.9607
 1735SOL     OW16666   1.329   0.645   2.785 -0.0639 -0.6208  0.1846
 1735SOL    HW116667   1.251   0.694   2.759  0.7330 -0.5319 -1.9606
 1735SOL    HW216668   1.317   0.557   2.751  0.8465 -0.3885 -0.7212
 1736SOL     OW16669   3.486   4.293   2.749 -0.9058  0.5733  0.4591
 1736SOL    HW116670   3.411   4.265   2.802  0.0799  1.3816  2.2516
 1736SOL    HW216671   3.466   4.254   2.664 -2.3325 -0.1276  1.1061
 1737SOL     OW16672   0.761   1.317   2.200 -0.4028 -0.4271  0.1283
 1737SOL    HW116673   0.765   1.384   2.131  3.1128 -1.2445 -0.4637
 1737SOL    HW216674   0.815   1.345   2.273 -1.1439 -1.4184  1.0478
 1738SOL     OW16675   0.946   1.819   4.536 -0.0941  0.0435  0.3060
 1738SOL    HW116676   0.919   1.910   4.529  0.3048  0.0268 -1.6001
 1738SOL    HW216677   0.955   1.806   4.630 -1.7320 -0.4426  0.3955
 1739SOL     OW16678   2.248   0.956   2.723 -0.6518  0.2843 -0.2455
 1739SOL    HW116679   2.336   0.922   2.740  0.5736  2.6576 -1.7529
 1739SOL    HW216680   2.227   1.019   2.792  2.4184  0.9251  0.1282
 1740SOL     OW16681   1.677   1.826   8.801 -0.1765 -0.7148 -0.2509
 1740SOL    HW116682   1.622   1.837   8.879 -1.4562  1.7953 -1.5210
 1740SOL    HW216683   1.769   1.813   8.824  0.4658  1.4291 -1.5530
 1741SOL     OW16684   1.125   0.995   0.822  0.2744  0.8786 -0.4370
 1741SOL    HW116685   1.122   0.913   0.772 -2.9879  1.4892 -1.2682
 1741SOL    HW216686   1.160   1.064   0.767 -1.5754  2.0135 -0.2021
 1742SOL     OW16687   2.395   2.328   4.602 -0.2223  0.2942  0.3118
 1742SOL    HW116688   2.434   2.263   4.661  0.7465  2.9571  2.5994
 1742SOL    HW216689   2.467   2.390   4.594  1.5799 -1.7219  0.7860
 1743SOL     OW16690   3.465   3.207   3.395 -0.1811  0.1594  0.1737
 1743SOL    HW116691   3.534   3.274   3.397  0.1690 -0.1842 -0.2846
 1743SOL    HW216692   3.390   3.265   3.380  1.5147  2.1524 -0.6001
 1744SOL     OW16693   4.440   3.909   5.730 -0.6087 -0.2290 -0.4275
 1744SOL    HW116694   4.347   3.932   5.737 -0.1577  1.7203 -0.7413
 1744SOL    HW216695   4.446   3.814   5.725  3.3153  0.0469 -0.8808
 1745SOL     OW16696   1.357   1.001  13.291  0.6622 -0.1639  1.1753
 1745SOL    HW116697   1.340   1.070  13.355 -1.2407  0.0901  0.4029
 1745SOL    HW216698   1.305   0.926  13.321 -0.9971  1.1128  1.4718
 1746SOL     OW16699   0.223   0.018   3.345 -0.1571 -0.4363  0.6484
 1746SOL    HW116700   0.198   0.062   3.263 -0.5732 -0.8661  0.5455
 1746SOL    HW216701   0.168   4.664   3.332 -0.1170 -0.5275  1.0276
 1747SOL     OW16702   2.699   4.404   5.407  0.3774  0.2439  0.3356
 1747SOL    HW116703   2.621   4.446   5.372  1.0845 -0.6486 -2.3292
 1747SOL    HW216704   2.723   4.470   5.472  0.7907  0.7151 -0.2810
 1748SOL     OW16705   1.951   0.828   2.411  0.6037 -0.4511 -0.8611
 1748SOL    HW116706   1.924   0.761   2.347  2.0826 -2.8067  1.0098
 1748SOL    HW216707   1.953   0.913   2.366 -1.4059 -0.7489 -1.4927
 1749SOL     OW16708   3.373   0.571   1.852 -0.2384 -0.0493 -0.1362
 1749SOL    HW116709   3.355   0.587   1.945 -1.8547 -1.9633 -0.1310
 1749SOL    HW216710   3.343   0.652   1.811  1.8294  0.0122 -1.4965
 1750SOL     OW16711   0.803   2.199   7.990  0.4429 -0.0697  0.2005
 1750SOL    HW116712   0.836   2.288   7.993  1.4058 -0.4130 -0.0045
 1750SOL    HW216713   0.876   2.138   8.001  1.2886  0.9689  0.2370
 1751SOL     OW16714   0.186   3.343   9.294 -0.4519 -0.9361  0.1086
 1751SOL    HW116715   0.135   3.358   9.374  2.8850 -0.6186  2.1753
 1751SOL    HW216716   0.117   3.307   9.238  0.3620 -1.6503 -0.4394
 1752SOL     OW16717   3.782   3.609   7.037 -0.0888  0.1531 -0.6436
 1752SOL    HW116718   3.801   3.520   7.008 -1.8745 -1.0292  1.7838
 1752SOL    HW216719   3.860   3.621   7.091  1.4377 -1.3233 -2.5228
 1753SOL     OW16720   3.389   0.422   7.621 -0.1509 -0.1921  0.3869
 1753SOL    HW116721   3.355   0.355   7.681 -2.3208  1.0307  0.5451
 1753SOL    HW216722   3.481   0.397   7.626 -0.4550 -1.2955  0.6009
 1754SOL     OW16723   1.397   2.533   7.262 -0.2088  0.0446  0.6325
 1754SOL    HW116724   1.436   2.500   7.343  0.7861 -1.2964 -0.3827
 1754SOL    HW216725   1.379   2.626   7.274 -0.7273  0.0944 -0.5469
 1755SOL     OW16726   0.449   0.332   5.445  0.3485 -0.0615  0.2593
 1755SOL    HW116727   0.465   0.321   5.539 -0.0768 -0.3479  0.2952
 1755SOL    HW216728   0.494   0.415   5.429 -0.2528  0.3297  0.6127
 1756SOL     OW16729   4.422   3.204   5.970  0.3469 -0.0456  0.4955
 1756SOL    HW116730   4.477   3.142   5.921 -0.3824  0.3860 -0.8766
 1756SOL    HW216731   4.446   3.282   5.921  1.5578  0.9784  2.7155
 1757SOL     OW16732   2.582   2.455   7.507 -0.6590 -0.2341  0.0138
 1757SOL    HW116733   2.489   2.447   7.487 -1.4850  4.2893  2.0216
 1757SOL    HW216734   2.585   2.376   7.561  1.3434  1.2671  2.0510
 1758SOL     OW16735   3.021   0.186   1.855  0.5049 -0.7363  0.1459
 1758SOL    HW116736   2.971   0.260   1.818  1.9994  0.3502  0.2882
 1758SOL    HW216737   3.110   0.215   1.835  1.2806 -2.3976  1.2225
 1759SOL     OW16738   0.480   4.692   3.776 -0.5033  0.1031 -0.5738
 1759SOL    HW116739   0.548   0.037   3.779  1.2557 -1.7308  1.2696
 1759SOL    HW216740   0.529   4.615   3.803 -1.3054 -0.5089 -0.8686
 1760SOL     OW16741   4.598   2.437   6.446 -0.0193  0.0276  0.4719
 1760SOL    HW116742   4.630   2.499   6.512  2.8912 -2.0744  1.0007
 1760SOL    HW216743   4.630   2.358   6.489  3.5616  0.6964 -0.9673
 1761SOL     OW16744   0.915   3.621   4.953  0.4298  0.6428 -0.1048
 1761SOL    HW116745   0.902   3.689   5.019  1.9535 -0.9077  1.8037
 1761SOL    HW216746   0.958   3.672   4.885 -0.3542  0.1854 -0.9385
 1762SOL     OW16747   1.228   1.508   6.335  0.1424  0.3700  0.1402
 1762SOL    HW116748   1.170   1.451   6.284  0.4434  1.9580 -1.9792
 1762SOL    HW216749   1.198   1.486   6.424  0.9773  1.9339  0.7983
 1763SOL     OW16750   4.222   0.989   4.699  0.5955  0.5324  0.1980
 1763SOL    HW116751   4.217   1.025   4.788 -2.5116 -1.2032  0.7174
 1763SOL    HW216752   4.215   0.896   4.723 -0.4207  0.1602 -1.5364
 1764SOL     OW16753   3.606   2.022  12.640  0.2544 -0.1995 -0.2687
 1764SOL    HW116754   3.593   2.108  12.600 -0.9397  0.4628  1.5644
 1764SOL    HW216755   3.578   2.037  12.730 -0.3564  2.7100 -0.9341
 1765SOL     OW16756   0.753   1.526  12.035  0.4883  0.2570  0.8314
 1765SOL    HW116757   0.668   1.536  12.079 -1.0512  1.3414 -2.3500
 1765SOL    HW216758   0.791   1.610  12.060  0.9633 -0.5165  2.6691
 1766SOL     OW16759   4.280   3.531   4.225 -0.8769  0.0259  0.2073
 1766SOL    HW116760   4.368   3.565   4.209 -0.6307  0.1891  1.8805
 1766SOL    HW216761   4.227   3.574   4.158  0.2484 -0.1342 -0.7777
 1767SOL     OW16762   3.607   4.353   2.982  1.0274  0.1668 -0.0311
 1767SOL    HW116763   3.702   4.359   2.996  1.0586  2.3521 -1.1636
 1767SOL    HW216764   3.602   4.313   2.895 -0.2714 -0.9268  0.5456
 1768SOL     OW16765   0.772   4.488   7.428 -1.0275  0.1594  0.4374
 1768SOL    HW116766   0.799   4.580   7.427  0.0837 -0.1535  2.5986
 1768SOL    HW216767   0.678   4.503   7.416 -1.2617 -1.3317  0.3884
 1769SOL     OW16768   3.474   3.583   5.891 -0.2563  0.4438  0.5050
 1769SOL    HW116769   3.431   3.661   5.926 -2.3556  0.6645 -2.6372
 1769SOL    HW216770   3.406   3.529   5.851 -0.2632  0.7469  0.1115
 1770SOL     OW16771   2.385   3.664  16.613 -0.1489  0.1387  0.1952
 1770SOL    HW116772   2.423   3.629  16.693  1.4198 -0.5016 -0.8335
 1770SOL    HW216773   2.396   3.600  16.543 -0.7201 -0.9703  1.1129
 1771SOL     OW16774   2.984   2.542   1.385 -1.1653 -0.0253 -0.4232
 1771SOL    HW116775   2.954   2.612   1.328 -0.5657 -1.0606 -2.0150
 1771SOL    HW216776   3.070   2.531   1.344 -1.8133  0.0561 -1.8100
 1772SOL     OW16777   2.715   0.059   7.880 -0.3726 -0.2211 -0.4708
 1772SOL    HW116778   2.619   0.064   7.877 -0.5516 -2.0036  3.1850
 1772SOL    HW216779   2.727   4.687   7.871 -2.4310 -0.3629 -1.7996
 1773SOL     OW16780   2.362   0.930   6.807 -0.0344 -0.3525  0.1139
 1773SOL    HW116781   2.391   0.984   6.734  1.2333 -0.2008  0.7342
 1773SOL    HW216782   2.336   0.853   6.757  1.6871 -1.7285  1.3168
 1774SOL     OW16783   2.526   0.143   3.869  0.0821 -0.0689  0.5415
 1774SOL    HW116784   2.506   0.051   3.884 -0.4092 -0.0765 -0.1539
 1774SOL    HW216785   2.587   0.135   3.796 -1.4092 -0.5095 -0.6642
 1775SOL     OW16786   4.160   1.723   7.359  0.5255 -0.5804  0.8728
 1775SOL    HW116787   4.168   1.818   7.367 -1.6762 -0.4316  1.2967
 1775SOL    HW216788   4.101   1.710   7.433  2.5404 -2.0199  2.2189
 1776SOL     OW16789   3.574   0.078   6.069  0.4093  0.4541 -0.1446
 1776SOL    HW116790   3.480   0.092   6.070  0.1663 -1.1079 -2.3154
 1776SOL    HW216791   3.609   0.142   6.007 -1.1666  0.1691 -1.3206
 1777SOL     OW16792   3.157   4.423   7.654 -0.6845 -0.2016 -0.3962
 1777SOL    HW116793   3.160   4.473   7.736 -0.0146 -1.9190  0.6143
 1777SOL    HW216794   3.206   4.482   7.597 -2.7482  1.5975 -0.3144
 1778SOL     OW16795   0.409   1.107   9.218 -0.3716 -0.0942 -0.8258
 1778SOL    HW116796   0.467   1.090   9.292 -1.2032 -0.0800 -0.1765
 1778SOL    HW216797   0.326   1.090   9.261 -0.5836  3.4267  0.1506
 1779SOL     OW16798   2.415   3.448   3.509 -0.0095 -0.1203 -0.0045
 1779SOL    HW116799   2.507   3.427   3.494  0.1185 -1.4001  2.4644
 1779SOL    HW216800   2.405   3.529   3.460  0.4823  0.2532  0.5106
 1780SOL     OW16801   3.671   4.565   3.664  0.2157  0.9169  0.5223
 1780SOL    HW116802   3.579   4.592   3.661 -1.0721 -3.0469  3.4600
 1780SOL    HW216803   3.663   4.490   3.606 -0.7614  2.1574 -0.9297
 1781SOL     OW16804   2.188   1.052   4.992  0.1011  0.0548 -0.2802
 1781SOL    HW116805   2.130   1.057   5.068  0.4693  0.7540 -0.0376
 1781SOL    HW216806   2.124   1.045   4.922  1.4312  0.4266 -1.5475
 1782SOL     OW16807   2.063   3.899  15.980  0.6970 -0.9684  0.8865
 1782SOL    HW116808   2.119   3.892  16.058  1.1417 -0.7657  0.5855
 1782SOL    HW216809   2.123   3.898  15.906 -0.8796 -1.5658 -0.3640
 1783SOL     OW16810   4.190   1.102   4.949  0.0855  0.0140  0.2540
 1783SOL    HW116811   4.215   1.067   5.035 -0.0072 -1.6850 -0.4148
 1783SOL    HW216812   4.248   1.178   4.941  1.6782 -1.4171 -1.6057
 1784SOL     OW16813   4.464   2.105   5.662  0.5980  0.1570  0.4096
 1784SOL    HW116814   4.518   2.025   5.667  0.4967 -0.1356 -3.1302
 1784SOL    HW216815   4.462   2.125   5.756 -1.0801  0.7296  0.2433
 1785SOL     OW16816   1.303   4.289   3.189  0.3019 -0.4182  0.3995
 1785SOL    HW116817   1.224   4.341   3.203  0.3658  0.0252 -0.9156
 1785SOL    HW216818   1.327   4.260   3.277 -0.6561  0.5815  0.9980
 1786SOL     OW16819   2.605   1.193   4.335 -0.0588 -0.0463 -0.4709
 1786SOL    HW116820   2.607   1.282   4.301  1.2102 -0.6762 -2.0881
 1786SOL    HW216821   2.513   1.167   4.339  0.3796 -1.1284  2.9926
 1787SOL     OW16822   3.832   1.314   6.858 -0.1012 -0.1986 -0.7212
 1787SOL    HW116823   3.925   1.316   6.881 -0.5048 -3.5591  1.0652
 1787SOL    HW216824   3.799   1.242   6.912  1.6240 -0.5331 -0.1162
 1788SOL     OW16825   3.018   1.690  10.955 -0.4345 -0.1018 -0.2956
 1788SOL    HW116826   2.961   1.760  10.985 -0.9755 -1.2399  1.3279
 1788SOL    HW216827   2.969   1.656  10.879  2.7328 -0.5669 -2.1322
 1789SOL     OW16828   0.455   2.456  15.112  0.3996 -0.3486 -0.5782
 1789SOL    HW116829   0.509   2.535  15.121  2.0131 -1.6285  1.0472
 1789SOL    HW216830   0.507   2.412  15.046 -0.4286 -0.6226 -1.0373
 1790SOL     OW16831   3.200   3.174   6.767 -0.3336  0.3677 -0.3011
 1790SOL    HW116832   3.143   3.131   6.831 -1.5354 -0.8122 -2.1869
 1790SOL    HW216833   3.199   3.106   6.701  0.0201  2.7131 -2.7211
 1791SOL     OW16834   1.578   3.216   3.379  0.3150  0.1944 -0.0021
 1791SOL    HW116835   1.588   3.194   3.471 -1.0953 -0.5410 -0.0203
 1791SOL    HW216836   1.667   3.233   3.348 -0.4024  0.7865 -1.7636
 1792SOL     OW16837   1.029   1.964   2.305 -0.4184  0.3333 -0.4126
 1792SOL    HW116838   0.978   2.016   2.242 -0.4353  2.0832  1.0571
 1792SOL    HW216839   1.098   1.919   2.257  1.0182 -0.2877  2.2573
 1793SOL     OW16840   1.347   0.319   4.374 -0.2966 -0.0806 -0.5377
 1793SOL    HW116841   1.435   0.312   4.410 -1.8077  1.4066  3.3859
 1793SOL    HW216842   1.329   0.225   4.368  0.9728 -0.2272 -2.0334
 1794SOL     OW16843   1.625   0.910   7.089 -0.0595 -0.8852  0.1822
 1794SOL    HW116844   1.582   0.935   7.171 -0.0624 -0.2328 -0.0192
 1794SOL    HW216845   1.684   0.837   7.105 -0.4625 -0.8850  1.6919
 1795SOL     OW16846   2.790   3.061   6.041  0.1533  0.4299 -0.2380
 1795SOL    HW116847   2.777   3.152   6.015 -0.4016  0.0283 -1.3601
 1795SOL    HW216848   2.862   3.065   6.104  0.8177  0.8364 -1.0243
 1796SOL     OW16849   3.801   3.806   1.865 -0.0818  0.3172  0.0306
 1796SOL    HW116850   3.892   3.779   1.857  0.3750  1.4099  1.5621
 1796SOL    HW216851   3.791   3.843   1.777  2.7159  2.1427  0.4538
 1797SOL     OW16852   4.578   4.667   5.006  0.5228 -0.3126  0.1092
 1797SOL    HW116853   4.568   4.627   5.092  0.9979 -2.0671 -0.6384
 1797SOL    HW216854   4.579   4.591   4.948  2.7910  0.3872 -0.8026
 1798SOL     OW16855   4.059   4.422   1.183 -0.0255 -0.7039  0.0931
 1798SOL    HW116856   4.096   4.363   1.249 -0.7701  0.3467  1.4700
 1798SOL    HW216857   4.116   4.494   1.210 -0.8014  0.4014 -1.2102
 1799SOL     OW16858   3.647   0.633  14.488  0.0776  0.1332 -0.2321
 1799SOL    HW116859   3.703   0.599  14.558  1.2254 -4.0721 -3.1669
 1799SOL    HW216860   3.641   0.726  14.509 -0.4893 -0.0923  0.5719
 1800SOL     OW16861   3.449   0.754   0.770  0.2441  0.4490  0.0461
 1800SOL    HW116862   3.513   0.690   0.738  0.0913  0.0029  0.6241
 1800SOL    HW216863   3.506   0.830   0.785 -1.3357  1.8274 -1.0291
 1801SOL     OW16864   1.094   0.342   2.370 -0.2113 -0.2676 -0.0259
 1801SOL    HW116865   1.135   0.352   2.284 -1.7224 -1.6263 -0.9223
 1801SOL    HW216866   1.162   0.298   2.421 -2.3233  0.6534  3.5288
 1802SOL     OW16867   3.070   1.679   4.579  0.0991  0.5312 -0.7114
 1802SOL    HW116868   3.149   1.731   4.593 -0.8835  2.0287 -0.7471
 1802SOL    HW216869   3.089   1.635   4.496 -1.7126 -0.1492 -0.7717
 1803SOL     OW16870   4.119   1.515  14.765 -0.0797 -0.3048  0.8914
 1803SOL    HW116871   4.086   1.526  14.676 -1.4062 -2.1845  1.1577
 1803SOL    HW216872   4.158   1.428  14.764 -1.0830 -0.7509  1.5637
 1804SOL     OW16873   2.467   1.218   8.304  0.3895 -0.1799 -0.2767
 1804SOL    HW116874   2.487   1.182   8.390 -1.1165 -0.4913 -0.0548
 1804SOL    HW216875   2.408   1.289   8.328  0.0732 -0.1309 -1.1924
 1805SOL     OW16876   1.820   2.146   8.863 -0.1782  0.1683 -0.0433
 1805SOL    HW116877   1.726   2.163   8.863 -0.0018  1.0524 -6.4167
 1805SOL    HW216878   1.817   2.102   8.779  0.8217  0.4827 -0.2429
 1806SOL     OW16879   2.646   2.297   2.768  0.0204 -0.1595  0.2975
 1806SOL    HW116880   2.612   2.265   2.684 -1.2987 -1.9491  1.5174
 1806SOL    HW216881   2.741   2.289   2.755 -0.2377  0.3599 -1.9577
 1807SOL     OW16882   4.245   3.562   6.149  0.4346  0.4892 -0.2550
 1807SOL    HW116883   4.185   3.520   6.087  0.2434 -0.0280  0.2747
 1807SOL    HW216884   4.194   3.627   6.198  1.7916  1.4804 -0.1566
 1808SOL     OW16885   4.160   1.889  13.762  0.2925 -0.0176  0.1581
 1808SOL    HW116886   4.156   1.822  13.694  0.2719 -0.4187  0.5567
 1808SOL    HW216887   4.203   1.851  13.838 -0.4793 -0.7028  0.2434
 1809SOL     OW16888   3.356   2.394   7.725 -0.4042 -0.2830  0.0870
 1809SOL    HW116889   3.345   2.380   7.631 -1.1972  0.8953 -0.0004
 1809SOL    HW216890   3.269   2.396   7.765 -0.9018  1.1097 -1.0614
 1810SOL     OW16891   0.509   1.709  13.392  0.9226 -0.0248 -0.0111
 1810SOL    HW116892   0.466   1.741  13.313 -0.5105 -0.4373  0.5971
 1810SOL    HW216893   0.475   1.623  13.415  0.4582  0.6185  1.7557
 1811SOL     OW16894   0.752   4.114   6.802  0.1193 -0.1589 -0.1650
 1811SOL    HW116895   0.818   4.044   6.808  1.1197  0.7784 -0.2785
 1811SOL    HW216896   0.749   4.149   6.891 -0.7467 -0.0686 -0.2365
 1812SOL     OW16897   0.002   1.716   6.924  0.4309  0.1248 -0.3769
 1812SOL    HW116898   0.050   1.734   7.005 -0.3921 -1.3502  0.4483
 1812SOL    HW216899   4.646   1.768   6.938 -1.4822 -2.3688 -1.9030
 1813SOL     OW16900   3.189   3.692   3.618 -0.2286  0.6848 -0.2462
 1813SOL    HW116901   3.140   3.709   3.538 -0.2766  2.1264  0.0854
 1813SOL    HW216902   3.122   3.719   3.681  1.2022  2.7421  0.4035
 1814SOL     OW16903   3.658   2.155   3.682  0.2128  0.4835  0.4977
 1814SOL    HW116904   3.640   2.246   3.703  0.5160  0.3871  1.1823
 1814SOL    HW216905   3.598   2.133   3.611  0.1241  0.3647  0.6109
 1815SOL     OW16906   0.276   3.027   3.200 -0.1991 -0.2269 -0.3252
 1815SOL    HW116907   0.323   3.058   3.123  1.3138 -0.3565  0.5460
 1815SOL    HW216908   0.273   2.932   3.184 -0.4272 -0.2333 -0.2371
 1816SOL     OW16909   3.016   0.242   0.112  0.6146  0.0736  0.3179
 1816SOL    HW116910   3.096   0.289   0.088  0.6850  0.7805  1.8739
 1816SOL    HW216911   3.034   0.152   0.085  2.0322 -0.0191  1.5551
 1817SOL     OW16912   2.562   4.243   3.663  0.2760  0.9505 -0.6570
 1817SOL    HW116913   2.624   4.306   3.699  0.1741 -0.1351  1.4484
 1817SOL    HW216914   2.560   4.271   3.572 -1.2217 -0.7424 -1.1506
 1818SOL     OW16915   1.849   1.697   6.533 -0.1071  0.5077  0.0342
 1818SOL    HW116916   1.764   1.722   6.570 -0.7337  0.2196 -1.1871
 1818SOL    HW216917   1.912   1.730   6.597 -0.4583 -0.4622  0.8819
 1819SOL     OW16918   3.227   1.259   8.761 -0.3388 -0.0556  0.4200
 1819SOL    HW116919   3.177   1.258   8.680 -1.3629 -0.5334  1.0519
 1819SOL    HW216920   3.285   1.183   8.751  1.5910  1.5448 -0.3995
 1820SOL     OW16921   2.221   2.563  13.086 -0.4997 -0.3245  0.1894
 1820SOL    HW116922   2.171   2.510  13.024  0.2738 -0.6595 -0.1479
 1820SOL    HW216923   2.156   2.623  13.121 -1.2027 -1.3009  0.5468
 1821SOL     OW16924   2.895   4.401   3.535 -0.5294 -0.8954  0.0921
 1821SOL    HW116925   2.832   4.397   3.464 -0.3240  1.5645 -0.2356
 1821SOL    HW216926   2.872   4.486   3.572  1.4996  0.0096 -0.7189
 1822SOL     OW16927   3.783   2.909   2.877 -0.1959  0.4654  0.0393
 1822SOL    HW116928   3.698   2.920   2.921  0.0148  1.5388  0.1736
 1822SOL    HW216929   3.798   2.816   2.898  2.1462  1.2935  2.0168
 1823SOL     OW16930   0.115   0.824  12.252  0.6149 -0.1646 -0.7816
 1823SOL    HW116931   0.179   0.883  12.212 -0.9604  0.4276 -2.4364
 1823SOL    HW216932   0.092   0.769  12.177  0.1737 -1.5198  0.3439
 1824SOL     OW16933   1.549   1.438   3.219  0.6180 -0.0802 -0.1623
 1824SOL    HW116934   1.495   1.459   3.295  0.6709  0.0613 -0.1629
 1824SOL    HW216935   1.573   1.346   3.230 -0.6872 -0.5411 -1.2324
 1825SOL     OW16936   3.754   3.775  14.274  0.2199 -0.7113  0.0401
 1825SOL    HW116937   3.779   3.863  14.303 -0.4055 -0.6823  0.4895
 1825SOL    HW216938   3.661   3.789  14.255  0.0783 -0.1309  1.1729
 1826SOL     OW16939   2.692   4.108   7.979  0.2889 -0.1418  0.7696
 1826SOL    HW116940   2.733   4.043   7.923  1.4734  1.9394 -0.7657
 1826SOL    HW216941   2.643   4.150   7.908  0.5023  0.8871  1.2217
 1827SOL     OW16942   0.196   1.187   8.736 -0.4019  0.3513  0.5013
 1827SOL    HW116943   0.275   1.217   8.781 -1.3967  2.5339  0.8209
 1827SOL    HW216944   0.190   1.248   8.662 -1.1423 -1.3839 -0.8553
 1828SOL     OW16945   0.885   2.611  17.531 -0.2040  0.1395  0.2746
 1828SOL    HW116946   0.915   2.606  17.440  0.9251 -0.3414  0.6698
 1828SOL    HW216947   0.838   2.527  17.533  1.2583 -0.6866  0.1920
 1829SOL     OW16948   2.660   3.045   5.155  0.0998 -0.1012 -0.6785
 1829SOL    HW116949   2.630   2.989   5.226  1.0167  0.4954  0.1784
 1829SOL    HW216950   2.634   3.126   5.197 -0.4283 -0.1084 -0.9909
 1830SOL     OW16951   3.056   1.695   5.634 -0.1314  0.1430 -0.0016
 1830SOL    HW116952   2.989   1.761   5.654  1.1212  1.3219  0.3409
 1830SOL    HW216953   3.110   1.741   5.570 -1.9555  2.1909 -0.0759
 1831SOL     OW16954   3.950   1.301  13.372  0.6578  0.2247 -0.7083
 1831SOL    HW116955   3.982   1.369  13.430 -0.8677 -0.2010  0.6286
 1831SOL    HW216956   3.864   1.323  13.337 -0.1742 -0.4380  0.9245
 1832SOL     OW16957   2.997   1.307  16.433  0.0047  0.1733 -0.2159
 1832SOL    HW116958   2.921   1.319  16.376  1.0006  0.9349 -1.3660
 1832SOL    HW216959   3.061   1.369  16.400 -0.8085  0.6759 -0.8431
 1833SOL     OW16960   4.018   4.368   5.770 -0.1249 -0.6469  0.0983
 1833SOL    HW116961   3.965   4.383   5.848  3.0058  2.0392  1.6976
 1833SOL    HW216962   4.098   4.343   5.816  1.4431 -1.2431 -2.9383
 1834SOL     OW16963   4.244   4.684  15.007 -0.1267 -0.2309  0.3065
 1834SOL    HW116964   4.210   4.652  14.923 -0.3578 -0.2025  0.3916
 1834SOL    HW216965   4.273   4.598  15.038  0.0958 -1.3308 -2.9681
 1835SOL     OW16966   3.769   1.048   6.297 -0.2123  0.2780 -0.1854
 1835SOL    HW116967   3.676   1.060   6.315 -0.2124 -0.0114  0.0021
 1835SOL    HW216968   3.804   1.122   6.348  0.8189  0.5445 -1.2820
 1836SOL     OW16969   3.231   3.294   8.216 -0.1290 -0.0086  0.3370
 1836SOL    HW116970   3.168   3.327   8.152  1.1384  0.9481 -0.4295
 1836SOL    HW216971   3.188   3.212   8.239  2.3869 -0.4673  3.4395
 1837SOL     OW16972   1.679   2.119   5.595  0.2288  0.6453  0.4830
 1837SOL    HW116973   1.607   2.093   5.652 -0.0757 -2.5166 -1.3366
 1837SOL    HW216974   1.728   2.040   5.571  1.2958  1.3481  0.3258
 1838SOL     OW16975   1.745   3.067   5.804  0.3874 -0.2252  0.5647
 1838SOL    HW116976   1.675   3.131   5.817 -0.2850 -0.1327 -3.4197
 1838SOL    HW216977   1.810   3.096   5.867  3.2613 -1.9056 -1.6129
 1839SOL     OW16978   1.164   3.522   8.972 -0.2828 -0.0316 -0.4601
 1839SOL    HW116979   1.132   3.449   8.919 -0.2118  0.9356 -1.8325
 1839SOL    HW216980   1.236   3.480   9.020 -1.9009  0.2601  2.2241
 1840SOL     OW16981   0.375   2.050   3.210 -0.0142  0.0954  0.1079
 1840SOL    HW116982   0.308   2.103   3.168  1.5108 -0.5363 -3.0940
 1840SOL    HW216983   0.399   1.995   3.135 -1.4644 -0.6270  0.1665
 1841SOL     OW16984   3.542   0.679  14.193  0.3337 -0.5464 -0.2738
 1841SOL    HW116985   3.629   0.716  14.209  1.4936 -3.1269 -0.7090
 1841SOL    HW216986   3.499   0.747  14.141 -2.4615 -1.9594  0.1813
 1842SOL     OW16987   2.319   2.736   1.447 -0.0385  0.3015  0.4541
 1842SOL    HW116988   2.272   2.725   1.364 -2.6300  1.2342  1.8020
 1842SOL    HW216989   2.258   2.795   1.492  0.7861  0.7759  0.9559
 1843SOL     OW16990   1.910   0.563  13.124 -0.0402  0.1573  0.2888
 1843SOL    HW116991   1.823   0.575  13.161  0.9439  3.2933  1.5262
 1843SOL    HW216992   1.883   0.525  13.041  1.4936  0.1504 -0.2069
 1844SOL     OW16993   1.817   4.215   4.540 -0.2288  0.4706  0.1554
 1844SOL    HW116994   1.734   4.195   4.582  0.2999 -1.7790  0.1161
 1844SOL    HW216995   1.798   4.308   4.529  0.2689  0.6916  1.1760
 1845SOL     OW16996   1.632   3.606   3.200  0.4441 -0.8556 -0.0127
 1845SOL    HW116997   1.664   3.641   3.283 -1.4882  0.0599  0.3194
 1845SOL    HW216998   1.690   3.532   3.180 -0.5210 -1.5004 -0.4384
 1846SOL     OW16999   4.263   4.024   0.455 -0.3071 -0.9849  0.2991
 1846SOL    HW117000   4.169   4.044   0.455 -0.6601 -2.6169  0.5831
 1846SOL    HW217001   4.294   4.081   0.525  1.3627 -0.0647 -1.2067
 1847SOL     OW17002   4.098   1.555   2.794  0.2439 -0.5927 -0.7814
 1847SOL    HW117003   4.106   1.461   2.779 -0.5080 -0.7862  0.0101
 1847SOL    HW217004   4.120   1.563   2.887  0.2174  1.3502 -0.9488
 1848SOL     OW17005   3.597   1.339   2.573 -0.1622  0.2859  0.1396
 1848SOL    HW117006   3.537   1.408   2.546  2.1828  1.3700 -2.2229
 1848SOL    HW217007   3.650   1.336   2.493  0.5636 -0.7806  0.6524
 1849SOL     OW17008   2.955   2.160   3.487  0.5196 -0.0423  0.0164
 1849SOL    HW117009   2.930   2.196   3.402 -1.8157  1.1995  1.2472
 1849SOL    HW217010   2.903   2.219   3.541 -0.0935  0.0582 -0.6761
 1850SOL     OW17011   1.906   2.207   0.561  0.3050  0.4635  0.2299
 1850SOL    HW117012   1.848   2.179   0.632 -1.2533  1.7484 -0.5249
 1850SOL    HW217013   1.852   2.263   0.505 -1.3825 -1.0433  0.3410
 1851SOL     OW17014   2.902   0.038   6.412 -0.3863  0.3474  0.1046
 1851SOL    HW117015   2.901   4.685   6.470  0.6256 -0.2007 -0.5908
 1851SOL    HW217016   2.955   0.004   6.340  0.4206 -0.3434  1.0370
 1852SOL     OW17017   2.629   0.502  10.803 -0.3559  0.0721 -0.0636
 1852SOL    HW117018   2.642   0.491  10.898 -1.7340  1.6740  0.3134
 1852SOL    HW217019   2.577   0.581  10.787  0.4836  0.6231 -0.0557
 1853SOL     OW17020   2.801   1.005   5.606 -0.0420  0.2796  0.0312
 1853SOL    HW117021   2.897   1.005   5.604 -0.0573 -1.3666 -0.0696
 1853SOL    HW217022   2.791   1.100   5.618 -0.6304  0.0388  1.4335
 1854SOL     OW17023   1.806   3.488  11.792  0.4410 -0.4499  0.4271
 1854SOL    HW117024   1.863   3.456  11.863  2.1353 -1.9566 -1.6009
 1854SOL    HW217025   1.723   3.442  11.800  0.5073 -0.7604 -0.7046
 1855SOL     OW17026   4.620   4.227   8.190 -0.4676 -0.4783 -0.3923
 1855SOL    HW117027   4.668   4.304   8.221 -0.4017  0.1029 -1.9471
 1855SOL    HW217028   4.528   4.243   8.211 -0.4225 -3.3082  1.9027
 1856SOL     OW17029   0.525   3.667   8.078  0.2867 -0.1179 -0.3896
 1856SOL    HW117030   0.522   3.572   8.068  0.0018  0.0789 -2.2859
 1856SOL    HW217031   0.593   3.678   8.143  0.9546 -0.5063 -1.0262
 1857SOL     OW17032   2.956   2.300   8.010 -0.4001 -0.1251  0.4224
 1857SOL    HW117033   2.999   2.327   8.092  0.4679 -0.5422  0.1047
 1857SOL    HW217034   2.869   2.277   8.041 -0.1272 -1.8941 -0.1646
 1858SOL     OW17035   1.384   3.971   4.217 -0.1037  0.3044  0.1219
 1858SOL    HW117036   1.429   3.892   4.247  0.0559  0.5015  0.4047
 1858SOL    HW217037   1.304   3.966   4.269 -1.2875  0.8858 -1.6344
 1859SOL     OW17038   0.064   1.984   4.610 -0.5758 -0.1240  0.0852
 1859SOL    HW117039   0.140   2.023   4.652 -1.0974  0.9771  0.0038
 1859SOL    HW217040   4.714   2.007   4.668  0.5218  2.6787  0.3493
 1860SOL     OW17041   0.563   2.279   7.247 -0.1053  0.4970  0.5325
 1860SOL    HW117042   0.650   2.264   7.209 -0.4184 -0.9615  0.3743
 1860SOL    HW217043   0.558   2.219   7.321 -0.8771 -1.4294 -1.0607
 1861SOL     OW17044   1.602   3.365   2.548  0.6317  0.1374 -0.3877
 1861SOL    HW117045   1.558   3.326   2.472  0.4714 -1.6623  0.6490
 1861SOL    HW217046   1.577   3.457   2.539 -0.4722 -0.0978  0.2545
 1862SOL     OW17047   2.234   0.237   3.486  0.3489 -0.1089  0.0612
 1862SOL    HW117048   2.217   0.198   3.400 -0.4026 -1.3443  0.7677
 1862SOL    HW217049   2.188   0.320   3.489 -1.1715 -1.0873  3.9289
 1863SOL     OW17050   4.375   0.681   6.085 -0.1001  0.5994 -0.0381
 1863SOL    HW117051   4.464   0.679   6.121  0.5860  0.7197 -1.7174
 1863SOL    HW217052   4.318   0.731   6.143 -1.3667 -1.1982  0.2466
 1864SOL     OW17053   0.620   2.354  12.151  0.1712  0.0646  0.5787
 1864SOL    HW117054   0.547   2.298  12.177 -0.1238  0.1334 -0.0904
 1864SOL    HW217055   0.678   2.337  12.225 -0.1109  0.8081  0.9788
 1865SOL     OW17056   4.017   0.046  14.704 -0.0274  0.9978  0.4083
 1865SOL    HW117057   4.087   0.048  14.639 -0.3359  0.1925  0.0442
 1865SOL    HW217058   3.968   0.121  14.669 -0.0018  0.7476 -0.1796
 1866SOL     OW17059   0.982   3.694   9.633 -0.2706 -0.1232  0.4016
 1866SOL    HW117060   1.068   3.728   9.607 -0.4078 -0.2816 -0.2540
 1866SOL    HW217061   0.969   3.750   9.709  0.5992 -2.1764  2.0517
 1867SOL     OW17062   4.049   3.964  11.524  0.0498  0.2645 -0.3112
 1867SOL    HW117063   4.136   3.961  11.483 -0.5844 -0.2385 -1.6045
 1867SOL    HW217064   4.053   3.880  11.569  1.1681 -0.5218 -1.8615
 1868SOL     OW17065   1.242   4.542  11.662  0.3231  0.2201  0.3412
 1868SOL    HW117066   1.300   4.603  11.707  0.9844 -1.7170  2.1293
 1868SOL    HW217067   1.154   4.577  11.676 -0.0538 -0.2482 -0.8095
 1869SOL     OW17068   2.887   1.234   2.017  0.1412  0.0306 -0.0787
 1869SOL    HW117069   2.854   1.144   2.014  2.2011 -0.7350 -0.3037
 1869SOL    HW217070   2.819   1.288   2.057 -0.1406 -0.2712 -0.1563
 1870SOL     OW17071   2.628   2.780  12.568 -0.0675  0.0801 -0.4642
 1870SOL    HW117072   2.604   2.687  12.568  0.3811 -0.0367  0.2828
 1870SOL    HW217073   2.723   2.768  12.561 -0.1526  0.3808 -2.2112
 1871SOL     OW17074   2.487   0.113  15.535  0.0718 -0.4597 -0.5953
 1871SOL    HW117075   2.515   0.201  15.510  0.3037 -0.0703  1.0415
 1871SOL    HW217076   2.500   0.122  15.630  0.1059  0.1480 -0.6621
 1872SOL     OW17077   4.654   0.412   3.775 -0.0867  0.0320 -0.0392
 1872SOL    HW117078   4.720   0.415   3.705 -1.4126  2.6805 -1.1970
 1872SOL    HW217079   4.693   0.415   3.862 -0.6062  0.7898  0.1672
 1873SOL     OW17080   3.192   0.307  11.929 -0.3368  0.6385  0.4285
 1873SOL    HW117081   3.269   0.274  11.974  0.2277  0.9989 -0.2816
 1873SOL    HW217082   3.218   0.298  11.838  2.3916  2.3125  1.0427
 1874SOL     OW17083   0.887   3.121   0.368 -0.4019  0.3687 -0.1419
 1874SOL    HW117084   0.922   3.057   0.430 -2.1346 -3.4336 -3.1229
 1874SOL    HW217085   0.865   3.058   0.300 -0.5032 -0.0374  0.2693
 1875SOL     OW17086   1.026   3.171  14.498  0.1882 -0.5053 -0.3987
 1875SOL    HW117087   1.007   3.243  14.437  1.8064  0.0617 -0.2418
 1875SOL    HW217088   1.080   3.212  14.565  0.8278  1.7036 -2.2511
 1876SOL     OW17089   1.127   0.902  11.546 -0.3840 -0.2758  0.6224
 1876SOL    HW117090   1.208   0.885  11.499 -0.9018  0.9172 -0.7223
 1876SOL    HW217091   1.128   0.997  11.558  1.6872 -0.2846  0.4551
 1877SOL     OW17092   1.459   2.628   8.120  0.4840 -0.2909 -0.0971
 1877SOL    HW117093   1.505   2.610   8.038  2.7109  0.4538  0.9817
 1877SOL    HW217094   1.503   2.569   8.180  2.3571 -0.0712 -1.2581
 1878SOL     OW17095   4.338   0.191   7.504  0.4540 -0.5054 -0.7200
 1878SOL    HW117096   4.287   0.255   7.454 -0.7082 -0.2857  0.7029
 1878SOL    HW217097   4.406   0.239   7.552 -1.6629  1.2268  0.5709
 1879SOL     OW17098   0.016   2.363   5.956 -0.1120 -0.1173  0.3938
 1879SOL    HW117099   0.070   2.438   5.930 -0.8010 -0.5531 -2.3418
 1879SOL    HW217100   4.717   2.385   6.047 -1.5844  0.0932  0.0021
 1880SOL     OW17101   2.438   2.873   8.601  0.3812 -0.4694 -0.1611
 1880SOL    HW117102   2.377   2.925   8.653  1.4982  1.2015 -0.5348
 1880SOL    HW217103   2.467   2.807   8.664  0.6446 -0.5531 -0.3710
 1881SOL     OW17104   2.568   3.362   3.976 -0.1731  0.2159  0.3106
 1881SOL    HW117105   2.565   3.358   3.880 -1.1543  2.2824  0.2387
 1881SOL    HW217106   2.516   3.442   3.985  1.0015  1.2919 -2.4317
 1882SOL     OW17107   4.522   2.980   4.027 -0.8826  0.6968  0.0945
 1882SOL    HW117108   4.535   3.069   3.994  1.7614  0.3446  0.2267
 1882SOL    HW217109   4.491   2.944   3.943 -1.5427  0.7394  0.3194
 1883SOL     OW17110   4.432   1.215   7.926  0.0016 -0.5208 -0.2432
 1883SOL    HW117111   4.508   1.216   7.985  1.7744  0.0911 -2.4951
 1883SOL    HW217112   4.476   1.176   7.850  3.2719 -0.6155  1.6972
 1884SOL     OW17113   4.582   2.285   0.031 -1.0233  0.1474 -0.1135
 1884SOL    HW117114   4.605   2.375   0.006 -0.1579 -0.8023 -2.7348
 1884SOL    HW217115   4.633   2.235  17.660  0.5839 -0.8942  1.9814
 1885SOL     OW17116   0.503   2.134   1.181  0.0624  0.4284 -0.0661
 1885SOL    HW117117   0.437   2.115   1.114  0.1022 -1.1404  0.3554
 1885SOL    HW217118   0.518   2.228   1.165  0.9095  0.1399 -0.9551
 1886SOL     OW17119   2.214   4.318   3.793 -0.2027  0.1637  0.2973
 1886SOL    HW117120   2.207   4.227   3.763  1.0939 -0.1797  1.0370
 1886SOL    HW217121   2.139   4.329   3.851 -0.5363  3.2153 -0.7171
 1887SOL     OW17122   4.062   1.118  11.280  0.3760  0.5726 -0.1005
 1887SOL    HW117123   4.072   1.024  11.300  0.5747  0.1426 -2.2807
 1887SOL    HW217124   4.074   1.130  11.186  1.7578 -1.1396 -0.1432
 1888SOL     OW17125   2.820   4.641   5.518 -0.0627 -0.8266  0.2519
 1888SOL    HW117126   2.826   4.702   5.592  1.0127  1.3199 -1.6061
 1888SOL    HW217127   2.915   4.640   5.507 -0.2314  1.2585 -1.3630
 1889SOL     OW17128   1.759   4.446   2.478 -0.2830  0.3016  0.1016
 1889SOL    HW117129   1.720   4.384   2.417 -0.1575  1.5150 -1.2342
 1889SOL    HW217130   1.771   4.521   2.419  3.8586  0.0829  0.6685
 1890SOL     OW17131   3.211   2.033  10.292  0.3076  0.1445 -0.1517
 1890SOL    HW117132   3.155   1.963  10.256 -1.3069  1.1359  0.4303
 1890SOL    HW217133   3.281   2.029  10.227 -0.1309 -0.6944 -0.5831
 1891SOL     OW17134   1.508   1.772   2.643  0.5305  0.0414  0.0074
 1891SOL    HW117135   1.428   1.782   2.694  0.7942 -0.7839  0.5668
 1891SOL    HW217136   1.551   1.704   2.694  0.0439 -0.5428 -0.3560
 1892SOL     OW17137   0.238   0.690  17.174 -0.6639  0.2498  0.0510
 1892SOL    HW117138   0.190   0.632  17.116  1.4856 -1.2188 -0.2591
 1892SOL    HW217139   0.182   0.708  17.250  0.8352  1.2116  0.9355
 1893SOL     OW17140   1.779   1.005   9.536 -0.0383 -0.4712 -0.6707
 1893SOL    HW117141   1.828   0.923   9.541 -1.0889 -0.9443  2.4242
 1893SOL    HW217142   1.785   1.037   9.626 -1.6190 -0.1256 -0.6785
 1894SOL     OW17143   3.840   0.674   4.080 -0.6051  0.4253 -0.3491
 1894SOL    HW117144   3.756   0.630   4.068 -1.3846  1.5934  0.7442
 1894SOL    HW217145   3.888   0.616   4.139  0.6352 -0.1132 -1.9315
 1895SOL     OW17146   1.019   1.026  14.832 -0.1471 -0.6255  0.5045
 1895SOL    HW117147   1.061   0.972  14.899 -0.9818 -1.2548  0.5244
 1895SOL    HW217148   0.947   0.972  14.801 -0.5501 -0.4569  1.1544
 1896SOL     OW17149   2.135   3.449   6.974 -0.2218  0.3571 -0.5400
 1896SOL    HW117150   2.134   3.523   6.913 -5.2534  1.0220  0.3563
 1896SOL    HW217151   2.134   3.501   7.054 -0.0959  0.3970 -0.5638
 1897SOL     OW17152   4.132   3.474  13.294 -0.3583  0.0471  0.2786
 1897SOL    HW117153   4.202   3.498  13.354  0.0097  1.2880 -0.6452
 1897SOL    HW217154   4.176   3.472  13.209 -0.9700  0.4113 -0.0470
 1898SOL     OW17155   3.775   0.424   3.271  0.5368  0.4393  0.0562
 1898SOL    HW117156   3.809   0.464   3.351  2.7387 -0.4304 -0.4700
 1898SOL    HW217157   3.733   0.497   3.226  1.7980 -0.1040 -1.9545
 1899SOL     OW17158   0.119   4.322   9.421  0.1886 -0.1795 -0.2644
 1899SOL    HW117159   0.161   4.373   9.490 -1.2563  1.2469 -0.4512
 1899SOL    HW217160   0.069   4.387   9.372 -1.2702 -0.1190  1.3407
 1900SOL     OW17161   4.303   3.393   5.421 -0.5308 -0.9778 -0.0244
 1900SOL    HW117162   4.351   3.475   5.433 -1.0430 -0.9715  2.1598
 1900SOL    HW217163   4.270   3.371   5.508 -1.1544 -0.9123 -0.2438
 1901SOL     OW17164   0.155   4.507  15.887  0.5118 -0.1468 -0.4676
 1901SOL    HW117165   0.232   4.531  15.835  0.6915 -0.5883 -0.4026
 1901SOL    HW217166   0.117   4.439  15.831 -0.7547  0.1948 -0.0245
 1902SOL     OW17167   0.187   0.482   3.971  0.0987  0.3590 -0.1747
 1902SOL    HW117168   0.201   0.522   4.057  0.3730  0.2671 -0.1754
 1902SOL    HW217169   0.171   0.564   3.925  1.5271 -0.0012 -1.3073
 1903SOL     OW17170   4.095   1.572   3.077  0.1448  0.2510  0.3011
 1903SOL    HW117171   4.076   1.659   3.113  3.7921  0.4448  1.8562
 1903SOL    HW217172   4.011   1.529   3.094  0.5251 -1.0445 -1.1400
 1904SOL     OW17173   0.113   3.947  16.740 -0.2479  0.3529  0.6927
 1904SOL    HW117174   0.050   3.905  16.680  0.5051  0.5151 -0.2119
 1904SOL    HW217175   0.156   4.001  16.674 -1.0873 -0.9875 -0.9500
 1905SOL     OW17176   0.066   4.659   4.583 -0.1694  0.1134 -0.0051
 1905SOL    HW117177   0.060   4.712   4.504  2.0937  0.5894  0.1242
 1905SOL    HW217178   0.033   0.003   4.643 -1.4765 -0.5938  0.0490
 1906SOL     OW17179   2.089   4.618  11.399 -0.2735  0.3541  0.2681
 1906SOL    HW117180   2.070   4.624  11.492  1.0589  1.1601  0.4902
 1906SOL    HW217181   2.025   4.553  11.371 -0.0050  0.6035 -0.9730
 1907SOL     OW17182   4.327   2.358   5.259  0.0702 -0.0156  0.3882
 1907SOL    HW117183   4.400   2.409   5.225 -0.3776 -1.7759 -3.1961
 1907SOL    HW217184   4.261   2.349   5.190 -1.9700 -1.8609  2.5838
 1908SOL     OW17185   1.134   2.191   9.169  0.0756 -0.1128 -0.2215
 1908SOL    HW117186   1.114   2.264   9.110 -2.7767 -0.0648  0.8317
 1908SOL    HW217187   1.063   2.197   9.233  0.9215  2.9647  0.4466
 1909SOL     OW17188   4.462   4.103   6.834  0.0950 -0.3514  0.0079
 1909SOL    HW117189   4.400   4.062   6.894 -0.5665  1.0803  0.2783
 1909SOL    HW217190   4.400   4.158   6.786 -1.3597  0.1109  2.4273
 1910SOL     OW17191   1.678   4.613   1.748  0.5279  0.3789 -0.2653
 1910SOL    HW117192   1.619   4.541   1.729  1.9953 -1.1884  1.1079
 1910SOL    HW217193   1.726   4.564   1.815 -0.4320  2.2394  1.8086
 1911SOL     OW17194   0.834   2.971  16.735 -0.1185  0.5521 -0.0869
 1911SOL    HW117195   0.794   2.920  16.665  1.5466 -2.4577  1.1457
 1911SOL    HW217196   0.757   3.013  16.771  0.1868  1.8439 -0.9361
 1912SOL     OW17197   1.491   4.718   6.638  0.2660 -0.4449 -0.6649
 1912SOL    HW117198   1.433   4.645   6.617 -0.1761 -0.0184 -0.9219
 1912SOL    HW217199   1.558   4.710   6.570  0.0848 -0.0263 -0.8970
 1913SOL     OW17200   4.356   3.172   1.925 -0.1272 -0.1332  0.1509
 1913SOL    HW117201   4.341   3.111   1.997 -0.9840 -1.5026 -1.1956
 1913SOL    HW217202   4.265   3.201   1.910 -1.3195 -3.6506  0.6499
 1914SOL     OW17203   2.983   3.704   0.903 -0.0138  0.0975  0.1548
 1914SOL    HW117204   3.043   3.643   0.860 -2.2202 -1.7762 -0.2903
 1914SOL    HW217205   2.898   3.675   0.869  0.1640 -0.4165  0.1553
 1915SOL     OW17206   3.992   0.401   5.942 -0.1186  0.5798 -0.4512
 1915SOL    HW117207   4.085   0.422   5.936  0.1212 -0.8021 -1.6324
 1915SOL    HW217208   3.978   0.388   6.036 -0.1594 -3.0598 -0.9384
 1916SOL     OW17209   0.225   4.428   0.611  0.0013 -0.3147 -0.3454
 1916SOL    HW117210   0.248   4.357   0.671  2.5367  0.6623 -0.1638
 1916SOL    HW217211   0.147   4.464   0.653 -1.1414 -0.8816 -1.9612
 1917SOL     OW17212   0.337   1.338   5.928 -0.5043 -0.0266  0.0672
 1917SOL    HW117213   0.417   1.356   5.978  1.4393  0.7958 -3.3444
 1917SOL    HW217214   0.270   1.323   5.994 -0.3581 -0.0956  0.2021
 1918SOL     OW17215   2.216   3.695   2.542 -0.2523 -0.3218 -0.1118
 1918SOL    HW117216   2.141   3.652   2.584  0.1186  0.2112  1.0802
 1918SOL    HW217217   2.266   3.617   2.518  1.4300  1.3554 -2.0372
 1919SOL     OW17218   0.492   2.888   6.336  0.0922 -0.1734 -0.0637
 1919SOL    HW117219   0.444   2.871   6.417 -1.4199 -0.6074 -1.0488
 1919SOL    HW217220   0.585   2.892   6.360 -0.3620 -0.2535  1.6979
 1920SOL     OW17221   3.736   2.836  11.908  0.0286 -0.5265 -0.9606
 1920SOL    HW117222   3.681   2.759  11.920  0.7450 -0.9780 -0.5139
 1920SOL    HW217223   3.773   2.843  11.996 -1.5357 -1.3010 -0.2429
 1921SOL     OW17224   1.390   4.250  16.360 -0.1371  0.1171  0.5878
 1921SOL    HW117225   1.352   4.241  16.448  0.7402 -0.4561  0.9131
 1921SOL    HW217226   1.482   4.236  16.381  0.7500 -0.5214 -3.8742
 1922SOL     OW17227   2.503   1.958   0.256 -0.0352  0.3642 -0.3783
 1922SOL    HW117228   2.527   2.040   0.300 -2.6207  1.2246 -0.5620
 1922SOL    HW217229   2.593   1.936   0.233 -0.0294 -0.0842  0.0700
 1923SOL     OW17230   0.529   3.815   5.691  0.4154  0.5968 -0.1619
 1923SOL    HW117231   0.607   3.776   5.652 -0.2820 -0.4246 -0.5354
 1923SOL    HW217232   0.503   3.865   5.614 -2.5434 -3.3125 -1.7094
 1924SOL     OW17233   3.902   4.506   2.833 -0.4520 -0.2983 -0.0413
 1924SOL    HW117234   3.885   4.412   2.829  2.9980 -0.9228  0.0729
 1924SOL    HW217235   3.813   4.540   2.819  0.0091  1.1000  0.4325
 1925SOL     OW17236   0.330   4.699   2.395 -0.1434 -0.0683  0.7378
 1925SOL    HW117237   0.368   4.625   2.442 -0.0833 -0.1839  0.5074
 1925SOL    HW217238   0.407   0.017   2.355 -0.0628  0.3640  1.3377
 1926SOL     OW17239   1.105   3.112   8.564 -0.0339 -0.1328  0.2734
 1926SOL    HW117240   1.168   3.182   8.547  2.0110 -2.5263 -2.1933
 1926SOL    HW217241   1.155   3.038   8.529 -2.0509 -1.6222  0.5135
 1927SOL     OW17242   1.025   3.545   6.821  0.7315 -0.6688 -0.4340
 1927SOL    HW117243   1.036   3.599   6.743  0.6994 -1.4094 -0.9521
 1927SOL    HW217244   1.025   3.614   6.887 -0.7777 -1.5922  0.5621
 1928SOL     OW17245   3.504   0.692   7.874  0.1703  0.3111  0.0172
 1928SOL    HW117246   3.450   0.756   7.920 -0.4280 -0.5555  0.5338
 1928SOL    HW217247   3.472   0.705   7.784  0.7739  1.2801 -0.0551
 1929SOL     OW17248   1.029   1.088   9.768 -0.5562  0.3710 -0.4153
 1929SOL    HW117249   1.048   1.042   9.850  0.8581  2.0927  0.2217
 1929SOL    HW217250   0.999   1.016   9.713 -2.7898 -0.6357  2.1107
 1930SOL     OW17251   4.653   1.985   0.524 -0.5692 -0.3487  0.6735
 1930SOL    HW117252   4.578   1.931   0.546 -0.3616 -0.8950  0.0209
 1930SOL    HW217253   4.613   2.070   0.543 -1.0433 -0.7994  1.6859
 1931SOL     OW17254   4.204   0.518   2.124 -0.1893 -0.1160 -0.1284
 1931SOL    HW117255   4.201   0.423   2.132  0.1420 -0.1189 -0.0211
 1931SOL    HW217256   4.172   0.534   2.036  1.3154  0.0864 -0.6424
 1932SOL     OW17257   2.299   0.376  17.507 -0.0416 -0.2517  0.1660
 1932SOL    HW117258   2.356   0.424  17.567  1.2614  0.1482 -1.3977
 1932SOL    HW217259   2.325   0.290  17.542 -1.0831 -0.8995 -0.6398
 1933SOL     OW17260   3.300   4.718   8.069  0.1711 -0.2933  0.0426
 1933SOL    HW117261   3.386   0.032   8.050  0.3926 -0.3002  1.0220
 1933SOL    HW217262   3.236   0.066   8.056  0.8033 -0.3860 -3.3445
 1934SOL     OW17263   3.846   0.398   2.994  0.5108  0.3812  0.3403
 1934SOL    HW117264   3.813   0.414   3.082 -2.2760  0.4366 -0.7189
 1934SOL    HW217265   3.906   0.325   3.010 -0.2808 -0.2779  0.2708
 1935SOL     OW17266   0.530   0.698   4.429  0.5669 -0.1867  0.0674
 1935SOL    HW117267   0.560   0.619   4.384 -1.6764 -0.4704 -0.8999
 1935SOL    HW217268   0.435   0.696   4.426  0.5525 -1.5031  1.2804
 1936SOL     OW17269   2.589   2.093  11.943  0.0644  0.3649 -0.4587
 1936SOL    HW117270   2.494   2.084  11.937 -0.0408  0.4200  1.1372
 1936SOL    HW217271   2.614   2.018  11.996  1.5020  0.4515 -1.0089
 1937SOL     OW17272   2.004   4.403   2.580  0.0210 -0.1760 -0.5089
 1937SOL    HW117273   2.040   4.473   2.526  0.8091 -1.0366 -1.1101
 1937SOL    HW217274   1.912   4.413   2.556 -0.0486  1.8363  0.6456
 1938SOL     OW17275   4.194   1.017   9.470  0.6842  0.2846  0.0488
 1938SOL    HW117276   4.243   1.009   9.388 -1.1971 -1.0260 -0.9474
 1938SOL    HW217277   4.107   0.982   9.455 -0.1320  1.3996  2.1271
 1939SOL     OW17278   1.778   3.314   4.942 -0.4971  0.5726  0.7005
 1939SOL    HW117279   1.720   3.243   4.970  0.8684 -0.3756  1.1732
 1939SOL    HW217280   1.805   3.279   4.857 -0.0308 -3.2726  2.4309
 1940SOL     OW17281   1.077   4.396  16.609  0.0278  0.2077 -0.1259
 1940SOL    HW117282   1.007   4.343  16.570 -0.7951  0.9076  0.3950
 1940SOL    HW217283   1.113   4.330  16.668 -0.1305 -0.2018 -0.4875
 1941SOL     OW17284   1.678   4.335   7.855 -0.1753  0.9026 -0.1689
 1941SOL    HW117285   1.688   4.292   7.939 -1.4128 -0.9717 -0.9977
 1941SOL    HW217286   1.771   4.358   7.846 -0.1283 -0.2360 -2.7339
 1942SOL     OW17287   0.761   1.599  15.075  0.4527  0.1484 -0.0643
 1942SOL    HW117288   0.675   1.576  15.110 -0.1275  1.7925 -0.4121
 1942SOL    HW217289   0.739   1.688  15.048 -2.4446  0.1222  2.2420
 1943SOL     OW17290   3.552   2.141   6.261 -0.3201  0.1354  0.1087
 1943SOL    HW117291   3.565   2.154   6.355  0.0379  0.1767  0.0534
 1943SOL    HW217292   3.529   2.233   6.248 -0.2847 -0.1070 -1.7178
 1944SOL     OW17293   4.229   4.255   2.610  0.3070  0.1064 -0.2222
 1944SOL    HW117294   4.177   4.327   2.645 -0.2625 -0.2008 -0.4473
 1944SOL    HW217295   4.310   4.299   2.583  0.9175 -0.0890  1.2885
 1945SOL     OW17296   2.400   1.409  16.793 -0.4421  0.2871  0.1863
 1945SOL    HW117297   2.440   1.464  16.725  1.2231  0.2430  1.1189
 1945SOL    HW217298   2.369   1.343  16.732 -0.3219  2.2545 -2.0295
 1946SOL     OW17299   0.535   0.994  13.518 -0.4142 -0.1101  0.2183
 1946SOL    HW117300   0.473   1.057  13.483 -0.8312 -0.8750 -0.4313
 1946SOL    HW217301   0.543   0.941  13.438  3.3611  1.5872 -0.5485
 1947SOL     OW17302   1.368   1.981   6.005  0.0876  0.1380  0.1322
 1947SOL    HW117303   1.282   1.954   6.037  1.0452 -2.5629  0.3948
 1947SOL    HW217304   1.395   2.035   6.079  2.7912  0.3935 -1.0620
 1948SOL     OW17305   3.498   2.577   1.811  0.2463  0.4580  0.4845
 1948SOL    HW117306   3.412   2.597   1.774  0.3483 -1.2370 -0.6581
 1948SOL    HW217307   3.548   2.611   1.737  0.5955  3.2381  1.9807
 1949SOL     OW17308   1.381   2.318   2.430 -0.3385 -0.1433 -0.1456
 1949SOL    HW117309   1.322   2.348   2.360 -0.2372 -0.8906 -0.5549
 1949SOL    HW217310   1.364   2.223   2.425  1.1037 -0.4041  0.1018
 1950SOL     OW17311   0.877   3.466  10.883 -0.1659  0.3525 -0.1413
 1950SOL    HW117312   0.937   3.397  10.854 -0.7339 -0.3992  0.4683
 1950SOL    HW217313   0.929   3.543  10.905 -1.5819  0.4152  2.9582
 1951SOL     OW17314   0.995   4.662   8.045 -0.4640 -0.2599 -0.3362
 1951SOL    HW117315   0.999   4.693   7.954 -0.7678  1.5402  0.2853
 1951SOL    HW217316   0.983   4.568   8.031  2.0693 -0.4122 -1.3578
 1952SOL     OW17317   2.525   1.969   8.386  0.1449 -0.2267 -0.2005
 1952SOL    HW117318   2.560   1.895   8.437  0.6185 -1.6664 -2.6373
 1952SOL    HW217319   2.609   2.011   8.365 -0.3851  0.2584 -1.3239
 1953SOL     OW17320   3.753   4.006   0.438 -0.0190 -0.6095  0.5601
 1953SOL    HW117321   3.696   4.054   0.377  2.0434 -0.5001 -1.2564
 1953SOL    HW217322   3.714   3.922   0.414  1.5122 -1.7141  1.9699
 1954SOL     OW17323   3.650   3.035  16.854 -0.0676 -0.1844 -0.4381
 1954SOL    HW117324   3.646   3.018  16.760 -0.5716 -0.0673 -0.4422
 1954SOL    HW217325   3.646   2.950  16.898  0.0878 -0.1299 -0.3186
 1955SOL     OW17326   4.105   0.689  13.010 -0.3838 -0.7331 -0.0138
 1955SOL    HW117327   4.066   0.696  12.923  2.7560  0.7414 -1.2843
 1955SOL    HW217328   4.153   0.772  13.015  1.8905 -2.0369 -0.1456
 1956SOL     OW17329   3.170   4.625   3.977 -0.0942 -0.2906  0.0037
 1956SOL    HW117330   3.214   4.543   3.998  1.9378  0.9027  0.3863
 1956SOL    HW217331   3.150   4.654   4.066  1.4415  3.0946 -0.7782
 1957SOL     OW17332   4.638   4.089   4.704  0.1484 -0.0839  0.3038
 1957SOL    HW117333   4.629   4.112   4.612  0.3508 -2.3073 -0.2815
 1957SOL    HW217334   4.564   4.031   4.723 -0.9957  1.2438 -0.1309
 1958SOL     OW17335   2.662   1.369   9.593 -0.2673  1.0372 -0.1876
 1958SOL    HW117336   2.709   1.452   9.579  1.5693 -0.0341 -0.3425
 1958SOL    HW217337   2.619   1.384   9.678 -1.4890  0.5086 -0.7163
 1959SOL     OW17338   1.206   3.721   8.540  0.2630  0.2602 -0.0866
 1959SOL    HW117339   1.118   3.709   8.504  0.5205  1.3107 -1.0932
 1959SOL    HW217340   1.246   3.659   8.479  1.1956  0.6249  0.1668
 1960SOL     OW17341   3.340   0.798   3.333  0.0681 -0.1402  0.0539
 1960SOL    HW117342   3.373   0.728   3.390  1.1926 -0.1471 -0.5992
 1960SOL    HW217343   3.422   0.847   3.335 -1.3444  2.1794  1.0442
 1961SOL     OW17344   4.563   2.465   8.552 -0.7361 -0.8061  0.7644
 1961SOL    HW117345   4.559   2.430   8.463  3.1662 -4.0285  1.8545
 1961SOL    HW217346   4.474   2.461   8.587 -0.2943 -0.6405  1.9260
 1962SOL     OW17347   1.000   2.297   5.323  0.1293 -0.6558 -0.0720
 1962SOL    HW117348   1.015   2.274   5.232  0.7906 -0.2450 -0.0604
 1962SOL    HW217349   0.970   2.384   5.299 -0.0997 -1.3375 -2.2415
 1963SOL     OW17350   2.332   3.078   8.999  0.0879 -0.2331 -0.4724
 1963SOL    HW117351   2.392   3.074   8.925  0.8813  0.9883  0.1080
 1963SOL    HW217352   2.300   2.988   8.991  4.3092 -1.7657 -0.0069
 1964SOL     OW17353   1.642   4.129   5.015  0.0041 -0.2568 -0.5164
 1964SOL    HW117354   1.624   4.129   5.109 -0.2681 -0.5346 -0.5679
 1964SOL    HW217355   1.640   4.035   4.996  2.9999 -0.0736 -1.8453
 1965SOL     OW17356   1.940   0.064  11.030 -0.5081 -0.1696  0.3018
 1965SOL    HW117357   1.995   4.716  10.996  1.1722  0.3662  1.8963
 1965SOL    HW217358   2.008   0.117  11.073 -1.0133  0.1385  0.7138
 1966SOL     OW17359   1.725   1.766   7.047 -0.1195  0.4262  0.5287
 1966SOL    HW117360   1.789   1.837   7.053 -0.5775  0.7655  1.4119
 1966SOL    HW217361   1.758   1.696   6.991  2.1119  0.9505  1.2214
 1967SOL     OW17362   3.792   2.818  12.838 -0.4346  0.1913 -0.1790
 1967SOL    HW117363   3.817   2.860  12.920  1.2591  1.0261 -1.1236
 1967SOL    HW217364   3.717   2.765  12.865 -0.0873 -0.7011 -0.9795
 1968SOL     OW17365   4.579   3.844  15.389  0.0813 -0.6668 -0.0995
 1968SOL    HW117366   4.565   3.844  15.484 -1.0670 -0.3386 -0.2600
 1968SOL    HW217367   4.674   3.848  15.379 -0.0650  0.8435 -0.8942
 1969SOL     OW17368   2.561   3.313   1.937 -0.5495  0.1703 -0.1828
 1969SOL    HW117369   2.631   3.324   1.872 -1.4277 -1.4999 -1.4031
 1969SOL    HW217370   2.578   3.399   1.977  0.4684 -0.2728  0.3465
 1970SOL     OW17371   0.428   3.674  10.956  0.1040 -0.9199  0.3746
 1970SOL    HW117372   0.412   3.665  11.050 -0.3122  0.3705  0.4192
 1970SOL    HW217373   0.373   3.614  10.906 -1.8011  1.1782 -0.0420
 1971SOL     OW17374   4.328   2.114   5.434  0.7507 -0.0493 -0.1537
 1971SOL    HW117375   4.365   2.184   5.380  1.7288 -1.2483 -1.0503
 1971SOL    HW217376   4.382   2.111   5.513 -2.0045 -3.7236  1.5877
 1972SOL     OW17377   0.763   0.576   7.337  0.0193  0.9037  0.3236
 1972SOL    HW117378   0.725   0.588   7.424  0.2654  2.4509  0.2156
 1972SOL    HW217379   0.850   0.540   7.356  0.2177  1.4025  0.3466
 1973SOL     OW17380   1.085   2.368   8.516  0.0225 -0.0838 -0.5043
 1973SOL    HW117381   1.149   2.424   8.472  0.8403 -1.4326 -1.0397
 1973SOL    HW217382   1.148   2.333   8.578  0.7930  2.0921 -0.0447
 1974SOL     OW17383   3.440   3.066   0.187 -0.2309 -0.4914 -0.0142
 1974SOL    HW117384   3.465   3.156   0.167  1.9590 -0.7763  1.3849
 1974SOL    HW217385   3.469   3.022   0.106  2.3948  0.9772  0.1137
 1975SOL     OW17386   1.747   2.371   5.957  0.2110 -0.7348 -0.0689
 1975SOL    HW117387   1.747   2.462   5.984  1.4621 -0.6662 -0.3084
 1975SOL    HW217388   1.653   2.359   5.974  0.2950  1.3665  1.8262
 1976SOL     OW17389   3.164   0.404   4.952 -0.0914  0.6743  0.2515
 1976SOL    HW117390   3.259   0.409   4.948 -0.0350 -0.5882 -0.1146
 1976SOL    HW217391   3.150   0.316   4.916  2.3001  0.5685 -0.3655
 1977SOL     OW17392   0.692   2.017   7.102  0.0387 -0.5600  0.3411
 1977SOL    HW117393   0.718   1.967   7.180 -1.1173 -0.0036  1.0888
 1977SOL    HW217394   0.775   2.034   7.058 -0.3609  1.6850  0.4722
 1978SOL     OW17395   0.643   2.283  11.900  1.0712  0.8547 -0.7354
 1978SOL    HW117396   0.636   2.363  11.848  0.1395 -0.0981 -2.0856
 1978SOL    HW217397   0.626   2.317  11.987 -1.2933 -0.0271 -0.8742
 1979SOL     OW17398   2.738   0.818  14.469  0.6668  0.3061 -0.1626
 1979SOL    HW117399   2.754   0.785  14.380 -1.6556  0.4305 -0.6210
 1979SOL    HW217400   2.827   0.823  14.503  0.8019  1.3151 -0.6671
 1980SOL     OW17401   4.437   4.431   2.553  0.7933  0.3106  0.0294
 1980SOL    HW117402   4.492   4.491   2.603 -0.3124  2.1176 -0.9474
 1980SOL    HW217403   4.502   4.408   2.486 -1.7441 -1.4957 -1.8013
 1981SOL     OW17404   0.387   3.145   2.966 -0.4260 -0.0600  0.1877
 1981SOL    HW117405   0.459   3.100   2.921 -1.5505 -2.6304  0.9322
 1981SOL    HW217406   0.432   3.216   3.011 -1.0971  1.2301 -1.1947
 1982SOL     OW17407   3.045   2.693   4.486  0.1438  0.1644  0.1509
 1982SOL    HW117408   3.057   2.646   4.403 -0.0168  0.7268 -0.1870
 1982SOL    HW217409   3.039   2.609   4.533  4.3455 -1.0623 -1.4995
 1983SOL     OW17410   3.659   2.974   3.486  0.3134  0.1704 -0.0653
 1983SOL    HW117411   3.616   2.956   3.570  2.1112 -2.4072  0.2761
 1983SOL    HW217412   3.619   3.057   3.461 -1.0589 -0.3329  0.4308
 1984SOL     OW17413   2.380   1.553   6.768  0.1066 -0.4643 -0.6461
 1984SOL    HW117414   2.394   1.610   6.844  0.4592  0.5747 -1.4905
 1984SOL    HW217415   2.308   1.601   6.728  0.1237 -1.2777 -1.6532
 1985SOL     OW17416   0.745   0.479   7.058 -0.2754  0.4245 -0.1167
 1985SOL    HW117417   0.687   0.403   7.067  0.5409 -0.2525 -0.5224
 1985SOL    HW217418   0.785   0.493   7.143  1.3397 -0.9011 -0.6658
 1986SOL     OW17419   3.893   0.789   5.245  0.3981 -0.0212  0.0229
 1986SOL    HW117420   3.840   0.726   5.197 -3.0725  1.9944  1.1750
 1986SOL    HW217421   3.823   0.842   5.283  0.8831  1.5955 -1.3194
 1987SOL     OW17422   2.338   3.873  16.254 -0.4678  0.2679  0.4565
 1987SOL    HW117423   2.360   3.862  16.346  0.5411 -0.1171  0.1724
 1987SOL    HW217424   2.297   3.789  16.238  2.6570 -1.2411  0.3605
 1988SOL     OW17425   0.002   3.862   3.911  0.1356 -0.3245 -0.3390
 1988SOL    HW117426   4.685   3.780   3.880  0.1014 -0.1080 -0.8677
 1988SOL    HW217427   0.004   3.846   4.005  2.0224  0.5305 -0.2309
 1989SOL     OW17428   2.448   0.370  15.694 -0.1175  0.5370  0.3626
 1989SOL    HW117429   2.369   0.413  15.725 -0.6685  1.2674 -2.1367
 1989SOL    HW217430   2.442   0.381  15.599  1.7407  0.1625  0.1930
 1990SOL     OW17431   3.784   1.108   7.324  0.4138 -0.0609 -0.2722
 1990SOL    HW117432   3.778   1.057   7.244 -0.3100  0.0314 -0.2773
 1990SOL    HW217433   3.856   1.170   7.310  0.1755  0.2596 -0.0797
 1991SOL     OW17434   1.834   3.790   6.359 -0.2704 -0.0574  0.1968
 1991SOL    HW117435   1.862   3.702   6.382  0.7099 -0.0306 -0.9480
 1991SOL    HW217436   1.810   3.828   6.444  0.3708  1.5703 -0.3628
 1992SOL     OW17437   3.730   0.197  10.047  0.1348 -0.2665  0.5897
 1992SOL    HW117438   3.790   0.237   9.985 -2.7925  0.1049 -1.9685
 1992SOL    HW217439   3.777   0.121  10.082 -0.0952 -1.2813 -1.3138
 1993SOL     OW17440   3.383   1.663   4.748 -0.8306 -0.1117 -0.2188
 1993SOL    HW117441   3.474   1.685   4.766 -1.4236  0.1001  2.5807
 1993SOL    HW217442   3.400   1.571   4.727 -3.1506 -0.2536 -1.5358
 1994SOL     OW17443   3.752   1.225   5.734 -0.7902  0.1529 -0.8636
 1994SOL    HW117444   3.677   1.174   5.705 -1.2729 -1.1522  2.7391
 1994SOL    HW217445   3.773   1.180   5.816 -0.8494 -0.4072 -1.1564
 1995SOL     OW17446   2.897   4.326   8.074  0.3635 -0.0401 -0.0779
 1995SOL    HW117447   2.968   4.391   8.068 -0.1211  0.5632  0.7544
 1995SOL    HW217448   2.844   4.350   7.998 -0.9060 -0.9625  0.5344
 1996SOL     OW17449   1.946   3.458   8.373  0.9193  0.2092  0.2223
 1996SOL    HW117450   1.884   3.522   8.410  2.6157  1.6034  0.6727
 1996SOL    HW217451   2.022   3.516   8.364  2.1234 -1.3637  0.2680
 1997SOL     OW17452   1.660   4.099   1.567  0.2485 -0.0123  0.7037
 1997SOL    HW117453   1.649   4.096   1.472 -0.7485 -1.0479  0.8478
 1997SOL    HW217454   1.574   4.071   1.599  0.8489  0.1311  2.4073
 1998SOL     OW17455   3.037   0.341  11.462 -0.5021  0.1831 -0.1830
 1998SOL    HW117456   3.037   0.250  11.492  1.6158 -0.1036 -1.0766
 1998SOL    HW217457   3.054   0.339  11.367  1.5070  1.1785  0.1534
 1999SOL     OW17458   2.182   1.435   3.665  0.0860  0.0060  0.3435
 1999SOL    HW117459   2.134   1.481   3.734 -0.9527  0.8466 -0.9465
 1999SOL    HW217460   2.271   1.469   3.674  0.0251  0.1418  0.4166
 2000SOL     OW17461   3.357   0.020   7.670  0.2334 -0.3937 -1.0929
 2000SOL    HW117462   3.337   0.105   7.709  0.6826 -0.1867 -1.3154
 2000SOL    HW217463   3.329   0.028   7.578 -0.4996  2.0161 -0.6516
 2001SOL     OW17464   3.761   0.443   8.376 -0.3627  0.4517 -0.2571
 2001SOL    HW117465   3.801   0.372   8.427 -0.1877  0.2930 -0.6175
 2001SOL    HW217466   3.816   0.435   8.298 -1.1038  0.5908 -0.7951
 2002SOL     OW17467   1.082   1.296   2.882 -0.0353  0.2175  0.2026
 2002SOL    HW117468   1.078   1.201   2.891 -1.2764  0.3067  0.6263
 2002SOL    HW217469   1.011   1.335   2.932 -0.2206  0.6298 -0.3803
 2003SOL     OW17470   2.403   1.884  11.429 -0.1678  0.3940  0.0855
 2003SOL    HW117471   2.350   1.963  11.430 -0.2345  0.3923 -2.2631
 2003SOL    HW217472   2.420   1.883  11.335 -0.9572 -0.3532 -0.0415
 2004SOL     OW17473   4.463   3.927  15.638 -0.1384 -0.3969  0.0678
 2004SOL    HW117474   4.388   3.978  15.607  0.4109  0.4036  0.0255
 2004SOL    HW217475   4.424   3.864  15.698  0.9704 -2.5539 -1.4773
 2005SOL     OW17476   2.677   2.903  11.306 -1.0272 -0.1854 -0.2849
 2005SOL    HW117477   2.704   2.993  11.319  1.6096 -0.9447 -0.5733
 2005SOL    HW217478   2.684   2.868  11.395 -0.2206  0.4916 -0.0927
 2006SOL     OW17479   1.177   2.030   7.678 -0.3751  0.4580  0.1432
 2006SOL    HW117480   1.207   2.071   7.597 -0.6283  0.0461 -0.1610
 2006SOL    HW217481   1.249   2.024   7.740 -0.0093 -1.6478 -0.4979
 2007SOL     OW17482   3.146   3.035   6.219 -0.1258  0.3123  0.0134
 2007SOL    HW117483   3.200   2.971   6.172 -0.8750 -1.9416  2.2373
 2007SOL    HW217484   3.085   2.975   6.261 -1.4189  0.1186 -2.1041
 2008SOL     OW17485   0.568   3.270   8.995  0.1175 -0.4430 -0.0989
 2008SOL    HW117486   0.614   3.198   9.038  0.1203 -0.4776 -0.1590
 2008SOL    HW217487   0.519   3.232   8.921 -0.6831 -0.3310  0.3708
 2009SOL     OW17488   2.647   2.191   4.035  0.7930 -0.5616 -0.0876
 2009SOL    HW117489   2.649   2.168   3.942 -0.0463  0.9665 -0.4840
 2009SOL    HW217490   2.555   2.180   4.060  0.3173 -0.8348 -1.9002
 2010SOL     OW17491   3.973   0.721  15.474 -0.2083  0.4998  0.0191
 2010SOL    HW117492   3.971   0.813  15.500  2.3575 -0.4364  3.6613
 2010SOL    HW217493   4.015   0.692  15.556 -0.8504  0.2961  0.2730
 2011SOL     OW17494   4.469   0.292   2.397  0.5336 -0.4187  0.4267
 2011SOL    HW117495   4.492   0.350   2.324  1.2095 -0.9789  0.1870
 2011SOL    HW217496   4.552   0.245   2.395  0.1861 -0.9145 -2.0528
 2012SOL     OW17497   4.558   1.243  14.325  1.0005 -0.1309 -0.4566
 2012SOL    HW117498   4.617   1.178  14.363  0.1764 -0.4672  0.2567
 2012SOL    HW217499   4.623   1.313  14.314 -0.2995  1.5014  2.2643
 2013SOL     OW17500   0.827   1.033  13.670  0.6463 -0.2077  1.2267
 2013SOL    HW117501   0.851   1.114  13.715 -0.7509  1.1580 -0.4565
 2013SOL    HW217502   0.910   0.987  13.662  1.3605  1.3333 -0.3048
 2014SOL     OW17503   3.126   1.770   2.748 -0.3013 -0.1758  0.4303
 2014SOL    HW117504   3.078   1.790   2.828  0.0745  0.4639  0.5005
 2014SOL    HW217505   3.177   1.852   2.745 -1.2377  0.4197  0.7746
 2015SOL     OW17506   3.846   0.850   1.776 -0.2002  0.2239  0.0254
 2015SOL    HW117507   3.770   0.861   1.833  0.6074  0.0418  1.1478
 2015SOL    HW217508   3.875   0.939   1.754  0.6744  0.5639  2.5521
 2016SOL     OW17509   1.577   4.587   1.343  0.0526 -0.0121 -0.3496
 2016SOL    HW117510   1.499   4.642   1.338 -0.0611 -0.1161  0.3385
 2016SOL    HW217511   1.583   4.581   1.438  0.2886 -0.5370 -0.4007
 2017SOL     OW17512   4.525   2.384   8.288  0.6295 -0.4244 -0.3089
 2017SOL    HW117513   4.498   2.467   8.248 -0.8775  0.0358  1.6811
 2017SOL    HW217514   4.505   2.325   8.215 -0.1967 -0.0477 -0.3940
 2018SOL     OW17515   1.856   1.553   6.921 -0.3653  0.0537 -0.1861
 2018SOL    HW117516   1.859   1.503   7.003 -0.3596 -0.6255 -0.6053
 2018SOL    HW217517   1.840   1.481   6.861 -2.0528  1.3859 -1.3590
 2019SOL     OW17518   3.137   4.272   9.791  0.0860  0.5350  0.1204
 2019SOL    HW117519   3.125   4.179   9.769  0.3205  1.1988 -2.8119
 2019SOL    HW217520   3.056   4.315   9.819  0.8515  1.7634  0.4672
 2020SOL     OW17521   4.208   2.195   7.821 -0.3901  0.3248 -0.5908
 2020SOL    HW117522   4.269   2.246   7.874 -1.8871 -0.2850  1.7151
 2020SOL    HW217523   4.136   2.257   7.808 -0.0775  0.5525 -1.2738
 2021SOL     OW17524   1.846   3.461   6.138  0.0773 -0.4236 -0.8721
 2021SOL    HW117525   1.827   3.543   6.090 -1.3195 -1.6938 -2.5164
 2021SOL    HW217526   1.880   3.498   6.219  0.2827  1.9824 -2.0453
 2022SOL     OW17527   2.872   1.238   2.360  0.0902  0.1641 -0.1943
 2022SOL    HW117528   2.966   1.223   2.348  0.1809  1.0338 -0.6011
 2022SOL    HW217529   2.866   1.177   2.433 -0.1243 -0.4026 -0.6962
 2023SOL     OW17530   2.723   4.310   4.109 -0.0280  0.2016 -0.3665
 2023SOL    HW117531   2.697   4.242   4.046  0.4941 -0.5141  0.1922
 2023SOL    HW217532   2.712   4.386   4.052  0.9872  0.3247 -0.3980
 2024SOL     OW17533   1.019   3.760   0.407 -0.0205  0.4188 -0.8729
 2024SOL    HW117534   0.972   3.699   0.350  0.2121 -0.4397 -0.1440
 2024SOL    HW217535   1.075   3.695   0.450  4.2330  4.2710 -0.6238
 2025SOL     OW17536   3.998   2.281  14.834  0.2672  0.0351  0.5066
 2025SOL    HW117537   4.085   2.322  14.832  0.6427 -0.8387 -0.5678
 2025SOL    HW217538   3.987   2.255  14.743  0.6810 -0.3034  0.5524
 2026SOL     OW17539   3.677   2.332   1.019 -0.2835  0.0908 -0.0446
 2026SOL    HW117540   3.673   2.401   1.085 -0.3427  0.1550 -0.1144
 2026SOL    HW217541   3.592   2.348   0.978  1.0052  0.1987 -2.6694
 2027SOL     OW17542   3.703   3.406   7.928 -0.5245 -0.0378  0.2028
 2027SOL    HW117543   3.642   3.367   7.991  0.3854  1.2837  1.8996
 2027SOL    HW217544   3.774   3.433   7.987  0.2622 -0.5455 -0.5179
 2028SOL     OW17545   2.956   2.026   1.373 -0.2613 -0.4180 -0.2732
 2028SOL    HW117546   2.883   1.974   1.340 -1.2518  0.8836 -0.1170
 2028SOL    HW217547   3.028   1.979   1.329  1.2595 -0.5868  2.3771
 2029SOL     OW17548   1.114   3.176   7.683 -0.1660 -0.1682 -0.3806
 2029SOL    HW117549   1.117   3.185   7.778  0.5740  2.9594 -0.6902
 2029SOL    HW217550   1.115   3.081   7.682 -0.1901 -0.1603 -0.9201
 2030SOL     OW17551   3.273   2.425   5.803  0.3151  0.5417  0.7307
 2030SOL    HW117552   3.266   2.344   5.753 -2.6776  1.8981 -1.1138
 2030SOL    HW217553   3.182   2.426   5.834 -0.2698  0.8473 -0.9663
 2031SOL     OW17554   1.731   4.059   2.987  0.5544  0.0358  0.0146
 2031SOL    HW117555   1.795   4.104   2.932  2.1700 -2.3384 -0.0383
 2031SOL    HW217556   1.659   4.121   2.981  0.8618  0.2799 -1.0730
 2032SOL     OW17557   2.231   4.054  16.810  0.3116  0.6979 -0.7170
 2032SOL    HW117558   2.191   4.029  16.893  1.5398 -0.8094 -0.5948
 2032SOL    HW217559   2.200   3.987  16.749  0.6529 -1.8235  1.9242
 2033SOL     OW17560   1.033   0.250  14.878  0.4908  0.6513  0.0449
 2033SOL    HW117561   1.106   0.189  14.884  0.2593  0.4789  1.0306
 2033SOL    HW217562   0.989   0.249  14.963 -1.3823 -0.0141 -0.9095
 2034SOL     OW17563   1.692   2.150   6.748  0.0825  0.1914  0.3930
 2034SOL    HW117564   1.717   2.224   6.691  1.9308 -0.4627  0.3595
 2034SOL    HW217565   1.616   2.197   6.783  0.0379  2.1231 -2.2007
 2035SOL     OW17566   3.725   3.936  13.968 -0.1572 -0.6110  0.5029
 2035SOL    HW117567   3.806   3.912  14.014 -1.0528 -2.6107  1.0232
 2035SOL    HW217568   3.655   3.942  14.032  0.9533 -1.5960  1.8176
 2036SOL     OW17569   2.002   1.474   1.558  0.4197 -0.1714  0.1505
 2036SOL    HW117570   2.039   1.392   1.525  0.9883  0.0324  0.2899
 2036SOL    HW217571   1.909   1.453   1.548 -0.2557  2.2815  1.2660
 2037SOL     OW17572   0.716   4.160   7.321 -0.1113  0.1448  0.1368
 2037SOL    HW117573   0.716   4.096   7.393 -1.3861  0.6361  0.5711
 2037SOL    HW217574   0.632   4.204   7.328 -0.1598  0.1601 -0.5759
 2038SOL     OW17575   4.287   1.385   3.035  0.0641  0.0594 -0.0884
 2038SOL    HW117576   4.296   1.474   3.069  0.0993  0.1668 -0.3831
 2038SOL    HW217577   4.194   1.391   3.013  0.1506  2.1815  0.1500
 2039SOL     OW17578   2.079   4.501   8.368 -1.0136 -0.1070 -0.3964
 2039SOL    HW117579   2.155   4.533   8.416 -0.6331 -0.4807 -0.7443
 2039SOL    HW217580   2.066   4.572   8.304 -0.1760  0.5795  0.1985
 2040SOL     OW17581   2.100   4.259   9.281  0.0195 -0.4149  0.5383
 2040SOL    HW117582   2.134   4.345   9.309 -0.0180 -0.3240  0.3033
 2040SOL    HW217583   2.023   4.286   9.230  1.5771  0.3396 -1.4241
 2041SOL     OW17584   1.579   1.236   4.709 -0.3259 -0.2050 -0.3738
 2041SOL    HW117585   1.656   1.290   4.728 -1.1419  0.0192  2.3646
 2041SOL    HW217586   1.514   1.299   4.742  0.7579  1.9282 -2.2721
 2042SOL     OW17587   4.273   0.855  14.290 -0.2748  0.0988  0.3588
 2042SOL    HW117588   4.235   0.780  14.336 -1.3566  0.7882  0.6100
 2042SOL    HW217589   4.258   0.830  14.199 -1.5208  1.9958  0.0413
 2043SOL     OW17590   1.491   0.676   3.026 -1.1689 -0.1085  0.0861
 2043SOL    HW117591   1.461   0.684   2.935 -0.7548  0.3143 -0.0100
 2043SOL    HW217592   1.577   0.636   3.009 -2.3345 -2.5588 -0.0899
 2044SOL     OW17593   1.123   2.695   8.958 -0.1119 -0.0530  0.4711
 2044SOL    HW117594   1.107   2.738   8.874  2.3533  0.7055  0.3696
 2044SOL    HW217595   1.216   2.717   8.967 -1.3170  4.1354  2.6469
 2045SOL     OW17596   4.276   1.859  17.508 -0.0610  0.1442 -0.2652
 2045SOL    HW117597   4.215   1.787  17.522  2.0442 -1.6645 -0.3578
 2045SOL    HW217598   4.264   1.898  17.595  0.9433  1.9299 -0.9206
 2046SOL     OW17599   2.143   2.263   3.105 -0.0690  0.5545 -0.3636
 2046SOL    HW117600   2.160   2.333   3.168  0.4220  2.0001 -2.0751
 2046SOL    HW217601   2.096   2.319   3.043 -0.1714 -0.2093 -0.9763
 2047SOL     OW17602   2.803   0.235  10.086 -0.2681 -0.0995  0.0481
 2047SOL    HW117603   2.819   0.150  10.046  2.0899  0.8205 -0.9826
 2047SOL    HW217604   2.715   0.260  10.057 -0.4520 -0.3883  0.3688
 2048SOL     OW17605   4.415   1.831   0.545  0.3664 -0.6976  0.5593
 2048SOL    HW117606   4.389   1.756   0.490 -0.9086 -1.4610  2.2149
 2048SOL    HW217607   4.328   1.856   0.573  0.4212  1.2596 -1.0263
 2049SOL     OW17608   3.479   1.974  16.489 -0.1296  0.4163 -0.9152
 2049SOL    HW117609   3.551   2.015  16.538 -0.9897 -0.5811  1.2155
 2049SOL    HW217610   3.420   1.959  16.564  1.4582 -0.7876  0.0974
 2050SOL     OW17611   1.429   2.034   8.375  0.5510 -0.0765  0.2807
 2050SOL    HW117612   1.351   1.979   8.368  0.4929 -0.0914  1.0792
 2050SOL    HW217613   1.476   1.978   8.436 -0.5311  1.1621  2.2892
 2051SOL     OW17614   0.051   3.993  13.079  0.2951 -0.3175 -0.0785
 2051SOL    HW117615   4.699   3.951  13.122  0.3717  0.2958  0.6569
 2051SOL    HW217616   0.126   3.974  13.135 -0.4307  0.1633  1.0428
 2052SOL     OW17617   2.937   2.572   1.104  0.0129 -0.2122  0.5225
 2052SOL    HW117618   2.876   2.575   1.030 -0.2877  1.5301  0.8401
 2052SOL    HW217619   2.982   2.656   1.089  0.7538 -0.6962  0.0307
 2053SOL     OW17620   0.513   0.851  13.023  0.0914  0.1068 -0.2157
 2053SOL    HW117621   0.551   0.881  13.106 -2.1826  0.7339  0.5861
 2053SOL    HW217622   0.575   0.787  12.986 -0.2121 -1.3081  1.7169
 2054SOL     OW17623   1.289   2.752  10.146 -0.0488  0.3440 -0.2567
 2054SOL    HW117624   1.258   2.720  10.061 -2.2986  1.7653  0.0516
 2054SOL    HW217625   1.366   2.694  10.152 -0.5221 -0.3727 -1.0568
 2055SOL     OW17626   0.754   1.359   8.036 -0.1619 -0.0712  0.2357
 2055SOL    HW117627   0.669   1.365   8.081 -0.9229 -0.3297 -1.1717
 2055SOL    HW217628   0.749   1.271   8.000  2.6731  0.3822 -1.2550
 2056SOL     OW17629   4.379   3.979   2.166  0.1695 -0.4017 -1.1084
 2056SOL    HW117630   4.366   3.949   2.257  1.3122 -0.6429 -1.0237
 2056SOL    HW217631   4.379   4.074   2.177  1.7389 -0.4027 -1.2078
 2057SOL     OW17632   0.506   2.131  13.416 -0.3265 -0.4404  0.1273
 2057SOL    HW117633   0.598   2.121  13.443  0.1819  1.2058 -1.0452
 2057SOL    HW217634   0.484   2.220  13.442 -1.7760 -0.7686 -0.0067
 2058SOL     OW17635   3.711   2.678  17.396  0.3515 -0.0371  0.2054
 2058SOL    HW117636   3.640   2.670  17.332 -0.2271  0.9679  0.7277
 2058SOL    HW217637   3.784   2.707  17.342  0.6432  1.1205  1.2306
 2059SOL     OW17638   4.479   3.372   6.366 -0.6535  0.4097 -0.0545
 2059SOL    HW117639   4.484   3.455   6.318 -1.0066  0.8902  0.7455
 2059SOL    HW217640   4.408   3.323   6.326 -2.0744  0.6151  2.2102
 2060SOL     OW17641   0.125   1.964  14.051 -0.9744 -0.0709 -0.1983
 2060SOL    HW117642   0.217   1.981  14.072 -0.6730 -0.1298 -1.4454
 2060SOL    HW217643   0.087   2.015  14.122  0.0017 -2.0462  1.7089
 2061SOL     OW17644   2.365   3.632   2.907 -0.0693  0.1490  0.1732
 2061SOL    HW117645   2.280   3.598   2.877  0.1533  1.2811 -1.7068
 2061SOL    HW217646   2.337   3.692   2.976 -0.4181  2.0882 -1.6764
 2062SOL     OW17647   2.140   4.247  14.314 -0.1138 -0.4796  0.3824
 2062SOL    HW117648   2.121   4.266  14.222  1.8227 -0.4687 -0.0131
 2062SOL    HW217649   2.053   4.233  14.351 -0.3982  0.4705  0.0687
 2063SOL     OW17650   0.679   0.114  14.164  0.1105 -0.5109  0.2473
 2063SOL    HW117651   0.618   0.175  14.207  1.2089 -0.6358  1.9792
 2063SOL    HW217652   0.740   0.181  14.132  1.5641 -1.4672  1.0404
 2064SOL     OW17653   0.293   1.110   8.364  0.2731  0.3520 -0.3576
 2064SOL    HW117654   0.364   1.157   8.407 -1.9093  4.4304 -1.2250
 2064SOL    HW217655   0.272   1.173   8.295 -3.2774  1.0364  1.3339
 2065SOL     OW17656   4.319   0.900  11.694 -0.2454  0.4937 -0.2714
 2065SOL    HW117657   4.402   0.854  11.706 -1.5481 -2.0441 -0.9482
 2065SOL    HW217658   4.344   0.990  11.713 -1.1327  0.2179  2.1216
 2066SOL     OW17659   4.213   4.630   2.326  0.1412  0.2067  0.3658
 2066SOL    HW117660   4.146   4.598   2.266  0.3000  0.3829  0.0983
 2066SOL    HW217661   4.243   4.553   2.375  2.1630  1.6412  1.3943
 2067SOL     OW17662   1.691   2.220   7.803  0.4882 -0.1801  0.8509
 2067SOL    HW117663   1.691   2.269   7.885  2.2430  2.0258 -0.4684
 2067SOL    HW217664   1.732   2.282   7.743  1.7501 -0.8339  1.0417
 2068SOL     OW17665   4.633   3.128   3.490  0.3929  0.0531 -0.2262
 2068SOL    HW117666   4.599   3.075   3.418 -1.5061  0.5636  0.2692
 2068SOL    HW217667   4.674   3.059   3.541 -1.6883 -1.8495 -1.1058
 2069SOL     OW17668   2.757   4.303   2.101  0.4872  1.1124  0.1963
 2069SOL    HW117669   2.664   4.288   2.117  0.4021  2.8317  1.2713
 2069SOL    HW217670   2.782   4.212   2.087  2.4997  1.4307  1.8591
 2070SOL     OW17671   4.587   4.067   3.720 -0.0801  0.0418  0.1442
 2070SOL    HW117672   4.641   4.034   3.792  2.8608  2.1386 -1.1129
 2070SOL    HW217673   4.580   3.982   3.678  0.3891  0.5946 -1.0523
 2071SOL     OW17674   2.913   1.855   6.193  0.3816 -0.4357 -0.0682
 2071SOL    HW117675   2.829   1.893   6.165  0.1156 -1.2137 -0.3239
 2071SOL    HW217676   2.966   1.853   6.113  1.7978  2.0159  0.8048
 2072SOL     OW17677   3.211   4.560   8.953  0.8131 -0.8359  0.0197
 2072SOL    HW117678   3.245   4.640   8.914 -0.8815 -0.9694 -1.7194
 2072SOL    HW217679   3.200   4.593   9.042 -0.7281 -0.4970 -0.3090
 2073SOL     OW17680   3.674   2.401  10.830 -0.0769  0.1724  0.2000
 2073SOL    HW117681   3.706   2.484  10.793 -0.3538 -0.0878 -0.6104
 2073SOL    HW217682   3.759   2.364  10.854 -0.2554 -0.9914 -0.9680
 2074SOL     OW17683   3.868   2.886   6.872  0.6434 -0.0856 -0.4600
 2074SOL    HW117684   3.824   2.807   6.840  1.6748 -1.4664  1.5238
 2074SOL    HW217685   3.958   2.881   6.841  0.8221  0.7735 -0.0897
 2075SOL     OW17686   4.267   2.375   6.794  0.0643 -0.2188  0.3865
 2075SOL    HW117687   4.224   2.312   6.851 -1.8552 -0.9267 -1.8471
 2075SOL    HW217688   4.210   2.380   6.717  3.2249  2.8160 -1.7453
 2076SOL     OW17689   0.178   0.246   7.703 -0.0441 -0.0923  0.4903
 2076SOL    HW117690   0.209   0.336   7.718  0.8924 -0.2177 -0.7345
 2076SOL    HW217691   0.189   0.211   7.791  0.4739  2.2063  1.3530
 2077SOL     OW17692   3.621   0.940   0.873  0.4566 -0.2266 -0.3079
 2077SOL    HW117693   3.595   0.997   0.800  0.1115 -0.5092 -0.4106
 2077SOL    HW217694   3.613   1.006   0.942  2.4493 -0.4948  0.1757
 2078SOL     OW17695   1.850   4.610   5.440  0.4613  0.1822  0.4047
 2078SOL    HW117696   1.819   4.534   5.488 -1.5754  0.9404  0.2585
 2078SOL    HW217697   1.904   4.660   5.502  2.3455 -0.1969 -0.9280
 2079SOL     OW17698   3.486   3.239   6.850  0.0004 -0.0952  0.6822
 2079SOL    HW117699   3.537   3.226   6.770 -0.9649 -2.5198  0.4485
 2079SOL    HW217700   3.396   3.223   6.824 -0.3264  1.3133  0.9880
 2080SOL     OW17701   3.406   0.483   9.158  0.1397  0.5835  0.1362
 2080SOL    HW117702   3.491   0.501   9.199  1.1485 -0.2081 -1.6078
 2080SOL    HW217703   3.415   0.391   9.134 -4.1173  0.4200 -0.8551
 2081SOL     OW17704   1.698   4.096  15.557 -0.7195  0.2738  0.1000
 2081SOL    HW117705   1.637   4.117  15.486  0.6338  1.5456 -0.6903
 2081SOL    HW217706   1.735   4.184  15.562  0.2640 -0.2232  1.5029
 2082SOL     OW17707   3.743   3.038   5.778  0.3372 -0.0755  0.4903
 2082SOL    HW117708   3.792   3.003   5.703  0.4541 -0.4288  0.7313
 2082SOL    HW217709   3.685   3.100   5.734  1.4372  0.2328 -0.5222
 2083SOL     OW17710   3.690   2.500   5.725  0.0626  0.3305 -0.0431
 2083SOL    HW117711   3.618   2.545   5.681 -0.0906 -0.2569 -0.3882
 2083SOL    HW217712   3.676   2.415   5.684  0.6827 -0.0510  0.5403
 2084SOL     OW17713   2.707   3.608   2.588  0.5747  0.3801  0.1232
 2084SOL    HW117714   2.671   3.608   2.499  1.4738 -3.2811 -0.2468
 2084SOL    HW217715   2.646   3.669   2.628 -0.1719  0.1585 -0.6643
 2085SOL     OW17716   4.164   0.780   3.573  0.4951 -0.7788 -0.3285
 2085SOL    HW117717   4.112   0.777   3.492  2.2190 -1.1057 -1.4455
 2085SOL    HW217718   4.189   0.688   3.582  1.9666 -0.2169  1.2493
 2086SOL     OW17719   3.581   4.301   8.441  0.1203  0.1397 -0.0700
 2086SOL    HW117720   3.609   4.224   8.390  1.1535  1.4269 -1.4571
 2086SOL    HW217721   3.509   4.263   8.490 -0.4888 -1.1407 -1.9563
 2087SOL     OW17722   0.632   0.106   8.488 -0.8218  1.0266 -0.6857
 2087SOL    HW117723   0.592   0.098   8.401  1.1187 -2.2069 -1.2801
 2087SOL    HW217724   0.724   0.085   8.475 -1.2347  0.3107 -2.4572
 2088SOL     OW17725   3.683   1.965   6.093 -0.0276  0.5157 -0.2468
 2088SOL    HW117726   3.627   2.015   6.151 -1.1707 -0.8676 -0.1672
 2088SOL    HW217727   3.667   1.882   6.138  4.3643 -0.6958 -0.9116
 2089SOL     OW17728   1.625   3.245   9.446  0.5194  0.2075  0.4052
 2089SOL    HW117729   1.542   3.225   9.489  0.3831 -0.2382 -0.0518
 2089SOL    HW217730   1.687   3.182   9.482  1.6946 -0.5080 -2.8250
 2090SOL     OW17731   1.123   1.960  10.858 -1.0595  0.5652  0.1445
 2090SOL    HW117732   1.048   1.930  10.909 -2.3165  2.5317 -0.5276
 2090SOL    HW217733   1.100   2.051  10.839 -0.2711 -0.0661 -3.8048
 2091SOL     OW17734   3.891   2.355   2.324  0.5421  0.0584 -0.0298
 2091SOL    HW117735   3.827   2.418   2.357 -0.4912 -0.0244 -1.8789
 2091SOL    HW217736   3.943   2.414   2.270  0.7937 -1.0823 -1.0147
 2092SOL     OW17737   3.869   3.087  17.679 -0.0988  0.5057 -0.3568
 2092SOL    HW117738   3.843   2.995  17.667 -1.5020  0.8953 -0.3056
 2092SOL    HW217739   3.887   3.103  17.587  1.2499 -0.8543 -0.3360
 2093SOL     OW17740   0.440   0.152  13.052 -0.1671  0.0364  1.3469
 2093SOL    HW117741   0.436   0.070  13.004  0.3515 -0.6269  2.4416
 2093SOL    HW217742   0.393   0.207  12.989 -0.1622 -1.4088  0.0803
 2094SOL     OW17743   2.581   3.306   8.667 -0.4530 -0.2505  0.2372
 2094SOL    HW117744   2.487   3.305   8.651 -0.6761 -1.0449  1.6029
 2094SOL    HW217745   2.584   3.233   8.729 -1.4571 -0.2473  0.2766
 2095SOL     OW17746   2.389   0.859   4.393  0.3170 -0.3670 -0.5070
 2095SOL    HW117747   2.352   0.918   4.326  0.0667  2.8092  2.4224
 2095SOL    HW217748   2.381   0.769   4.361  1.6629 -0.4726 -0.5402
 2096SOL     OW17749   1.935   2.703   1.650 -0.0184  0.1482 -0.5385
 2096SOL    HW117750   1.849   2.691   1.611 -0.6782 -0.4609  1.1225
 2096SOL    HW217751   1.948   2.621   1.699  0.8280  0.3837 -0.3754
 2097SOL     OW17752   1.452   3.519   4.120  0.1693 -0.3689 -0.1515
 2097SOL    HW117753   1.388   3.498   4.052  2.8385 -1.3897 -2.3389
 2097SOL    HW217754   1.463   3.431   4.157  0.8662 -0.5414 -0.7600
 2098SOL     OW17755   4.107   1.797  11.891  0.5827 -0.9126  0.6070
 2098SOL    HW117756   4.110   1.703  11.905 -3.7045 -1.2746 -0.9129
 2098SOL    HW217757   4.042   1.790  11.821  1.4909  0.2891 -0.3626
 2099SOL     OW17758   4.537   1.664   0.283 -0.7772  0.0280 -0.1518
 2099SOL    HW117759   4.505   1.751   0.260 -0.7132  0.3280  0.8839
 2099SOL    HW217760   4.452   1.626   0.305  0.2448 -1.2411  1.5840
 2100SOL     OW17761   4.156   0.373   6.873 -0.1902 -0.3498  0.3005
 2100SOL    HW117762   4.196   0.286   6.868  0.8085  0.2418 -2.0379
 2100SOL    HW217763   4.181   0.395   6.963 -0.2578 -1.8101  0.6796
 2101SOL     OW17764   3.851   4.668   1.017 -0.3243  0.3891  0.1049
 2101SOL    HW117765   3.939   4.691   1.046 -0.0820 -0.2515 -0.1385
 2101SOL    HW217766   3.843   4.587   1.067  3.2643 -0.5066 -0.7529
 2102SOL     OW17767   0.713   1.460   4.363  0.8359 -0.7629 -0.0126
 2102SOL    HW117768   0.647   1.530   4.366  0.1189 -1.4431  0.1107
 2102SOL    HW217769   0.792   1.510   4.386 -0.0323 -0.0248  1.3840
 2103SOL     OW17770   2.097   3.001  10.791 -0.0288 -0.3068 -0.6025
 2103SOL    HW117771   2.028   3.067  10.788  2.3798  2.2573  0.5728
 2103SOL    HW217772   2.069   2.970  10.877  0.3023  0.1064 -0.3437
 2104SOL     OW17773   4.268   3.791   9.027 -0.6147  0.5372 -0.0097
 2104SOL    HW117774   4.273   3.835   8.942 -0.4930  1.3272  0.4061
 2104SOL    HW217775   4.176   3.810   9.047 -0.6324  0.2609  0.1735
 2105SOL     OW17776   3.776   0.760   0.609  0.6652  0.1124  0.0398
 2105SOL    HW117777   3.780   0.753   0.514  2.2795  0.8459  0.0500
 2105SOL    HW217778   3.733   0.844   0.629 -1.6496 -1.3812  1.2652
 2106SOL     OW17779   3.837   1.680  15.359 -0.6751  0.2240 -0.3351
 2106SOL    HW117780   3.772   1.613  15.339  0.5399 -0.9921 -0.2505
 2106SOL    HW217781   3.817   1.715  15.446  1.4093  0.2096  0.1469
 2107SOL     OW17782   0.971   3.296   9.167 -0.2304  0.3337 -0.1698
 2107SOL    HW117783   0.913   3.340   9.104  0.6988  2.0006  0.1343
 2107SOL    HW217784   0.980   3.362   9.236 -3.5850 -0.9914  1.5596
 2108SOL     OW17785   2.705   0.432   7.434 -0.0312 -0.4760  0.3659
 2108SOL    HW117786   2.627   0.378   7.420  0.0516 -0.4883 -0.0466
 2108SOL    HW217787   2.689   0.505   7.375  1.6392 -1.2930 -1.1219
 2109SOL     OW17788   0.995   0.501   0.557  0.4138 -0.2176 -0.0179
 2109SOL    HW117789   0.995   0.437   0.628 -1.5912 -0.1716  0.0216
 2109SOL    HW217790   0.930   0.473   0.493 -1.1868  0.6554  1.2532
 2110SOL     OW17791   1.673   2.797   5.836  0.0895 -0.0849 -0.2650
 2110SOL    HW117792   1.613   2.800   5.762 -0.2234 -2.7272 -0.1288
 2110SOL    HW217793   1.680   2.892   5.836  2.4257 -0.2401 -0.6500
 2111SOL     OW17794   2.290   0.769   7.218  0.0013 -1.0008 -0.4158
 2111SOL    HW117795   2.330   0.726   7.294  1.5633  0.4372 -0.4112
 2111SOL    HW217796   2.278   0.859   7.246  1.4627 -1.1063  0.5936
 2112SOL     OW17797   4.508   3.044   2.819  0.3011 -0.0102 -0.1309
 2112SOL    HW117798   4.502   3.002   2.733  1.9702 -1.1676  0.2920
 2112SOL    HW217799   4.592   3.089   2.817  1.3642 -1.9944 -0.5593
 2113SOL     OW17800   2.685   1.519   3.675 -0.2087  0.3817  0.6778
 2113SOL    HW117801   2.755   1.584   3.669  0.8849 -0.9546 -1.0139
 2113SOL    HW217802   2.686   1.479   3.588 -1.9261  0.5075  0.6028
 2114SOL     OW17803   0.059   4.130   3.510  0.7821 -0.4090  0.1179
 2114SOL    HW117804   0.109   4.194   3.561  0.6202 -0.5353  0.4349
 2114SOL    HW217805   4.699   4.128   3.559  1.1362  0.7550  0.7499
 2115SOL     OW17806   4.047   0.168   5.606 -0.5776  0.0884  0.0600
 2115SOL    HW117807   4.128   0.179   5.556 -1.1775 -0.8526 -1.1043
 2115SOL    HW217808   4.020   0.077   5.601  1.1255 -0.4909  1.1699
 2116SOL     OW17809   2.556   3.985   4.264 -0.6242 -0.0374  0.0056
 2116SOL    HW117810   2.515   3.900   4.281 -0.1740 -0.3644 -0.5142
 2116SOL    HW217811   2.651   3.974   4.262 -0.8087 -1.6461 -0.3254
 2117SOL     OW17812   0.781   0.053   7.221  0.1486  0.0199  0.1900
 2117SOL    HW117813   0.723   0.106   7.166  1.2293 -0.8612 -1.7990
 2117SOL    HW217814   0.863   0.095   7.196 -0.4537  1.3929  0.5401
 2118SOL     OW17815   4.160   0.139  15.168  0.6016 -0.0245 -0.2345
 2118SOL    HW117816   4.111   0.079  15.224 -0.4705  0.8742 -0.2054
 2118SOL    HW217817   4.190   0.077  15.101 -0.5406 -0.2815 -0.5097
 2119SOL     OW17818   2.099   3.559  10.886  0.1083 -0.5408 -0.1456
 2119SOL    HW117819   2.061   3.473  10.902  0.8113 -0.5384  1.4691
 2119SOL    HW217820   2.047   3.593  10.813  0.9384 -3.4520 -2.1072
 2120SOL     OW17821   2.902   4.440   6.882  0.0728 -0.0983  0.0012
 2120SOL    HW117822   2.844   4.488   6.941  2.3193  1.9386  0.5551
 2120SOL    HW217823   2.846   4.367   6.856  0.2594 -0.5819  0.9668
 2121SOL     OW17824   0.359   2.006   5.424 -0.7441 -0.6852  0.5184
 2121SOL    HW117825   0.439   1.958   5.447  0.6552  0.2706 -2.2987
 2121SOL    HW217826   0.360   2.084   5.479  1.6071 -1.3278  1.4078
 2122SOL     OW17827   1.281   0.657  11.332  0.4436  0.2968  0.1228
 2122SOL    HW117828   1.321   0.572  11.350  0.5607  0.0876 -1.1591
 2122SOL    HW217829   1.206   0.645  11.391 -2.3016  1.3322 -3.1206
 2123SOL     OW17830   2.655   4.053   6.475  0.0181  0.5167  0.0719
 2123SOL    HW117831   2.730   4.052   6.415 -1.9316 -0.6885 -2.3475
 2123SOL    HW217832   2.607   3.980   6.437 -0.9278  0.3646  1.5633
 2124SOL     OW17833   0.398   3.191  16.796 -0.1299 -0.1316  0.0783
 2124SOL    HW117834   0.338   3.239  16.740  2.4459  2.0859 -0.7829
 2124SOL    HW217835   0.407   3.258  16.863  0.2822 -0.9098  0.8062
 2125SOL     OW17836   2.777   1.199   5.306 -0.1133 -0.7187  0.0529
 2125SOL    HW117837   2.688   1.212   5.341 -0.6757  1.1174 -2.0029
 2125SOL    HW217838   2.823   1.167   5.384 -0.9358  0.8319  1.1855
 2126SOL     OW17839   3.480   1.341   3.256  0.0494 -0.1131  0.1875
 2126SOL    HW117840   3.447   1.395   3.184 -1.7963 -0.9742  0.3753
 2126SOL    HW217841   3.565   1.316   3.219  0.2210  0.8041 -0.0266
 2127SOL     OW17842   1.509   1.438   8.099  0.4887  0.5735  0.1047
 2127SOL    HW117843   1.414   1.446   8.087  0.4562  1.0721  0.7081
 2127SOL    HW217844   1.525   1.502   8.168 -0.8427  3.0288 -1.8367
 2128SOL     OW17845   0.275   1.058  11.956 -0.0847  0.1570 -0.1934
 2128SOL    HW117846   0.271   1.073  12.050 -2.0953  0.0966 -0.2715
 2128SOL    HW217847   0.211   0.988  11.944  0.3125 -0.0040 -1.3835
 2129SOL     OW17848   3.597   3.949  12.734 -0.0931  0.4561  0.5593
 2129SOL    HW117849   3.689   3.923  12.729 -0.2386  0.1291 -0.3383
 2129SOL    HW217850   3.567   3.860  12.753  1.4024  0.3227  2.3659
 2130SOL     OW17851   3.295   4.475  11.887 -0.6693 -0.6664  0.3050
 2130SOL    HW117852   3.225   4.412  11.905  0.5182 -1.7046  1.2811
 2130SOL    HW217853   3.375   4.429  11.911 -0.7461  0.2830  2.3121
 2131SOL     OW17854   3.395   1.803   7.736  0.0971  0.5831 -0.4914
 2131SOL    HW117855   3.359   1.765   7.656  0.5989  0.6985 -0.7711
 2131SOL    HW217856   3.386   1.740   7.808  0.2078  1.9485  0.7069
 2132SOL     OW17857   1.166   3.266  10.990 -0.0029  0.3075  0.1335
 2132SOL    HW117858   1.169   3.359  11.012  0.3670 -0.1090  1.9286
 2132SOL    HW217859   1.082   3.274  10.945 -0.5380  2.5510  1.5092
 2133SOL     OW17860   2.823   3.108  15.149 -0.1933 -0.4048 -0.0060
 2133SOL    HW117861   2.817   3.013  15.152  2.0646 -0.5132  0.9448
 2133SOL    HW217862   2.741   3.133  15.106  1.0811  1.5025 -1.3228
 2134SOL     OW17863   4.000   4.007   1.749 -0.0367 -0.5022  0.7267
 2134SOL    HW117864   3.982   4.035   1.839  0.7574  0.0140  0.7314
 2134SOL    HW217865   4.094   4.001   1.732 -0.1256 -0.8277  0.3686
 2135SOL     OW17866   0.702   0.882   4.328  0.4191 -0.1200  0.0012
 2135SOL    HW117867   0.675   0.890   4.236  1.7494  0.8341 -0.2998
 2135SOL    HW217868   0.629   0.825   4.353  0.9676  0.2766  2.4993
 2136SOL     OW17869   3.747   4.549   4.277 -0.0319 -0.5565  0.0108
 2136SOL    HW117870   3.819   4.494   4.309 -1.7532 -1.3476  2.6206
 2136SOL    HW217871   3.798   4.599   4.213  1.2390 -1.4871  0.2944
 2137SOL     OW17872   4.261   4.205   3.333  0.1424 -0.3778 -0.7839
 2137SOL    HW117873   4.198   4.273   3.359  0.6434  0.1847 -1.0193
 2137SOL    HW217874   4.282   4.165   3.417  1.6862  1.7502 -0.1586
 2138SOL     OW17875   3.624   1.706   4.891 -0.1235  0.2611 -0.5093
 2138SOL    HW117876   3.665   1.792   4.890 -2.0024  1.1541 -0.5259
 2138SOL    HW217877   3.631   1.693   4.985  1.4327  1.1725 -0.5019
 2139SOL     OW17878   4.455   2.855   9.343  0.6206 -1.1939  0.0879
 2139SOL    HW117879   4.450   2.772   9.391  3.4750 -1.8115 -0.6411
 2139SOL    HW217880   4.366   2.887   9.354  1.3653  0.7036  0.5972
 2140SOL     OW17881   2.871   1.201   5.876  0.7151  0.2637  0.2501
 2140SOL    HW117882   2.953   1.244   5.850 -0.9281  2.7627 -0.8406
 2140SOL    HW217883   2.836   1.272   5.930 -1.7242  0.3127 -1.4152
 2141SOL     OW17884   1.106   2.449   3.955  0.5414 -0.4397 -0.6457
 2141SOL    HW117885   1.067   2.391   4.020  0.3221 -0.4968 -0.8285
 2141SOL    HW217886   1.168   2.491   4.015 -2.6084  0.8546  1.7278
 2142SOL     OW17887   4.454   4.645   8.468 -0.6339  0.6850 -0.0063
 2142SOL    HW117888   4.374   4.697   8.468 -1.5959 -0.7657 -2.4222
 2142SOL    HW217889   4.510   4.703   8.416  2.3729 -1.1990  1.1674
 2143SOL     OW17890   0.609   1.392   5.988  0.1399 -0.6966  0.0290
 2143SOL    HW117891   0.643   1.442   5.913 -0.6080 -0.2529 -0.0134
 2143SOL    HW217892   0.694   1.402   6.032  0.7622  1.2816 -1.5896
 2144SOL     OW17893   2.952   4.126  10.854  0.4942 -0.4860  0.5462
 2144SOL    HW117894   2.939   4.046  10.804 -0.4324 -0.5607  0.9175
 2144SOL    HW217895   3.045   4.123  10.878  0.4280 -0.1365  0.8441
 2145SOL     OW17896   0.845   0.524   4.173 -0.5248  0.4135  0.2870
 2145SOL    HW117897   0.876   0.448   4.123 -1.3806  0.6687 -0.6293
 2145SOL    HW217898   0.770   0.492   4.224 -1.1907  1.4288 -0.0611
 2146SOL     OW17899   0.460   2.179   9.404  0.3410  0.1828  0.0973
 2146SOL    HW117900   0.447   2.196   9.497  1.5832  0.7950  0.1615
 2146SOL    HW217901   0.399   2.241   9.364 -1.6560 -0.2373  2.5334
 2147SOL     OW17902   0.446   0.976   3.212  0.1523  0.0194 -0.2973
 2147SOL    HW117903   0.353   0.972   3.191  0.0478 -0.8696  0.3057
 2147SOL    HW217904   0.493   0.910   3.160  2.1788 -0.1736  1.8130
 2148SOL     OW17905   1.905   2.186  13.293 -0.0876  0.2668  0.4842
 2148SOL    HW117906   1.981   2.176  13.236 -1.1340 -2.4479 -0.4443
 2148SOL    HW217907   1.917   2.277  13.321  1.0581  0.9290 -2.1919
 2149SOL     OW17908   0.648   0.236   8.993  0.0208  0.2614 -0.2620
 2149SOL    HW117909   0.698   0.317   8.988 -0.6900  0.7380  0.4351
 2149SOL    HW217910   0.587   0.229   8.920  0.3032 -0.1722 -0.4565
 2150SOL     OW17911   0.959   2.255   4.138  0.0281 -0.1137 -0.0590
 2150SOL    HW117912   0.871   2.220   4.129  0.0082 -0.7451  2.6984
 2150SOL    HW217913   0.993   2.207   4.214 -1.5170  1.1261  1.4121
 2151SOL     OW17914   1.932   3.167  12.792  0.7909  0.4720  0.0328
 2151SOL    HW117915   1.993   3.195  12.723  1.2387  1.8452  0.9875
 2151SOL    HW217916   1.854   3.218  12.770  0.4918 -0.5688 -1.3284
 2152SOL     OW17917   0.558   0.971   8.667 -0.1816  0.8858 -0.2073
 2152SOL    HW117918   0.553   1.050   8.721  1.0265  2.3036 -2.1825
 2152SOL    HW217919   0.473   0.929   8.683 -1.7631  3.3396 -2.1873
 2153SOL     OW17920   0.982   0.212   5.964  0.4676 -0.1679 -0.1849
 2153SOL    HW117921   1.023   0.135   6.005  1.2668 -0.8453 -2.2269
 2153SOL    HW217922   1.001   0.279   6.029  0.6142 -1.4704  1.1222
 2154SOL     OW17923   4.235   3.234   9.052 -0.1869 -0.4097  0.6797
 2154SOL    HW117924   4.159   3.189   9.015  0.2723 -0.2293 -0.4680
 2154SOL    HW217925   4.195   3.321   9.058 -2.1576 -1.3060  0.5350
 2155SOL     OW17926   0.857   1.271   7.771  0.0126 -0.2355 -0.2581
 2155SOL    HW117927   0.856   1.176   7.764 -1.3626 -0.0904 -1.9283
 2155SOL    HW217928   0.950   1.285   7.790  0.1055 -0.3145 -0.6608
 2156SOL     OW17929   1.931   2.691   4.505 -0.1368  0.2897 -0.1091
 2156SOL    HW117930   1.949   2.603   4.471  0.4884  0.4436 -0.1673
 2156SOL    HW217931   1.930   2.743   4.424 -3.1062 -0.5733 -0.6636
 2157SOL     OW17932   0.840   4.106   3.202  0.6264  1.1953  0.2229
 2157SOL    HW117933   0.888   4.034   3.162 -0.1073  1.9423 -2.0346
 2157SOL    HW217934   0.790   4.054   3.264  0.6662  1.2693  0.3180
 2158SOL     OW17935   4.084   1.936   6.020 -0.7472  0.2417  0.3704
 2158SOL    HW117936   4.111   1.939   5.928 -0.5641 -2.1701  0.3578
 2158SOL    HW217937   4.143   1.877   6.067  0.4588  1.7515  0.7543
 2159SOL     OW17938   3.030   3.958   6.131 -0.2580 -0.4317  0.2394
 2159SOL    HW117939   3.045   3.867   6.156 -3.7257 -0.9063  0.6731
 2159SOL    HW217940   3.057   3.949   6.040  1.1256 -0.1734  0.6393
 2160SOL     OW17941   3.568   2.339   2.614  0.3908  0.0966 -0.5428
 2160SOL    HW117942   3.481   2.346   2.573 -0.2721  0.4721  0.9182
 2160SOL    HW217943   3.577   2.246   2.632 -1.6069 -0.3871 -2.0018
 2161SOL     OW17944   3.841   2.625   4.511  0.6226  0.1376  0.0301
 2161SOL    HW117945   3.800   2.676   4.441  0.8304 -0.9364 -0.8675
 2161SOL    HW217946   3.891   2.699   4.546  0.9579 -0.3818  0.6580
 2162SOL     OW17947   1.437   2.584  13.067 -0.2836 -0.0012  0.2406
 2162SOL    HW117948   1.416   2.620  13.153 -0.1638  0.4291  0.0908
 2162SOL    HW217949   1.369   2.618  13.009  0.3775 -0.5157 -0.8244
 2163SOL     OW17950   3.561   2.294  11.047  0.0473 -0.6637  0.2766
 2163SOL    HW117951   3.615   2.348  10.988 -0.8691 -1.9814 -1.7779
 2163SOL    HW217952   3.481   2.282  10.996 -0.1347  0.5631  0.2570
 2164SOL     OW17953   2.478   2.619   9.184  0.2085 -0.3620 -0.4601
 2164SOL    HW117954   2.384   2.624   9.202  0.2661  2.1418 -0.8873
 2164SOL    HW217955   2.513   2.706   9.200 -1.6542  0.7664 -2.4857
 2165SOL     OW17956   1.825   2.384   3.188 -0.0727 -0.4105 -0.1218
 2165SOL    HW117957   1.876   2.444   3.134 -0.8224 -1.1575 -1.6704
 2165SOL    HW217958   1.761   2.353   3.124 -0.2811 -3.0934  1.3853
 2166SOL     OW17959   4.291   3.132   3.439  0.2042 -0.0582 -0.6398
 2166SOL    HW117960   4.238   3.170   3.509 -0.6576  1.9180 -2.3722
 2166SOL    HW217961   4.245   3.163   3.361 -0.1803 -0.8134 -0.7118
 2167SOL     OW17962   0.906   2.844   2.287 -0.3882 -0.5010 -0.6044
 2167SOL    HW117963   0.893   2.766   2.232  4.1580  0.2679 -2.7387
 2167SOL    HW217964   0.883   2.914   2.225  1.1071  0.1084 -0.4565
 2168SOL     OW17965   1.949   3.782  11.110  0.6090  0.7109 -0.1737
 2168SOL    HW117966   1.969   3.710  11.170 -2.7945 -0.5862 -0.5452
 2168SOL    HW217967   2.028   3.834  11.117 -0.1764  1.6555  1.7301
 2169SOL     OW17968   0.268   0.707  11.991 -0.3589 -0.6582  0.5959
 2169SOL    HW117969   0.272   0.700  11.896 -1.3988 -0.9718  0.5814
 2169SOL    HW217970   0.175   0.686  12.001 -0.5727 -0.8264 -1.7451
 2170SOL     OW17971   3.544   2.536   9.582  0.1754 -0.4397 -0.4511
 2170SOL    HW117972   3.563   2.550   9.675 -0.6906 -0.2446 -0.3058
 2170SOL    HW217973   3.624   2.574   9.545 -0.0088  0.0674 -0.3309
 2171SOL     OW17974   0.380   0.347   7.877  0.3732 -0.4797  0.1049
 2171SOL    HW117975   0.343   0.344   7.966 -3.0687  0.9368 -1.2795
 2171SOL    HW217976   0.410   0.256   7.877  2.1483  0.0908  2.4163
 2172SOL     OW17977   1.318   0.347  16.492 -0.4001  0.3925 -1.3463
 2172SOL    HW117978   1.401   0.302  16.474 -1.0157 -0.7539 -1.3141
 2172SOL    HW217979   1.254   0.277  16.500 -0.2435  0.4958  1.0073
 2173SOL     OW17980   4.110   0.041   1.056 -0.5330 -0.0958  0.0116
 2173SOL    HW117981   4.193   0.048   1.103 -0.9776  0.7256  0.6795
 2173SOL    HW217982   4.120   0.114   0.996  0.0150 -0.1177  0.0808
 2174SOL     OW17983   4.547   1.262   9.578 -0.0205  0.2367  0.6090
 2174SOL    HW117984   4.553   1.202   9.652  0.5145  0.0054  0.3769
 2174SOL    HW217985   4.483   1.318   9.623  2.2376  2.5534  0.9651
 2175SOL     OW17986   1.587   0.209   2.948  0.3450 -0.3701  0.6676
 2175SOL    HW117987   1.614   0.131   2.900 -2.1241 -0.1329 -1.1057
 2175SOL    HW217988   1.509   0.174   2.991 -0.6036  0.9649  0.0503
 2176SOL     OW17989   3.556   1.550  16.572  0.0780  0.4813  0.2047
 2176SOL    HW117990   3.525   1.477  16.518 -1.7338  1.0302  0.4924
 2176SOL    HW217991   3.646   1.565  16.543  0.1769 -0.7371 -0.0962
 2177SOL     OW17992   2.224   0.114   2.131 -0.2710  0.2857 -0.0832
 2177SOL    HW117993   2.251   0.190   2.080 -0.8465  0.0604 -0.7265
 2177SOL    HW217994   2.286   0.050   2.096  0.0418  0.4104  0.2400
 2178SOL     OW17995   0.999   2.880  17.383 -0.0830 -0.0049  0.4677
 2178SOL    HW117996   1.001   2.830  17.465 -0.9839 -0.1624  0.3918
 2178SOL    HW217997   1.022   2.820  17.313  0.6006  1.5757 -0.6658
 2179SOL     OW17998   4.426   1.573  15.522  0.3712 -0.7741  0.0169
 2179SOL    HW117999   4.514   1.590  15.555 -0.4446  3.5196 -0.0438
 2179SOL    HW218000   4.379   1.530  15.594 -1.0324  0.8689  0.1034
 2180SOL     OW18001   4.565   3.680  10.253 -0.6390 -0.2828 -0.2471
 2180SOL    HW118002   4.542   3.740  10.323 -0.2444  0.2247 -0.5490
 2180SOL    HW218003   4.575   3.754  10.192 -3.1202 -0.6202 -1.0662
 2181SOL     OW18004   4.383   3.957   8.079 -0.0253 -0.2316 -0.5077
 2181SOL    HW118005   4.472   3.982   8.052  0.6340 -2.3902 -0.2771
 2181SOL    HW218006   4.378   3.863   8.094  1.5146  0.1641  2.7171
 2182SOL     OW18007   4.286   3.570   2.871  0.4615 -0.1827 -0.6200
 2182SOL    HW118008   4.348   3.639   2.894 -0.9198  1.5222 -2.0868
 2182SOL    HW218009   4.340   3.506   2.824  0.5711 -1.2050  0.8763
 2183SOL     OW18010   1.888   2.051   8.113 -0.3255  0.0064  0.2529
 2183SOL    HW118011   1.845   2.009   8.038 -1.5209  2.5722 -0.4671
 2183SOL    HW218012   1.967   2.074   8.064 -1.8383 -2.7139 -3.4738
 2184SOL     OW18013   1.577   1.415   5.917 -0.1206 -0.3431  0.2242
 2184SOL    HW118014   1.519   1.443   5.988  0.8601  0.9142  0.5365
 2184SOL    HW218015   1.523   1.350   5.874  0.6098  0.6402 -2.1533
 2185SOL     OW18016   1.490   1.831   5.574 -0.0645  0.3159  0.3683
 2185SOL    HW118017   1.479   1.913   5.621  1.0104  0.9534 -0.4928
 2185SOL    HW218018   1.550   1.785   5.633  0.1033  0.7529  0.5354
 2186SOL     OW18019   4.130   2.316   5.071  0.0002 -0.0837  0.3071
 2186SOL    HW118020   4.108   2.348   4.983  2.0813  1.0893  0.2181
 2186SOL    HW218021   4.050   2.265   5.086  0.1106 -0.4110 -0.1965
 2187SOL     OW18022   0.113   3.979   6.370 -0.0504  0.4795  0.2173
 2187SOL    HW118023   0.104   3.899   6.421 -0.5183 -0.0838 -0.7476
 2187SOL    HW218024   0.206   3.976   6.346 -0.5302 -1.7119 -1.3423
 2188SOL     OW18025   0.930   2.870   6.791 -0.2713 -0.0955  0.3543
 2188SOL    HW118026   0.957   2.909   6.874  1.5830 -0.4806 -0.0799
 2188SOL    HW218027   0.985   2.791   6.792 -0.7239 -0.4354 -0.7950
 2189SOL     OW18028   3.548   0.588  12.854  0.1670  0.7341  0.9974
 2189SOL    HW118029   3.567   0.510  12.801  4.3331  1.2189  1.7708
 2189SOL    HW218030   3.619   0.649  12.834  1.2061 -1.1270 -1.0374
 2190SOL     OW18031   2.352   2.487  12.442  0.8334  0.1234 -0.0888
 2190SOL    HW118032   2.318   2.475  12.530  1.5985 -2.2421 -0.0979
 2190SOL    HW218033   2.372   2.580  12.439  0.7812  0.0762 -2.6202
 2191SOL     OW18034   3.767   1.820   7.215 -0.4641  0.2902  0.2400
 2191SOL    HW118035   3.808   1.734   7.205 -0.0558  0.3796  1.1094
 2191SOL    HW218036   3.703   1.809   7.286 -0.1280  0.8100  0.6267
 2192SOL     OW18037   2.429   2.152  10.702 -0.5076 -0.1764  0.6043
 2192SOL    HW118038   2.367   2.159  10.630  1.0739  0.6495 -0.6813
 2192SOL    HW218039   2.462   2.240  10.684  1.8460 -1.6263 -2.1314
 2193SOL     OW18040   2.326   2.917   2.566 -0.1585 -0.0345  0.2289
 2193SOL    HW118041   2.364   3.004   2.552 -2.4183  1.0259  0.5139
 2193SOL    HW218042   2.410   2.874   2.577  0.1765  0.6005  0.1472
 2194SOL     OW18043   2.307   3.354   7.585  0.4078 -0.5360  0.0613
 2194SOL    HW118044   2.297   3.449   7.594  2.2330 -0.2588 -0.7576
 2194SOL    HW218045   2.402   3.352   7.597  0.6736 -0.0042 -2.0229
 2195SOL     OW18046   0.323   0.437   6.547  0.0977  0.7097 -0.1482
 2195SOL    HW118047   0.328   0.490   6.468 -3.8051  0.9669 -0.2342
 2195SOL    HW218048   0.235   0.467   6.571  0.8869 -0.2386  3.9801
 2196SOL     OW18049   1.033   4.012   6.830  0.5624  0.4121 -0.2173
 2196SOL    HW118050   1.028   3.921   6.798 -0.6231  0.3098  0.2783
 2196SOL    HW218051   1.100   4.044   6.769  0.9825  0.8325  0.4657
 2197SOL     OW18052   2.370   0.893   6.171 -0.0573 -0.0732 -0.1103
 2197SOL    HW118053   2.437   0.910   6.238 -0.3144 -0.5689  0.2674
 2197SOL    HW218054   2.374   0.799   6.154 -1.5900  0.1816 -1.9153
 2198SOL     OW18055   1.605   0.439   6.811  0.2785  0.0261 -0.4371
 2198SOL    HW118056   1.600   0.507   6.743  1.0065  0.5136 -0.0063
 2198SOL    HW218057   1.578   0.368   6.752 -0.6253 -2.0926  2.5706
 2199SOL     OW18058   1.527   4.598   7.269  1.1099 -0.0693  0.5919
 2199SOL    HW118059   1.525   4.689   7.241 -0.5038 -0.9203 -2.0225
 2199SOL    HW218060   1.436   4.585   7.294  0.4269  0.4990 -1.6483
 2200SOL     OW18061   1.208   3.295   8.223  0.1161  0.5785 -0.1389
 2200SOL    HW118062   1.157   3.362   8.269 -1.9337 -0.6706 -0.6300
 2200SOL    HW218063   1.299   3.322   8.235 -0.1990  1.0613  1.2328
 2201SOL     OW18064   4.037   1.111   4.318  0.1944 -0.3017 -0.0466
 2201SOL    HW118065   4.129   1.134   4.306  0.0345 -1.4362 -3.2126
 2201SOL    HW218066   4.049   1.030   4.368 -1.5241 -0.0788  0.7153
 2202SOL     OW18067   1.491   1.014   9.812  0.3519 -0.2068 -0.6510
 2202SOL    HW118068   1.585   1.004   9.826  0.3184 -0.5580 -0.6711
 2202SOL    HW218069   1.464   0.929   9.847  1.8447 -0.9740 -1.3548
 2203SOL     OW18070   0.484   0.905   4.003  0.1693  0.1519 -0.0155
 2203SOL    HW118071   0.549   0.975   4.002  0.6470 -0.3006 -0.5639
 2203SOL    HW218072   0.547   0.838   4.029  0.2538 -0.0620 -0.7665
 2204SOL     OW18073   3.076   0.361   0.466  0.4340 -0.0544  0.4593
 2204SOL    HW118074   3.051   0.325   0.551  1.1991 -4.1118 -1.0160
 2204SOL    HW218075   3.049   0.294   0.404 -2.4721  0.3725  1.2837
 2205SOL     OW18076   4.058   2.958  10.346  0.4676  0.1434 -0.2775
 2205SOL    HW118077   4.013   2.966  10.430 -1.3288  0.8105 -1.2904
 2205SOL    HW218078   3.989   2.908  10.301  2.3521 -2.2775 -0.4975
 2206SOL     OW18079   0.950   3.173   7.199 -0.3212  0.3244 -0.0510
 2206SOL    HW118080   0.912   3.220   7.273 -2.6515 -1.3283 -0.1938
 2206SOL    HW218081   0.928   3.222   7.120  0.1833 -1.3909 -1.2480
 2207SOL     OW18082   2.124   3.307   5.247  0.1929  0.2357  0.0483
 2207SOL    HW118083   2.116   3.397   5.279  0.7642  0.5971 -0.8230
 2207SOL    HW218084   2.101   3.321   5.155 -0.4643  0.3691  0.2326
 2208SOL     OW18085   4.640   0.143   8.383  0.1322  0.2852  0.0089
 2208SOL    HW118086   4.597   0.210   8.436 -0.4793 -0.6662  0.7061
 2208SOL    HW218087   4.604   0.162   8.296 -0.1489  2.2477  0.5556
 2209SOL     OW18088   2.539   0.941   6.365  0.5115  0.7797  0.3133
 2209SOL    HW118089   2.632   0.933   6.386  0.9068  0.1138 -1.6554
 2209SOL    HW218090   2.497   0.884   6.429  0.7462 -0.2193 -0.4176
 2210SOL     OW18091   0.099   4.167   3.935  0.3146 -0.3617  0.0176
 2210SOL    HW118092   0.136   4.107   3.871  0.3271 -0.7212  0.3667
 2210SOL    HW218093   0.141   4.249   3.911  3.2144 -1.9840 -0.3387
 2211SOL     OW18094   1.991   2.064  15.709  0.2284  0.1016  0.0084
 2211SOL    HW118095   2.030   2.014  15.637 -0.7621  0.8492 -1.0505
 2211SOL    HW218096   2.050   2.139  15.710  1.1576 -0.6574  1.5416
 2212SOL     OW18097   1.102   0.046   3.778 -0.7595  0.2652  1.1182
 2212SOL    HW118098   1.053   0.128   3.775 -0.8425  0.2278  1.4684
 2212SOL    HW218099   1.034   4.706   3.802  0.4507 -2.0357 -1.4886
 2213SOL     OW18100   3.621   3.774  17.036 -0.6208 -0.5706  0.0239
 2213SOL    HW118101   3.675   3.824  17.098 -0.6268  1.0396 -1.2431
 2213SOL    HW218102   3.607   3.851  16.980  0.7034 -0.0316  0.4062
 2214SOL     OW18103   3.755   0.051  16.873 -0.0748 -0.0907 -0.2748
 2214SOL    HW118104   3.699   0.052  16.950  1.4239  0.4116  0.8237
 2214SOL    HW218105   3.719   0.124  16.822 -1.8013 -1.4475 -0.9715
 2215SOL     OW18106   1.668   0.124  16.193 -0.5923 -0.2461  0.3227
 2215SOL    HW118107   1.595   0.131  16.131  0.1939  0.4049 -0.5245
 2215SOL    HW218108   1.703   0.044  16.153 -2.1266  0.0438 -1.6042
 2216SOL     OW18109   0.427   1.664   8.104  0.1643 -0.2760 -0.2209
 2216SOL    HW118110   0.517   1.664   8.136 -1.5577 -1.6755  4.5629
 2216SOL    HW218111   0.394   1.721   8.173 -1.0841  1.0187 -1.8651
 2217SOL     OW18112   2.799   0.684   4.746  0.2325 -0.5622 -0.0399
 2217SOL    HW118113   2.763   0.620   4.807 -0.9045 -0.0260 -0.1653
 2217SOL    HW218114   2.786   0.642   4.661 -1.0449  2.5124 -1.3610
 2218SOL     OW18115   0.531   3.162   4.441  0.0696  0.4595 -0.2268
 2218SOL    HW118116   0.476   3.240   4.447  0.3561  0.6687 -0.3066
 2218SOL    HW218117   0.599   3.209   4.392 -1.2852  1.0795 -1.4948
 2219SOL     OW18118   3.707   2.794   7.801  0.1480  0.2524 -0.3043
 2219SOL    HW118119   3.649   2.721   7.781 -0.6055  0.9494 -0.6831
 2219SOL    HW218120   3.689   2.852   7.727  1.8398 -1.1262 -1.7887
 2220SOL     OW18121   2.827   3.716   0.387  0.0942  0.4182  0.3514
 2220SOL    HW118122   2.785   3.788   0.339 -0.2818 -1.0530 -1.5308
 2220SOL    HW218123   2.919   3.736   0.376  0.0650  0.0354 -0.5968
 2221SOL     OW18124   2.366   3.522   3.777  0.0349 -0.0058  0.2387
 2221SOL    HW118125   2.279   3.543   3.812  0.3111 -0.8221  1.4339
 2221SOL    HW218126   2.341   3.511   3.685 -1.4914  0.7974  0.5603
 2222SOL     OW18127   3.151   1.787  12.332 -0.2177  0.3996 -0.2943
 2222SOL    HW118128   3.238   1.794  12.370 -0.6558  0.2211  0.7536
 2222SOL    HW218129   3.150   1.695  12.307 -0.1991 -0.0459  1.3283
 2223SOL     OW18130   3.249   2.418   7.448  0.5264  0.0006 -0.2647
 2223SOL    HW118131   3.331   2.400   7.401  1.4297 -0.7558  1.6077
 2223SOL    HW218132   3.195   2.357   7.397 -0.3840 -0.1991  0.9602
 2224SOL     OW18133   4.297   2.294   3.210  0.2285 -0.0790  0.0854
 2224SOL    HW118134   4.264   2.316   3.123  0.6146  1.2681  0.2699
 2224SOL    HW218135   4.218   2.281   3.263 -0.6236  1.1029 -0.9058
 2225SOL     OW18136   1.817   0.903   8.349 -0.6103 -0.6657 -0.2993
 2225SOL    HW118137   1.737   0.952   8.329  0.5192  2.7236  3.4789
 2225SOL    HW218138   1.779   0.820   8.377  1.4375 -0.9304  1.7289
 2226SOL     OW18139   3.710   1.849   2.579 -0.4007  0.4243 -0.0521
 2226SOL    HW118140   3.662   1.782   2.626  1.6416 -1.1725 -0.2561
 2226SOL    HW218141   3.796   1.807   2.569 -1.2176 -1.4782  1.1406
 2227SOL     OW18142   2.246   1.866   0.670 -0.3481 -0.4988 -0.3072
 2227SOL    HW118143   2.172   1.850   0.612  0.1152  0.3889 -1.1244
 2227SOL    HW218144   2.324   1.845   0.619 -1.0791 -3.3255 -0.2593
 2228SOL     OW18145   1.619   3.487   7.238  0.3907  0.4843 -0.4803
 2228SOL    HW118146   1.591   3.423   7.303  0.0170  2.0986  0.9417
 2228SOL    HW218147   1.569   3.458   7.161 -0.0418  1.1502 -0.4509
 2229SOL     OW18148   2.574   3.419   6.639 -0.2309 -0.5704 -0.3766
 2229SOL    HW118149   2.609   3.351   6.697 -0.7025 -1.3020 -0.9506
 2229SOL    HW218150   2.551   3.492   6.696 -3.6000 -0.2305 -2.1743
 2230SOL     OW18151   4.515   0.023  15.151 -0.4725  0.6837 -0.0540
 2230SOL    HW118152   4.577   0.023  15.078 -2.2157  0.4877 -1.5136
 2230SOL    HW218153   4.430   4.717  15.118 -0.1141 -0.7334  0.2422
 2231SOL     OW18154   0.439   1.807  10.061 -0.2256 -0.5216  0.1504
 2231SOL    HW118155   0.534   1.804  10.071 -0.1165  0.0092 -0.7312
 2231SOL    HW218156   0.424   1.899  10.081  2.2472  0.1397 -0.9729
 2232SOL     OW18157   1.431   4.396   4.250  0.1175 -0.3940 -0.3621
 2232SOL    HW118158   1.452   4.304   4.235 -3.3189 -0.7057 -3.4299
 2232SOL    HW218159   1.374   4.416   4.175 -0.3190 -3.9719 -1.0093
 2233SOL     OW18160   2.972   3.356  12.215  0.8355 -0.7119  0.7825
 2233SOL    HW118161   3.009   3.346  12.127  1.4468  0.7427  0.8718
 2233SOL    HW218162   2.964   3.451  12.208  0.0298 -0.8647 -0.2598
 2234SOL     OW18163   2.613   3.996   5.209  0.0513  0.1157  0.2279
 2234SOL    HW118164   2.703   3.987   5.177 -0.4015  0.7230 -1.2366
 2234SOL    HW218165   2.633   3.982   5.301  0.1730 -0.8832  0.0468
 2235SOL     OW18166   0.501   4.301   2.729 -0.5842  0.3876  0.2367
 2235SOL    HW118167   0.516   4.315   2.822  0.6105  1.9882 -0.2109
 2235SOL    HW218168   0.589   4.295   2.692 -0.2097 -0.5384  1.2648
 2236SOL     OW18169   1.532   1.859   0.089  0.2293 -0.2804 -0.3550
 2236SOL    HW118170   1.501   1.942   0.125  1.1718  0.1263 -0.4751
 2236SOL    HW218171   1.618   1.872   0.130 -0.3548 -0.1421  0.8306
 2237SOL     OW18172   0.457   3.564   8.790  0.7050 -0.5660  0.5710
 2237SOL    HW118173   0.430   3.485   8.836  0.3979 -1.6063 -1.4068
 2237SOL    HW218174   0.397   3.629   8.827  0.7907  0.4352 -1.0646
 2238SOL     OW18175   3.706   0.405   0.511 -0.3336  0.2596  0.3485
 2238SOL    HW118176   3.676   0.467   0.445 -1.7069 -0.4333  0.3424
 2238SOL    HW218177   3.644   0.334   0.500 -0.4668  0.6918 -1.6628
 2239SOL     OW18178   2.096   0.341   5.565  0.4007 -0.2579  0.2126
 2239SOL    HW118179   2.055   0.391   5.494  0.9936  0.4325  0.3535
 2239SOL    HW218180   2.183   0.379   5.575 -0.0350  0.4350  1.4183
 2240SOL     OW18181   3.285   2.487   2.076  0.3174  0.5307  0.3650
 2240SOL    HW118182   3.268   2.506   1.984  0.2254 -1.5403 -0.0534
 2240SOL    HW218183   3.272   2.572   2.118 -2.6202 -0.3463  1.2452
 2241SOL     OW18184   2.130   3.370   9.396  0.4119 -0.0273 -0.1059
 2241SOL    HW118185   2.134   3.465   9.392 -1.1935  0.0131 -0.6565
 2241SOL    HW218186   2.084   3.360   9.480 -0.1480 -0.6118 -0.4863
 2242SOL     OW18187   3.940   0.980   5.005 -0.4372 -0.5755 -0.5758
 2242SOL    HW118188   3.974   0.920   5.071  2.4252  0.2693 -1.2763
 2242SOL    HW218189   4.015   1.023   4.966 -0.3319 -1.5856 -1.4748
 2243SOL     OW18190   1.660   0.155   6.958 -0.1419  0.2936 -0.3344
 2243SOL    HW118191   1.749   0.146   6.993 -0.1769  1.2932  0.0270
 2243SOL    HW218192   1.676   0.176   6.866  1.5520  1.6836  0.2835
 2244SOL     OW18193   3.799   3.127   6.727  0.8622  0.0536 -1.1743
 2244SOL    HW118194   3.892   3.142   6.740  0.4511  1.0928  0.5104
 2244SOL    HW218195   3.798   3.042   6.771 -3.4945  0.4561 -0.4077
 2245SOL     OW18196   1.623   0.411   7.272 -0.2837 -0.2208  0.5250
 2245SOL    HW118197   1.536   0.440   7.301 -1.3487 -0.9515 -1.9841
 2245SOL    HW218198   1.666   0.497   7.266 -3.0905  1.2062  0.7168
 2246SOL     OW18199   2.033   4.562   8.671 -0.1572 -0.0727  0.2256
 2246SOL    HW118200   2.031   4.627   8.741  0.5292  0.2051 -0.0158
 2246SOL    HW218201   2.126   4.543   8.664 -0.0451 -0.0492  1.5984
 2247SOL     OW18202   3.393   2.285   1.440 -0.4885 -0.2410  0.1041
 2247SOL    HW118203   3.418   2.196   1.465  2.7331  0.8646  0.8762
 2247SOL    HW218204   3.375   2.281   1.346 -0.1638 -0.4372  0.0468
 2248SOL     OW18205   3.285   4.439  17.365  0.2623 -0.0794  0.0624
 2248SOL    HW118206   3.246   4.443  17.278  1.5039 -0.5213 -0.5164
 2248SOL    HW218207   3.284   4.346  17.389 -0.6480  0.0766  0.5984
 2249SOL     OW18208   3.675   3.858   4.622  0.7720 -0.6817  0.0317
 2249SOL    HW118209   3.686   3.953   4.613  0.2419 -0.5974  0.2889
 2249SOL    HW218210   3.743   3.836   4.686  0.8912  1.2945  0.5795
 2250SOL     OW18211   1.583   0.709  11.307 -0.7921 -0.2085  0.2942
 2250SOL    HW118212   1.491   0.702  11.284 -1.1760 -0.4534  1.8747
 2250SOL    HW218213   1.591   0.765  11.384 -1.3993  0.4792 -0.1382
 2251SOL     OW18214   0.495   0.451   9.143 -0.2967  0.3884 -0.1675
 2251SOL    HW118215   0.486   0.378   9.082 -0.9052  0.6203 -0.3570
 2251SOL    HW218216   0.450   0.519   9.092  0.7992  1.1701 -0.0888
 2252SOL     OW18217   2.024   0.892   8.514 -0.1889 -0.0721 -0.2478
 2252SOL    HW118218   2.073   0.960   8.467  0.1332 -0.4206 -0.4169
 2252SOL    HW218219   1.950   0.872   8.458 -1.3392  1.5423  0.6861
 2253SOL     OW18220   2.462   2.497   5.465  0.5485 -0.6245  0.1002
 2253SOL    HW118221   2.555   2.475   5.473  0.7182  0.3278  0.7307
 2253SOL    HW218222   2.409   2.428   5.504  0.7718  0.0043  1.5174
 2254SOL     OW18223   1.839   1.312   4.832 -0.2430 -0.3405 -0.1390
 2254SOL    HW118224   1.880   1.246   4.889  0.5894  0.7866  0.5645
 2254SOL    HW218225   1.838   1.392   4.885  0.1769 -0.1657 -0.3990
 2255SOL     OW18226   4.471   0.043  17.214  0.0236  0.2620  0.2600
 2255SOL    HW118227   4.413   4.716  17.273  0.6072 -1.7848 -0.9176
 2255SOL    HW218228   4.485   4.697  17.150 -3.0515 -0.1681  0.0281
 2256SOL     OW18229   2.228   1.901   7.648 -0.2460  0.1325 -0.3849
 2256SOL    HW118230   2.317   1.898   7.685 -0.9200  0.6686  1.2890
 2256SOL    HW218231   2.206   1.994   7.658 -1.7489 -0.4859  1.9986
 2257SOL     OW18232   1.560   2.375  15.316  0.5057  0.1876 -0.0154
 2257SOL    HW118233   1.626   2.400  15.251 -0.0307  0.1631 -0.5661
 2257SOL    HW218234   1.504   2.319  15.262  0.3440  0.7856 -0.4626
 2258SOL     OW18235   2.302   4.068  15.069 -0.0528 -0.8453 -0.1041
 2258SOL    HW118236   2.303   3.977  15.039  1.3416 -0.3107 -1.7093
 2258SOL    HW218237   2.226   4.094  15.019 -0.3903  1.2769  1.5299
 2259SOL     OW18238   4.119   1.910   8.399 -0.0888  0.1605  0.3575
 2259SOL    HW118239   4.143   1.818   8.393  0.6373  0.3258  0.6981
 2259SOL    HW218240   4.042   1.905   8.456 -1.7330  1.1192 -1.7490
 2260SOL     OW18241   0.657   2.429   5.591 -0.5549  0.4013 -0.2670
 2260SOL    HW118242   0.721   2.436   5.662 -1.2197 -0.2467  0.4033
 2260SOL    HW218243   0.596   2.499   5.615 -1.0117 -0.9322  2.5312
 2261SOL     OW18244   0.595   0.743   8.953 -0.1270  0.5827 -0.2716
 2261SOL    HW118245   0.608   0.746   9.048 -3.0774 -0.8513  0.1842
 2261SOL    HW218246   0.618   0.832   8.925 -1.9533  0.8213 -1.0215
 2262SOL     OW18247   1.588   4.016   8.598  0.0409  0.2408 -0.1155
 2262SOL    HW118248   1.649   4.049   8.532 -1.4483 -1.1695 -2.1818
 2262SOL    HW218249   1.523   3.965   8.550  0.6392  1.6936 -2.4853
 2263SOL     OW18250   1.894   3.047   9.364 -0.0404 -0.4787 -0.3104
 2263SOL    HW118251   1.918   2.958   9.390 -0.1459 -0.3737  0.1423
 2263SOL    HW218252   1.845   3.080   9.440  1.2658 -0.6457  0.5964
 2264SOL     OW18253   0.374   1.853   3.479 -0.0957  0.5250 -0.2255
 2264SOL    HW118254   0.453   1.894   3.442  1.0006  0.1395  1.7012
 2264SOL    HW218255   0.325   1.928   3.514 -2.0441 -0.2971 -1.1916
 2265SOL     OW18256   0.072   4.422   8.252 -0.8751 -0.0686 -0.1451
 2265SOL    HW118257   0.100   4.439   8.162 -1.4491 -0.2311 -0.3524
 2265SOL    HW218258   0.037   4.504   8.286 -0.5794 -0.0326  0.0676
 2266SOL     OW18259   3.376   2.906   6.102  0.2209  0.3475  0.0574
 2266SOL    HW118260   3.471   2.894   6.095  0.3510  1.1547  0.4376
 2266SOL    HW218261   3.343   2.833   6.050  0.7356  0.9205 -1.0864
 2267SOL     OW18262   2.048   2.339   0.316  0.0407 -0.5872  0.1508
 2267SOL    HW118263   1.963   2.379   0.334  0.3640 -0.3487  1.1430
 2267SOL    HW218264   2.054   2.277   0.389 -2.1216 -1.6259 -0.5401
 2268SOL     OW18265   2.801   2.198   4.259 -0.4795  0.5800  0.2239
 2268SOL    HW118266   2.723   2.182   4.206  0.5340  0.7659 -1.3415
 2268SOL    HW218267   2.830   2.108   4.269 -1.2021  0.2944 -0.2645
 2269SOL     OW18268   1.371   2.619  11.590  0.0227 -0.5401  0.1619
 2269SOL    HW118269   1.463   2.637  11.574  0.2035  0.0942  1.8574
 2269SOL    HW218270   1.377   2.555  11.661  0.8416  1.4559  1.8765
 2270SOL     OW18271   3.806   1.837  12.260  0.1298  0.0037  0.3178
 2270SOL    HW118272   3.853   1.769  12.212 -0.5916  0.0111 -0.4123
 2270SOL    HW218273   3.816   1.808  12.351  1.0034 -0.4399  0.0799
 2271SOL     OW18274   0.718   2.985   1.296  0.5168 -0.4718 -0.1500
 2271SOL    HW118275   0.677   3.044   1.233 -0.9459  0.0979  1.3274
 2271SOL    HW218276   0.701   3.041   1.372 -0.2961  0.5043 -1.0480
 2272SOL     OW18277   4.045   0.866   6.539 -0.4587  0.2085 -0.0466
 2272SOL    HW118278   4.017   0.957   6.528 -1.5721 -0.2071 -0.6178
 2272SOL    HW218279   4.057   0.835   6.449 -2.7545 -0.6328 -0.0560
 2273SOL     OW18280   2.567   3.175   2.702  0.2535  0.8715  0.1019
 2273SOL    HW118281   2.589   3.171   2.608  0.1310  0.2061  0.1071
 2273SOL    HW218282   2.474   3.197   2.701 -0.9303 -4.1305  0.6843
 2274SOL     OW18283   2.818   0.265   5.445 -0.6202  0.3521 -0.1368
 2274SOL    HW118284   2.910   0.279   5.467 -0.6799  0.6603 -0.0845
 2274SOL    HW218285   2.825   0.182   5.399 -0.6230 -0.3453  1.1312
 2275SOL     OW18286   3.293   2.944  15.453  0.1448 -0.1909  0.3524
 2275SOL    HW118287   3.357   2.926  15.384 -0.5251  1.0150 -0.5913
 2275SOL    HW218288   3.279   2.858  15.491  1.5527  0.7728  2.9975
 2276SOL     OW18289   1.295   1.911   5.053 -0.4962 -0.1258  0.0804
 2276SOL    HW118290   1.228   1.873   5.110  0.8295 -1.3637  0.8235
 2276SOL    HW218291   1.373   1.894   5.106 -1.7497 -1.3371  1.5241
 2277SOL     OW18292   1.544   0.031   4.520  0.2714 -0.4643  0.5480
 2277SOL    HW118293   1.451   0.045   4.501  1.0262 -2.5900 -4.4883
 2277SOL    HW218294   1.556   4.681   4.460  0.3066  1.3146 -1.5871
 2278SOL     OW18295   2.700   1.140  13.766 -0.1775  0.2763  0.1431
 2278SOL    HW118296   2.650   1.087  13.704 -0.4401 -2.1372  2.4308
 2278SOL    HW218297   2.790   1.108  13.762 -0.3122 -0.0315 -0.4117
 2279SOL     OW18298   2.308   4.199   5.890 -0.4523  0.3771  0.4660
 2279SOL    HW118299   2.288   4.106   5.881  1.0528  0.0663  0.2889
 2279SOL    HW218300   2.353   4.201   5.975  0.8791  1.6601 -0.2667
 2280SOL     OW18301   1.579   1.259   9.049  0.2924 -0.1105  0.0483
 2280SOL    HW118302   1.568   1.230   9.139 -0.4967 -0.5391 -0.1866
 2280SOL    HW218303   1.501   1.220   9.009  1.1176 -2.2884  0.5647
 2281SOL     OW18304   1.863   0.726   9.483  0.1453 -0.2813 -0.0714
 2281SOL    HW118305   1.826   0.706   9.397  0.8128  1.2236 -0.7282
 2281SOL    HW218306   1.955   0.709   9.460 -0.0170 -2.4084  0.8819
 2282SOL     OW18307   4.108   2.841  10.646  0.1651  0.0559  0.3273
 2282SOL    HW118308   4.051   2.827  10.721  0.5774  0.2011  0.6703
 2282SOL    HW218309   4.085   2.933  10.640  0.4393  0.2067  1.4603
 2283SOL     OW18310   1.370   2.753   6.135 -0.3161 -0.1818 -0.2544
 2283SOL    HW118311   1.345   2.685   6.072  2.1841 -0.8518 -0.5366
 2283SOL    HW218312   1.301   2.819   6.137 -0.8265 -0.6971 -0.5898
 2284SOL     OW18313   3.396   0.614  14.685  0.0298  0.5936  0.5433
 2284SOL    HW118314   3.480   0.571  14.667  0.5412  1.3410  1.1143
 2284SOL    HW218315   3.369   0.604  14.594  0.8771  3.2057 -0.0083
 2285SOL     OW18316   1.568   4.708   3.295  0.1426 -0.0394  0.1532
 2285SOL    HW118317   1.555   4.678   3.205 -0.7738  2.2416 -0.4744
 2285SOL    HW218318   1.480   4.700   3.333 -0.8610 -1.4933 -2.4793
 2286SOL     OW18319   0.809   2.102   4.516 -0.7497 -0.4477 -0.3724
 2286SOL    HW118320   0.864   2.147   4.452 -0.9849 -0.8716 -0.8686
 2286SOL    HW218321   0.740   2.168   4.527  0.8535  0.6144  3.2327
 2287SOL     OW18322   3.924   4.070   0.964  0.6066  0.0853  0.4344
 2287SOL    HW118323   3.950   4.158   0.936  3.1870 -1.5747 -2.3478
 2287SOL    HW218324   3.969   4.028   0.891  0.0785 -0.0825  0.2005
 2288SOL     OW18325   2.502   2.533   1.511  0.2821 -0.2948  0.3826
 2288SOL    HW118326   2.448   2.455   1.501 -1.0893  0.6919  0.1866
 2288SOL    HW218327   2.455   2.580   1.442  1.0307  2.2551  1.6135
 2289SOL     OW18328   2.935   2.502   2.712  0.2962  0.2083 -0.5977
 2289SOL    HW118329   2.925   2.553   2.631 -0.1664  0.6251 -0.2747
 2289SOL    HW218330   2.849   2.514   2.751  0.5471  0.2116 -0.0554
 2290SOL     OW18331   4.268   1.316   8.249 -0.6700 -0.1753 -0.5856
 2290SOL    HW118332   4.341   1.376   8.233 -0.6294  0.2741  1.2909
 2290SOL    HW218333   4.288   1.277   8.334  1.9817  1.3915 -0.4869
 2291SOL     OW18334   0.715   3.517   3.832 -0.3928  0.1684 -0.3369
 2291SOL    HW118335   0.697   3.458   3.759 -0.8828 -1.5460  1.1659
 2291SOL    HW218336   0.685   3.471   3.910  2.4368  0.6335  1.0416
 2292SOL     OW18337   2.304   2.632  13.527 -0.8064  0.2068  0.0534
 2292SOL    HW118338   2.292   2.713  13.576  1.1629  0.1454  0.6267
 2292SOL    HW218339   2.228   2.587  13.563  0.0288 -1.6978 -0.5965
 2293SOL     OW18340   3.458   4.426   6.930 -0.1488  0.0458  0.2645
 2293SOL    HW118341   3.454   4.517   6.901 -2.7615 -0.4207 -0.7731
 2293SOL    HW218342   3.392   4.421   7.000  1.0306 -0.0194  1.3842
 2294SOL     OW18343   2.559   2.316  17.350 -0.0704 -0.1608  0.1023
 2294SOL    HW118344   2.571   2.224  17.377 -1.4126 -0.3987 -0.1498
 2294SOL    HW218345   2.467   2.329  17.371 -0.7589 -1.5501 -2.0233
 2295SOL     OW18346   1.821   2.362  14.165 -0.2280  0.1958  0.5631
 2295SOL    HW118347   1.799   2.455  14.170 -1.6920 -0.0207 -2.2089
 2295SOL    HW218348   1.897   2.363  14.107 -1.6353  2.1022 -1.2423
 2296SOL     OW18349   3.985   0.982   8.402 -0.4996 -0.3724  0.2685
 2296SOL    HW118350   4.065   1.011   8.359 -0.5125 -0.1559  0.3886
 2296SOL    HW218351   3.998   0.888   8.411 -0.8751 -0.4534 -0.0627
 2297SOL     OW18352   1.862   4.610   1.483 -0.0077  0.1003 -0.4416
 2297SOL    HW118353   1.841   4.621   1.390  0.0639  1.9306 -0.2452
 2297SOL    HW218354   1.845   4.699   1.513  0.9788  1.1007 -2.8125
 2298SOL     OW18355   1.062   0.536   5.137 -0.2420  0.4575  0.3402
 2298SOL    HW118356   1.016   0.554   5.055  0.1639  0.8498  0.1980
 2298SOL    HW218357   1.069   0.626   5.170 -1.0276  0.2136  1.1690
 2299SOL     OW18358   3.874   2.084   7.185  0.4409  0.0589 -0.6223
 2299SOL    HW118359   3.795   2.136   7.172 -0.4933 -1.5115 -1.2176
 2299SOL    HW218360   3.838   1.997   7.203 -2.2301  1.6008  1.6005
 2300SOL     OW18361   4.157   2.341   1.789  0.1319 -0.0618 -0.0177
 2300SOL    HW118362   4.212   2.287   1.733 -0.6589 -0.0736 -0.7801
 2300SOL    HW218363   4.112   2.405   1.734 -0.6715  0.4504  1.2105
 2301SOL     OW18364   4.446   0.197   5.107 -0.0649  0.1268 -0.2244
 2301SOL    HW118365   4.352   0.183   5.117 -0.0449  0.6607  0.7716
 2301SOL    HW218366   4.485   0.114   5.080 -1.2871 -0.7422  0.6853
 2302SOL     OW18367   0.865   2.542  15.235  0.1973 -0.1001 -0.3662
 2302SOL    HW118368   0.956   2.536  15.263  0.3034  0.6084 -0.5702
 2302SOL    HW218369   0.873   2.613  15.172 -0.1151 -0.7227 -1.0952
 2303SOL     OW18370   0.227   4.440   7.719 -0.0658 -0.1013  0.0527
 2303SOL    HW118371   0.298   4.487   7.677  0.7903 -1.3755  0.0671
 2303SOL    HW218372   0.199   4.378   7.650 -1.1007 -1.7186  1.9167
 2304SOL     OW18373   0.111   1.944  13.764  0.4634  0.7370  0.2036
 2304SOL    HW118374   0.202   1.973  13.755  0.4852  0.1828 -1.3867
 2304SOL    HW218375   0.107   1.936  13.859  0.6426 -0.4239  0.1143
 2305SOL     OW18376   4.078   3.733   1.852 -0.3458  0.2466  0.1595
 2305SOL    HW118377   4.079   3.813   1.904  2.5683  1.1801 -1.3337
 2305SOL    HW218378   4.155   3.682   1.877 -0.6323 -0.6028 -0.6897
 2306SOL     OW18379   2.104   0.853   9.717 -0.5952  0.0538  0.4278
 2306SOL    HW118380   2.186   0.881   9.758  1.3829 -0.0864 -3.4358
 2306SOL    HW218381   2.105   0.902   9.635  0.7636  0.7192  0.8490
 2307SOL     OW18382   2.749   2.737   6.172 -0.0203 -0.5000 -0.0836
 2307SOL    HW118383   2.718   2.646   6.177  1.0401 -0.8345  0.6948
 2307SOL    HW218384   2.703   2.761   6.092 -0.1415 -0.7078 -0.0776
 2308SOL     OW18385   0.176   3.760  15.236  0.1252  0.7477  0.1420
 2308SOL    HW118386   0.116   3.731  15.167 -0.5121  0.2411  0.8987
 2308SOL    HW218387   0.230   3.824  15.189 -1.1742  0.1677 -2.1374
 2309SOL     OW18388   0.620   1.721  12.989 -0.2616  0.2575  0.2384
 2309SOL    HW118389   0.550   1.713  13.054  0.0803 -1.1736  0.4385
 2309SOL    HW218390   0.588   1.780  12.921  0.5702  2.7700  2.0286
 2310SOL     OW18391   4.200   3.534   5.207 -0.0267  0.4492 -0.3573
 2310SOL    HW118392   4.222   3.450   5.247 -1.0554  2.0183  3.4894
 2310SOL    HW218393   4.154   3.504   5.129  0.8417 -2.0250  0.0677
 2311SOL     OW18394   2.557   4.417  14.589 -0.0152 -0.3813  0.0763
 2311SOL    HW118395   2.618   4.455  14.526  1.9164 -1.6924  1.1566
 2311SOL    HW218396   2.490   4.373  14.536 -1.3793  1.6958  0.0656
 2312SOL     OW18397   3.039   3.591  10.204 -0.3545 -1.0876 -0.6385
 2312SOL    HW118398   2.944   3.582  10.197 -0.4220 -0.5797 -0.4086
 2312SOL    HW218399   3.060   3.498  10.211 -0.8780 -1.0823  1.0437
 2313SOL     OW18400   0.384   4.700   8.578  0.5503 -0.3169  0.3394
 2313SOL    HW118401   0.338   0.050   8.534  1.4177  0.5942  0.9340
 2313SOL    HW218402   0.475   4.719   8.558  0.2170  1.0923  0.1397
 2314SOL     OW18403   0.081   3.708   8.298  0.1641  0.2851  0.0279
 2314SOL    HW118404   0.134   3.721   8.219  2.6234  1.5465  1.8529
 2314SOL    HW218405   0.132   3.759   8.362 -1.8525  1.4572  0.6849
 2315SOL     OW18406   2.844   3.941  15.496  0.2668  0.8121 -0.4151
 2315SOL    HW118407   2.808   4.006  15.557  1.3663  0.2098  0.8653
 2315SOL    HW218408   2.816   3.859  15.535  1.1225  1.0617  0.7378
 2316SOL     OW18409   2.161   3.463  14.268 -0.2925  0.1177  0.3860
 2316SOL    HW118410   2.231   3.421  14.319  1.2274  2.9693  0.6811
 2316SOL    HW218411   2.213   3.481  14.190 -0.2752  1.6011  0.7268
 2317SOL     OW18412   0.748   2.287   3.478  0.5955  0.2415  0.4522
 2317SOL    HW118413   0.668   2.304   3.429  0.0012  0.6370  1.5556
 2317SOL    HW218414   0.743   2.193   3.500 -1.4227 -0.0973 -1.5104
 2318SOL     OW18415   1.224   1.174  13.485 -0.2499  0.7757 -0.7266
 2318SOL    HW118416   1.154   1.135  13.537  0.6124 -1.9278 -1.5413
 2318SOL    HW218417   1.292   1.164  13.552 -0.0494 -1.7058 -1.2830
 2319SOL     OW18418   0.096   2.266   8.064 -0.0728  0.0621 -0.3590
 2319SOL    HW118419   0.126   2.250   7.975 -0.5721 -2.2105 -0.1130
 2319SOL    HW218420   0.001   2.279   8.061 -0.0494  0.3897  0.2535
 2320SOL     OW18421   0.536   3.371   8.017 -0.0743  0.4270  0.0988
 2320SOL    HW118422   0.574   3.322   8.090  0.5719  0.9042  0.0800
 2320SOL    HW218423   0.446   3.338   8.020 -0.2807  1.1583  1.7895
 2321SOL     OW18424   2.084   0.578  16.886 -0.1631 -0.7326  0.4087
 2321SOL    HW118425   2.007   0.630  16.909 -0.1377  0.2688 -1.6841
 2321SOL    HW218426   2.056   0.514  16.821 -1.6465 -1.1637  1.4904
 2322SOL     OW18427   0.527   2.323   3.065  0.4147 -0.1178 -0.0968
 2322SOL    HW118428   0.473   2.398   3.040  2.0983  1.0390 -0.2628
 2322SOL    HW218429   0.517   2.261   2.992 -2.0971  0.0434  0.0922
 2323SOL     OW18430   2.374   3.025  10.775 -0.5355 -0.0940 -0.2544
 2323SOL    HW118431   2.373   3.023  10.870 -1.1014 -0.4560 -0.2677
 2323SOL    HW218432   2.279   3.019  10.762 -0.0979  0.3451 -3.8092
 2324SOL     OW18433   3.808   2.958  12.617 -0.4269  0.2708  0.3661
 2324SOL    HW118434   3.833   2.917  12.700  1.5087 -0.0889 -0.4005
 2324SOL    HW218435   3.882   3.016  12.599 -1.0043  0.7385 -0.4870
 2325SOL     OW18436   3.524   2.773   1.592  0.0682 -0.8155 -0.2782
 2325SOL    HW118437   3.498   2.858   1.627 -0.3597 -0.7604 -0.7181
 2325SOL    HW218438   3.524   2.784   1.497  1.6575  1.4409 -0.0212
 2326SOL     OW18439   0.810   1.145   8.289 -0.0488  0.1234 -0.5733
 2326SOL    HW118440   0.728   1.195   8.294 -0.3652 -0.4731  0.2443
 2326SOL    HW218441   0.798   1.092   8.367 -1.5530  0.9100 -0.2777
 2327SOL     OW18442   0.378   3.120   9.363  0.4208  0.1591 -0.7202
 2327SOL    HW118443   0.292   3.087   9.389  1.9478 -0.7013  3.1554
 2327SOL    HW218444   0.376   3.206   9.403 -1.1663 -0.3167  0.2145
 2328SOL     OW18445   2.932   4.315  10.618  0.1809  0.3734 -0.0861
 2328SOL    HW118446   2.856   4.361  10.655 -0.7977 -2.1291  0.9803
 2328SOL    HW218447   2.933   4.237  10.673 -1.6732  1.0932  0.9891
 2329SOL     OW18448   2.894   3.653   5.007 -0.1684 -0.0592  0.3012
 2329SOL    HW118449   2.925   3.624   5.093 -0.7049  2.1864  1.2346
 2329SOL    HW218450   2.841   3.728   5.034 -2.0039 -0.8375 -1.1541
 2330SOL     OW18451   2.802   4.057   2.029 -0.1743 -0.5301 -0.2528
 2330SOL    HW118452   2.884   4.021   2.064  0.3234 -0.7074 -1.5944
 2330SOL    HW218453   2.826   4.068   1.937  0.4192  0.8545  0.0768
 2331SOL     OW18454   4.322   2.641  11.714 -0.2757 -0.1915  0.0644
 2331SOL    HW118455   4.253   2.581  11.689 -1.4634  1.4683 -0.6618
 2331SOL    HW218456   4.280   2.697  11.779 -0.3339 -2.0906  1.6598
 2332SOL     OW18457   1.810   1.738  10.505 -0.0025  0.4537  0.0453
 2332SOL    HW118458   1.856   1.807  10.456  1.2339 -0.8462 -0.6279
 2332SOL    HW218459   1.787   1.688  10.427  0.5316 -0.6395  0.5783
 2333SOL     OW18460   0.323   0.660  12.756  0.5022  0.5342  0.1291
 2333SOL    HW118461   0.338   0.755  12.748  1.7424  0.4430  1.5092
 2333SOL    HW218462   0.365   0.641  12.840 -1.5062  1.4995  1.3697
 2334SOL     OW18463   4.407   3.260   5.189  0.9899 -0.3305 -1.1890
 2334SOL    HW118464   4.413   3.169   5.219  1.2524  0.4923  1.2534
 2334SOL    HW218465   4.385   3.306   5.271 -0.1949 -0.5483 -1.3787
 2335SOL     OW18466   4.457   0.764   3.533 -0.6046  0.1412 -0.0729
 2335SOL    HW118467   4.406   0.840   3.562  0.4887  1.5225 -1.7836
 2335SOL    HW218468   4.503   0.743   3.614 -1.1303  0.2170  0.2504
 2336SOL     OW18469   1.641   3.898  11.602  0.2513  0.2031 -0.0804
 2336SOL    HW118470   1.702   3.859  11.664  2.0206  0.2999 -1.7563
 2336SOL    HW218471   1.617   3.829  11.541 -3.1011  0.1082  1.3550
 2337SOL     OW18472   3.285   2.745   5.705  0.0421 -0.7333  0.0735
 2337SOL    HW118473   3.351   2.813   5.694 -0.8137  0.1012  0.1696
 2337SOL    HW218474   3.297   2.721   5.797  0.3995  1.7555  0.6552
 2338SOL     OW18475   0.242   2.200  12.939  0.9029  0.3245 -0.2738
 2338SOL    HW118476   0.291   2.266  12.890  1.6304  1.7662  2.3887
 2338SOL    HW218477   0.202   2.253  13.008 -0.8138 -1.2872 -0.0265
 2339SOL     OW18478   3.133   2.261   3.974  0.2724 -0.7472  0.1096
 2339SOL    HW118479   3.053   2.306   4.003  0.7679 -0.7768  1.4976
 2339SOL    HW218480   3.168   2.323   3.910  0.6454 -0.3917  0.6587
 2340SOL     OW18481   2.716   0.852   7.331  0.6889 -0.3708 -0.1789
 2340SOL    HW118482   2.804   0.890   7.320 -0.1650  1.0540 -2.1558
 2340SOL    HW218483   2.702   0.866   7.425 -3.1846 -2.9579 -0.3915
 2341SOL     OW18484   2.146   4.247   4.735 -0.0728 -0.1343  0.5474
 2341SOL    HW118485   2.212   4.179   4.726  0.2862  0.2756  0.1227
 2341SOL    HW218486   2.183   4.322   4.688 -1.7984 -0.1355 -0.7970
 2342SOL     OW18487   3.748   4.087   7.574 -0.3250 -0.1387 -0.2730
 2342SOL    HW118488   3.782   4.001   7.548  0.9801  0.5775 -0.9352
 2342SOL    HW218489   3.708   4.070   7.659  1.2549  1.3356  0.7757
 2343SOL     OW18490   1.437   3.076   6.470 -0.5122  0.5399 -0.2575
 2343SOL    HW118491   1.459   2.983   6.455  1.1544  0.9642 -0.4991
 2343SOL    HW218492   1.525   3.111   6.485 -1.1563  3.0190 -2.3456
 2344SOL     OW18493   0.647   2.102   6.693 -0.0039 -0.2179  0.9490
 2344SOL    HW118494   0.657   2.182   6.744 -2.1808 -0.0975  1.2049
 2344SOL    HW218495   0.642   2.133   6.602  0.1912  1.1323  1.3900
 2345SOL     OW18496   2.874   4.102   9.129 -0.1315  0.0040 -0.1646
 2345SOL    HW118497   2.867   4.135   9.219  1.7462 -1.3773  0.4738
 2345SOL    HW218498   2.933   4.027   9.128 -2.1455 -1.5709 -0.5047
 2346SOL     OW18499   2.461   0.315   3.603  0.1774 -0.2783 -0.2745
 2346SOL    HW118500   2.382   0.287   3.556 -3.5605  4.3913  3.1875
 2346SOL    HW218501   2.422   0.328   3.690  0.5442 -3.0875  0.2949
 2347SOL     OW18502   1.857   0.764  16.945  0.1739 -0.4060  0.0563
 2347SOL    HW118503   1.827   0.736  17.031  0.1757 -2.2348 -0.5473
 2347SOL    HW218504   1.770   0.774  16.905  1.2388  0.6922 -1.9551
 2348SOL     OW18505   2.353   4.357  14.427  0.5690  0.0597 -0.0142
 2348SOL    HW118506   2.357   4.427  14.363  1.0675 -1.5673 -1.7590
 2348SOL    HW218507   2.281   4.307  14.389  0.6131  1.2354 -1.6256
 2349SOL     OW18508   1.105   1.364   3.498 -0.5935 -0.3201  0.0697
 2349SOL    HW118509   1.047   1.301   3.455 -0.6658  0.7121 -1.3326
 2349SOL    HW218510   1.053   1.442   3.516  1.6627  1.3208 -0.5997
 2350SOL     OW18511   0.890   4.375   7.221 -0.4333 -0.3720 -0.0981
 2350SOL    HW118512   0.853   4.425   7.294 -0.0316  1.7154 -1.3538
 2350SOL    HW218513   0.881   4.290   7.265 -2.0507 -0.5474 -0.7604
 2351SOL     OW18514   3.184   0.025   0.467 -0.1386  0.0617  0.8500
 2351SOL    HW118515   3.099   0.067   0.450 -0.3349 -0.8560 -0.4825
 2351SOL    HW218516   3.187   0.031   0.562 -0.7338  2.2538  0.7437
 2352SOL     OW18517   3.041   2.176   6.566 -0.4041  0.5133  0.3039
 2352SOL    HW118518   2.953   2.185   6.602 -0.6210 -1.5113  0.2831
 2352SOL    HW218519   3.071   2.109   6.627  0.5830  0.1020 -0.6357
 2353SOL     OW18520   0.323   2.982   8.060 -0.1605  0.0317 -0.9925
 2353SOL    HW118521   0.374   2.950   7.986 -0.4470  0.8004 -1.5228
 2353SOL    HW218522   0.327   3.076   8.040  2.7835  0.2971  0.6671
 2354SOL     OW18523   0.762   4.315  15.085 -0.2721 -0.3963 -0.3899
 2354SOL    HW118524   0.795   4.403  15.103  1.0149 -0.7982 -0.7557
 2354SOL    HW218525   0.673   4.328  15.117 -0.7644 -1.7118 -1.2047
 2355SOL     OW18526   4.571   0.320   2.752 -0.6244  0.2853 -0.0474
 2355SOL    HW118527   4.486   0.348   2.718 -0.5190 -0.4459 -0.8851
 2355SOL    HW218528   4.623   0.336   2.673 -1.1787  0.4385 -0.3805
 2356SOL     OW18529   3.317   3.388  11.662 -0.1362 -0.1479  0.2115
 2356SOL    HW118530   3.242   3.341  11.697  0.4354 -1.4734 -0.3338
 2356SOL    HW218531   3.379   3.315  11.653 -0.4227 -0.0179 -2.5635
 2357SOL     OW18532   2.208   3.887  11.959  0.4435 -1.4095 -0.1229
 2357SOL    HW118533   2.117   3.917  11.952  0.4383 -2.2662 -3.8375
 2357SOL    HW218534   2.247   3.936  12.032  1.0937 -0.3664 -1.1664
 2358SOL     OW18535   2.751   4.609   3.259 -0.1904 -0.2246 -0.0001
 2358SOL    HW118536   2.732   4.690   3.213  0.0182 -0.5057 -0.5843
 2358SOL    HW218537   2.842   4.598   3.230 -1.2306  0.0521 -3.3474
 2359SOL     OW18538   1.733   4.633   3.809 -0.0424  0.7177  0.0760
 2359SOL    HW118539   1.677   4.568   3.850  0.2877  0.2448 -0.2254
 2359SOL    HW218540   1.675   4.709   3.819 -1.5959 -0.2024 -1.8533
 2360SOL     OW18541   4.290   0.310   3.562 -0.5057  0.1777 -0.3560
 2360SOL    HW118542   4.384   0.292   3.551 -0.6243 -1.6581  1.6252
 2360SOL    HW218543   4.260   0.323   3.472 -1.2786 -0.7446 -0.2310
 2361SOL     OW18544   4.647   0.746  15.513  0.2324  0.3084  0.2502
 2361SOL    HW118545   0.017   0.742  15.487  0.2619 -0.7531  0.5178
 2361SOL    HW218546   4.641   0.675  15.577  0.7326  0.3577  0.3542
 2362SOL     OW18547   1.546   0.493   8.514 -0.7210  0.1490  0.4844
 2362SOL    HW118548   1.552   0.456   8.602 -2.4804  1.0221  0.9636
 2362SOL    HW218549   1.487   0.563   8.541 -1.5122 -0.8563  1.3428
 2363SOL     OW18550   2.330   2.967   2.949 -0.0780 -0.4114 -0.0902
 2363SOL    HW118551   2.343   3.026   2.875  2.3978 -0.5018  0.2450
 2363SOL    HW218552   2.246   2.927   2.927 -0.3008 -0.0245  0.0598
 2364SOL     OW18553   0.468   2.693   9.368  0.1558  0.0907  0.0076
 2364SOL    HW118554   0.424   2.638   9.432 -1.0210  0.2172 -0.6960
 2364SOL    HW218555   0.555   2.653   9.364 -1.1181 -2.6641  0.0665
 2365SOL     OW18556   4.581   3.361   3.305 -0.0870  0.6041 -0.2261
 2365SOL    HW118557   4.556   3.303   3.377 -2.5612  1.2128 -0.5961
 2365SOL    HW218558   4.547   3.333   3.221  0.3334 -1.2128  0.2194
 2366SOL     OW18559   1.147   4.239  13.108 -0.5145  0.5138 -0.6300
 2366SOL    HW118560   1.057   4.217  13.082 -1.5066  1.0262  2.4476
 2366SOL    HW218561   1.160   4.312  13.048 -0.7770  1.7727  0.8620
 2367SOL     OW18562   3.506   2.187   6.542 -0.5160 -0.3437 -0.0288
 2367SOL    HW118563   3.411   2.193   6.535 -0.4642 -1.7881 -1.7577
 2367SOL    HW218564   3.528   2.274   6.575  1.8892 -0.9223 -0.0834
 2368SOL     OW18565   0.594   1.164   7.925 -0.0885  0.0049 -0.2607
 2368SOL    HW118566   0.683   1.132   7.910  0.2395  1.4057 -1.3199
 2368SOL    HW218567   0.564   1.219   7.853 -0.9653  1.1389  0.9731
 2369SOL     OW18568   0.890   1.589   4.884 -0.1740  0.2719 -0.5799
 2369SOL    HW118569   0.829   1.647   4.839  2.1027  2.2233 -1.1094
 2369SOL    HW218570   0.950   1.555   4.817 -2.0300 -3.0581 -0.5612
 2370SOL     OW18571   0.124   2.730  14.994 -0.0518  0.2107 -0.0996
 2370SOL    HW118572   0.186   2.803  14.982 -0.6087  0.5375 -1.0111
 2370SOL    HW218573   0.041   2.764  15.027  1.7475  3.7971  0.7526
 2371SOL     OW18574   3.122   3.843   7.591 -0.2534  0.2654  0.1924
 2371SOL    HW118575   3.105   3.922   7.642  0.0483  0.2368  0.3387
 2371SOL    HW218576   3.170   3.877   7.516 -0.6061 -1.8232 -0.9778
 2372SOL     OW18577   0.665   2.131  11.143  0.3829  0.4463 -0.2807
 2372SOL    HW118578   0.610   2.197  11.100 -0.3610 -0.2227 -0.3671
 2372SOL    HW218579   0.731   2.191  11.177 -0.9239  2.2266 -0.8674
 2373SOL     OW18580   0.339   0.440   6.038 -0.6252 -0.1414 -0.0260
 2373SOL    HW118581   0.258   0.388   6.043 -1.0602  0.5043 -0.4533
 2373SOL    HW218582   0.404   0.374   6.064 -1.7353 -1.2326  0.0201
 2374SOL     OW18583   4.230   0.092   3.705  0.1611  0.0799  0.3716
 2374SOL    HW118584   4.224   0.173   3.655 -0.4927 -0.2778 -0.1241
 2374SOL    HW218585   4.201   0.109   3.795 -1.5174 -0.4711 -0.0734
 2375SOL     OW18586   3.396   1.027   8.728  0.3718 -0.5053 -0.5391
 2375SOL    HW118587   3.447   1.006   8.806  0.2743  1.0480 -0.0538
 2375SOL    HW218588   3.449   1.039   8.648  0.7551 -0.8826 -0.3429
 2376SOL     OW18589   3.049   3.279   6.098  0.1138 -0.5188  0.0619
 2376SOL    HW118590   3.075   3.322   6.180  1.8891 -1.9433  0.2470
 2376SOL    HW218591   3.044   3.186   6.120 -2.2295 -0.4589 -0.1434
 2377SOL     OW18592   2.102   1.564  16.567  0.3374 -0.4223  0.5054
 2377SOL    HW118593   2.048   1.565  16.488  0.5572 -0.6001  0.3533
 2377SOL    HW218594   2.123   1.474  16.590  0.0553 -0.3785  0.9378
 2378SOL     OW18595   1.058   4.481   5.008 -0.8310  0.8389 -0.1733
 2378SOL    HW118596   0.996   4.549   4.982 -1.0847  0.3134 -0.9425
 2378SOL    HW218597   1.120   4.484   4.935 -1.4147  0.1579 -0.6974
 2379SOL     OW18598   3.820   3.756   2.957  0.0937  0.6070 -0.6717
 2379SOL    HW118599   3.840   3.780   2.866  2.2116  0.6562 -0.1895
 2379SOL    HW218600   3.724   3.753   2.953  0.2018 -0.9682 -2.2001
 2380SOL     OW18601   2.387   1.204   7.381 -0.1662  0.1774  0.6738
 2380SOL    HW118602   2.369   1.295   7.358  1.9770  1.0941  2.5325
 2380SOL    HW218603   2.459   1.209   7.444 -0.2720  1.6114  0.6834
 2381SOL     OW18604   1.534   0.139   7.221 -0.0347 -0.2960 -0.2960
 2381SOL    HW118605   1.578   0.212   7.265  1.5681 -0.6242 -1.3501
 2381SOL    HW218606   1.552   0.145   7.128 -1.3164  1.7026 -0.4154
 2382SOL     OW18607   3.518   1.392  11.224 -0.0531 -0.4152  0.2540
 2382SOL    HW118608   3.537   1.306  11.189  1.4001  0.3465 -0.8281
 2382SOL    HW218609   3.534   1.384  11.318 -2.4101  1.0132  0.7961
 2383SOL     OW18610   2.620   2.087   1.110 -0.1377 -0.0320  0.9127
 2383SOL    HW118611   2.640   2.017   1.172  0.2882 -1.6751 -1.0804
 2383SOL    HW218612   2.711   2.116   1.100  0.0333 -0.1341  2.1339
 2384SOL     OW18613   2.973   2.225   1.839 -0.3217  0.0844 -0.0569
 2384SOL    HW118614   2.948   2.165   1.769  0.3413 -0.1690 -0.0778
 2384SOL    HW218615   3.060   2.257   1.814  0.0076 -0.6628  0.1117
 2385SOL     OW18616   1.954   4.578   9.046  0.6991  0.7916  0.8390
 2385SOL    HW118617   1.864   4.576   9.011  1.2300 -1.7588 -0.3833
 2385SOL    HW218618   1.972   4.666   9.013 -0.7312  0.5950 -0.4832
 2386SOL     OW18619   3.676   2.928   6.539 -0.2152  0.0916  0.4041
 2386SOL    HW118620   3.768   2.957   6.539 -0.4623  0.8795 -1.2637
 2386SOL    HW218621   3.629   3.007   6.567  0.4613  0.7561 -0.3280
 2387SOL     OW18622   2.698   4.014   1.627  0.3482 -0.0636 -0.4604
 2387SOL    HW118623   2.603   3.998   1.624  0.6033 -1.5228 -0.8090
 2387SOL    HW218624   2.694   4.098   1.671  0.6965 -1.4648  2.2058
 2388SOL     OW18625   0.022   2.221   8.347  0.1965  0.3894  0.3271
 2388SOL    HW118626   0.087   2.245   8.281 -0.2096  1.4382  0.3077
 2388SOL    HW218627   4.667   2.276   8.333  0.0933  0.0461 -0.4680
 2389SOL     OW18628   2.511   0.700   3.342  0.1042 -0.0294 -0.5538
 2389SOL    HW118629   2.513   0.608   3.369  0.4840  0.7245  1.9673
 2389SOL    HW218630   2.480   0.698   3.251  1.1668 -3.6281 -0.8306
 2390SOL     OW18631   1.886   1.018  14.860  0.1268 -0.2211 -0.3703
 2390SOL    HW118632   1.949   1.047  14.795  0.0880  1.7352  0.4673
 2390SOL    HW218633   1.924   0.935  14.890  1.5705  0.4368 -0.3894
 2391SOL     OW18634   3.546   0.329   3.833  0.0277  0.1912  0.2182
 2391SOL    HW118635   3.608   0.259   3.856 -0.5292 -0.6980 -0.9481
 2391SOL    HW218636   3.566   0.353   3.742  0.2261  3.0733  1.0338
 2392SOL     OW18637   3.630   2.287   5.575  0.3379 -0.2951 -0.0012
 2392SOL    HW118638   3.551   2.295   5.521  1.4270  0.2115 -1.5374
 2392SOL    HW218639   3.671   2.209   5.535 -0.1994  0.5636 -2.2158
 2393SOL     OW18640   4.461   3.602   6.607  0.3579  0.0970  0.0879
 2393SOL    HW118641   4.502   3.619   6.692  1.0973  3.3869 -0.9646
 2393SOL    HW218642   4.528   3.557   6.556  0.2012  0.2977 -0.2932
 2394SOL     OW18643   1.379   1.723   9.301 -0.3624  0.4177  0.2021
 2394SOL    HW118644   1.302   1.780   9.297 -0.2952  0.4883 -0.0891
 2394SOL    HW218645   1.382   1.698   9.394  0.1478 -1.7004 -0.3752
 2395SOL     OW18646   0.866   4.461   2.264  0.9558  0.0030 -0.7218
 2395SOL    HW118647   0.936   4.486   2.203  0.5356 -2.8308 -2.3719
 2395SOL    HW218648   0.906   4.475   2.350 -1.8843  0.7402  0.4875
 2396SOL     OW18649   0.890   0.334   8.816  0.5557  0.5166 -0.2304
 2396SOL    HW118650   0.965   0.374   8.771  0.2134  1.1759 -0.2031
 2396SOL    HW218651   0.915   0.242   8.824 -0.1050  0.5249  1.8761
 2397SOL     OW18652   0.669   2.463   6.156  0.4890 -0.0168  0.4955
 2397SOL    HW118653   0.584   2.424   6.177  0.8891 -2.2567 -2.0314
 2397SOL    HW218654   0.636   2.551   6.139 -2.1968 -1.0104  0.6529
 2398SOL     OW18655   0.456   2.500   1.806 -0.0750 -0.5237 -0.0095
 2398SOL    HW118656   0.417   2.445   1.738 -0.3046 -0.7610  0.3142
 2398SOL    HW218657   0.465   2.579   1.752  2.0116 -0.2505  0.7399
 2399SOL     OW18658   0.616   2.756  10.392  0.2654 -0.4109 -0.3732
 2399SOL    HW118659   0.709   2.773  10.409 -0.4134  2.1615  0.8080
 2399SOL    HW218660   0.603   2.835  10.340  0.3243 -0.3688 -0.3240
 2400SOL     OW18661   3.513   4.347   4.696 -0.2043 -0.0616  0.2632
 2400SOL    HW118662   3.456   4.274   4.722 -0.4031 -1.0577 -3.0391
 2400SOL    HW218663   3.582   4.294   4.656 -2.4516 -0.0901 -3.5185
 2401SOL     OW18664   1.671   0.630   6.605  0.4669  0.5454 -0.0170
 2401SOL    HW118665   1.760   0.604   6.580 -0.1014 -0.9877 -0.4826
 2401SOL    HW218666   1.631   0.607   6.521 -1.9377  0.4961  1.1641
 2402SOL     OW18667   3.828   3.637   5.043  0.6327 -0.1533  0.3111
 2402SOL    HW118668   3.809   3.691   5.119  1.3726 -0.9837  1.1060
 2402SOL    HW218669   3.758   3.656   4.981 -0.6339 -1.6341  1.2860
 2403SOL     OW18670   0.467   1.909   3.000 -0.5934 -0.5105 -0.2657
 2403SOL    HW118671   0.491   1.960   2.923 -0.9709 -0.7411 -0.5324
 2403SOL    HW218672   0.474   1.821   2.964 -0.1376 -1.2697  1.6480
 2404SOL     OW18673   4.300   2.142   1.675 -0.0245  0.1818 -0.1455
 2404SOL    HW118674   4.292   2.047   1.679  2.4415 -0.0183  0.1309
 2404SOL    HW218675   4.395   2.151   1.664 -0.0496  0.8164  0.1404
 2405SOL     OW18676   2.822   1.152  15.154 -0.1185 -0.6143  0.5097
 2405SOL    HW118677   2.749   1.175  15.096 -0.0155 -0.9562  0.2459
 2405SOL    HW218678   2.776   1.129  15.235  0.1431  1.2066  1.1959
 2406SOL     OW18679   1.449   0.161   2.251  0.9513 -0.0484  0.0667
 2406SOL    HW118680   1.521   0.122   2.302 -1.4086  0.2397  3.6061
 2406SOL    HW218681   1.434   0.233   2.312  1.4707  0.7763 -0.7797
 2407SOL     OW18682   3.181   0.857   5.250  0.3854  0.2197  0.5632
 2407SOL    HW118683   3.242   0.824   5.184  0.3255  1.0978  0.0695
 2407SOL    HW218684   3.155   0.936   5.204 -0.0507 -1.9931 -2.9861
 2408SOL     OW18685   0.114   1.802  17.122  0.3144  0.2247  0.6082
 2408SOL    HW118686   0.108   1.708  17.143 -1.0168  0.2274  0.1950
 2408SOL    HW218687   0.045   1.807  17.057 -0.1611  0.9929  1.1765
 2409SOL     OW18688   4.111   4.483   0.506  0.0730 -1.1060 -0.1662
 2409SOL    HW118689   4.020   4.493   0.535  0.1631 -2.0038  0.4575
 2409SOL    HW218690   4.123   4.576   0.487 -0.7739 -0.9942 -0.1609
 2410SOL     OW18691   2.902   3.524   6.728  0.3382  0.3094  0.0649
 2410SOL    HW118692   2.996   3.516   6.747  0.3090 -0.5126 -0.1313
 2410SOL    HW218693   2.903   3.615   6.699 -0.6624  0.3726  0.2498
 2411SOL     OW18694   4.464   3.895   9.276  0.1359 -0.2341 -0.1682
 2411SOL    HW118695   4.472   3.866   9.367 -1.4829 -0.6727 -0.1674
 2411SOL    HW218696   4.447   3.810   9.234  0.1301 -0.2472 -0.1396
 2412SOL     OW18697   4.625   3.431   5.544 -0.4255  0.4872  0.1967
 2412SOL    HW118698   4.654   3.364   5.482  3.4413  3.2409 -0.9760
 2412SOL    HW218699   4.667   3.510   5.511  0.8627 -0.3863 -0.2447
 2413SOL     OW18700   4.196   1.650   8.364  0.0524 -0.1161  0.2834
 2413SOL    HW118701   4.172   1.623   8.453  1.0999  2.8230  1.4949
 2413SOL    HW218702   4.127   1.603   8.318  2.1908 -2.5777 -0.3633
 2414SOL     OW18703   0.154   1.694   3.557 -0.4959 -0.5648  0.0515
 2414SOL    HW118704   0.229   1.739   3.518 -1.5725  0.7479 -0.5256
 2414SOL    HW218705   0.082   1.693   3.493  0.7324  0.2273 -1.3232
 2415SOL     OW18706   0.677   4.453  12.738 -1.3679  0.0630 -0.0303
 2415SOL    HW118707   0.742   4.472  12.806 -1.8831 -0.1051  0.5078
 2415SOL    HW218708   0.706   4.521  12.676  0.2226  0.5228  1.2007
 2416SOL     OW18709   1.885   0.495   6.898  0.2032  0.0156 -0.3290
 2416SOL    HW118710   1.792   0.478   6.881  0.1256 -0.2507  0.3449
 2416SOL    HW218711   1.882   0.587   6.923 -0.4413 -0.3723  1.0494
 2417SOL     OW18712   2.756   0.659   7.751  0.2737 -0.5774 -0.5483
 2417SOL    HW118713   2.713   0.612   7.823  0.2318  1.3050  0.6439
 2417SOL    HW218714   2.813   0.588   7.721  2.5076  0.0254  2.3066
 2418SOL     OW18715   2.476   1.409  12.966  0.3846 -0.1585 -0.8222
 2418SOL    HW118716   2.411   1.367  13.022  1.0441 -0.9684 -0.6566
 2418SOL    HW218717   2.552   1.376  13.014  1.0988 -0.1098 -1.9174
 2419SOL     OW18718   4.650   0.157   7.569  0.6308 -0.0056  0.0543
 2419SOL    HW118719   4.596   0.176   7.646  2.4150 -0.4000  1.4040
 2419SOL    HW218720   0.017   0.187   7.587  0.7124  0.5153 -1.2782
 2420SOL     OW18721   1.978   0.058   3.123  0.5822  0.6839 -0.1114
 2420SOL    HW118722   1.970   0.137   3.069  0.7505  1.1180  0.4993
 2420SOL    HW218723   1.911   0.066   3.191  2.5249  0.0084  1.8708
 2421SOL     OW18724   4.318   0.522   9.155  0.1689  0.0110  1.3364
 2421SOL    HW118725   4.256   0.585   9.191 -1.8197 -0.6650 -0.9171
 2421SOL    HW218726   4.244   0.467   9.127 -1.0667  0.4718  3.7282
 2422SOL     OW18727   3.997   3.102   2.206 -0.2138 -0.1380 -0.0688
 2422SOL    HW118728   4.050   3.142   2.275 -1.2150  1.3238 -0.1380
 2422SOL    HW218729   4.056   3.033   2.174 -1.4413 -0.2801 -2.0714
 2423SOL     OW18730   3.884   0.446   4.222 -0.3921 -0.6313  0.5815
 2423SOL    HW118731   3.873   0.356   4.191  3.3150 -1.1813  0.7986
 2423SOL    HW218732   3.831   0.447   4.301 -2.4371  0.5615 -0.7983
 2424SOL     OW18733   4.395   1.643   3.121  0.1574  0.4061  0.2426
 2424SOL    HW118734   4.388   1.672   3.030  2.3998 -1.8085 -0.6531
 2424SOL    HW218735   4.360   1.726   3.152 -2.7133 -0.4809 -0.6528
 2425SOL     OW18736   0.504   4.335   1.817 -0.4467  0.2399 -0.8598
 2425SOL    HW118737   0.467   4.347   1.905  2.0263  1.7852 -0.0351
 2425SOL    HW218738   0.597   4.350   1.827 -0.9625  2.6084  0.2701
 2426SOL     OW18739   2.259   1.493   4.718  0.1165 -0.2070 -0.0489
 2426SOL    HW118740   2.242   1.418   4.661 -2.8818 -1.7060  2.7776
 2426SOL    HW218741   2.327   1.463   4.779 -1.6385 -1.1144  1.4632
 2427SOL     OW18742   1.057   3.811  10.201  0.0435 -0.0800 -0.0879
 2427SOL    HW118743   1.143   3.834  10.236 -1.1342 -0.0747  2.7986
 2427SOL    HW218744   1.076   3.725  10.162 -0.5586 -0.8789  1.4090
 2428SOL     OW18745   0.950   3.106   9.619  0.0385  0.3139  0.4968
 2428SOL    HW118746   1.016   3.134   9.555 -0.0176  0.8983  0.7047
 2428SOL    HW218747   0.889   3.058   9.563  1.4345 -0.4499 -0.3836
 2429SOL     OW18748   3.995   2.711   8.485 -0.4437  0.6396 -0.0664
 2429SOL    HW118749   3.999   2.805   8.467 -2.8780  0.5437 -1.0418
 2429SOL    HW218750   4.016   2.681   8.396  2.8547 -2.1823  1.6500
 2430SOL     OW18751   4.550   1.865  11.989  0.7241  1.1612  0.3876
 2430SOL    HW118752   4.583   1.928  12.053 -0.6395  1.7087  0.5515
 2430SOL    HW218753   4.502   1.801  12.041 -0.2699  0.7932 -0.9888
 2431SOL     OW18754   0.717   0.466  13.695  0.5127 -0.0884 -0.4345
 2431SOL    HW118755   0.738   0.379  13.729 -1.7848 -0.4463  0.0194
 2431SOL    HW218756   0.693   0.449  13.604  2.2077 -0.9837 -0.7091
 2432SOL     OW18757   2.928   0.983   8.692  0.0879  0.5290 -0.1414
 2432SOL    HW118758   2.948   1.077   8.686 -1.6013  0.9167  0.3052
 2432SOL    HW218759   2.998   0.951   8.635  0.3158  0.1488  0.3520
 2433SOL     OW18760   1.686   1.214   7.450  0.1125 -0.2954  0.0683
 2433SOL    HW118761   1.611   1.180   7.401 -0.3355  0.7073  0.0748
 2433SOL    HW218762   1.715   1.129   7.485  0.7658  0.6416  1.8263
 2434SOL     OW18763   2.469   3.046   6.153  0.9141  0.0721  0.0228
 2434SOL    HW118764   2.404   3.047   6.223  0.1635 -2.0564 -0.6502
 2434SOL    HW218765   2.541   3.085   6.203  0.9433  1.8955 -1.4544
 2435SOL     OW18766   0.498   0.114  12.097 -0.4363  0.3266 -0.0069
 2435SOL    HW118767   0.566   0.157  12.045 -1.0151 -1.5646 -2.3060
 2435SOL    HW218768   0.428   0.131  12.034 -0.6631 -1.0475 -0.1173
 2436SOL     OW18769   1.632   1.011  14.359 -0.3417 -0.9989  0.0847
 2436SOL    HW118770   1.723   0.991  14.382 -0.1138 -0.8998 -0.7058
 2436SOL    HW218771   1.598   1.069  14.426  1.5144  0.9039 -0.6262
 2437SOL     OW18772   2.043   2.261   7.024 -0.2062 -0.2321  0.2257
 2437SOL    HW118773   1.978   2.281   7.091  0.8171  0.8860  0.8749
 2437SOL    HW218774   2.053   2.345   6.979 -2.3239 -1.5156 -2.6172
 2438SOL     OW18775   0.383   3.364   6.262 -0.3900 -0.4198 -0.3506
 2438SOL    HW118776   0.321   3.410   6.205  2.6487  2.0077 -1.6754
 2438SOL    HW218777   0.460   3.354   6.206 -1.5642 -1.6739 -1.7466
 2439SOL     OW18778   1.860   1.695   1.435  0.0879 -0.1597 -0.1823
 2439SOL    HW118779   1.916   1.706   1.359 -0.4141 -1.2353 -0.7022
 2439SOL    HW218780   1.914   1.639   1.490  1.7170  0.4917 -1.1210
 2440SOL     OW18781   4.043   4.348   0.902 -0.2355  0.4021  0.4347
 2440SOL    HW118782   4.049   4.355   0.997 -0.9225 -0.2534  0.5219
 2440SOL    HW218783   4.127   4.385   0.872  0.1478 -0.2779  0.6657
 2441SOL     OW18784   0.216   2.568   3.755 -0.1077  0.3825  0.1160
 2441SOL    HW118785   0.268   2.492   3.783 -1.3492 -0.2290  0.7347
 2441SOL    HW218786   0.189   2.594   3.843  0.1641  3.2618 -0.6726
 2442SOL     OW18787   2.143   4.684   3.988 -0.4263 -0.1426  0.4386
 2442SOL    HW118788   2.170   0.050   3.964  0.7743 -0.6461 -0.0837
 2442SOL    HW218789   2.099   4.645   3.913 -0.4840 -0.6061  0.7094
 2443SOL     OW18790   0.408   4.537   2.579  0.1473  0.2507 -0.2847
 2443SOL    HW118791   0.393   4.459   2.632  2.3813  0.1737  0.2469
 2443SOL    HW218792   0.481   4.502   2.527 -0.0926 -1.7164  0.6998
 2444SOL     OW18793   3.301   2.277   2.540 -0.0084 -0.0655 -0.6620
 2444SOL    HW118794   3.281   2.362   2.502  2.7368  1.0248  0.3242
 2444SOL    HW218795   3.232   2.219   2.508 -0.0371  0.6140 -1.8161
 2445SOL     OW18796   4.522   0.937   4.674  0.0461  0.4596  0.5034
 2445SOL    HW118797   4.506   1.007   4.610  1.0937 -0.8113 -1.1394
 2445SOL    HW218798   4.514   0.988   4.755  0.7077  2.1198 -0.4741
 2446SOL     OW18799   2.854   0.192   3.475  0.6095  0.9134  0.8865
 2446SOL    HW118800   2.850   0.249   3.399  1.7307 -1.8821 -1.2580
 2446SOL    HW218801   2.945   0.163   3.485 -0.6464 -3.4483 -0.3637
 2447SOL     OW18802   0.994   4.171   7.511  0.5660 -0.3372  0.4919
 2447SOL    HW118803   0.973   4.083   7.541 -1.6751 -0.4100 -1.2578
 2447SOL    HW218804   1.062   4.209   7.566  0.8562 -1.0613  0.6285
 2448SOL     OW18805   4.642   2.325  14.281 -0.5487  0.0594  0.0154
 2448SOL    HW118806   4.700   2.400  14.280 -1.5255  0.7586 -4.2202
 2448SOL    HW218807   4.630   2.319  14.375 -1.2979  0.4918 -0.0474
 2449SOL     OW18808   1.085   1.924   7.372 -0.7428 -0.4308  0.1955
 2449SOL    HW118809   1.113   2.011   7.401  0.5903 -0.4238 -1.0944
 2449SOL    HW218810   1.159   1.903   7.315 -1.3815 -0.3714 -0.6549
 2450SOL     OW18811   0.565   2.466   2.080  0.2190 -0.1123  0.2984
 2450SOL    HW118812   0.542   2.495   1.992  0.6726 -0.0340  0.2023
 2450SOL    HW218813   0.554   2.373   2.064 -2.1611 -0.0635  1.7716
 2451SOL     OW18814   2.682   3.382  16.620 -0.1523 -0.1249  0.4328
 2451SOL    HW118815   2.620   3.410  16.553  1.5557  0.6842 -0.8099
 2451SOL    HW218816   2.613   3.361  16.682  0.3292 -2.2724  0.2423
 2452SOL     OW18817   2.386   1.948  15.500 -0.5570 -0.2757  0.0156
 2452SOL    HW118818   2.470   1.957  15.545 -0.3462  1.2187 -0.6998
 2452SOL    HW218819   2.408   1.891  15.426  1.4760  1.4288 -0.6817
 2453SOL     OW18820   3.823   3.355   4.597 -0.0450  0.3208 -0.2107
 2453SOL    HW118821   3.739   3.312   4.617  1.4312 -1.8419  1.3730
 2453SOL    HW218822   3.881   3.294   4.641  0.5150  3.6415  3.6779
 2454SOL     OW18823   0.256   2.703   4.080 -0.1250  0.5279  0.1785
 2454SOL    HW118824   0.322   2.772   4.089 -0.2023  0.5718  0.4208
 2454SOL    HW218825   0.181   2.759   4.063  0.2096  1.0812  0.5116
 2455SOL     OW18826   1.615   4.142   2.058 -0.6910  0.5243  0.2203
 2455SOL    HW118827   1.542   4.196   2.028 -0.5134 -0.2063 -1.5538
 2455SOL    HW218828   1.581   4.054   2.072 -2.9602  1.4344  0.4161
 2456SOL     OW18829   2.280   3.849   3.150  0.3103 -0.5220  0.4971
 2456SOL    HW118830   2.319   3.913   3.091 -1.5886  0.1899 -0.0008
 2456SOL    HW218831   2.188   3.872   3.139  0.1575 -1.7694 -0.9155
 2457SOL     OW18832   1.054   1.648   2.817 -0.0261  0.3019  0.2158
 2457SOL    HW118833   1.101   1.691   2.888 -0.2661  0.8576  0.0364
 2457SOL    HW218834   1.038   1.727   2.766 -0.5312  0.9336  1.3802
 2458SOL     OW18835   3.843   1.018   2.043  0.1161 -0.4982 -0.1353
 2458SOL    HW118836   3.893   1.095   2.070  0.5834 -0.6438 -0.5959
 2458SOL    HW218837   3.878   1.018   1.954  0.4396 -0.7741 -0.0061
 2459SOL     OW18838   2.847   3.673   5.867  0.3515  0.1294  0.5168
 2459SOL    HW118839   2.782   3.704   5.804 -1.0885  1.9704  2.9037
 2459SOL    HW218840   2.831   3.579   5.863 -2.0660  0.5645 -0.2020
 2460SOL     OW18841   1.544   1.892  17.387  0.1714  0.1016 -0.2024
 2460SOL    HW118842   1.593   1.810  17.393 -1.0200 -0.7533 -1.9284
 2460SOL    HW218843   1.551   1.914  17.294  2.2732  1.2352  0.2415
 2461SOL     OW18844   3.466   0.820   5.138 -0.1589 -0.1134 -0.1980
 2461SOL    HW118845   3.397   0.762   5.105 -0.6970 -0.1388  0.9615
 2461SOL    HW218846   3.463   0.889   5.072 -0.6789 -0.2216 -0.2918
 2462SOL     OW18847   0.504   1.985   7.671 -0.5193 -0.3851 -0.3677
 2462SOL    HW118848   0.442   1.914   7.656 -0.2490 -0.0695 -3.1014
 2462SOL    HW218849   0.503   1.990   7.766 -0.1870 -0.7173 -0.3476
 2463SOL     OW18850   1.653   1.943   3.769  0.2746  0.3748 -0.1211
 2463SOL    HW118851   1.587   1.886   3.810 -0.1575  1.4849  0.7283
 2463SOL    HW218852   1.642   1.910   3.680 -0.5286 -2.5735  1.0467
 2464SOL     OW18853   3.770   2.848   4.342 -0.0599  0.3587 -0.1572
 2464SOL    HW118854   3.771   2.824   4.250  1.1162 -1.0662  0.2146
 2464SOL    HW218855   3.784   2.943   4.340 -2.0720  0.6753  1.2139
 2465SOL     OW18856   4.071   2.477  17.159 -0.6674 -0.1235 -0.1936
 2465SOL    HW118857   3.999   2.418  17.182 -0.3401 -0.3587  0.2148
 2465SOL    HW218858   4.033   2.527  17.086  0.8958  0.3823 -0.6604
 2466SOL     OW18859   3.519   0.817   5.960 -0.2274 -0.0158  0.2261
 2466SOL    HW118860   3.480   0.837   6.046 -0.5534 -1.4971  0.4306
 2466SOL    HW218861   3.585   0.748   5.968 -0.9613 -0.6870  0.5081
 2467SOL     OW18862   3.760   0.219   5.909  0.7911 -0.1162  0.3566
 2467SOL    HW118863   3.853   0.238   5.898  0.8516 -0.2892  0.5648
 2467SOL    HW218864   3.727   0.256   5.827  0.5541  0.8500  0.9048
 2468SOL     OW18865   1.618   1.111   8.369  0.0004 -0.3502  0.1559
 2468SOL    HW118866   1.600   1.119   8.462 -1.9647  0.9182 -0.3414
 2468SOL    HW218867   1.543   1.059   8.338  0.4580 -0.2941 -1.0456
 2469SOL     OW18868   2.542   4.470  10.498 -0.2231  0.4424 -0.0914
 2469SOL    HW118869   2.603   4.482  10.426 -0.3182  2.0273  0.0857
 2469SOL    HW218870   2.610   4.473  10.565 -0.0300 -1.1371 -0.2203
 2470SOL     OW18871   4.168   3.916   5.716 -0.2246 -0.6440  0.5770
 2470SOL    HW118872   4.083   3.959   5.707 -0.4051 -0.9702  0.6977
 2470SOL    HW218873   4.196   3.898   5.626 -1.7176 -1.1022  0.1957
 2471SOL     OW18874   4.455   3.638   9.187 -0.4557  0.4402  0.0302
 2471SOL    HW118875   4.399   3.675   9.119 -1.5957 -0.5628  0.4288
 2471SOL    HW218876   4.484   3.554   9.154 -0.5558 -0.3988  2.0500
 2472SOL     OW18877   0.294   3.754   0.565  0.0166 -0.3300 -0.5510
 2472SOL    HW118878   0.298   3.776   0.472  0.9253  0.2682 -0.3768
 2472SOL    HW218879   0.220   3.694   0.572 -0.6274  0.3691 -1.4388
 2473SOL     OW18880   3.027   2.005   6.751 -0.1815  0.3476  0.6135
 2473SOL    HW118881   2.938   2.029   6.779 -0.7829 -1.1636 -0.0286
 2473SOL    HW218882   3.014   1.910   6.753 -2.9066  0.7202  0.7785
 2474SOL     OW18883   4.618   4.062   7.844 -0.3822 -0.6183 -0.1910
 2474SOL    HW118884   4.687   4.067   7.777 -1.9826 -1.4128 -1.9117
 2474SOL    HW218885   4.671   4.017   7.910 -0.9804 -0.7220  0.2199
 2475SOL     OW18886   3.853   4.155   8.102 -0.0767 -0.3755  0.0074
 2475SOL    HW118887   3.783   4.161   8.037 -0.3485  0.3093  0.3629
 2475SOL    HW218888   3.879   4.247   8.096 -1.2746 -0.2029 -2.5488
 2476SOL     OW18889   1.798   4.420   9.460  0.0641  0.0879  0.2531
 2476SOL    HW118890   1.721   4.452   9.508  0.7525  0.1436  1.3280
 2476SOL    HW218891   1.864   4.420   9.530 -0.2135 -0.4349  0.5153
 2477SOL     OW18892   1.351   4.524   8.723 -0.0432 -0.3330  0.5049
 2477SOL    HW118893   1.256   4.528   8.711  0.0971 -0.6217 -0.7459
 2477SOL    HW218894   1.383   4.567   8.643  2.8195 -0.2669  1.6902
 2478SOL     OW18895   2.755   4.256  10.966  0.0194 -0.3024  0.4033
 2478SOL    HW118896   2.795   4.312  11.031  0.4140 -0.4514  0.2856
 2478SOL    HW218897   2.827   4.204  10.931  0.1053 -0.1608  0.3743
 2479SOL     OW18898   0.317   2.718   7.518 -0.1087  0.1593 -0.3469
 2479SOL    HW118899   0.342   2.697   7.427  0.2067 -2.2985  0.3192
 2479SOL    HW218900   0.264   2.641   7.536  0.4017 -0.4191 -1.2931
 2480SOL     OW18901   0.028   2.325   3.482  0.3822  0.1780 -0.5548
 2480SOL    HW118902   0.121   2.303   3.478  0.6124  0.3133  3.6710
 2480SOL    HW218903   4.722   2.303   3.394  1.1963 -1.5091 -0.4030
 2481SOL     OW18904   2.155   4.317   5.015  0.3005  0.2552  0.0151
 2481SOL    HW118905   2.091   4.386   5.001  1.0345  0.8585 -0.4277
 2481SOL    HW218906   2.155   4.282   4.926  0.5103 -0.1300  0.1673
 2482SOL     OW18907   3.457   3.446   9.773  0.3547 -0.2442  0.3542
 2482SOL    HW118908   3.519   3.413   9.708  0.7933  2.4403 -0.5791
 2482SOL    HW218909   3.379   3.395   9.751  0.3490  0.8919 -2.1835
 2483SOL     OW18910   3.171   2.567   3.568 -0.1742  0.1090  0.0290
 2483SOL    HW118911   3.229   2.593   3.496 -0.1986 -1.7785 -0.6589
 2483SOL    HW218912   3.084   2.562   3.529 -0.4155 -1.2548  0.7616
 2484SOL     OW18913   1.099   2.322  15.029 -0.1562 -0.2597 -0.2446
 2484SOL    HW118914   1.019   2.368  15.052  1.1656  1.9303  0.0560
 2484SOL    HW218915   1.076   2.236  15.064  1.0107  0.1840  1.6877
 2485SOL     OW18916   4.515   2.940   7.264  0.3758 -0.3499 -0.0285
 2485SOL    HW118917   4.498   2.961   7.355 -1.1546  2.3690 -0.9313
 2485SOL    HW218918   4.609   2.922   7.265  0.6572  1.4063  2.8253
 2486SOL     OW18919   3.181   2.505   2.456  0.1794  0.0244  0.1713
 2486SOL    HW118920   3.204   2.572   2.392  2.1440 -1.6034 -0.8250
 2486SOL    HW218921   3.086   2.513   2.456  0.3649  2.1042 -2.0068
 2487SOL     OW18922   2.585   2.375   2.485  0.1428 -0.0681  0.2085
 2487SOL    HW118923   2.542   2.446   2.531 -1.0356  0.3943 -1.6065
 2487SOL    HW218924   2.587   2.414   2.398  1.8966  0.2803  0.4101
 2488SOL     OW18925   3.648   1.464  13.808 -0.6422 -0.3097 -0.2973
 2488SOL    HW118926   3.698   1.389  13.842 -0.4027  0.2024  0.4958
 2488SOL    HW218927   3.627   1.437  13.719 -0.3351 -2.4281  0.2769
 2489SOL     OW18928   2.622   3.154   0.889  0.5186  0.8032 -0.1116
 2489SOL    HW118929   2.566   3.206   0.947 -0.1955  1.2470 -1.1929
 2489SOL    HW218930   2.598   3.192   0.805  1.3000  0.7169 -0.3715
 2490SOL     OW18931   2.448   4.283   3.939 -0.6275 -0.1723 -0.1541
 2490SOL    HW118932   2.372   4.288   3.881  0.2824  1.3094 -1.2188
 2490SOL    HW218933   2.453   4.188   3.948  1.4774 -0.0492 -0.1251
 2491SOL     OW18934   1.346   0.239  12.315  0.3241  0.0176  0.0876
 2491SOL    HW118935   1.313   0.326  12.336  0.7800  0.2912 -0.3290
 2491SOL    HW218936   1.376   0.252  12.225 -1.1720 -1.1061 -0.5785
 2492SOL     OW18937   3.921   4.241   7.280 -0.2236  0.3311 -0.1676
 2492SOL    HW118938   3.841   4.189   7.287 -0.1381  0.5552  2.4754
 2492SOL    HW218939   3.887   4.330   7.269  0.9772  0.8958  0.7723
 2493SOL     OW18940   2.424   1.496   1.643  0.2149  0.0228  0.0256
 2493SOL    HW118941   2.505   1.468   1.685  1.4753  0.3666 -2.1792
 2493SOL    HW218942   2.450   1.470   1.554  0.0293  0.1862 -0.0773
 2494SOL     OW18943   1.734   2.798   8.825  0.1709  0.3116 -0.2973
 2494SOL    HW118944   1.725   2.740   8.900 -2.1861 -0.0766 -0.8708
 2494SOL    HW218945   1.742   2.883   8.868  1.3877 -0.3918  0.8360
 2495SOL     OW18946   4.459   1.169   3.158  0.1115  0.0320  0.1109
 2495SOL    HW118947   4.401   1.143   3.229 -1.0431 -1.7548 -1.5001
 2495SOL    HW218948   4.394   1.210   3.101 -1.5691 -4.0121 -0.9388
 2496SOL     OW18949   0.137   2.075   8.563 -0.1661 -0.4244  0.0466
 2496SOL    HW118950   0.137   2.109   8.473 -0.6250  0.5767  0.4287
 2496SOL    HW218951   0.113   2.153   8.612 -0.4936  0.4155 -1.4610
 2497SOL     OW18952   0.935   0.457   6.313 -0.4410  0.0020 -0.1692
 2497SOL    HW118953   1.024   0.444   6.346 -1.0446 -0.8744  1.1000
 2497SOL    HW218954   0.895   0.490   6.393  1.2707 -0.2576  0.7976
 2498SOL     OW18955   2.539   0.906   2.834  0.3909 -0.1004 -0.4884
 2498SOL    HW118956   2.577   0.918   2.747 -0.6694 -0.5054 -1.0076
 2498SOL    HW218957   2.560   0.983   2.886 -1.9450  0.6125 -0.6422
 2499SOL     OW18958   2.582   0.421   3.354  0.2017 -0.0963  0.2664
 2499SOL    HW118959   2.542   0.366   3.421  0.9476  0.3062  1.0384
 2499SOL    HW218960   2.537   0.378   3.281  1.1718 -0.6905  0.0220
 2500SOL     OW18961   0.202   0.493   1.627 -0.1272  0.4396 -0.5074
 2500SOL    HW118962   0.256   0.446   1.563  1.9926 -1.7032  2.8549
 2500SOL    HW218963   0.227   0.435   1.698  0.1176 -0.1747 -1.0907
 2501SOL     OW18964   4.076   2.595  13.524 -0.4996 -0.0104  0.0535
 2501SOL    HW118965   4.117   2.525  13.474  0.8760  1.3039 -0.6277
 2501SOL    HW218966   4.030   2.540  13.588 -0.3811 -0.0810  0.0780
 2502SOL     OW18967   2.312   1.038   5.409  0.2994 -0.0349 -0.1680
 2502SOL    HW118968   2.341   0.965   5.464  0.2517 -0.0500 -0.1630
 2502SOL    HW218969   2.258   1.082   5.474 -0.0486 -1.1659  0.3138
 2503SOL     OW18970   3.701   4.225   1.898 -0.3050 -0.4595  0.6582
 2503SOL    HW118971   3.674   4.161   1.964  1.3007 -1.4760  0.3226
 2503SOL    HW218972   3.796   4.220   1.909 -0.9128 -4.4828  4.0316
 2504SOL     OW18973   1.543   0.716   0.884  0.7488  0.3855 -0.7965
 2504SOL    HW118974   1.511   0.758   0.964 -0.2008  1.1764 -1.5861
 2504SOL    HW218975   1.499   0.766   0.815  1.0713 -0.3855 -1.5652
 2505SOL     OW18976   3.582   4.154  15.999 -0.6053 -0.0535  0.0432
 2505SOL    HW118977   3.516   4.219  15.975 -0.7945  0.0232  0.7479
 2505SOL    HW218978   3.627   4.204  16.067 -2.1363  1.2260  0.1171
 2506SOL     OW18979   2.562   0.983  13.610 -0.1117  0.0504 -0.3337
 2506SOL    HW118980   2.503   1.024  13.548  0.1467  2.5145  1.0768
 2506SOL    HW218981   2.630   0.939  13.558  2.4545  0.5524  2.6245
 2507SOL     OW18982   3.718   0.054   7.583  0.0273  0.2395  0.2013
 2507SOL    HW118983   3.659   0.106   7.637 -0.4801 -0.0531 -0.0615
 2507SOL    HW218984   3.738   0.122   7.518 -1.4968  2.4085  2.0062
 2508SOL     OW18985   0.569   2.540   4.411 -0.0518 -0.2839 -0.4077
 2508SOL    HW118986   0.494   2.579   4.365 -0.1885 -2.2886 -1.8889
 2508SOL    HW218987   0.639   2.526   4.347 -1.2289 -0.2795 -1.6843
 2509SOL     OW18988   0.651   4.004   5.437 -0.2669  0.7088  0.1922
 2509SOL    HW118989   0.698   4.087   5.431  1.9402 -0.4413  2.0150
 2509SOL    HW218990   0.601   4.007   5.355  1.1190  0.2875 -0.6662
 2510SOL     OW18991   0.406   0.207   3.405  0.0659 -0.3459  0.1105
 2510SOL    HW118992   0.385   0.249   3.321  1.2394 -0.6769 -0.3600
 2510SOL    HW218993   0.342   0.135   3.401  1.2917 -1.4060 -0.3531
 2511SOL     OW18994   2.852   0.577  13.358  0.2485  0.0856  0.1615
 2511SOL    HW118995   2.885   0.532  13.436 -0.5338 -0.3816  0.2233
 2511SOL    HW218996   2.912   0.649  13.338  0.3030 -0.3070 -1.0960
 2512SOL     OW18997   4.074   0.885   2.441  0.4625 -0.3498  0.3011
 2512SOL    HW118998   4.167   0.864   2.451  0.1880 -1.5494  0.3371
 2512SOL    HW218999   4.032   0.800   2.429 -0.8178  0.0741  1.9285
 2513SOL     OW19000   0.516   4.100   8.272 -0.4853 -0.0642  0.1570
 2513SOL    HW119001   0.571   4.175   8.295 -0.4339  0.4314 -1.5184
 2513SOL    HW219002   0.430   4.142   8.265 -0.3231 -0.1693 -2.5758
 2514SOL     OW19003   3.053   2.069   4.762  0.4001 -0.1607  0.0878
 2514SOL    HW119004   2.958   2.072   4.766  0.4962  1.6982  0.7835
 2514SOL    HW219005   3.066   2.110   4.677 -1.5632  0.1130 -0.0814
 2515SOL     OW19006   1.710   2.471   0.152  0.5483 -0.3930  0.0533
 2515SOL    HW119007   1.745   2.391   0.112 -1.5704 -1.6993  0.8224
 2515SOL    HW219008   1.629   2.477   0.101  0.0157 -0.4973  0.8952
 2516SOL     OW19009   0.967   2.074  13.241 -0.8046  0.5519  0.3446
 2516SOL    HW119010   1.049   2.030  13.220  0.0218  3.0533 -1.6260
 2516SOL    HW219011   0.999   2.108  13.325 -0.0177 -1.7941  0.9790
 2517SOL     OW19012   2.539   0.101   6.194 -0.1071 -0.1081  0.1538
 2517SOL    HW119013   2.536   0.018   6.242 -0.9483 -0.1148  0.0908
 2517SOL    HW219014   2.444   0.110   6.186 -0.0209  0.3387 -0.3843
 2518SOL     OW19015   0.759   2.150   0.870  0.1566 -0.0702 -0.3993
 2518SOL    HW119016   0.672   2.115   0.891  0.1654  0.1188 -0.0377
 2518SOL    HW219017   0.803   2.065   0.869 -2.4202 -1.3994 -0.6973
 2519SOL     OW19018   0.975   0.945   5.819  0.0644 -0.0700  0.5237
 2519SOL    HW119019   1.060   0.960   5.777 -2.4132  0.9823 -4.0831
 2519SOL    HW219020   0.959   1.018   5.879  1.9708  1.0018 -0.2588
 2520SOL     OW19021   1.339   0.441   8.202  0.5639  0.2562  0.1765
 2520SOL    HW119022   1.277   0.446   8.130  0.6091  1.9337  0.2616
 2520SOL    HW219023   1.315   0.516   8.256  2.4746  0.0459  1.3479
 2521SOL     OW19024   1.860   1.489   0.756  0.1774 -0.6944  0.0785
 2521SOL    HW119025   1.848   1.467   0.849 -1.0250  0.8238  0.2667
 2521SOL    HW219026   1.950   1.455   0.763  0.2507  0.1244  3.2849
 2522SOL     OW19027   1.350   4.362   8.422 -0.0511  0.3868  0.5790
 2522SOL    HW119028   1.303   4.296   8.471  1.1011 -0.5899  0.3574
 2522SOL    HW219029   1.287   4.385   8.353 -0.6270  1.3261  1.4117
 2523SOL     OW19030   2.171   2.397   0.812  0.5052 -0.2119  0.2426
 2523SOL    HW119031   2.081   2.427   0.823  0.6759  0.0742  0.8786
 2523SOL    HW219032   2.173   2.320   0.755 -0.9999 -0.2643  0.2622
 2524SOL     OW19033   4.312   0.417   5.991 -0.4396 -0.6118 -0.0648
 2524SOL    HW119034   4.339   0.507   6.009  2.8319 -1.5577 -0.2939
 2524SOL    HW219035   4.367   0.363   6.048  0.2677  0.3938  0.2072
 2525SOL     OW19036   3.616   4.100   4.960 -0.1587 -0.2373  0.6252
 2525SOL    HW119037   3.708   4.074   4.964  0.6421  2.5036 -0.3962
 2525SOL    HW219038   3.622   4.165   4.891 -0.2130 -1.6401 -0.6887
 2526SOL     OW19039   4.687   1.184  11.579  0.2984  0.3288 -0.5534
 2526SOL    HW119040   0.048   1.153  11.614  0.0820  1.2538  0.7860
 2526SOL    HW219041   4.681   1.131  11.499  0.1582 -1.4140  0.6127
 2527SOL     OW19042   0.306   3.472   4.193  0.1060 -0.0101  0.5788
 2527SOL    HW119043   0.244   3.532   4.236  1.8474  2.3876 -0.2454
 2527SOL    HW219044   0.244   3.416   4.147  0.3215  0.9566 -0.8960
 2528SOL     OW19045   1.482   2.916   5.081 -0.1618 -0.3658  1.5071
 2528SOL    HW119046   1.414   2.896   5.016  0.7452 -0.2347  0.5149
 2528SOL    HW219047   1.510   2.829   5.109  1.0762 -0.3361  0.3514
 2529SOL     OW19048   4.393   4.494   4.562 -0.3954 -0.0044  0.2432
 2529SOL    HW119049   4.344   4.420   4.598 -1.5906  0.1894 -1.0124
 2529SOL    HW219050   4.355   4.578   4.590  1.0664  0.9587 -0.6664
 2530SOL     OW19051   0.595   0.126  15.519  0.4228 -0.5353  0.3175
 2530SOL    HW119052   0.587   0.035  15.546  3.9954 -1.0394 -0.3523
 2530SOL    HW219053   0.531   0.169  15.576  0.6902  0.3751 -0.0543
 2531SOL     OW19054   3.640   1.596  12.675  0.4306  0.0588 -0.2047
 2531SOL    HW119055   3.672   1.647  12.600  0.8461  0.6891  0.3992
 2531SOL    HW219056   3.695   1.617  12.751  3.0793  1.4741 -2.4729
 2532SOL     OW19057   0.436   1.606  17.220 -0.3948  0.4663  0.1188
 2532SOL    HW119058   0.498   1.626  17.291 -0.5387 -1.8182  0.8915
 2532SOL    HW219059   0.352   1.610  17.267 -0.9609 -0.4281 -0.8337
 2533SOL     OW19060   4.528   4.629   5.266  0.1838 -0.3771 -0.9505
 2533SOL    HW119061   4.444   4.608   5.307  2.5023 -0.6129  3.6730
 2533SOL    HW219062   4.587   4.633   5.341 -2.0837  1.2615  0.7688
 2534SOL     OW19063   3.307   1.045   0.460 -0.4576 -0.1235 -0.0126
 2534SOL    HW119064   3.328   0.954   0.478 -1.3314 -0.5639 -1.2694
 2534SOL    HW219065   3.213   1.042   0.443  0.0382 -2.8282 -2.2003
 2535SOL     OW19066   2.778   3.312   6.830 -0.3691  0.0486 -0.1282
 2535SOL    HW119067   2.813   3.395   6.799  2.8951 -1.6895 -1.1538
 2535SOL    HW219068   2.812   3.323   6.919 -0.1604  2.2363 -0.4898
 2536SOL     OW19069   3.536   3.679   3.600 -0.1659 -0.2564  0.0874
 2536SOL    HW119070   3.623   3.668   3.561 -0.3757  3.8087 -1.5343
 2536SOL    HW219071   3.522   3.773   3.585  0.4716  0.0850  1.6237
 2537SOL     OW19072   1.929   3.552   6.407  0.1975  0.4241 -0.1719
 2537SOL    HW119073   1.896   3.493   6.475  1.8186 -1.9372 -1.4471
 2537SOL    HW219074   2.016   3.513   6.400 -0.5633 -1.7489  2.1376
 2538SOL     OW19075   0.420   1.695   4.926 -0.1249  0.1225  0.0620
 2538SOL    HW119076   0.460   1.622   4.973 -1.0521  1.2447  2.5959
 2538SOL    HW219077   0.431   1.648   4.843  1.9770  1.8782 -0.6572
 2539SOL     OW19078   0.075   3.093   4.609  0.3104 -0.1353 -0.4675
 2539SOL    HW119079   0.035   3.168   4.564  1.6356 -0.1429 -1.6558
 2539SOL    HW219080   0.127   3.134   4.677 -1.7745  0.8601  0.5241
 2540SOL     OW19081   0.484   1.275   8.460 -0.6062  0.4650  0.5027
 2540SOL    HW119082   0.559   1.267   8.518 -2.3019 -0.2928  2.5614
 2540SOL    HW219083   0.458   1.367   8.460 -1.4634  0.2199 -2.8565
 2541SOL     OW19084   0.755   1.383   6.625 -0.1342 -0.2611  0.4652
 2541SOL    HW119085   0.834   1.386   6.679  2.2090 -3.4123 -2.7333
 2541SOL    HW219086   0.691   1.341   6.683  1.2449  1.0375  2.9019
 2542SOL     OW19087   0.897   3.835   5.153 -0.0622 -0.2412 -0.1960
 2542SOL    HW119088   0.979   3.884   5.146 -0.9074  0.7257 -2.9964
 2542SOL    HW219089   0.827   3.900   5.161 -0.2360 -0.2809 -1.4531
 2543SOL     OW19090   2.876   2.978   3.105  0.6535 -0.1006 -0.2752
 2543SOL    HW119091   2.833   3.005   3.024  0.8586  3.7216  0.9129
 2543SOL    HW219092   2.964   2.982   3.068  0.2807 -1.6366 -1.3340
 2544SOL     OW19093   2.547   1.790   2.237  0.1161  0.0670 -0.3933
 2544SOL    HW119094   2.584   1.876   2.259 -1.5715  0.5660  0.4807
 2544SOL    HW219095   2.628   1.742   2.217 -0.4965 -2.3275  2.8803
 2545SOL     OW19096   0.705   2.470   4.195 -0.5229  0.3589 -0.3155
 2545SOL    HW119097   0.751   2.439   4.117  0.3775  2.7405 -0.7465
 2545SOL    HW219098   0.619   2.433   4.175 -1.5232  2.9035 -0.7762
 2546SOL     OW19099   0.192   0.733   3.369  0.3712  0.2818  0.4988
 2546SOL    HW119100   0.149   0.764   3.289 -0.5864 -0.5387  0.6897
 2546SOL    HW219101   0.276   0.711   3.329  0.3744  0.0175  0.6489
 2547SOL     OW19102   2.476   2.524   9.546  0.4381  0.6726 -0.1449
 2547SOL    HW119103   2.450   2.610   9.578  0.1062  0.6671 -0.4014
 2547SOL    HW219104   2.541   2.533   9.476  1.0269 -0.6648  0.2208
 2548SOL     OW19105   3.805   1.284   1.487 -0.2515 -0.2573 -0.2378
 2548SOL    HW119106   3.767   1.347   1.548 -1.3622 -0.2985 -0.8957
 2548SOL    HW219107   3.893   1.279   1.524 -0.4389  1.3160  0.4140
 2549SOL     OW19108   4.422   3.678   4.028  0.1278 -0.0036  0.4061
 2549SOL    HW119109   4.507   3.676   4.071 -0.2120 -0.7121  1.0579
 2549SOL    HW219110   4.402   3.771   4.025  0.3238  0.0531  0.8778
 2550SOL     OW19111   0.767   0.977   8.489 -0.3941 -0.8689  0.6116
 2550SOL    HW119112   0.770   0.907   8.424  0.1438  0.0534 -0.3653
 2550SOL    HW219113   0.679   0.968   8.526 -0.0868 -2.6284  0.8977
 2551SOL     OW19114   2.058   3.262   4.246  0.8215 -0.1882  0.2874
 2551SOL    HW119115   1.989   3.233   4.187 -0.1156 -2.3168  2.4064
 2551SOL    HW219116   2.123   3.299   4.187 -0.2527 -0.7332 -1.2339
 2552SOL     OW19117   1.701   4.091  13.405  0.3027  0.3537 -0.6419
 2552SOL    HW119118   1.749   4.010  13.388  0.7569  0.0585  2.1045
 2552SOL    HW219119   1.623   4.066  13.355  1.4687 -0.3402 -2.1308
 2553SOL     OW19120   3.724   1.745   4.528  0.6377  0.2653 -0.0722
 2553SOL    HW119121   3.742   1.799   4.605  1.8158 -0.4580  0.1472
 2553SOL    HW219122   3.703   1.655   4.550 -1.7781  0.7896 -0.1999
 2554SOL     OW19123   1.214   1.764   3.811  0.7107  0.7905 -0.0970
 2554SOL    HW119124   1.223   1.756   3.716  0.1447  1.5371 -0.2088
 2554SOL    HW219125   1.126   1.727   3.810  0.9040  0.3622 -2.4746
 2555SOL     OW19126   3.400   0.003   0.328  0.2772  0.0167 -0.7216
 2555SOL    HW119127   3.432   4.656   0.386 -0.8094 -1.2028 -1.5906
 2555SOL    HW219128   3.310   0.002   0.361  1.0568  0.5379  1.4333
 2556SOL     OW19129   3.088   0.048   9.983  0.0257 -0.2238 -0.2220
 2556SOL    HW119130   3.093   4.716   9.904  4.3271  2.1420 -1.6460
 2556SOL    HW219131   2.999   0.024  10.006  0.4584 -0.0850  1.5681
 2557SOL     OW19132   1.752   0.169   6.687  0.3342  0.0370 -0.1899
 2557SOL    HW119133   1.691   0.157   6.614 -0.3660 -1.7915  0.7126
 2557SOL    HW219134   1.834   0.165   6.639  0.6682  1.5035  0.2426
 2558SOL     OW19135   4.286   4.285   5.488  0.3519 -0.0271  0.4050
 2558SOL    HW119136   4.360   4.263   5.432  0.6262 -1.9199  1.4888
 2558SOL    HW219137   4.216   4.288   5.422  2.7465 -0.6265 -2.1562
 2559SOL     OW19138   1.167   1.942   4.078 -0.0092  0.1397  0.5746
 2559SOL    HW119139   1.162   1.975   4.168 -0.6682  3.0358 -0.5153
 2559SOL    HW219140   1.251   1.984   4.059 -0.0473 -0.0251  0.0561
 2560SOL     OW19141   3.008   1.473  10.319 -0.3108 -0.1182 -0.2677
 2560SOL    HW119142   2.919   1.446  10.297 -0.7187 -0.6502  2.0685
 2560SOL    HW219143   3.019   1.427  10.402 -0.5206 -0.8531 -0.6439
 2561SOL     OW19144   3.037   1.715   7.401  0.1962  0.0605 -0.3509
 2561SOL    HW119145   3.065   1.658   7.330 -0.0200 -0.4970  0.0191
 2561SOL    HW219146   3.118   1.718   7.452 -0.0624  1.7608 -0.0215
 2562SOL     OW19147   4.054   0.445  11.526 -0.1292  0.4539 -0.3710
 2562SOL    HW119148   4.037   0.417  11.436 -1.3043  1.4060 -0.4422
 2562SOL    HW219149   4.025   0.363  11.566 -0.9715  0.2550 -1.3872
 2563SOL     OW19150   0.576   3.053  14.619  0.0519  0.5507  0.4068
 2563SOL    HW119151   0.492   3.017  14.647  0.1767 -0.7016 -0.8353
 2563SOL    HW219152   0.541   3.115  14.556 -0.9509 -2.0457 -1.5774
 2564SOL     OW19153   4.701   3.500   8.656 -0.2471 -0.5136 -0.3196
 2564SOL    HW119154   4.653   3.524   8.735  0.7688 -0.1617  0.1867
 2564SOL    HW219155   4.639   3.460   8.595  0.3435  0.9225 -1.8850
 2565SOL     OW19156   0.306   2.624  16.541  0.3101  0.5091  0.3060
 2565SOL    HW119157   0.297   2.686  16.469  0.0716 -1.2458 -1.1864
 2565SOL    HW219158   0.350   2.677  16.607 -1.0931 -0.4046  1.9647
 2566SOL     OW19159   1.704   2.495   1.300 -0.3122 -0.4968 -0.3530
 2566SOL    HW119160   1.741   2.407   1.292  0.3334 -0.3292  0.8198
 2566SOL    HW219161   1.768   2.542   1.248 -3.1621  1.8987 -1.6784
 2567SOL     OW19162   3.697   0.344  16.013 -0.5915  0.0212  0.0921
 2567SOL    HW119163   3.635   0.406  16.051  0.5323  1.2249 -0.0451
 2567SOL    HW219164   3.637   0.270  16.005  2.8192 -2.4091 -3.0527
 2568SOL     OW19165   2.059   1.374  14.325  0.1201  0.3327  0.6450
 2568SOL    HW119166   2.109   1.425  14.261 -1.0179  0.8443  0.1589
 2568SOL    HW219167   2.087   1.285  14.304 -0.9933  0.4787 -1.4674
 2569SOL     OW19168   4.341   4.404   1.318 -0.5765  0.0130 -0.6363
 2569SOL    HW119169   4.321   4.471   1.383  0.8316  0.5693 -0.7932
 2569SOL    HW219170   4.273   4.343   1.348  0.8118  0.3263  3.1541
 2570SOL     OW19171   1.729   0.657   8.403  0.6658 -0.1638 -0.7508
 2570SOL    HW119172   1.673   0.582   8.422 -1.0299  1.3294  0.1285
 2570SOL    HW219173   1.818   0.628   8.424  0.6504 -0.4343 -1.0564
 2571SOL     OW19174   3.150   0.194   6.336  0.6305  0.1548 -0.3680
 2571SOL    HW119175   3.061   0.209   6.304  0.7046  0.9152 -0.2161
 2571SOL    HW219176   3.181   0.284   6.325 -0.4240  0.7903  1.6931
 2572SOL     OW19177   1.436   4.284   7.213 -0.5065  0.6416  0.1715
 2572SOL    HW119178   1.495   4.359   7.211  1.7395 -1.0732  1.1062
 2572SOL    HW219179   1.492   4.217   7.254  0.2301 -0.6049 -2.8844
 2573SOL     OW19180   1.789   3.063   3.118  0.1936 -0.7691 -0.2402
 2573SOL    HW119181   1.694   3.064   3.127  0.1732 -0.0260 -0.5587
 2573SOL    HW219182   1.821   3.117   3.191  1.9717 -1.6097 -0.3908
 2574SOL     OW19183   2.268   4.524   4.693 -0.0340 -0.5298 -0.1377
 2574SOL    HW119184   2.223   4.595   4.738  1.6434  1.0842 -0.9950
 2574SOL    HW219185   2.361   4.531   4.716 -0.8819 -0.4380  3.1721
 2575SOL     OW19186   3.780   2.010   4.052 -0.3121 -0.3630  0.2850
 2575SOL    HW119187   3.739   2.010   3.965  0.7120 -1.6823 -0.1981
 2575SOL    HW219188   3.827   1.928   4.038 -0.5769 -0.6989  1.3483
 2576SOL     OW19189   0.401   1.306   2.184  0.4756 -0.8393  0.7855
 2576SOL    HW119190   0.454   1.385   2.177  1.5019 -1.3629  2.5566
 2576SOL    HW219191   0.439   1.249   2.118 -1.6660 -0.1712 -1.0262
 2577SOL     OW19192   4.558   1.485   7.504 -0.3159  0.3935  0.7108
 2577SOL    HW119193   4.627   1.526   7.556  0.9779  2.2238 -2.4922
 2577SOL    HW219194   4.563   1.529   7.420 -0.4023  1.1574  1.1077
 2578SOL     OW19195   1.183   3.380   9.474  0.0731  0.0221  0.2109
 2578SOL    HW119196   1.216   3.363   9.385 -1.3552 -0.7246 -0.1737
 2578SOL    HW219197   1.252   3.346   9.531  0.1167 -0.3923 -0.0882
 2579SOL     OW19198   2.197   4.453   3.536  0.6785  0.2823  0.0166
 2579SOL    HW119199   2.116   4.503   3.546 -0.0332 -0.6185 -1.2671
 2579SOL    HW219200   2.202   4.415   3.623  0.6774  0.3636  0.0523
 2580SOL     OW19201   4.129   4.339   8.529  0.5402 -0.2424  0.0672
 2580SOL    HW119202   4.095   4.426   8.506  1.6638  0.3962  0.8244
 2580SOL    HW219203   4.101   4.279   8.460 -2.0413  1.4557 -0.3841
 2581SOL     OW19204   1.569   1.003   6.143  0.5417  0.0955 -0.0337
 2581SOL    HW119205   1.651   1.044   6.171  0.4992 -0.4697  0.9288
 2581SOL    HW219206   1.607   0.931   6.092  1.3895  0.0769  0.6115
 2582SOL     OW19207   3.561   3.782  17.478  0.0138  0.5546  0.2093
 2582SOL    HW119208   3.535   3.835  17.402 -0.9622  1.3978  1.1178
 2582SOL    HW219209   3.528   3.829  17.555 -2.7585  2.0068 -1.8572
 2583SOL     OW19210   1.396   2.605   5.825  0.1977 -0.2281 -0.7966
 2583SOL    HW119211   1.438   2.561   5.752  0.7399 -1.5638  0.3216
 2583SOL    HW219212   1.331   2.660   5.780  0.6091  0.1723 -0.9017
 2584SOL     OW19213   1.098   2.458   9.121 -0.3385 -0.1492 -0.0983
 2584SOL    HW119214   1.150   2.465   9.201 -2.7894  0.3604  1.4532
 2584SOL    HW219215   1.127   2.539   9.079  1.7551 -1.3694 -0.9933
 2585SOL     OW19216   0.561   3.425  11.492 -0.5113  0.5341 -0.3173
 2585SOL    HW119217   0.612   3.432  11.572 -0.1891  1.9089 -0.6493
 2585SOL    HW219218   0.536   3.517  11.483 -1.1645  0.3595 -0.3365
 2586SOL     OW19219   0.766   1.901   6.080 -0.2902  0.4263  0.5267
 2586SOL    HW119220   0.692   1.840   6.088  0.8247 -0.5479  3.2503
 2586SOL    HW219221   0.772   1.916   6.174  0.3324  0.4657  0.4778
 2587SOL     OW19222   1.012   0.049   4.253  0.2839  0.0557 -0.3541
 2587SOL    HW119223   1.044   4.686   4.280 -1.0673 -0.3023  0.1055
 2587SOL    HW219224   1.061   0.073   4.174 -0.4798 -0.5955 -1.0242
 2588SOL     OW19225   2.846   1.540   6.714  0.3458  0.2063 -0.1491
 2588SOL    HW119226   2.764   1.491   6.719 -0.1257  0.9251 -0.6968
 2588SOL    HW219227   2.890   1.468   6.669 -1.0397 -1.1599  0.6755
 2589SOL     OW19228   3.911   3.011   3.116 -0.0715  0.2443 -0.4508
 2589SOL    HW119229   3.977   2.952   3.080 -0.5655 -0.6410  0.0991
 2589SOL    HW219230   3.836   2.964   3.080 -0.3089 -0.0235  0.4052
 2590SOL     OW19231   4.393   0.850  17.434  0.4403  0.5065  0.3165
 2590SOL    HW119232   4.478   0.883  17.406  1.7228 -3.1365 -0.1501
 2590SOL    HW219233   4.398   0.759  17.404 -2.4586  0.7137 -0.7993
 2591SOL     OW19234   3.495   0.058   0.055 -0.0314 -0.4588 -0.2002
 2591SOL    HW119235   3.454   4.702   0.017 -1.5304  0.3331 -0.2257
 2591SOL    HW219236   3.464   0.050   0.145 -0.4573  1.8824 -0.1492
 2592SOL     OW19237   0.791   0.415   5.239 -0.2475 -0.0509  0.3719
 2592SOL    HW119238   0.877   0.447   5.212 -0.5775 -0.5315 -1.2384
 2592SOL    HW219239   0.807   0.367   5.320  0.3663 -0.5114 -0.0203
 2593SOL     OW19240   2.889   0.187   5.184  0.0360 -1.0260 -0.8992
 2593SOL    HW119241   2.977   0.223   5.197 -1.6714  2.1613  1.9882
 2593SOL    HW219242   2.888   0.198   5.089  1.8309 -0.3203 -0.8397
 2594SOL     OW19243   3.670   0.575   1.798 -0.0810  0.2381  0.1246
 2594SOL    HW119244   3.646   0.545   1.885  1.0864  1.3504  0.8250
 2594SOL    HW219245   3.583   0.596   1.765  0.1144  1.8007  0.6399
 2595SOL     OW19246   0.790   4.699   2.843  0.1257 -0.1043 -0.3899
 2595SOL    HW119247   0.802   4.644   2.766  0.0510  0.3713 -0.7396
 2595SOL    HW219248   0.797   0.061   2.799  1.5265  0.0053  0.0149
 2596SOL     OW19249   2.396   3.033   3.385  0.3424 -0.5400 -0.1381
 2596SOL    HW119250   2.321   2.976   3.370  1.1050 -0.3505 -4.6061
 2596SOL    HW219251   2.395   3.035   3.481 -0.2777  1.3586 -0.1901
 2597SOL     OW19252   0.561   2.438  16.451  0.2384  0.4298  0.0579
 2597SOL    HW119253   0.583   2.493  16.526 -1.7846 -0.5782  1.3697
 2597SOL    HW219254   0.466   2.445  16.451  0.4009  2.6545  1.0708
 2598SOL     OW19255   1.525   0.769   8.249  0.3548  0.3568  0.4175
 2598SOL    HW119256   1.606   0.764   8.300 -0.2100 -1.1212  1.1670
 2598SOL    HW219257   1.465   0.734   8.315  1.0890 -0.6859  0.5266
 2599SOL     OW19258   0.475   3.752   3.116  0.2657 -0.0638  0.0652
 2599SOL    HW119259   0.518   3.680   3.070  0.6536  0.7738 -0.8680
 2599SOL    HW219260   0.528   3.828   3.093  0.0831  0.8381  2.5852
 2600SOL     OW19261   2.139   0.512  13.257 -0.2878  0.1474 -0.6570
 2600SOL    HW119262   2.170   0.587  13.206  3.0194 -0.5314  0.3564
 2600SOL    HW219263   2.061   0.489  13.207 -1.0795  2.9817 -0.7223
 2601SOL     OW19264   2.317   2.953   2.179 -0.9440 -0.0533 -0.0985
 2601SOL    HW119265   2.374   3.028   2.161 -1.6236  0.9386  1.9767
 2601SOL    HW219266   2.380   2.889   2.146 -0.9999  0.3137 -0.9245
 2602SOL     OW19267   1.228   4.031  15.252 -0.3225  0.4865  0.5476
 2602SOL    HW119268   1.215   3.937  15.240 -1.1881  0.5524  1.0348
 2602SOL    HW219269   1.226   4.073  15.166 -2.6140  0.1025  0.4302
 2603SOL     OW19270   1.538   3.791   3.733  0.0109  0.0907 -0.0401
 2603SOL    HW119271   1.561   3.784   3.826 -1.6369  3.8664  0.6445
 2603SOL    HW219272   1.603   3.729   3.699  0.0113  0.9745 -1.6294
 2604SOL     OW19273   0.568   2.956   4.780 -0.5272  0.0413  0.4164
 2604SOL    HW119274   0.553   2.862   4.774  0.4040 -0.1914  1.7771
 2604SOL    HW219275   0.523   2.975   4.863  0.7100  2.9191  0.4404
 2605SOL     OW19276   3.962   2.443   3.048  0.7270 -0.2369 -0.2674
 2605SOL    HW119277   3.972   2.467   3.140 -2.2428  0.9795 -0.2901
 2605SOL    HW219278   3.986   2.350   3.048 -3.1523 -1.2033 -1.1122
 2606SOL     OW19279   0.940   3.095   4.141 -0.1491 -0.3531 -0.0607
 2606SOL    HW119280   0.974   3.020   4.190 -3.3942 -0.5435  1.9587
 2606SOL    HW219281   1.004   3.108   4.071 -0.8034  1.8990 -0.2426
 2607SOL     OW19282   4.535   4.437   6.013 -0.2315 -0.2784  0.4956
 2607SOL    HW119283   4.561   4.403   6.098 -1.2252 -0.4591  0.7200
 2607SOL    HW219284   4.442   4.457   6.019 -0.0568  0.6436  0.1820
 2608SOL     OW19285   0.516   1.607   7.761  0.3645 -0.2595 -0.4567
 2608SOL    HW119286   0.594   1.662   7.773 -0.1366  0.5002 -0.7318
 2608SOL    HW219287   0.475   1.620   7.847  0.0700  0.0090 -0.6406
 2609SOL     OW19288   3.209   3.084   4.379 -0.1982  0.2191  0.0177
 2609SOL    HW119289   3.130   3.070   4.431  0.6491 -1.2172  0.9090
 2609SOL    HW219290   3.232   3.177   4.382  2.1814 -0.3467 -0.7376
 2610SOL     OW19291   2.058   0.308   2.008 -0.6510  0.2690 -0.0050
 2610SOL    HW119292   2.066   0.294   1.913  0.4972  0.4269  0.0698
 2610SOL    HW219293   2.075   0.402   2.011  0.8260 -0.0454  0.9792
 2611SOL     OW19294   1.334   0.108   7.417 -0.0620  0.3038 -0.2901
 2611SOL    HW119295   1.405   0.106   7.353 -0.3399 -1.9750 -0.5429
 2611SOL    HW219296   1.367   0.075   7.500  1.1040  0.9200 -0.5113
 2612SOL     OW19297   1.801   2.725   0.501 -0.5132  0.2067  0.2822
 2612SOL    HW119298   1.740   2.714   0.428  0.5495  2.2692 -0.9139
 2612SOL    HW219299   1.788   2.641   0.545 -1.4436 -0.2373 -0.8534
 2613SOL     OW19300   3.837   2.460  17.589 -0.3671 -0.2729 -0.9987
 2613SOL    HW119301   3.903   2.526  17.570 -2.0505  1.9597  0.8046
 2613SOL    HW219302   3.882   2.379  17.564 -0.2605 -0.3962 -0.4201
 2614SOL     OW19303   2.128   0.211   3.807 -0.5771 -0.5124  0.3523
 2614SOL    HW119304   2.188   0.166   3.747  0.7978  3.2869 -1.1329
 2614SOL    HW219305   2.058   0.237   3.747 -1.9842 -0.9455  1.7924
 2615SOL     OW19306   1.187   0.455  11.669  0.1011  0.0433  0.3901
 2615SOL    HW119307   1.170   0.508  11.747  2.2946  0.5278  0.5615
 2615SOL    HW219308   1.166   0.515  11.598 -1.6621  0.8171  1.5677
 2616SOL     OW19309   0.338   3.390   8.320 -0.1665 -0.0803  0.8100
 2616SOL    HW119310   0.402   3.457   8.344 -0.0236  0.7039 -1.7717
 2616SOL    HW219311   0.286   3.405   8.399 -2.9639 -1.0007 -0.8166
 2617SOL     OW19312   3.832   4.506   3.315  0.0196 -0.0608 -0.0324
 2617SOL    HW119313   3.838   4.437   3.248 -3.0795  0.5189 -0.9257
 2617SOL    HW219314   3.765   4.472   3.375 -0.7676  0.1454 -0.7879
 2618SOL     OW19315   0.530   0.111   4.240 -0.0600  0.2345  0.2764
 2618SOL    HW119316   0.466   0.172   4.205  0.8149  0.2730 -1.2610
 2618SOL    HW219317   0.563   0.078   4.156 -2.8885 -1.3146 -0.1965
 2619SOL     OW19318   0.070   2.320   2.572  0.7964  0.3758 -0.7555
 2619SOL    HW119319   0.085   2.226   2.564 -0.3127  0.0991  0.4426
 2619SOL    HW219320   0.061   2.343   2.479  2.0150  2.5387 -0.3548
 2620SOL     OW19321   2.017   2.504  16.720  0.2072  0.0299 -0.4253
 2620SOL    HW119322   2.087   2.474  16.663 -1.2903  0.6998 -2.6385
 2620SOL    HW219323   2.045   2.456  16.798 -0.9970  1.0647  0.6721
 2621SOL     OW19324   1.237   2.570   5.171 -0.1790  0.1981 -0.1208
 2621SOL    HW119325   1.221   2.531   5.086  1.8386 -0.5195 -0.1548
 2621SOL    HW219326   1.323   2.609   5.154  0.3589 -2.4357 -3.2990
 2622SOL     OW19327   4.261   3.759   5.028  0.0925 -0.5415  0.5991
 2622SOL    HW119328   4.179   3.808   5.026  0.8328  0.5774 -2.2414
 2622SOL    HW219329   4.253   3.685   5.089 -0.6372  1.2288  2.6518
 2623SOL     OW19330   0.176   1.942   8.151  0.0260  0.0173  0.5619
 2623SOL    HW119331   0.229   2.021   8.153 -2.3230  1.6280 -2.9508
 2623SOL    HW219332   0.091   1.981   8.170 -0.2618  0.6825 -2.2365
 2624SOL     OW19333   0.907   4.242  14.801  0.3593 -0.3586  0.0262
 2624SOL    HW119334   0.971   4.226  14.732 -0.4331 -0.6825 -0.6298
 2624SOL    HW219335   0.847   4.305  14.763 -1.0350 -3.1223 -2.3180
 2625SOL     OW19336   3.897   1.327   1.976 -0.7506 -0.3475 -0.0958
 2625SOL    HW119337   3.825   1.358   2.031 -0.2461 -1.4518  1.1845
 2625SOL    HW219338   3.967   1.391   1.986 -1.0599 -0.2433  1.3748
 2626SOL     OW19339   4.428   0.352  15.501 -0.2462  0.5646 -0.1669
 2626SOL    HW119340   4.400   0.323  15.588  1.6940  3.2044  1.3060
 2626SOL    HW219341   4.424   0.269  15.453  1.3351  1.6865 -2.2590
 2627SOL     OW19342   1.562   0.430   2.600 -0.5475  0.4750 -0.8372
 2627SOL    HW119343   1.649   0.419   2.562 -0.0010  0.4906  0.4440
 2627SOL    HW219344   1.572   0.514   2.644  0.6799  0.2927 -0.7811
 2628SOL     OW19345   0.045   2.712   8.267 -0.2652  0.3100 -0.0216
 2628SOL    HW119346   0.105   2.786   8.265  0.5023 -0.3223 -0.4023
 2628SOL    HW219347   0.066   2.666   8.186 -3.1217  0.5921 -0.9233
 2629SOL     OW19348   0.099   2.140   7.509 -0.0081 -0.1274 -0.4945
 2629SOL    HW119349   0.043   2.073   7.547 -1.9462  2.1099  0.5981
 2629SOL    HW219350   0.038   2.185   7.450 -0.2079 -2.5608 -2.1465
 2630SOL     OW19351   4.716   3.071   3.079  0.3258  0.0027  0.2083
 2630SOL    HW119352   4.641   3.035   3.126  0.3672  0.5048  0.6680
 2630SOL    HW219353   0.055   2.998   3.079 -0.2771 -0.4935 -1.7524
 2631SOL     OW19354   0.629   1.997   0.542 -0.1474 -0.2730  0.1230
 2631SOL    HW119355   0.537   1.998   0.567  0.0237 -1.2478  0.8029
 2631SOL    HW219356   0.647   1.904   0.555  0.2168 -0.2137  0.0480
 2632SOL     OW19357   3.032   1.645  14.277  0.2309 -0.4273 -0.3752
 2632SOL    HW119358   2.974   1.604  14.213  1.0548 -1.1804 -0.6414
 2632SOL    HW219359   3.007   1.586  14.349 -0.4053  2.4233  1.7309
 2633SOL     OW19360   4.117   2.429  11.646  0.1695  0.9405  0.0972
 2633SOL    HW119361   4.189   2.373  11.676 -0.5750  0.8896  1.7680
 2633SOL    HW219362   4.094   2.369  11.575  1.4977 -1.9668  2.1275
 2634SOL     OW19363   1.437   0.128  15.977  0.1609  0.4243  0.0211
 2634SOL    HW119364   1.421   0.085  15.893  1.0317  0.1691 -0.0111
 2634SOL    HW219365   1.358   0.101  16.024  0.1452 -0.6941 -0.6288
 2635SOL     OW19366   3.271   4.502   1.942  0.3738 -0.6746  0.7645
 2635SOL    HW119367   3.335   4.511   2.012  0.5012 -0.6729  0.6478
 2635SOL    HW219368   3.322   4.505   1.861 -2.0326  0.4159 -0.6959
 2636SOL     OW19369   4.144   3.852   2.928  0.3898 -0.9285  0.4244
 2636SOL    HW119370   4.212   3.917   2.911  0.8448 -1.2618  0.9456
 2636SOL    HW219371   4.092   3.854   2.848  2.3445 -3.1729 -0.9375
 2637SOL     OW19372   2.027   0.384   3.994  0.1169 -0.1620 -0.0845
 2637SOL    HW119373   2.069   0.313   3.945 -2.0942 -2.3071  1.1582
 2637SOL    HW219374   2.099   0.410   4.051  0.4838 -1.2932 -0.0143
 2638SOL     OW19375   1.793   4.307   4.204  0.1912 -0.3511  0.0626
 2638SOL    HW119376   1.738   4.268   4.272 -0.7474 -1.0363 -1.0913
 2638SOL    HW219377   1.873   4.255   4.203  1.8724  2.1979  0.7613
 2639SOL     OW19378   1.878   2.702   5.257  0.4515  0.1824 -0.1785
 2639SOL    HW119379   1.931   2.778   5.282  0.4079 -0.3779  1.6072
 2639SOL    HW219380   1.875   2.651   5.339  1.8370  0.2265 -0.0994
 2640SOL     OW19381   4.158   2.114   6.942  0.3300 -0.1429  0.2338
 2640SOL    HW119382   4.184   2.077   7.026  0.6039 -0.3557  0.0549
 2640SOL    HW219383   4.071   2.074   6.939 -0.5406  1.8229 -0.9303
 2641SOL     OW19384   1.553   3.238   5.199  0.0969  0.1830  0.4327
 2641SOL    HW119385   1.540   3.289   5.119  0.0464  0.4268  0.5953
 2641SOL    HW219386   1.466   3.223   5.235  0.0679  1.0318  0.7306
 2642SOL     OW19387   2.399   1.847  10.819 -0.0440  0.3764 -0.0978
 2642SOL    HW119388   2.450   1.799  10.885 -0.7056  1.9386  1.5310
 2642SOL    HW219389   2.434   1.936  10.822  0.1153  0.2494  1.7703
 2643SOL     OW19390   0.301   1.535   6.620  0.4332 -0.4040 -0.1404
 2643SOL    HW119391   0.234   1.482   6.662 -0.1629  1.0466  0.7253
 2643SOL    HW219392   0.248   1.609   6.592  0.1935  0.0506  1.5133
 2644SOL     OW19393   2.530   4.135   0.261 -0.1359  0.2020 -0.1205
 2644SOL    HW119394   2.475   4.200   0.218 -0.8165 -1.4355 -1.6968
 2644SOL    HW219395   2.512   4.050   0.220  0.1016 -0.5418  1.3082
 2645SOL     OW19396   1.947   4.150   1.259 -0.1750  0.4332  0.3851
 2645SOL    HW119397   1.971   4.143   1.352  0.1491  0.5597  0.3105
 2645SOL    HW219398   2.003   4.222   1.229  1.9175 -1.9331 -1.3219
 2646SOL     OW19399   3.482   1.529   9.331  0.3838 -0.0889  0.1344
 2646SOL    HW119400   3.515   1.606   9.284 -1.1508 -0.0862 -0.9705
 2646SOL    HW219401   3.433   1.571   9.401  0.4100  1.6323 -0.8785
 2647SOL     OW19402   3.753   3.627  11.526 -0.0632 -0.4003  0.1540
 2647SOL    HW119403   3.846   3.646  11.519 -0.1182 -0.5858 -1.1029
 2647SOL    HW219404   3.730   3.686  11.598 -0.4442 -0.9712  0.5061
 2648SOL     OW19405   4.234   3.950   1.656 -0.1248 -0.1369  0.1392
 2648SOL    HW119406   4.320   3.965   1.617  0.0729 -1.5037  0.0733
 2648SOL    HW219407   4.230   3.855   1.657 -0.3673 -0.1063  1.4600
 2649SOL     OW19408   4.386   4.237   7.250  0.0776 -0.4299 -0.3010
 2649SOL    HW119409   4.353   4.157   7.210  0.3556 -0.1803 -1.0282
 2649SOL    HW219410   4.301   4.281   7.253 -0.3344 -1.3334  1.4380
 2650SOL     OW19411   1.752   0.624   6.144  0.0673  0.0785  0.3193
 2650SOL    HW119412   1.772   0.700   6.090  2.7133 -1.7783 -1.3676
 2650SOL    HW219413   1.663   0.601   6.119  0.0391  2.1353 -1.4378
 2651SOL     OW19414   3.093   3.343  10.281 -0.0629 -0.4701 -0.3361
 2651SOL    HW119415   3.087   3.348  10.377 -1.2553  0.8665 -0.4781
 2651SOL    HW219416   3.028   3.275  10.263 -0.2555 -0.8495  1.7362
 2652SOL     OW19417   0.836   2.980  16.437  0.1024 -0.0394 -0.0126
 2652SOL    HW119418   0.867   2.894  16.466 -0.6285 -0.7576 -1.3672
 2652SOL    HW219419   0.742   2.966  16.428 -0.2847  2.8357 -0.3690
 2653SOL     OW19420   2.853   4.594  11.782  0.0174  0.4167 -0.3432
 2653SOL    HW119421   2.915   4.606  11.854  0.7686 -2.8388 -0.4751
 2653SOL    HW219422   2.771   4.570  11.825  1.3173  1.2322  2.6240
 2654SOL     OW19423   4.705   0.139   2.916  0.0627  0.1449 -0.3993
 2654SOL    HW119424   4.686   0.202   2.847  2.9097  0.6983 -0.6940
 2654SOL    HW219425   4.626   0.086   2.920 -0.1006  0.3816 -0.5332
 2655SOL     OW19426   2.687   4.257   6.843  0.5360 -0.6658 -0.0667
 2655SOL    HW119427   2.645   4.309   6.911  0.3771  2.3199 -2.4493
 2655SOL    HW219428   2.623   4.192   6.816 -0.4265 -0.6872  2.3386
 2656SOL     OW19429   3.581   2.061   4.330  0.3100 -0.2462  0.0982
 2656SOL    HW119430   3.620   2.099   4.252 -2.3609  2.1717 -0.0593
 2656SOL    HW219431   3.579   1.967   4.310 -3.8200 -0.0695 -0.4014
 2657SOL     OW19432   3.348   3.904   6.271 -0.6138  0.3072  0.0075
 2657SOL    HW119433   3.322   3.878   6.360 -1.9055 -0.2828 -0.5454
 2657SOL    HW219434   3.440   3.878   6.275 -1.1069 -0.8775  3.6273
 2658SOL     OW19435   3.423   4.288   0.720  0.3728 -0.2027 -0.4892
 2658SOL    HW119436   3.373   4.261   0.797  1.4432  1.0533  0.6276
 2658SOL    HW219437   3.477   4.211   0.701  2.4955  1.7731 -2.4577
 2659SOL     OW19438   1.170   1.364   5.222 -0.7099  0.4828  0.4033
 2659SOL    HW119439   1.178   1.275   5.189 -0.7701  0.3141  0.8476
 2659SOL    HW219440   1.076   1.382   5.228 -0.7321  0.8383 -1.0228
 2660SOL     OW19441   0.616   2.198   2.355 -0.3072 -0.0287 -0.2774
 2660SOL    HW119442   0.644   2.128   2.295  1.6273 -1.1769  1.9558
 2660SOL    HW219443   0.556   2.160   2.420 -0.8032  1.1874 -0.0387
 2661SOL     OW19444   0.759   0.316   2.884  0.4108  0.4300 -0.0779
 2661SOL    HW119445   0.738   0.406   2.857  0.5997  1.1355  2.1414
 2661SOL    HW219446   0.844   0.341   2.921  0.8630 -1.6742  0.3117
 2662SOL     OW19447   4.116   0.709   4.721  0.3325 -0.2106 -0.0508
 2662SOL    HW119448   4.036   0.656   4.718 -0.3291  0.8177 -0.3333
 2662SOL    HW219449   4.178   0.661   4.776  0.1077 -2.9529 -2.1751
 2663SOL     OW19450   3.022   2.217   8.431  0.3741  0.2723 -0.1109
 2663SOL    HW119451   2.964   2.284   8.397  0.5189 -0.6855 -2.3093
 2663SOL    HW219452   2.960   2.162   8.479 -0.0348  1.2815  0.5104
 2664SOL     OW19453   2.411   4.229   9.185 -0.0586  0.2161 -0.5109
 2664SOL    HW119454   2.453   4.296   9.240 -0.9089 -0.5459  1.0924
 2664SOL    HW219455   2.492   4.200   9.144 -0.0993 -1.7326  0.7863
 2665SOL     OW19456   1.324   3.924   9.235  0.2791 -0.3175 -0.1583
 2665SOL    HW119457   1.230   3.905   9.235  0.2208 -0.0718 -0.9212
 2665SOL    HW219458   1.331   3.935   9.140  1.5151  0.0122 -0.0288
 2666SOL     OW19459   1.311   3.018   4.306 -0.7335 -0.0702  0.2309
 2666SOL    HW119460   1.257   3.046   4.380 -1.1003 -0.6204  0.1670
 2666SOL    HW219461   1.367   2.952   4.346 -1.8625 -1.8034 -1.0614
 2667SOL     OW19462   3.960   2.050   3.228  0.1601  0.5543 -0.3149
 2667SOL    HW119463   3.965   1.956   3.245 -0.0342  0.5412 -0.3209
 2667SOL    HW219464   3.865   2.061   3.240  0.2104 -1.2513  1.6556
 2668SOL     OW19465   1.585   2.807   8.491  0.1830  0.8721  0.3692
 2668SOL    HW119466   1.665   2.859   8.502  1.9277 -1.1926 -2.2855
 2668SOL    HW219467   1.587   2.799   8.395  1.3930 -0.9821  0.5500
 2669SOL     OW19468   1.221   0.061   8.142 -0.0907 -0.4763  0.1244
 2669SOL    HW119469   1.190   0.110   8.218 -0.2444 -3.0552  1.7382
 2669SOL    HW219470   1.137   0.029   8.108 -0.6611 -0.4011  1.4694
 2670SOL     OW19471   0.645   3.361   6.166 -0.0760 -0.1441  0.3123
 2670SOL    HW119472   0.706   3.356   6.240 -2.2632 -2.5084  1.9312
 2670SOL    HW219473   0.694   3.407   6.097 -0.1893  0.5482  0.6869
 2671SOL     OW19474   4.250   1.585  14.381  0.2813 -0.2101  0.2390
 2671SOL    HW119475   4.333   1.557  14.418  1.3597  2.0773 -0.4792
 2671SOL    HW219476   4.199   1.545  14.451  0.7068  0.7891  1.1125
 2672SOL     OW19477   1.421   0.895   5.261  0.2027  0.7398 -0.0306
 2672SOL    HW119478   1.477   0.824   5.230  1.0979  0.8250  1.4173
 2672SOL    HW219479   1.397   0.930   5.175 -1.0987 -1.0057 -0.3789
 2673SOL     OW19480   0.671   4.073   3.432 -0.2056 -0.4980  0.4305
 2673SOL    HW119481   0.668   3.987   3.475 -0.7079 -1.3991 -1.4274
 2673SOL    HW219482   0.692   4.132   3.504 -3.3236  0.4728  0.5443
 2674SOL     OW19483   1.302   3.955   7.106  0.7273 -0.1792  0.0826
 2674SOL    HW119484   1.218   3.972   7.151  1.1150 -3.0388  1.9080
 2674SOL    HW219485   1.301   4.042   7.065  1.6023  0.0333  0.5188
 2675SOL     OW19486   0.836   0.395   9.576 -0.2429 -0.3107 -0.2191
 2675SOL    HW119487   0.751   0.351   9.576 -0.9903  1.1072 -2.9803
 2675SOL    HW219488   0.847   0.411   9.482 -0.4860 -0.4870 -0.2760
 2676SOL     OW19489   2.175   0.153  15.004  0.5739  0.3031  0.4429
 2676SOL    HW119490   2.254   0.099  15.015 -1.0910 -1.7494  2.1514
 2676SOL    HW219491   2.129   0.104  14.936 -0.5578  0.2689  1.2313
 2677SOL     OW19492   0.146   3.499  11.944  0.3827 -0.3457 -0.0315
 2677SOL    HW119493   0.148   3.404  11.956  1.6361 -0.3631 -0.3510
 2677SOL    HW219494   0.235   3.507  11.908  0.9517 -1.1502  1.2048
 2678SOL     OW19495   0.467   3.349  17.023 -0.2736  0.1604  0.1138
 2678SOL    HW119496   0.505   3.423  17.071  1.2331  0.1078 -1.0287
 2678SOL    HW219497   0.410   3.310  17.090 -1.6423  2.4805  0.2891
 2679SOL     OW19498   2.632   2.426   8.485 -0.5553 -0.4128  0.1420
 2679SOL    HW119499   2.573   2.404   8.557  0.6143  1.7394  1.7620
 2679SOL    HW219500   2.582   2.492   8.436 -1.3033 -1.1248 -0.0459
 2680SOL     OW19501   2.488   4.446   2.660 -0.8559 -0.3203  0.0754
 2680SOL    HW119502   2.485   4.542   2.656 -2.6990 -0.3699  0.2685
 2680SOL    HW219503   2.543   4.432   2.583 -1.1967  3.2749 -0.8594
 2681SOL     OW19504   2.109   4.100   8.682 -0.1275 -0.0774  0.5676
 2681SOL    HW119505   2.040   4.166   8.677  1.0167  0.9893 -1.3363
 2681SOL    HW219506   2.141   4.113   8.592  0.4700 -1.2367  0.5997
 2682SOL     OW19507   1.561   0.492   5.463  0.1514  0.1164  0.5128
 2682SOL    HW119508   1.509   0.417   5.435  3.5150 -2.2585  0.5652
 2682SOL    HW219509   1.642   0.456   5.427  0.1778  0.5047  0.1844
 2683SOL     OW19510   0.714   1.185   1.150  0.5054 -0.5787 -0.5337
 2683SOL    HW119511   0.705   1.114   1.214 -0.6994 -0.5595 -0.6726
 2683SOL    HW219512   0.788   1.170   1.091 -0.3806 -0.4329 -1.6824
 2684SOL     OW19513   0.939   1.514  10.563 -0.1359  0.6963 -0.4735
 2684SOL    HW119514   0.870   1.544  10.503  1.8820  1.5239 -2.3674
 2684SOL    HW219515   0.893   1.526  10.646  0.4386  1.5058 -0.2793
 2685SOL     OW19516   2.246   2.158   2.230 -0.4410  0.2608  0.1393
 2685SOL    HW119517   2.273   2.181   2.141 -0.7829  2.4224  0.5829
 2685SOL    HW219518   2.160   2.198   2.245 -0.3462  0.6739 -0.4363
 2686SOL     OW19519   3.701   3.568   4.192  0.4114  0.3755 -0.5482
 2686SOL    HW119520   3.681   3.612   4.110 -1.6169 -0.3018 -0.4062
 2686SOL    HW219521   3.644   3.623   4.246  0.0578 -0.2235 -0.3180
 2687SOL     OW19522   1.910   4.102   7.281 -0.2611  0.4052 -0.0740
 2687SOL    HW119523   1.865   4.181   7.311  0.2509 -0.1510  2.2042
 2687SOL    HW219524   1.981   4.097   7.346  0.1207 -2.3662 -0.7115
 2688SOL     OW19525   2.996   2.694   6.044  0.4338  0.3656 -0.4792
 2688SOL    HW119526   3.051   2.761   6.005  2.9531 -0.9636  0.7674
 2688SOL    HW219527   2.909   2.733   6.035 -0.2759 -0.5714  2.1271
 2689SOL     OW19528   2.531   4.515   8.240  0.2627  0.3598 -0.5354
 2689SOL    HW119529   2.564   4.506   8.151 -0.9700 -0.2582 -0.9209
 2689SOL    HW219530   2.553   4.434   8.286 -2.6331  0.2322  0.6186
 2690SOL     OW19531   3.278   1.066  14.648 -0.0332 -0.2437 -0.5502
 2690SOL    HW119532   3.240   1.025  14.570  2.4775  0.3852 -2.0766
 2690SOL    HW219533   3.306   0.994  14.704 -1.1217  1.1827  1.8516
 2691SOL     OW19534   3.734   1.294   6.450 -0.5527  0.0470  1.0974
 2691SOL    HW119535   3.676   1.366   6.424 -0.5742 -0.6357 -0.7114
 2691SOL    HW219536   3.808   1.336   6.494  0.0181  1.5392 -1.2523
 2692SOL     OW19537   0.702   2.885   3.547  0.0212  0.3849  0.0300
 2692SOL    HW119538   0.692   2.918   3.457 -1.3947 -1.0640 -0.3367
 2692SOL    HW219539   0.673   2.796   3.530 -2.2437  0.9278  1.1097
 2693SOL     OW19540   1.883   0.165   1.538 -0.1407 -0.0900 -0.4993
 2693SOL    HW119541   1.929   0.146   1.456  0.2454  0.6670 -0.4605
 2693SOL    HW219542   1.892   0.260   1.539  2.7994 -0.3728  1.4488
 2694SOL     OW19543   0.748   1.572  11.153 -0.1947 -0.0655  0.2187
 2694SOL    HW119544   0.670   1.518  11.140 -1.2611  1.4118  0.5829
 2694SOL    HW219545   0.759   1.541  11.243  0.0383 -0.2882  0.1136
 2695SOL     OW19546   0.595   4.654  14.889  0.1010 -0.2603  0.6597
 2695SOL    HW119547   0.576   4.628  14.979 -0.2886  0.0649  0.6722
 2695SOL    HW219548   0.534   0.005  14.883 -1.5916 -1.9053 -2.0924
 2696SOL     OW19549   2.358   1.774   4.814 -0.1327 -0.0884  0.5700
 2696SOL    HW119550   2.280   1.793   4.866 -0.7318  2.5627 -1.2640
 2696SOL    HW219551   2.319   1.703   4.764  0.1286  0.1397  0.0387
 2697SOL     OW19552   3.495   0.630  13.812  0.0885 -0.3303 -0.3219
 2697SOL    HW119553   3.518   0.612  13.903  1.0894 -0.1773 -0.5435
 2697SOL    HW219554   3.568   0.687  13.787 -0.2970 -0.2292 -1.2363
 2698SOL     OW19555   3.366   1.708   9.513 -0.1065  0.0730 -0.2689
 2698SOL    HW119556   3.441   1.738   9.565  0.5774 -0.7282 -0.7874
 2698SOL    HW219557   3.294   1.731   9.572  0.6416 -1.0683  1.1005
 2699SOL     OW19558   2.930   3.326   7.862  0.1881  0.0941 -0.1025
 2699SOL    HW119559   2.931   3.382   7.785 -0.1804  1.2453  0.7232
 2699SOL    HW219560   2.963   3.256   7.806  4.1087  0.7838  1.3803
 2700SOL     OW19561   2.350   2.192   2.858  0.6129  0.5395  0.1411
 2700SOL    HW119562   2.391   2.274   2.885  0.9931  0.7434 -1.0386
 2700SOL    HW219563   2.332   2.144   2.939  0.1367  1.2335  0.4455
 2701SOL     OW19564   1.305   3.741  17.170 -0.1315  0.3182  0.3694
 2701SOL    HW119565   1.290   3.669  17.110  1.5516  1.5409 -1.5267
 2701SOL    HW219566   1.391   3.768  17.137 -0.5789  2.2941  0.7931
 2702SOL     OW19567   2.000   0.862   7.509  0.2598  0.1961  0.2581
 2702SOL    HW119568   2.050   0.782   7.523 -0.4268 -0.1496  0.7673
 2702SOL    HW219569   2.061   0.913   7.456  0.0713  1.7459  1.5427
 2703SOL     OW19570   0.868   2.387   4.781 -0.5609  0.0622 -0.6971
 2703SOL    HW119571   0.809   2.412   4.710 -1.2669  2.7030  0.7772
 2703SOL    HW219572   0.831   2.447   4.847  1.7606 -0.1984  0.8640
 2704SOL     OW19573   2.275   4.305  16.623 -0.1072  0.4179  0.4956
 2704SOL    HW119574   2.256   4.365  16.695 -4.5525 -2.3634  1.6725
 2704SOL    HW219575   2.210   4.242  16.653 -1.0178  0.2577 -1.8865
 2705SOL     OW19576   4.248   3.009  11.719  0.3452 -0.3960 -0.5025
 2705SOL    HW119577   4.249   3.040  11.629 -1.4956  0.1556 -0.3320
 2705SOL    HW219578   4.162   2.969  11.732  0.6202 -0.6976  0.3471
 2706SOL     OW19579   0.811   3.440   8.978 -0.3060  0.1605  0.7053
 2706SOL    HW119580   0.728   3.397   8.999  0.5388  0.2771  4.1444
 2706SOL    HW219581   0.837   3.408   8.892 -1.2095  3.7358 -0.9304
 2707SOL     OW19582   1.780   3.448   0.875  0.0240  0.6996  0.2955
 2707SOL    HW119583   1.689   3.455   0.903  0.4434 -2.7715  2.3907
 2707SOL    HW219584   1.798   3.355   0.888 -0.6241  0.8192  2.0566
 2708SOL     OW19585   1.080   2.905   7.373  0.0887  0.6921  0.0814
 2708SOL    HW119586   1.054   2.916   7.464 -0.3319 -0.8027  0.1428
 2708SOL    HW219587   1.060   2.812   7.365 -1.0025  0.7538  2.0086
 2709SOL     OW19588   2.954   0.243   6.584 -0.2612 -0.3461 -0.1925
 2709SOL    HW119589   2.902   0.185   6.640 -1.4716  0.1209 -0.8292
 2709SOL    HW219590   2.963   0.191   6.505 -1.0853 -0.5350 -0.1688
 2710SOL     OW19591   1.157   4.323   4.034  0.5072  0.2651  0.3473
 2710SOL    HW119592   1.215   4.399   4.032  0.8881 -0.0565 -0.8675
 2710SOL    HW219593   1.223   4.253   4.036  0.0413 -0.1005  2.9388
 2711SOL     OW19594   2.689   1.772   7.946  0.8127  0.2126 -0.7039
 2711SOL    HW119595   2.729   1.748   8.030  3.4120 -2.7150 -2.7931
 2711SOL    HW219596   2.765   1.771   7.889  1.8272  0.5596  0.6326
 2712SOL     OW19597   4.328   1.201   1.674  0.0660  0.3437 -0.0564
 2712SOL    HW119598   4.383   1.269   1.713  0.1257 -0.3669  1.1199
 2712SOL    HW219599   4.383   1.157   1.609  1.1466  0.4124  0.8028
 2713SOL     OW19600   2.349   3.162   1.934  0.5162 -0.1979 -0.1298
 2713SOL    HW119601   2.284   3.221   1.973  0.4272 -1.2667  1.3088
 2713SOL    HW219602   2.425   3.220   1.943  2.2108 -2.2606 -1.1745
 2714SOL     OW19603   0.010   2.241  15.013  0.3087 -0.5661 -0.4178
 2714SOL    HW119604   0.065   2.313  14.980 -1.0121  0.0488 -1.2732
 2714SOL    HW219605   0.070   2.220  15.085  1.5891 -1.7995 -1.8468
 2715SOL     OW19606   0.906   3.218  11.658  0.0069  0.3216 -0.4577
 2715SOL    HW119607   0.848   3.142  11.667 -0.6190  0.6466 -1.8678
 2715SOL    HW219608   0.907   3.244  11.750 -3.3464 -0.9866 -0.0187
 2716SOL     OW19609   2.269   0.086   6.203 -0.1118 -0.4461  0.0158
 2716SOL    HW119610   2.193   0.039   6.167 -0.9940  0.3104  0.8805
 2716SOL    HW219611   2.226   0.158   6.249 -0.8139  0.8425 -2.6227
 2717SOL     OW19612   1.815   4.403  13.326  0.0077  0.0857  0.0159
 2717SOL    HW119613   1.907   4.396  13.303 -0.5957 -3.1347 -1.3817
 2717SOL    HW219614   1.802   4.475  13.263 -1.0218 -0.3316 -0.2603
 2718SOL     OW19615   1.701   3.298   3.906 -0.2849 -0.3173  0.2557
 2718SOL    HW119616   1.672   3.358   3.836  0.5204  2.1247  2.0491
 2718SOL    HW219617   1.625   3.239   3.908 -1.6539  1.3728 -0.9791
 2719SOL     OW19618   0.818   0.828   8.267  0.0841 -0.4253 -0.0007
 2719SOL    HW119619   0.744   0.827   8.207  0.6622 -0.9637 -0.6969
 2719SOL    HW219620   0.890   0.813   8.206  0.1528 -0.4146  0.0775
 2720SOL     OW19621   1.706   0.504  16.696 -0.3605 -0.4928  0.1560
 2720SOL    HW119622   1.670   0.563  16.762 -0.4778 -0.4361  0.0402
 2720SOL    HW219623   1.642   0.518  16.626 -0.3575  0.6732  0.3853
 2721SOL     OW19624   0.107   4.200   6.515 -0.6592  0.2398 -0.3039
 2721SOL    HW119625   0.185   4.226   6.466  0.3996 -0.5641  0.9564
 2721SOL    HW219626   0.066   4.130   6.464 -1.3031  0.5519 -0.2028
 2722SOL     OW19627   2.165   3.190   2.459  0.6111  0.3375 -0.4106
 2722SOL    HW119628   2.107   3.125   2.420  1.6714  0.1479 -1.6768
 2722SOL    HW219629   2.137   3.263   2.404 -1.4694  0.0017  0.2339
 2723SOL     OW19630   4.475   1.153  15.790  0.4109 -0.0427  0.3497
 2723SOL    HW119631   4.555   1.107  15.765  0.7505  0.2791  0.8348
 2723SOL    HW219632   4.420   1.082  15.758  0.5697 -1.0169  2.2587
 2724SOL     OW19633   4.495   0.752   1.498 -0.2281 -0.1037 -0.6379
 2724SOL    HW119634   4.540   0.749   1.582  1.4631  1.7872 -1.4674
 2724SOL    HW219635   4.553   0.690   1.453 -0.0228 -0.3462 -0.0411
 2725SOL     OW19636   0.134   4.174   5.731 -0.2222 -0.1998  0.3176
 2725SOL    HW119637   0.076   4.114   5.684  0.9415  0.2722 -1.7054
 2725SOL    HW219638   0.067   4.233   5.765  0.6400 -0.5337  2.5964
 2726SOL     OW19639   1.196   4.505   5.684 -0.1576  0.0354  0.0981
 2726SOL    HW119640   1.283   4.523   5.721 -0.6844  2.0049  0.3819
 2726SOL    HW219641   1.144   4.469   5.755  1.1054  0.5752  1.3035
 2727SOL     OW19642   3.448   1.700  15.094  0.5128  0.0219 -0.1532
 2727SOL    HW119643   3.394   1.622  15.108 -1.5081  1.6404  0.9289
 2727SOL    HW219644   3.528   1.659  15.061  1.2220  0.9226  0.4636
 2728SOL     OW19645   3.978   2.816  11.349 -0.0690  0.0311  0.3039
 2728SOL    HW119646   3.974   2.802  11.443  1.1663  0.2425  0.3872
 2728SOL    HW219647   3.975   2.910  11.329 -0.6384 -0.2714 -1.0564
 2729SOL     OW19648   2.578   4.394  16.013  0.1118 -0.3848  0.0398
 2729SOL    HW119649   2.565   4.337  16.089  3.3322  0.5732  1.3514
 2729SOL    HW219650   2.635   4.458  16.056 -1.4313  0.3105  1.0603
 2730SOL     OW19651   2.796   4.015   5.894 -0.8674  0.0981 -0.1323
 2730SOL    HW119652   2.745   3.960   5.954  0.4114 -1.4854 -0.4928
 2730SOL    HW219653   2.761   3.981   5.811 -2.5514 -1.4357  1.2065
 2731SOL     OW19654   0.928   1.476   4.041 -0.1289  0.2147 -0.0396
 2731SOL    HW119655   0.992   1.425   3.992 -1.1769 -2.2281  1.1134
 2731SOL    HW219656   0.982   1.554   4.050  1.0942 -0.7334  0.9154
 2732SOL     OW19657   0.530   1.105  12.661 -0.1179  0.3392 -0.0142
 2732SOL    HW119658   0.469   1.051  12.711  0.9163 -0.3613  0.4829
 2732SOL    HW219659   0.611   1.094  12.710 -1.3128 -0.8971  1.6939
 2733SOL     OW19660   2.225   0.889   4.165 -0.6648  0.0389 -0.4597
 2733SOL    HW119661   2.155   0.830   4.193 -0.0915 -0.6582 -0.4665
 2733SOL    HW219662   2.235   0.845   4.080  0.9405  0.8015 -0.6670
 2734SOL     OW19663   0.461   1.328   7.362 -0.4655 -0.1563  0.2331
 2734SOL    HW119664   0.475   1.423   7.358 -0.1059 -0.1723  1.2145
 2734SOL    HW219665   0.550   1.307   7.392 -0.8285  0.7399  1.9498
 2735SOL     OW19666   1.139   2.692   9.906 -0.1621  0.4833 -0.5226
 2735SOL    HW119667   1.174   2.774   9.871  1.3349  0.5831  1.1965
 2735SOL    HW219668   1.116   2.641   9.829 -2.1274  2.0504 -0.9923
 2736SOL     OW19669   2.777   3.449   7.522 -0.0344 -0.4522 -0.6438
 2736SOL    HW119670   2.863   3.486   7.543 -1.0208  2.2384 -1.3080
 2736SOL    HW219671   2.777   3.366   7.569 -0.8210 -0.9776 -1.5708
 2737SOL     OW19672   1.983   3.558  11.288 -0.2748  0.2214 -0.0468
 2737SOL    HW119673   1.968   3.576  11.381 -0.2533 -1.1058  0.2165
 2737SOL    HW219674   2.019   3.470  11.289  0.5070  0.5553  0.8987
 2738SOL     OW19675   2.072   3.143   1.562 -0.4394  0.1083  0.3614
 2738SOL    HW119676   2.157   3.180   1.585 -0.4291 -0.2519  0.8876
 2738SOL    HW219677   2.095   3.051   1.576 -2.0519 -0.3269  0.1091
 2739SOL     OW19678   4.294   3.872   3.683 -0.0872 -0.1566  0.4916
 2739SOL    HW119679   4.300   3.847   3.591 -1.7205  2.2013 -0.2709
 2739SOL    HW219680   4.386   3.862   3.705  0.4911  2.3412 -0.7594
 2740SOL     OW19681   3.674   2.438   3.734  0.4542 -0.0135  0.1276
 2740SOL    HW119682   3.675   2.531   3.715 -2.0455  0.0245  0.1646
 2740SOL    HW219683   3.706   2.445   3.824 -1.1146 -0.6755  0.7341
 2741SOL     OW19684   3.725   4.020   1.201 -0.5966  0.0644  0.1134
 2741SOL    HW119685   3.807   4.033   1.154  0.3960 -0.7911  1.5982
 2741SOL    HW219686   3.734   3.931   1.233  1.9715  0.1542 -0.3959
 2742SOL     OW19687   4.423   3.593   5.657 -0.0515 -0.0386  0.0962
 2742SOL    HW119688   4.494   3.531   5.642 -0.7971 -0.1741 -2.9259
 2742SOL    HW219689   4.347   3.541   5.683  0.7177 -0.4992  1.4222
 2743SOL     OW19690   0.348   0.609   4.686  0.8014 -0.6453 -0.3496
 2743SOL    HW119691   0.343   0.702   4.665  0.0839 -0.4791  0.5513
 2743SOL    HW219692   0.388   0.610   4.772  0.0265 -0.8579  0.0133
 2744SOL     OW19693   0.739   0.641   4.723 -0.2980  0.3446 -0.0519
 2744SOL    HW119694   0.720   0.695   4.647 -0.7169 -0.4865 -0.5419
 2744SOL    HW219695   0.656   0.640   4.771  0.5068 -2.9124  1.2992
 2745SOL     OW19696   4.637   1.254   5.840  0.2548  0.0611  0.2444
 2745SOL    HW119697   4.567   1.314   5.813  0.6146 -0.1362 -1.1590
 2745SOL    HW219698   4.587   1.192   5.894 -1.5234  1.0689 -0.2186
 2746SOL     OW19699   3.742   4.508   7.767 -0.5458 -0.1629 -0.4983
 2746SOL    HW119700   3.785   4.594   7.759 -0.0627 -0.3922 -0.3279
 2746SOL    HW219701   3.752   4.470   7.680  2.3561 -0.4611 -0.0228
 2747SOL     OW19702   4.040   3.743  14.566  0.1193 -0.3201 -0.2647
 2747SOL    HW119703   4.018   3.729  14.658 -0.4784 -1.8524 -0.6398
 2747SOL    HW219704   4.132   3.717  14.569 -0.2418 -1.2258  2.5241
 2748SOL     OW19705   1.015   2.697   2.886  0.2551 -0.6897  0.8023
 2748SOL    HW119706   1.075   2.679   2.814  1.1732  0.8657  1.1832
 2748SOL    HW219707   0.934   2.712   2.837  0.2440  1.3986  1.4558
 2749SOL     OW19708   0.396   4.355   6.946 -0.0299 -0.3135 -0.0610
 2749SOL    HW119709   0.374   4.418   6.878  1.9666  1.5534  1.0575
 2749SOL    HW219710   0.452   4.294   6.899  1.1432  0.9995 -0.3493
 2750SOL     OW19711   0.600   3.883  10.684 -0.5466 -0.5371  0.4161
 2750SOL    HW119712   0.695   3.884  10.693 -0.3022  0.8891 -2.1107
 2750SOL    HW219713   0.574   3.795  10.656 -2.4204 -0.2709  1.3627
 2751SOL     OW19714   3.839   4.123   8.645  0.3526  0.2963  0.1739
 2751SOL    HW119715   3.919   4.073   8.636  0.7123  1.2177 -1.7367
 2751SOL    HW219716   3.791   4.109   8.563  2.3293 -0.5904 -0.8237
 2752SOL     OW19717   1.471   1.768   3.871  0.4507  0.0627  0.1164
 2752SOL    HW119718   1.469   1.675   3.848 -1.0563  0.4066 -1.1129
 2752SOL    HW219719   1.379   1.790   3.857  0.1734 -0.6787  0.7216
 2753SOL     OW19720   0.777   1.822   4.220  0.1470  0.1743 -0.0353
 2753SOL    HW119721   0.705   1.770   4.258  1.2539 -2.0405 -0.9559
 2753SOL    HW219722   0.769   1.897   4.279 -0.7147  0.1564 -0.1200
 2754SOL     OW19723   2.846   1.293  14.710  0.3095  0.1193  0.1404
 2754SOL    HW119724   2.781   1.354  14.675  1.8975  0.9174 -1.4411
 2754SOL    HW219725   2.861   1.234  14.636  0.5980  0.1479  0.1747
 2755SOL     OW19726   0.929   4.564  16.472  0.0473 -0.2105  0.1217
 2755SOL    HW119727   0.932   4.518  16.388  0.4913 -0.0437  0.0452
 2755SOL    HW219728   0.981   4.507  16.529 -2.4167 -2.1594  0.4296
 2756SOL     OW19729   1.463   2.740   5.492 -0.2087 -0.1866 -0.3839
 2756SOL    HW119730   1.522   2.665   5.499 -0.1758 -0.2979 -1.9296
 2756SOL    HW219731   1.374   2.705   5.488 -1.0774  2.0152 -0.2531
 2757SOL     OW19732   4.288   0.971   4.429 -0.0320 -0.5442 -0.1316
 2757SOL    HW119733   4.249   0.971   4.517 -1.8992  1.9277 -0.9657
 2757SOL    HW219734   4.352   1.039   4.446 -1.0654  0.5288 -0.5586
 2758SOL     OW19735   2.608   1.504   4.565  0.0257  0.3761 -0.2316
 2758SOL    HW119736   2.512   1.502   4.557  0.0398 -0.3850 -0.2024
 2758SOL    HW219737   2.618   1.555   4.645 -0.1047  0.2987 -0.1668
 2759SOL     OW19738   3.948   1.126   4.622  0.0903 -0.2894  0.1938
 2759SOL    HW119739   3.890   1.144   4.547  0.2204  2.9717  0.8576
 2759SOL    HW219740   3.904   1.052   4.664 -0.1633 -0.2111  0.0707
 2760SOL     OW19741   4.617   2.219   4.714  0.4373 -0.5754  0.1215
 2760SOL    HW119742   4.549   2.187   4.655  0.8585 -0.5258 -0.4001
 2760SOL    HW219743   4.617   2.145   4.775 -1.0105 -1.0356 -0.4399
 2761SOL     OW19744   2.805   4.680  10.035 -0.8506 -0.0920 -0.4972
 2761SOL    HW119745   2.837   4.619  10.102  0.6159  0.9848 -0.2208
 2761SOL    HW219746   2.743   4.622   9.991  0.0594 -0.8689 -0.7623
 2762SOL     OW19747   2.069   3.044   8.016 -0.2875  0.3222 -0.5395
 2762SOL    HW119748   2.067   3.098   8.096  1.2705 -0.3833 -0.0238
 2762SOL    HW219749   2.163   3.028   8.011 -0.9244 -3.2474 -0.8141
 2763SOL     OW19750   2.726   3.170   3.664  0.8991  0.1725  0.0770
 2763SOL    HW119751   2.707   3.249   3.612  0.9621  1.2952  1.7466
 2763SOL    HW219752   2.637   3.153   3.695  0.4904  1.9063 -0.1070
 2764SOL     OW19753   0.328   4.478   4.789 -0.4842 -0.5720 -0.0630
 2764SOL    HW119754   0.242   4.449   4.820 -0.7525  0.4360  0.1566
 2764SOL    HW219755   0.385   4.405   4.811  1.4819  0.6546 -1.0316
 2765SOL     OW19756   1.019   3.481  13.532 -0.7398  0.1348 -0.6592
 2765SOL    HW119757   0.932   3.455  13.505 -0.2799 -2.2156  0.1494
 2765SOL    HW219758   1.011   3.484  13.628  0.9713 -0.6693 -0.4861
 2766SOL     OW19759   3.309   2.041   9.779 -0.1667 -0.0639 -0.3137
 2766SOL    HW119760   3.341   1.951   9.776  1.2843  0.4690 -0.9487
 2766SOL    HW219761   3.297   2.060   9.686  0.0646  0.2006 -0.2888
 2767SOL     OW19762   2.754   3.388   9.052 -0.0364  0.0654  0.3335
 2767SOL    HW119763   2.782   3.324   8.986 -1.1488  0.9211 -0.9784
 2767SOL    HW219764   2.682   3.346   9.098 -1.0173  1.1200 -0.2339
 2768SOL     OW19765   2.745   0.434  11.203  0.6075  0.5477 -0.2736
 2768SOL    HW119766   2.681   0.477  11.146 -0.5230  1.6962  1.8403
 2768SOL    HW219767   2.690   0.384  11.264  1.4044 -2.0568 -1.6564
 2769SOL     OW19768   1.145   2.273   7.810 -0.0009 -0.4318  0.3600
 2769SOL    HW119769   1.236   2.251   7.790  0.0604  1.1836 -1.1632
 2769SOL    HW219770   1.096   2.193   7.791  2.3404 -1.7866  0.0007
 2770SOL     OW19771   2.510   2.320  12.243 -0.4351 -0.1318 -0.1591
 2770SOL    HW119772   2.573   2.392  12.237  0.1171 -0.4602  1.4531
 2770SOL    HW219773   2.426   2.365  12.249 -0.5767 -0.4534  0.3889
 2771SOL     OW19774   2.546   1.556   1.133 -0.0412 -0.1062 -0.1932
 2771SOL    HW119775   2.619   1.616   1.116 -0.7109  0.9480  0.6803
 2771SOL    HW219776   2.594   1.476   1.154  1.2657  0.5113 -0.8507
 2772SOL     OW19777   2.135   1.133   0.734 -0.0628  0.1563 -0.3339
 2772SOL    HW119778   2.222   1.127   0.696  0.8987  1.2409  1.6958
 2772SOL    HW219779   2.122   1.227   0.750  0.9589  0.5872 -2.0936
 2773SOL     OW19780   2.352   2.608   2.855 -0.0683  0.4810 -0.3974
 2773SOL    HW119781   2.339   2.550   2.930 -1.4786  0.4493 -0.6693
 2773SOL    HW219782   2.276   2.666   2.858 -0.5500 -0.2342  0.9619
 2774SOL     OW19783   2.627   2.526   6.455  0.5990 -0.9771 -0.7266
 2774SOL    HW119784   2.540   2.563   6.441  0.9882  0.1172 -0.2721
 2774SOL    HW219785   2.662   2.524   6.366 -0.2991 -0.3841 -1.0927
 2775SOL     OW19786   4.543   4.582   1.269  0.1267 -0.1958  0.4603
 2775SOL    HW119787   4.494   4.501   1.280 -0.5413  0.2637  0.8719
 2775SOL    HW219788   4.579   4.600   1.356  0.3275  1.3175  0.0632
 2776SOL     OW19789   0.370   4.167   5.389  0.2251  0.5573  0.1864
 2776SOL    HW119790   0.350   4.256   5.418 -1.5919  0.5220 -0.9723
 2776SOL    HW219791   0.354   4.171   5.295 -0.1302 -1.8205  0.1375
 2777SOL     OW19792   1.849   3.513   9.178 -0.3634 -0.2128  0.0626
 2777SOL    HW119793   1.771   3.535   9.229  0.5443  1.8230  0.5934
 2777SOL    HW219794   1.904   3.590   9.194  0.2653 -0.5617 -0.4592
 2778SOL     OW19795   0.607   1.992   7.958  0.2935 -0.3409  0.8289
 2778SOL    HW119796   0.659   1.912   7.972  0.7992 -0.3921 -1.3143
 2778SOL    HW219797   0.674   2.058   7.971  0.5654 -0.6693  1.0997
 2779SOL     OW19798   2.605   0.488   6.969 -0.1917  0.0703 -0.0103
 2779SOL    HW119799   2.555   0.568   6.954 -1.2315 -0.9853 -2.2976
 2779SOL    HW219800   2.650   0.516   7.049 -0.6920 -0.6928  0.5352
 2780SOL     OW19801   2.765   3.716   9.497 -0.6463 -0.2599 -0.1498
 2780SOL    HW119802   2.759   3.770   9.418  1.4866  0.2014 -0.0201
 2780SOL    HW219803   2.718   3.638   9.469 -1.4375  0.6249 -1.2860
 2781SOL     OW19804   1.202   3.050  15.677  0.2184  0.2762 -0.3914
 2781SOL    HW119805   1.251   3.009  15.749  0.3132 -0.6339 -0.9787
 2781SOL    HW219806   1.196   3.139  15.712  1.2183 -0.3424  1.3790
 2782SOL     OW19807   1.308   0.713  17.079 -0.2627 -0.3604 -0.4206
 2782SOL    HW119808   1.296   0.766  17.000 -0.1804 -0.2173 -0.3363
 2782SOL    HW219809   1.389   0.741  17.122 -1.4096  1.7874  0.3342
 2783SOL     OW19810   1.549   1.703   7.297 -0.9178  0.0955  0.2826
 2783SOL    HW119811   1.599   1.728   7.218 -0.8040  1.1410  0.6809
 2783SOL    HW219812   1.599   1.632   7.337 -1.6143 -0.4615  0.1536
 2784SOL     OW19813   2.269   0.836   3.880 -0.0122 -0.3155  0.2283
 2784SOL    HW119814   2.361   0.862   3.880  0.3929 -1.6641 -4.2147
 2784SOL    HW219815   2.272   0.763   3.818 -3.2596  1.5254 -2.1651
 2785SOL     OW19816   3.045   1.496   8.360 -0.2605  0.3738 -0.1755
 2785SOL    HW119817   2.988   1.541   8.423  0.3648  1.9236 -0.7092
 2785SOL    HW219818   3.125   1.546   8.371  0.3388 -0.4844 -0.6339
 2786SOL     OW19819   3.527   3.337   0.132 -0.8517  0.1976 -0.0245
 2786SOL    HW119820   3.527   3.430   0.156  0.8691  0.1870 -0.0136
 2786SOL    HW219821   3.620   3.318   0.140 -0.8544 -0.9658 -2.7965
 2787SOL     OW19822   0.893   4.609   3.820  0.0511 -0.5306 -0.7847
 2787SOL    HW119823   0.806   4.632   3.788  1.0336  2.8865 -0.9304
 2787SOL    HW219824   0.878   4.529   3.871 -0.3259  0.1759  0.2153
 2788SOL     OW19825   4.274   2.840   5.479  0.1765 -0.5365 -0.3726
 2788SOL    HW119826   4.203   2.846   5.415 -0.2272 -1.3113  0.0077
 2788SOL    HW219827   4.235   2.780   5.542  0.6554  0.2860  0.7007
 2789SOL     OW19828   1.975   3.687   2.338 -0.1641 -0.3930  0.0215
 2789SOL    HW119829   2.046   3.742   2.371  0.5998 -1.4462  0.1488
 2789SOL    HW219830   1.953   3.721   2.252 -0.5731  0.8900  0.6434
 2790SOL     OW19831   3.314   3.781   8.495 -0.2378 -0.3810  0.6604
 2790SOL    HW119832   3.250   3.783   8.566 -0.4164  1.0886  0.4576
 2790SOL    HW219833   3.396   3.777   8.543 -0.3613  0.8578  0.9779
 2791SOL     OW19834   4.233   0.943  14.572  0.3094  0.4330  0.0026
 2791SOL    HW119835   4.217   0.983  14.487  2.5761  0.0771 -0.5968
 2791SOL    HW219836   4.191   0.857  14.563 -1.5296  1.1280  2.2085
 2792SOL     OW19837   2.558   4.636   3.438  0.4196  0.2552 -0.3920
 2792SOL    HW119838   2.637   4.623   3.385  0.6631 -2.1042  0.5540
 2792SOL    HW219839   2.593   4.688   3.510 -0.9413  0.2712  0.2523
 2793SOL     OW19840   0.339   0.844   4.249 -0.5301 -0.6858 -0.0194
 2793SOL    HW119841   0.343   0.928   4.294 -1.3504  1.4755 -3.9045
 2793SOL    HW219842   0.369   0.865   4.160  2.2632  1.7126  1.5241
 2794SOL     OW19843   4.275   1.388   9.404  0.5077  0.3172  0.3685
 2794SOL    HW119844   4.310   1.407   9.491 -0.4445  0.9784  0.6009
 2794SOL    HW219845   4.251   1.297   9.423 -2.9594  1.2586  0.5439
 2795SOL     OW19846   2.452   1.857   9.380  0.6499  0.5945  0.1599
 2795SOL    HW119847   2.430   1.778   9.429 -1.0550  0.2310 -1.1889
 2795SOL    HW219848   2.468   1.926   9.443 -0.7013  0.2752  0.8532
 2796SOL     OW19849   2.782   4.349   2.696  0.1779  0.1160  0.7645
 2796SOL    HW119850   2.728   4.338   2.618  1.1561  0.9693 -0.0350
 2796SOL    HW219851   2.853   4.286   2.683  0.8222  0.6895  1.4313
 2797SOL     OW19852   1.411   0.281   4.038  0.3042 -0.2681 -0.1547
 2797SOL    HW119853   1.406   0.356   3.978 -1.4241 -0.6701 -0.5331
 2797SOL    HW219854   1.442   0.321   4.119  0.8288 -1.4684  0.2416
 2798SOL     OW19855   2.361   3.862   3.895  0.0214 -0.2676 -0.1515
 2798SOL    HW119856   2.412   3.924   3.947  1.8167 -0.9812 -1.0341
 2798SOL    HW219857   2.343   3.906   3.813 -2.2863  0.7289  0.8938
 2799SOL     OW19858   2.602   4.308  15.757 -0.7699 -0.5401 -0.5517
 2799SOL    HW119859   2.619   4.300  15.851  1.0552  1.1747 -0.7315
 2799SOL    HW219860   2.555   4.389  15.739 -0.2275 -0.0297  0.3612
 2800SOL     OW19861   0.212   0.381   2.055 -0.3649 -0.1604  0.3937
 2800SOL    HW119862   0.137   0.336   2.016  0.3397 -1.3216  0.3608
 2800SOL    HW219863   0.163   0.450   2.099 -0.3059  0.8303 -1.0856
 2801SOL     OW19864   2.627   0.816   5.690 -1.0678  0.3182 -0.2413
 2801SOL    HW119865   2.591   0.880   5.752  0.4465  0.0225  0.9380
 2801SOL    HW219866   2.703   0.862   5.653 -1.3833  1.4898  0.5664
 2802SOL     OW19867   2.041   4.168   0.120 -0.4498 -0.1474 -0.4141
 2802SOL    HW119868   2.028   4.090   0.173 -1.4664 -0.5310 -1.2127
 2802SOL    HW219869   1.972   4.229   0.148 -0.8424 -0.8162  0.0749
 2803SOL     OW19870   1.986   2.915   8.259 -0.3315  0.2870 -0.0988
 2803SOL    HW119871   1.983   3.004   8.293  2.7626  0.8705 -1.2851
 2803SOL    HW219872   2.003   2.946   8.170  0.3199 -1.0078 -0.4400
 2804SOL     OW19873   3.944   4.058   2.199 -0.5477 -0.1150 -0.1382
 2804SOL    HW119874   3.917   4.149   2.215  0.4973  0.0748  0.5967
 2804SOL    HW219875   3.970   4.035   2.288  0.1187 -1.6465 -0.7334
 2805SOL     OW19876   0.890   2.162   3.800 -0.3384  0.1623  0.0899
 2805SOL    HW119877   0.982   2.174   3.779 -0.0006 -1.5595  0.5945
 2805SOL    HW219878   0.889   2.132   3.891 -0.0618  0.6793  0.2611
 2806SOL     OW19879   1.714   1.600   8.566  0.0461  0.0736  0.7119
 2806SOL    HW119880   1.795   1.624   8.522  0.1664  1.6093  1.7629
 2806SOL    HW219881   1.688   1.680   8.611  0.0686 -1.2395  3.0890
 2807SOL     OW19882   0.781   0.716   7.931  0.1935 -0.1595 -0.0968
 2807SOL    HW119883   0.733   0.757   8.003  0.1759  1.7547 -1.1799
 2807SOL    HW219884   0.716   0.647   7.920 -1.6137  1.6228 -0.4895
 2808SOL     OW19885   1.217   2.383   1.852 -0.3006 -0.3570 -0.3196
 2808SOL    HW119886   1.243   2.469   1.819  1.0435  0.9998  4.2716
 2808SOL    HW219887   1.142   2.364   1.795  0.2483 -1.6080 -0.6226
 2809SOL     OW19888   1.369   2.566   1.668  0.7307  0.5626 -0.7098
 2809SOL    HW119889   1.433   2.634   1.687  1.7230 -0.6299  0.2777
 2809SOL    HW219890   1.308   2.606   1.607 -0.7349 -0.3709  0.1487
 2810SOL     OW19891   1.895   3.116   7.017  0.5419 -0.1408 -0.1217
 2810SOL    HW119892   1.988   3.095   7.016  0.4622 -0.5203  0.4723
 2810SOL    HW219893   1.898   3.212   7.020  1.1333 -0.1774  0.4395
 2811SOL     OW19894   2.659   2.158  10.363 -0.1298  0.3726 -0.4672
 2811SOL    HW119895   2.632   2.250  10.356  0.4744  0.7352  1.8418
 2811SOL    HW219896   2.665   2.128  10.272 -2.4699  0.9839 -0.8356
 2812SOL     OW19897   4.505   0.293   1.090 -0.0796  0.7890 -0.2601
 2812SOL    HW119898   4.546   0.271   1.174  0.7568  1.8746 -0.3946
 2812SOL    HW219899   4.576   0.280   1.028  0.9952 -2.4689  1.6242
 2813SOL     OW19900   2.760   1.834   2.766 -0.0456 -0.2524  0.6236
 2813SOL    HW119901   2.675   1.879   2.758  0.6177  1.2690  2.2060
 2813SOL    HW219902   2.783   1.811   2.676  1.2078 -0.9738  1.1318
 2814SOL     OW19903   2.720   2.570   4.029 -0.0564 -0.9296 -0.0023
 2814SOL    HW119904   2.660   2.548   3.958 -1.3077  1.3627  0.3168
 2814SOL    HW219905   2.669   2.619   4.094  1.1885 -0.7612  0.8593
 2815SOL     OW19906   4.491   3.161  11.570 -0.0391 -0.1940 -0.2288
 2815SOL    HW119907   4.456   3.072  11.562 -1.8486  0.4171  0.9492
 2815SOL    HW219908   4.515   3.166  11.663  0.9620 -0.4605 -0.4720
 2816SOL     OW19909   0.844   2.817  15.116  0.1725  0.2324 -0.0144
 2816SOL    HW119910   0.915   2.839  15.057 -0.6953  0.5258 -0.9542
 2816SOL    HW219911   0.874   2.858  15.197  1.2734  1.0236 -0.8225
 2817SOL     OW19912   1.857   2.000   6.917 -0.1870 -0.1849 -0.0187
 2817SOL    HW119913   1.939   2.046   6.937  0.3692 -1.1169 -0.1683
 2817SOL    HW219914   1.814   2.065   6.860  1.1506 -0.1264 -0.9704
 2818SOL     OW19915   2.046   4.318   9.608 -0.4454  0.1235 -0.0056
 2818SOL    HW119916   2.076   4.228   9.594 -1.0233 -0.1847  0.7775
 2818SOL    HW219917   2.129   4.359   9.632  0.3493  0.7532 -3.7815
 2819SOL     OW19918   2.298   1.848   8.834  0.4412  0.3726 -0.5779
 2819SOL    HW119919   2.379   1.822   8.791 -0.1444 -2.6390  0.1193
 2819SOL    HW219920   2.301   1.787   8.908  0.8376  1.1025  0.0103
 2820SOL     OW19921   3.165   2.615   1.827 -0.1438 -0.5149  0.2262
 2820SOL    HW119922   3.075   2.588   1.846 -0.2683 -1.3422 -1.5356
 2820SOL    HW219923   3.187   2.572   1.744 -1.8827 -0.1247 -0.4293
 2821SOL     OW19924   2.244   2.638  12.771 -0.3276  0.2864  0.1185
 2821SOL    HW119925   2.317   2.689  12.736 -1.2065  1.8964  0.6731
 2821SOL    HW219926   2.177   2.706  12.767 -2.1816 -1.5460  0.3101
 2822SOL     OW19927   4.505   0.854  11.275 -0.7099 -0.0969 -0.3569
 2822SOL    HW119928   4.477   0.777  11.324  1.8109 -1.9069 -1.7371
 2822SOL    HW219929   4.587   0.869  11.323  0.0382  0.8925 -1.9208
 2823SOL     OW19930   4.396   4.228   4.301  0.0854 -0.3022  0.1609
 2823SOL    HW119931   4.466   4.267   4.248  1.7216  0.2538  2.7422
 2823SOL    HW219932   4.326   4.246   4.239 -0.6387 -1.3474  0.6819
 2824SOL     OW19933   2.915   2.527   1.889 -0.0998 -0.2102 -0.1482
 2824SOL    HW119934   2.865   2.531   1.808 -2.0167 -0.4329  1.0297
 2824SOL    HW219935   2.927   2.433   1.896 -1.0139 -0.4363 -1.8515
 2825SOL     OW19936   4.537   1.777   7.558 -0.6174 -0.1700 -0.1705
 2825SOL    HW119937   4.607   1.715   7.580 -0.3348  0.0765 -0.3631
 2825SOL    HW219938   4.476   1.761   7.629  1.5463  2.1839  2.2425
 2826SOL     OW19939   0.821   1.860   2.454 -0.1042  0.4081  0.0945
 2826SOL    HW119940   0.875   1.898   2.385  1.3008 -2.6027 -0.4360
 2826SOL    HW219941   0.792   1.783   2.405  1.1097 -0.1368  0.2197
 2827SOL     OW19942   1.817   0.889   3.845  0.1486 -0.5620  0.5139
 2827SOL    HW119943   1.888   0.825   3.844 -0.6532 -1.4549  1.4470
 2827SOL    HW219944   1.853   0.944   3.775  1.0147 -2.0997 -0.2508
 2828SOL     OW19945   2.948   4.715  15.138  0.2460 -0.2675 -0.0036
 2828SOL    HW119946   2.975   0.084  15.141 -2.0834  0.4224 -0.2858
 2828SOL    HW219947   2.862   0.006  15.178 -1.2041 -5.2990 -1.3514
 2829SOL     OW19948   3.393   0.143   2.441  0.0343 -0.3555 -0.3718
 2829SOL    HW119949   3.447   0.182   2.372  0.4924  0.2714  0.3488
 2829SOL    HW219950   3.464   0.096   2.484  0.6885  0.4053 -0.6236
 2830SOL     OW19951   3.062   1.099   9.061 -0.2700 -0.2062 -0.4182
 2830SOL    HW119952   3.149   1.125   9.092 -1.6904  2.2239  1.4764
 2830SOL    HW219953   3.059   1.009   9.091 -1.4817 -0.2125 -0.5472
 2831SOL     OW19954   2.277   2.016   0.129  0.3863 -0.0468  0.2196
 2831SOL    HW119955   2.363   2.014   0.171  0.4682  1.8549  0.1579
 2831SOL    HW219956   2.219   2.032   0.202 -1.0552  0.2715 -0.9977
 2832SOL     OW19957   3.015   0.650   0.602  0.3648  0.2450 -0.5350
 2832SOL    HW119958   3.074   0.635   0.529  0.8073 -2.1080  0.3069
 2832SOL    HW219959   2.970   0.566   0.602 -1.9328  1.4554 -1.9191
 2833SOL     OW19960   0.549   4.537  17.010  0.1120 -0.0781 -0.1839
 2833SOL    HW119961   0.467   4.586  17.016  0.1086  0.2947 -3.4208
 2833SOL    HW219962   0.608   4.605  16.977 -1.0607  0.4772 -1.1321
 2834SOL     OW19963   4.606   1.427  16.413  0.0301 -0.2218 -0.1330
 2834SOL    HW119964   4.698   1.451  16.406 -0.6483  2.0330 -1.4804
 2834SOL    HW219965   4.584   1.464  16.499 -1.2523 -0.0282 -0.5378
 2835SOL     OW19966   1.834   2.152   1.579 -1.1137 -0.2323 -0.0617
 2835SOL    HW119967   1.886   2.114   1.508 -3.2457  0.9679 -2.2920
 2835SOL    HW219968   1.814   2.071   1.626  0.8669 -0.4113  0.4611
 2836SOL     OW19969   2.688   4.231   5.040  1.3154 -0.2674  0.2181
 2836SOL    HW119970   2.717   4.178   4.966  0.9998  1.0667 -0.8735
 2836SOL    HW219971   2.686   4.163   5.107 -0.2094 -0.6278 -0.1932
 2837SOL     OW19972   2.306   2.585   5.936 -0.3671 -0.1824  0.1984
 2837SOL    HW119973   2.319   2.679   5.920  0.0153 -0.2814 -0.0481
 2837SOL    HW219974   2.395   2.557   5.919 -0.7437 -0.5112 -1.2487
 2838SOL     OW19975   3.916   2.752  10.852  0.0896  0.2284 -0.8341
 2838SOL    HW119976   3.953   2.710  10.930  0.4938  2.0350 -0.0661
 2838SOL    HW219977   3.850   2.811  10.887 -0.1872 -0.0986 -0.8020
 2839SOL     OW19978   1.837   3.127   4.102 -0.5398 -0.0719 -0.4660
 2839SOL    HW119979   1.768   3.171   4.054  0.8681  1.2168 -1.3108
 2839SOL    HW219980   1.791   3.059   4.152 -0.1668 -1.4554 -2.0081
 2840SOL     OW19981   1.703   0.737   9.709 -0.4962 -0.2555 -0.1325
 2840SOL    HW119982   1.733   0.744   9.618 -0.3124 -0.0613 -0.0557
 2840SOL    HW219983   1.718   0.826   9.742 -1.0323 -0.6770  1.2586
 2841SOL     OW19984   1.170   4.149   8.511 -0.5984 -0.2060  0.0495
 2841SOL    HW119985   1.099   4.144   8.575  0.3667 -0.4148  1.1157
 2841SOL    HW219986   1.128   4.125   8.429 -0.3707 -1.2536  0.2388
 2842SOL     OW19987   3.561   0.923   1.477 -0.2266  0.2638  0.3072
 2842SOL    HW119988   3.500   0.886   1.541 -0.0278  1.8077  1.3838
 2842SOL    HW219989   3.640   0.883   1.514 -1.8691 -3.7206 -0.4802
 2843SOL     OW19990   0.257   0.770  13.078  0.4842  0.1960 -0.2357
 2843SOL    HW119991   0.320   0.699  13.060  2.0332  2.0919 -2.2476
 2843SOL    HW219992   0.315   0.842  13.102 -1.3507  1.0111  1.7349
 2844SOL     OW19993   1.682   3.744  10.959 -0.5096  0.2188  0.1335
 2844SOL    HW119994   1.719   3.770  10.875  2.9708  1.1693  1.9805
 2844SOL    HW219995   1.765   3.703  10.986 -1.0076 -0.9546 -0.0972
 2845SOL     OW19996   1.182   2.777   5.666  0.8474  0.4721 -0.7643
 2845SOL    HW119997   1.185   2.844   5.735 -0.1542 -0.6046  0.3003
 2845SOL    HW219998   1.140   2.831   5.598  2.3990  0.5224 -1.6909
 2846SOL     OW19999   0.246   0.001   3.936  0.7814  0.0206 -0.0640
 2846SOL    HW120000   0.197   0.082   3.923  2.8479  1.0897 -1.2228
 2846SOL    HW220001   0.323   0.012   3.879  0.4711 -1.5857 -0.8020
 2847SOL     OW20002   4.056   4.111  16.148  0.4865 -0.7445 -0.4499
 2847SOL    HW120003   4.025   4.165  16.221  1.8287 -0.6640  0.0468
 2847SOL    HW220004   4.079   4.177  16.083  1.2253 -1.4629 -0.9149
 2848SOL     OW20005   1.276   4.544   6.092  0.1260 -0.4990  0.0350
 2848SOL    HW120006   1.218   4.498   6.031 -0.3180  0.2629 -0.1164
 2848SOL    HW220007   1.344   4.572   6.031  0.3140 -2.2601 -0.5703
 2849SOL     OW20008   0.050   1.189   2.189  0.6540 -0.5482 -0.0860
 2849SOL    HW120009   0.103   1.189   2.269  0.8955  0.6510 -0.2555
 2849SOL    HW220010   0.082   1.110   2.144 -0.3527 -1.3521  0.6265
 2850SOL     OW20011   1.458   3.435   6.233 -0.3000 -0.3745 -0.0938
 2850SOL    HW120012   1.421   3.348   6.246  0.0995 -0.5572 -0.1630
 2850SOL    HW220013   1.467   3.446   6.138  1.4656  0.7080  0.1990
 2851SOL     OW20014   1.736   3.597  12.310  0.1301 -0.0378 -0.4379
 2851SOL    HW120015   1.689   3.675  12.281 -1.1913 -0.3473  0.8528
 2851SOL    HW220016   1.826   3.630  12.313  0.4353 -0.9267  0.2818
 2852SOL     OW20017   1.018   2.704   4.832 -0.0826  0.0623 -0.3143
 2852SOL    HW120018   0.944   2.759   4.808 -0.1401 -0.3249 -1.0042
 2852SOL    HW220019   1.021   2.713   4.928 -1.3795  1.6790 -0.4235
 2853SOL     OW20020   0.384   2.257  11.514  0.0260  0.2592 -0.3121
 2853SOL    HW120021   0.429   2.327  11.560  0.3150 -0.1958  0.0927
 2853SOL    HW220022   0.348   2.211  11.590  0.9053  2.3905  1.3943
 2854SOL     OW20023   4.551   3.583   6.891 -0.1645 -0.1290 -0.1217
 2854SOL    HW120024   4.645   3.594   6.872 -0.9645  2.8041 -2.2886
 2854SOL    HW220025   4.564   3.499   6.934  0.0197  1.0585  2.1602
 2855SOL     OW20026   0.125   0.560   2.249  0.1412  0.7862  0.5799
 2855SOL    HW120027   0.068   0.591   2.320 -2.1495 -0.6608 -0.6247
 2855SOL    HW220028   0.210   0.580   2.288  0.3640 -0.4266  0.7125
 2856SOL     OW20029   0.149   4.192  16.841  0.4618  0.4013  0.5761
 2856SOL    HW120030   0.200   4.206  16.761 -0.7481  2.5008  0.1624
 2856SOL    HW220031   0.119   4.105  16.816  0.8651  0.5271 -0.3885
 2857SOL     OW20032   2.756   0.255   4.373  0.7262  0.1538  0.1129
 2857SOL    HW120033   2.786   0.176   4.326  2.4332  1.5550 -1.1477
 2857SOL    HW220034   2.784   0.221   4.458 -0.8135  1.3684  1.0854
 2858SOL     OW20035   0.300   3.590   0.180 -0.2817 -0.2648  0.6086
 2858SOL    HW120036   0.253   3.579   0.097 -0.1044 -0.4384  0.5304
 2858SOL    HW220037   0.302   3.684   0.193  3.8263 -0.0843 -1.0238
 2859SOL     OW20038   1.837   3.698  10.042 -0.3355  0.0361  0.5030
 2859SOL    HW120039   1.916   3.658  10.079  0.0685  1.2455  0.9470
 2859SOL    HW220040   1.792   3.624  10.002 -0.7280  0.4976  0.0911
 2860SOL     OW20041   2.040   3.709  10.620 -0.2359 -0.2781  0.2544
 2860SOL    HW120042   1.996   3.747  10.544  1.1892  3.1475  1.1502
 2860SOL    HW220043   2.125   3.696  10.577  0.7083  2.5915  1.2114
 2861SOL     OW20044   0.732   0.711  12.905  0.9850  0.5174  0.1831
 2861SOL    HW120045   0.822   0.741  12.922  1.5745 -1.6707  0.9283
 2861SOL    HW220046   0.740   0.719  12.810  0.8514 -0.8163  0.0638
 2862SOL     OW20047   2.839   0.780   9.645  0.0994  0.2034  0.2477
 2862SOL    HW120048   2.762   0.807   9.595  0.2111 -1.5403 -0.8737
 2862SOL    HW220049   2.816   0.822   9.728  1.2233  0.0445  0.6408
 2863SOL     OW20050   2.741   4.073   4.839  0.6968 -0.2448 -0.1415
 2863SOL    HW120051   2.718   4.102   4.750  0.7606  2.4300  0.7197
 2863SOL    HW220052   2.699   3.988   4.836  0.9658 -0.3820 -0.0028
 2864SOL     OW20053   2.073   0.045   2.377  0.2303 -0.1826 -0.1245
 2864SOL    HW120054   2.076   4.684   2.332 -0.0123 -0.5664  0.5778
 2864SOL    HW220055   2.160   0.052   2.414  0.5432  0.6867 -1.0185
 2865SOL     OW20056   1.118   2.339   3.699 -0.5340 -0.2740  0.2932
 2865SOL    HW120057   1.210   2.359   3.684 -0.7955  0.4573 -0.3391
 2865SOL    HW220058   1.107   2.364   3.791  2.9418  3.7741 -0.4041
 2866SOL     OW20059   0.566   3.538   6.826 -0.4463  0.1752 -0.0897
 2866SOL    HW120060   0.563   3.583   6.742 -1.5789 -1.4882 -0.9430
 2866SOL    HW220061   0.615   3.604   6.874  1.8445 -1.2063 -0.5354
 2867SOL     OW20062   1.608   1.433   2.945  0.2673  0.3637  0.4624
 2867SOL    HW120063   1.678   1.495   2.966 -0.3257  0.6727  1.4957
 2867SOL    HW220064   1.575   1.420   3.034 -1.2183 -1.5869 -0.3662
 2868SOL     OW20065   0.574   0.269   3.877  0.2676 -0.6606 -0.6337
 2868SOL    HW120066   0.508   0.276   3.808  0.0464  0.8838 -0.2705
 2868SOL    HW220067   0.641   0.321   3.833 -3.2350  2.6893 -1.9682
 2869SOL     OW20068   1.507   4.249   2.714  0.2884 -0.6229 -0.0909
 2869SOL    HW120069   1.492   4.187   2.644  0.8636  0.4877 -1.2053
 2869SOL    HW220070   1.418   4.284   2.717  0.1554 -1.1324  1.7573
 2870SOL     OW20071   1.500   1.853   3.549 -0.4801  0.3310 -0.3854
 2870SOL    HW120072   1.443   1.885   3.480  1.7405  1.8868 -1.4904
 2870SOL    HW220073   1.510   1.759   3.536  0.4610  0.6644 -2.0709
 2871SOL     OW20074   0.656   4.023  15.871  0.2911  0.3427  0.0474
 2871SOL    HW120075   0.714   3.957  15.908 -1.9397 -0.6475  1.7900
 2871SOL    HW220076   0.575   3.972  15.882 -0.2527  0.9806 -0.9552
 2872SOL     OW20077   1.025   3.883   7.256 -0.3844 -0.1062 -0.6086
 2872SOL    HW120078   0.977   3.847   7.331 -1.2025  0.1534 -1.0041
 2872SOL    HW220079   1.068   3.954   7.304 -0.5195 -0.4945  0.0852
 2873SOL     OW20080   3.118   4.162   7.922  0.0604  0.5743 -0.0235
 2873SOL    HW120081   3.057   4.184   7.992 -2.1547 -0.7499 -1.5299
 2873SOL    HW220082   3.194   4.218   7.936 -1.5375  2.4055  1.3520
 2874SOL     OW20083   4.368   4.178   8.578  0.2991 -0.1940  0.6540
 2874SOL    HW120084   4.436   4.228   8.533 -1.3758  0.9231 -0.6280
 2874SOL    HW220085   4.291   4.230   8.554  0.0581 -0.8955 -0.0764
 2875SOL     OW20086   2.715   1.689  15.952  1.1817  0.3036  0.4407
 2875SOL    HW120087   2.781   1.624  15.976 -0.2047 -0.3103  2.5117
 2875SOL    HW220088   2.752   1.764  15.998 -0.3474  0.8097  0.8426
 2876SOL     OW20089   3.775   1.955   4.792  0.1549  0.0105 -0.6128
 2876SOL    HW120090   3.698   2.004   4.820 -0.1918 -0.3704 -0.8966
 2876SOL    HW220091   3.831   2.024   4.756  0.6820 -0.3667 -0.5229
 2877SOL     OW20092   0.740   1.994   3.415 -0.0819 -0.0968  0.5015
 2877SOL    HW120093   0.694   1.917   3.382  0.6925 -0.4847  0.3341
 2877SOL    HW220094   0.725   1.983   3.509  1.4592 -1.2319  0.6128
 2878SOL     OW20095   2.927   3.070   1.306  0.2702 -0.0105  0.3337
 2878SOL    HW120096   2.941   2.981   1.274 -1.9872 -0.7773  1.4818
 2878SOL    HW220097   2.874   3.104   1.234  0.9237  1.1343  0.3868
 2879SOL     OW20098   4.097   0.226   3.035 -0.0469 -0.0117 -0.6427
 2879SOL    HW120099   4.075   0.139   3.002 -0.3709 -0.4995  0.8420
 2879SOL    HW220100   4.160   0.263   2.973 -0.0350 -3.6561 -2.8012
 2880SOL     OW20101   3.828   3.214   2.032  0.0209  0.3212  0.9896
 2880SOL    HW120102   3.885   3.189   2.105  1.5687 -0.5044 -0.4822
 2880SOL    HW220103   3.880   3.201   1.952 -3.3409 -1.1651 -0.9875
 2881SOL     OW20104   0.567   2.221  15.889  0.3646  0.0814 -0.1033
 2881SOL    HW120105   0.632   2.236  15.958  0.8983  0.7964 -0.7604
 2881SOL    HW220106   0.613   2.168  15.824  0.5181  2.4453 -1.8809
 2882SOL     OW20107   3.128   3.560   0.544 -0.2502 -0.2422 -0.0433
 2882SOL    HW120108   3.090   3.619   0.479  0.1228  0.3239  0.2602
 2882SOL    HW220109   3.217   3.576   0.513 -0.5804  1.2939 -0.1684
 2883SOL     OW20110   4.355   3.163   7.858 -0.4222 -0.5684  0.3511
 2883SOL    HW120111   4.434   3.138   7.810  0.5873  2.6871  0.3385
 2883SOL    HW220112   4.374   3.257   7.858  0.1588 -0.6871  0.7077
 2884SOL     OW20113   3.995   1.411   5.915  0.0451 -0.2491  0.2840
 2884SOL    HW120114   3.938   1.487   5.907 -1.3530 -1.4305 -0.8089
 2884SOL    HW220115   4.019   1.399   5.823 -1.5661 -1.1582 -0.0198
 2885SOL     OW20116   2.754   3.937   0.218 -0.1048  0.0950  0.0208
 2885SOL    HW120117   2.699   3.908   0.146  1.5146 -1.1542 -0.7242
 2885SOL    HW220118   2.772   4.030   0.204  1.4725 -0.4310 -1.4621
 2886SOL     OW20119   4.670   2.953   8.971  0.1966  0.2321 -0.0438
 2886SOL    HW120120   4.694   2.993   9.055 -0.7137  2.4958 -0.8599
 2886SOL    HW220121   4.574   2.958   8.974  0.1010 -0.8368 -1.1312
 2887SOL     OW20122   2.960   2.830   1.620  0.3417  0.0082  0.6623
 2887SOL    HW120123   3.017   2.844   1.695  1.4492 -0.2991 -0.1148
 2887SOL    HW220124   2.946   2.922   1.597 -1.6492 -0.5984 -0.5247
 2888SOL     OW20125   4.223   2.850  14.957  0.9052  0.2713 -0.2961
 2888SOL    HW120126   4.269   2.903  14.892  0.1706 -1.1521 -1.9930
 2888SOL    HW220127   4.132   2.878  14.943  1.4771  1.2225 -2.1012
 2889SOL     OW20128   2.560   2.748  15.070 -0.0214  0.0687 -0.7303
 2889SOL    HW120129   2.542   2.655  15.079  2.1634  0.0837  3.5224
 2889SOL    HW220130   2.474   2.771  15.035 -0.1339  1.3933  0.4146
 2890SOL     OW20131   4.485   2.633   8.149 -0.4858 -0.1039  0.0336
 2890SOL    HW120132   4.472   2.648   8.056  1.2387 -1.0831 -0.3682
 2890SOL    HW220133   4.500   2.721   8.183 -1.4809 -0.8974  2.5622
 2891SOL     OW20134   3.068   3.914   9.167 -0.0338 -0.7548 -0.5785
 2891SOL    HW120135   3.135   3.854   9.134  2.4804  1.2828  0.8336
 2891SOL    HW220136   3.083   3.914   9.261 -0.7106  0.2181 -0.4674
 2892SOL     OW20137   3.601   1.084   8.108 -0.6728  0.2337  0.5220
 2892SOL    HW120138   3.671   1.094   8.044 -0.7080 -2.3504  0.0668
 2892SOL    HW220139   3.647   1.077   8.191  0.6005 -1.5083 -0.3298
 2893SOL     OW20140   0.358   2.755  16.308 -0.2168  0.0526  0.2811
 2893SOL    HW120141   0.377   2.734  16.216  0.2498  0.5930  0.2523
 2893SOL    HW220142   0.431   2.812  16.332  0.9442 -1.4815  0.3610
 2894SOL     OW20143   1.409   0.910   0.649  0.0502  0.2754 -0.0138
 2894SOL    HW120144   1.502   0.932   0.657  0.4238  0.0767 -3.9064
 2894SOL    HW220145   1.372   0.990   0.612  0.5942  1.3482  1.7767
 2895SOL     OW20146   2.289   0.269  12.079 -0.1810 -0.6136  0.1587
 2895SOL    HW120147   2.308   0.279  12.172  0.7945 -2.1078  0.1110
 2895SOL    HW220148   2.228   0.340  12.057 -1.3919 -1.4559  0.8359
 2896SOL     OW20149   1.846   1.389   6.009  0.2445  0.0461  0.6523
 2896SOL    HW120150   1.765   1.412   5.963  0.3779  1.1648  0.9926
 2896SOL    HW220151   1.813   1.359   6.093  0.6113  1.8193  1.4206
 2897SOL     OW20152   1.941   2.665   2.038 -0.3031 -0.4619  0.4529
 2897SOL    HW120153   1.876   2.727   2.070  0.1971  1.0119 -1.3840
 2897SOL    HW220154   1.975   2.628   2.120  0.4986 -0.2233  0.2276
 2898SOL     OW20155   2.010   0.457   5.253 -0.1207  0.4221 -0.1774
 2898SOL    HW120156   2.094   0.490   5.284 -1.2145  1.2028  1.9162
 2898SOL    HW220157   2.031   0.423   5.166 -0.6590 -2.0101  0.6539
 2899SOL     OW20158   0.323   2.598   3.439 -0.0485  0.5162  0.4297
 2899SOL    HW120159   0.256   2.600   3.507  1.4955 -0.9117  1.9761
 2899SOL    HW220160   0.309   2.680   3.391  0.4215  0.6901  0.5912
 2900SOL     OW20161   1.385   4.272   4.767  1.0159 -0.5257 -0.3814
 2900SOL    HW120162   1.401   4.219   4.845  3.8600  0.0730 -0.5713
 2900SOL    HW220163   1.368   4.359   4.804  0.8011 -0.6183 -0.2614
 2901SOL     OW20164   4.095   3.671   0.493 -0.2159 -0.3174  0.0703
 2901SOL    HW120165   4.101   3.593   0.438 -1.1256  0.0414 -0.5452
 2901SOL    HW220166   4.102   3.742   0.429 -0.3376 -0.9852 -0.6850
 2902SOL     OW20167   3.038   4.632   1.831 -0.1528  0.3031 -0.0396
 2902SOL    HW120168   3.127   4.608   1.858  0.0452 -1.4595 -2.2471
 2902SOL    HW220169   3.050   0.004   1.833  0.3327  0.2459 -0.3693
 2903SOL     OW20170   0.650   3.380  16.584 -0.2710  0.7734 -0.2947
 2903SOL    HW120171   0.630   3.418  16.670 -2.0204 -1.7531  0.4221
 2903SOL    HW220172   0.686   3.460  16.548  0.1707 -0.1802 -1.9680
 2904SOL     OW20173   0.518   1.557   2.233 -0.0425  0.4592 -0.1125
 2904SOL    HW120174   0.508   1.529   2.324 -0.4338 -0.7180 -0.5294
 2904SOL    HW220175   0.614   1.562   2.229 -0.0740  0.1016 -1.1624
 2905SOL     OW20176   2.893   2.838   6.616 -0.2434  0.1249  0.2141
 2905SOL    HW120177   2.971   2.878   6.577  0.5566 -0.0211  1.6827
 2905SOL    HW220178   2.828   2.908   6.607  0.6349  1.3775  3.5935
 2906SOL     OW20179   2.995   3.762   9.638 -0.1251 -0.5970 -0.5322
 2906SOL    HW120180   3.038   3.678   9.621 -0.3342 -0.2471 -2.6935
 2906SOL    HW220181   2.917   3.740   9.588  1.8464  0.6139 -4.1221
 2907SOL     OW20182   2.038   3.200   6.431 -0.5402  0.0511 -0.0098
 2907SOL    HW120183   2.006   3.163   6.349 -0.3135  3.0036 -1.4321
 2907SOL    HW220184   2.061   3.284   6.391  0.3931  0.4106  1.2713
 2908SOL     OW20185   0.465   4.472  12.349 -0.3970  0.1457 -0.2866
 2908SOL    HW120186   0.555   4.455  12.378 -0.4209 -0.2762 -0.4510
 2908SOL    HW220187   0.460   4.444  12.257 -2.0015  2.0657 -0.7786
 2909SOL     OW20188   4.275   3.727  14.830  0.1647  0.7497 -0.0599
 2909SOL    HW120189   4.291   3.718  14.736 -0.0066 -0.0489 -0.0103
 2909SOL    HW220190   4.180   3.712  14.833  0.3176 -0.7544 -3.0410
 2910SOL     OW20191   2.579   3.414  17.501 -0.0682  0.3309  0.0730
 2910SOL    HW120192   2.493   3.375  17.516 -0.4055  1.0808  0.1032
 2910SOL    HW220193   2.571   3.465  17.421 -3.4084  0.5362  0.5554
 2911SOL     OW20194   0.019   3.281   4.425 -0.2754 -0.7287 -0.0881
 2911SOL    HW120195   4.657   3.280   4.381  1.1610 -3.0522 -2.8160
 2911SOL    HW220196   0.066   3.329   4.357  1.8448 -1.3746  0.9238
 2912SOL     OW20197   2.126   0.481   2.618  0.4907 -0.0366 -0.2579
 2912SOL    HW120198   2.161   0.554   2.567  3.0072  1.0114  3.0134
 2912SOL    HW220199   2.207   0.429   2.625 -0.3985 -1.4897 -0.6581
 2913SOL     OW20200   0.006   2.609   3.557  0.0192 -0.4203 -0.5252
 2913SOL    HW120201   0.021   2.524   3.515 -2.1751 -1.6760  1.2347
 2913SOL    HW220202   0.054   2.606   3.640 -0.0608 -0.4834 -0.4813
 2914SOL     OW20203   3.059   1.061   5.085  0.4894  0.5055 -0.4865
 2914SOL    HW120204   3.029   1.145   5.120 -1.2005 -1.5468  3.0048
 2914SOL    HW220205   3.084   1.083   4.995  0.0052  1.1155 -0.4642
 2915SOL     OW20206   4.335   1.223   2.589 -0.8526  0.0372  0.4164
 2915SOL    HW120207   4.253   1.209   2.636 -0.5140 -0.2127  0.9256
 2915SOL    HW220208   4.389   1.267   2.654 -3.4801  2.7627  0.7662
 2916SOL     OW20209   3.930   1.210   3.587  0.3984 -0.1588 -0.3368
 2916SOL    HW120210   3.956   1.290   3.633 -2.3941  0.5570  0.0220
 2916SOL    HW220211   3.993   1.149   3.625 -1.1994 -1.2255  0.6199
 2917SOL     OW20212   0.137   4.233  13.299 -0.5677  0.4263  0.1822
 2917SOL    HW120213   0.185   4.221  13.217 -0.4712 -0.5093  0.3773
 2917SOL    HW220214   0.045   4.216  13.281 -0.0190  2.0409 -4.1603
 2918SOL     OW20215   0.097   4.059   4.170 -0.4386 -0.2312  0.3208
 2918SOL    HW120216   0.006   4.065   4.200 -0.9934  0.5059 -1.5485
 2918SOL    HW220217   0.091   4.108   4.088 -0.5103  1.1356  1.1589
 2919SOL     OW20218   1.484   1.338   2.214  0.2921 -0.3626 -0.3587
 2919SOL    HW120219   1.497   1.427   2.180 -4.3098  0.5742  0.3320
 2919SOL    HW220220   1.454   1.354   2.303  0.4533  1.0633 -0.5465
 2920SOL     OW20221   0.213   4.438   9.657  0.2045  0.7090 -0.3015
 2920SOL    HW120222   0.277   4.405   9.720  0.5319  1.1961 -0.3862
 2920SOL    HW220223   0.133   4.403   9.698  0.3288 -1.0123 -1.5219
 2921SOL     OW20224   1.361   1.200   7.476  0.0557 -0.2767  0.6190
 2921SOL    HW120225   1.266   1.198   7.468 -0.0494 -0.4446  1.8257
 2921SOL    HW220226   1.399   1.168   7.395 -0.7507  1.7169 -0.5465
 2922SOL     OW20227   4.554   0.069   0.796  0.4531 -0.5488  0.3504
 2922SOL    HW120228   4.598   0.049   0.878 -0.7765 -0.2002  1.1008
 2922SOL    HW220229   4.460   0.059   0.813  0.3810  0.5695  0.5629
 2923SOL     OW20230   2.293   0.716   6.619 -0.4077 -0.2682 -0.3538
 2923SOL    HW120231   2.214   0.712   6.565  0.6047 -1.9731 -1.7076
 2923SOL    HW220232   2.266   0.665   6.695  0.7990 -0.7788 -0.2689
 2924SOL     OW20233   1.158   2.498  15.500  0.2031 -0.2931 -0.2719
 2924SOL    HW120234   1.173   2.539  15.414  1.0163 -1.4218 -0.6675
 2924SOL    HW220235   1.149   2.577  15.553  0.7151 -1.8920  2.1706
 2925SOL     OW20236   2.757   2.834  16.667 -0.3260  0.2330 -0.0264
 2925SOL    HW120237   2.755   2.927  16.691 -1.2721 -0.2921  1.9024
 2925SOL    HW220238   2.733   2.839  16.574  0.5894 -0.0803 -0.2816
 2926SOL     OW20239   1.678   0.437   2.169 -0.5720  0.4913 -0.1745
 2926SOL    HW120240   1.603   0.458   2.225 -0.3677  1.4457 -0.2518
 2926SOL    HW220241   1.654   0.469   2.082  1.4583  3.2306  0.2521
 2927SOL     OW20242   1.344   3.855   6.434 -0.4903 -0.0491  0.0319
 2927SOL    HW120243   1.357   3.784   6.371 -2.7600  1.6322 -2.3842
 2927SOL    HW220244   1.411   3.837   6.500  1.5560 -0.2469 -2.0987
 2928SOL     OW20245   1.228   2.926  15.443 -0.5100  0.3795 -0.2615
 2928SOL    HW120246   1.317   2.895  15.457 -0.6945  0.2841  0.7044
 2928SOL    HW220247   1.212   2.991  15.511 -0.9499  0.4499 -0.4295
 2929SOL     OW20248   0.175   2.235   3.082 -0.0878  0.3665 -0.2973
 2929SOL    HW120249   0.156   2.291   3.007 -4.1300 -0.3253  0.2383
 2929SOL    HW220250   0.185   2.301   3.151 -2.7333  0.9836 -0.5162
 2930SOL     OW20251   2.817   2.900  10.306 -0.1930  0.2157 -0.2768
 2930SOL    HW120252   2.724   2.895  10.325  0.5352 -2.5237  2.5588
 2930SOL    HW220253   2.841   2.812  10.335 -0.6819 -0.2900 -1.4181
 2931SOL     OW20254   1.247   0.053  14.311  0.0779  1.1818  0.3701
 2931SOL    HW120255   1.327   0.016  14.274 -0.4079 -0.0505  0.5581
 2931SOL    HW220256   1.249   0.144  14.280  1.4826  0.9938 -0.0862
 2932SOL     OW20257   3.170   0.268   8.048  0.6552 -0.2930 -0.2561
 2932SOL    HW120258   3.088   0.316   8.043 -0.0677 -1.6152 -0.9823
 2932SOL    HW220259   3.204   0.318   8.122 -1.4698  0.1677  0.3981
 2933SOL     OW20260   4.271   2.319   1.424  0.0919  0.3922 -0.3564
 2933SOL    HW120261   4.343   2.278   1.470 -0.4299 -0.3349 -0.1842
 2933SOL    HW220262   4.191   2.272   1.449 -0.3990 -0.2815 -3.1860
 2934SOL     OW20263   4.605   4.275   5.476 -0.2488  0.0418 -0.3740
 2934SOL    HW120264   4.550   4.295   5.400 -0.9885 -2.5187 -0.4864
 2934SOL    HW220265   4.648   4.360   5.488 -0.6771  0.1663  0.3138
 2935SOL     OW20266   4.354   0.651   8.793  0.0274  0.5913  0.5532
 2935SOL    HW120267   4.326   0.704   8.718 -1.8163  0.5531  1.2348
 2935SOL    HW220268   4.450   0.643   8.800  0.2085  1.6318 -0.6599
 2936SOL     OW20269   4.445   1.145   3.989  0.1141 -0.4762  0.2406
 2936SOL    HW120270   4.495   1.068   4.014 -0.9828 -0.8066  1.3848
 2936SOL    HW220271   4.359   1.103   3.993 -0.1428  0.1014  0.8959
 2937SOL     OW20272   4.609   2.155  16.648 -0.0049  0.1379 -0.2207
 2937SOL    HW120273   4.584   2.080  16.702  0.9359  0.5406  0.7663
 2937SOL    HW220274   4.541   2.152  16.580  0.5426 -1.2505 -0.7020
 2938SOL     OW20275   1.036   2.108   8.758 -0.1746 -1.0023  0.1060
 2938SOL    HW120276   0.962   2.099   8.699 -1.2134 -0.8640  1.3866
 2938SOL    HW220277   1.016   2.191   8.802  0.4665 -0.0878 -1.3406
 2939SOL     OW20278   4.586   3.701   7.379 -0.1623  0.1203 -0.6958
 2939SOL    HW120279   4.553   3.623   7.334  0.5673 -0.2394 -0.6109
 2939SOL    HW220280   4.635   3.654   7.447  0.2381 -1.0481 -1.8007
 2940SOL     OW20281   4.037   3.392   1.443 -0.1511 -0.0969 -0.0044
 2940SOL    HW120282   4.015   3.341   1.366  0.8990  0.2463 -0.5377
 2940SOL    HW220283   3.950   3.427   1.460 -0.9374 -1.2555 -1.6564
 2941SOL     OW20284   3.823   2.981   6.237  0.0520 -0.7049  0.3516
 2941SOL    HW120285   3.828   2.933   6.320  0.5469 -2.2328 -0.5559
 2941SOL    HW220286   3.897   3.041   6.243 -0.1307 -0.5774  1.4245
 2942SOL     OW20287   1.908   4.595   4.192 -0.1842 -0.2308  0.4130
 2942SOL    HW120288   1.957   4.534   4.246  0.9975 -0.5299 -1.0013
 2942SOL    HW220289   1.971   4.608   4.121 -0.3723  0.9826  0.4728
 2943SOL     OW20290   1.557   3.352  11.168 -0.4649  0.5336  0.2289
 2943SOL    HW120291   1.526   3.261  11.171  0.3855  0.2397  0.0936
 2943SOL    HW220292   1.530   3.395  11.249 -0.3431 -1.8965  1.5646
 2944SOL     OW20293   2.116   0.945  16.369 -0.0927  0.0364  0.3664
 2944SOL    HW120294   2.046   0.899  16.322  1.0479  0.3436 -1.6629
 2944SOL    HW220295   2.068   1.027  16.378 -0.5307 -0.4078  1.9199
 2945SOL     OW20296   0.367   3.810  16.689  0.4875 -0.6300  0.3658
 2945SOL    HW120297   0.377   3.817  16.784 -1.4296 -2.8659  0.7383
 2945SOL    HW220298   0.293   3.871  16.680 -1.8066 -3.4717 -0.1263
 2946SOL     OW20299   0.800   2.196  16.079  0.3006 -0.6975 -0.1960
 2946SOL    HW120300   0.731   2.255  16.107 -0.6861 -2.2965  0.7524
 2946SOL    HW220301   0.870   2.260  16.091 -1.1715  0.7506  0.5058
 2947SOL     OW20302   3.515   1.743  10.050 -0.0068 -0.1702 -0.1480
 2947SOL    HW120303   3.533   1.652  10.026  2.0068 -0.0555  0.8504
 2947SOL    HW220304   3.575   1.755  10.124  0.4530 -0.1437 -0.5254
 2948SOL     OW20305   1.745   2.045   4.306 -0.3554 -0.8237 -0.3849
 2948SOL    HW120306   1.780   2.105   4.372 -0.5453 -0.8975 -0.2134
 2948SOL    HW220307   1.652   2.058   4.326 -0.2885 -2.7895  1.2126
 2949SOL     OW20308   2.997   3.793  17.025  0.2452  0.1586  0.1317
 2949SOL    HW120309   3.008   3.881  16.990  0.4373  0.2939  0.5297
 2949SOL    HW220310   2.905   3.805  17.049  0.5207  2.1212  0.1933
 2950SOL     OW20311   0.263   1.840   8.606  0.1972  0.5843  0.7264
 2950SOL    HW120312   0.253   1.814   8.514  0.2355 -1.8441  1.4159
 2950SOL    HW220313   0.233   1.931   8.600 -0.2435  0.4473  0.8529
 2951SOL     OW20314   1.216   2.097   5.445  0.7131  0.1324 -0.1619
 2951SOL    HW120315   1.194   2.007   5.423  0.5904 -0.0005  0.5113
 2951SOL    HW220316   1.143   2.152   5.415 -0.0921 -0.7309  0.2420
 2952SOL     OW20317   0.225   1.464   6.347 -0.1045 -0.4627 -0.0938
 2952SOL    HW120318   0.302   1.436   6.298  1.2677 -1.1294  2.4348
 2952SOL    HW220319   0.264   1.507   6.423 -1.0441 -0.3621  0.3341
 2953SOL     OW20320   2.153   1.374   7.581  0.6794 -0.6144  0.1155
 2953SOL    HW120321   2.235   1.376   7.532 -0.9497  0.4685 -2.5739
 2953SOL    HW220322   2.165   1.439   7.651 -0.1530  2.2549 -2.3807
 2954SOL     OW20323   2.542   1.097   4.652  0.3991 -0.3481  0.2276
 2954SOL    HW120324   2.532   1.117   4.745  1.6669  0.4684  0.1827
 2954SOL    HW220325   2.457   1.103   4.608 -0.0227 -1.0963  0.9483
 2955SOL     OW20326   4.531   0.511   3.401 -0.5162 -0.2455 -0.0452
 2955SOL    HW120327   4.441   0.509   3.368 -1.3288  2.4780  2.0093
 2955SOL    HW220328   4.530   0.597   3.442  0.3239  0.4377 -1.4584
 2956SOL     OW20329   0.683   3.584  13.750  0.5149 -0.2256  0.3324
 2956SOL    HW120330   0.777   3.600  13.763  0.0060 -0.2704  4.1065
 2956SOL    HW220331   0.670   3.521  13.821  1.6197 -2.2897 -1.3093
 2957SOL     OW20332   1.455   2.381   5.976 -0.3290 -0.4836  0.2116
 2957SOL    HW120333   1.426   2.471   5.962  1.4386 -0.1140 -1.0600
 2957SOL    HW220334   1.374   2.339   5.946  0.4687 -0.5305 -1.8163
 2958SOL     OW20335   4.002   3.724   6.118 -0.1096  0.2469  0.1271
 2958SOL    HW120336   3.927   3.678   6.156 -0.6712  0.3299 -0.8579
 2958SOL    HW220337   4.040   3.661   6.056 -1.8435  0.4570 -1.1604
 2959SOL     OW20338   0.133   4.097  10.016  0.0156 -0.4700 -0.4799
 2959SOL    HW120339   0.117   4.112  10.109  0.3310  0.7830 -0.6215
 2959SOL    HW220340   0.040   4.086   9.996 -0.6451  1.8841  1.3911
 2960SOL     OW20341   2.911   0.471   3.679  0.0675  0.2053  0.1532
 2960SOL    HW120342   2.861   0.394   3.653  0.8938 -0.5216  0.7048
 2960SOL    HW220343   2.948   0.452   3.766 -0.2739  0.3830  0.3354
 2961SOL     OW20344   1.755   0.976   7.575 -0.3151 -0.0652 -0.5189
 2961SOL    HW120345   1.716   0.891   7.596 -0.2134 -0.7335 -2.9887
 2961SOL    HW220346   1.846   0.959   7.550 -0.3762  1.8846 -2.0910
 2962SOL     OW20347   4.476   3.303   9.338  0.3546 -0.0261 -0.1535
 2962SOL    HW120348   4.443   3.378   9.387 -1.2101 -0.6453 -0.2557
 2962SOL    HW220349   4.461   3.342   9.252 -3.8190 -0.3431  0.4258
 2963SOL     OW20350   2.131   1.259   7.046 -0.5780 -0.0114 -0.0454
 2963SOL    HW120351   2.179   1.311   7.111 -0.2823 -2.2752  1.5467
 2963SOL    HW220352   2.042   1.294   7.048 -1.1877 -1.5821  0.6243
 2964SOL     OW20353   0.502   4.349   9.029  0.3383 -0.3933  0.0934
 2964SOL    HW120354   0.426   4.306   8.990  0.8319 -0.9498 -0.2652
 2964SOL    HW220355   0.560   4.371   8.955  1.9456 -1.2535  1.0941
 2965SOL     OW20356   3.798   2.208  15.426  0.5355  0.2031 -0.2463
 2965SOL    HW120357   3.802   2.287  15.480  1.5919  0.8646 -1.2837
 2965SOL    HW220358   3.733   2.153  15.470  1.8338 -0.3867  0.9290
 2966SOL     OW20359   3.889   3.835   4.782  0.0279  0.2771 -0.2953
 2966SOL    HW120360   3.959   3.880   4.734  2.2242 -0.9211  1.7683
 2966SOL    HW220361   3.909   3.742   4.773 -1.9865 -0.2096  0.2906
 2967SOL     OW20362   1.248   1.472   8.087 -0.3004 -0.0808 -0.6487
 2967SOL    HW120363   1.220   1.551   8.040 -0.1831  0.5632  0.3574
 2967SOL    HW220364   1.168   1.419   8.084  0.6001 -1.3323 -2.0628
 2968SOL     OW20365   0.515   3.796  13.700 -0.4666 -0.1465  0.3182
 2968SOL    HW120366   0.474   3.805  13.786  1.3842 -1.1611  1.2993
 2968SOL    HW220367   0.579   3.728  13.722  2.0693  2.4823  1.1594
 2969SOL     OW20368   0.084   3.720   6.903  0.0670  0.4432  0.3193
 2969SOL    HW120369   0.084   3.708   6.998  4.2614 -1.5162  0.0534
 2969SOL    HW220370   0.088   3.815   6.901  0.6414  0.3363 -2.8902
 2970SOL     OW20371   2.228   2.078   0.864 -0.1099  1.1247  0.3481
 2970SOL    HW120372   2.312   2.033   0.873 -1.0878 -0.1641  2.7928
 2970SOL    HW220373   2.221   2.079   0.768 -0.6975  0.8147  0.3900
 2971SOL     OW20374   0.393   2.217   8.236 -0.4704 -0.1296 -0.4115
 2971SOL    HW120375   0.424   2.128   8.252  2.8757  1.2525  0.7997
 2971SOL    HW220376   0.432   2.254   8.316  0.2990 -0.2544 -0.7325
 2972SOL     OW20377   4.632   1.657   5.873 -0.4861 -0.3619 -0.1178
 2972SOL    HW120378   4.566   1.588   5.877 -2.1270  1.1389 -0.9224
 2972SOL    HW220379   4.618   1.685   5.963  0.2082  0.1840 -0.1809
 2973SOL     OW20380   0.407   0.521  17.316  0.6841  0.3772 -0.1259
 2973SOL    HW120381   0.417   0.603  17.268 -2.6431  1.5757  1.2051
 2973SOL    HW220382   0.317   0.502  17.289 -0.7198 -0.1806  4.9484
 2974SOL     OW20383   3.616   4.711   8.698  0.7965  0.4435  0.0427
 2974SOL    HW120384   3.530   4.695   8.659  0.4276  0.8812  0.6605
 2974SOL    HW220385   3.653   4.625   8.678  1.2210  0.4330  0.8700
 2975SOL     OW20386   1.242   0.872   0.371 -0.4331 -0.1412  0.0307
 2975SOL    HW120387   1.271   0.782   0.362 -2.6495 -1.0486  1.9595
 2975SOL    HW220388   1.198   0.892   0.288  2.0460 -0.8240 -1.4294
 2976SOL     OW20389   2.575   3.570  10.899 -0.6657 -0.3851  0.1929
 2976SOL    HW120390   2.605   3.619  10.823 -0.9169 -2.1823 -1.0624
 2976SOL    HW220391   2.491   3.612  10.914 -0.8406 -0.7384  0.2045
 2977SOL     OW20392   2.118   2.269   5.500 -0.3805 -0.2831  0.1981
 2977SOL    HW120393   2.201   2.254   5.455  0.0892  0.1018  0.9305
 2977SOL    HW220394   2.047   2.257   5.438 -1.4817  1.2240  1.1537
 2978SOL     OW20395   3.511   3.626   8.625 -0.3031  0.4507  0.2651
 2978SOL    HW120396   3.504   3.575   8.544 -2.9732  2.1527 -0.5609
 2978SOL    HW220397   3.483   3.560   8.689 -2.2394  0.5635 -0.4740
 2979SOL     OW20398   1.201   0.472   5.481 -0.0187 -0.4722  0.0371
 2979SOL    HW120399   1.198   0.538   5.550  0.0749 -0.3650 -0.0600
 2979SOL    HW220400   1.143   0.502   5.411  0.8962  0.0244 -0.5247
 2980SOL     OW20401   3.634   4.585   6.725 -0.6553 -0.1093 -0.2136
 2980SOL    HW120402   3.700   4.572   6.793 -0.1310  1.7394 -0.3506
 2980SOL    HW220403   3.687   4.565   6.648  0.1643 -2.0403  0.8492
 2981SOL     OW20404   2.472   2.781   2.038 -0.4620 -0.3539 -0.1444
 2981SOL    HW120405   2.415   2.704   2.039 -0.8402 -0.0707  0.3252
 2981SOL    HW220406   2.539   2.747   1.979 -0.1273  1.0796 -0.6099
 2982SOL     OW20407   2.107   3.746   4.908 -0.5593  0.6935  0.6658
 2982SOL    HW120408   2.112   3.681   4.977 -0.4075 -0.0241 -0.0244
 2982SOL    HW220409   2.148   3.700   4.835  0.9344 -0.4720  2.2360
 2983SOL     OW20410   3.742   1.090   8.325  0.3677 -0.1734 -0.0765
 2983SOL    HW120411   3.824   1.042   8.324  0.6107  0.2419 -0.1296
 2983SOL    HW220412   3.777   1.170   8.364 -0.3227 -1.6478  3.6077
 2984SOL     OW20413   1.431   1.590   2.829  0.0916 -0.2676 -0.3376
 2984SOL    HW120414   1.484   1.520   2.867  2.8356  1.6549 -0.6005
 2984SOL    HW220415   1.357   1.592   2.890  1.0288  0.3510  0.7725
 2985SOL     OW20416   0.934   3.271   3.364 -0.0579 -0.0017  0.4119
 2985SOL    HW120417   0.848   3.279   3.405 -0.7721 -0.2267 -1.0087
 2985SOL    HW220418   0.957   3.178   3.373  1.0910  0.1926 -0.5297
 2986SOL     OW20419   1.310   3.514   6.457  0.6902  0.2642 -0.5033
 2986SOL    HW120420   1.252   3.438   6.464  1.1139 -0.1800 -1.6687
 2986SOL    HW220421   1.338   3.499   6.366  2.5156 -1.5404  0.3560
 2987SOL     OW20422   2.062   0.643  15.972 -0.2890  0.4413  0.3419
 2987SOL    HW120423   2.069   0.730  16.012 -1.1336 -0.6192  2.7681
 2987SOL    HW220424   1.972   0.613  15.983 -0.2464  0.4783  0.7957
 2988SOL     OW20425   3.610   3.836   3.275  0.2914 -0.0661 -0.2164
 2988SOL    HW120426   3.560   3.876   3.203 -0.5179 -3.1472 -1.3528
 2988SOL    HW220427   3.664   3.772   3.229 -0.2468 -0.1000 -0.8017
 2989SOL     OW20428   0.712   4.480  14.741  0.1635  0.2950 -0.1910
 2989SOL    HW120429   0.658   4.539  14.794  0.1869 -0.1690  0.3452
 2989SOL    HW220430   0.718   4.516  14.652  0.0192 -0.2271 -0.4071
 2990SOL     OW20431   3.835   3.948   6.698 -0.2243  0.4432 -0.4284
 2990SOL    HW120432   3.809   3.970   6.787  2.3892 -0.2693  0.5124
 2990SOL    HW220433   3.777   4.012   6.656 -0.0499 -0.3897 -1.9595
 2991SOL     OW20434   0.727   4.440  12.428  0.4109 -0.3012 -0.8368
 2991SOL    HW120435   0.803   4.383  12.442  0.0651 -0.6637 -0.4269
 2991SOL    HW220436   0.766   4.525  12.408  1.9152 -0.9752 -0.7247
 2992SOL     OW20437   3.854   0.514   6.480  0.2195  0.5197  0.4790
 2992SOL    HW120438   3.900   0.519   6.564 -0.7699  0.4621  1.0343
 2992SOL    HW220439   3.914   0.559   6.422  1.3368  0.0398  1.2539
 2993SOL     OW20440   2.908   1.047   6.645 -0.2864  0.0447 -0.5782
 2993SOL    HW120441   2.863   0.962   6.649 -2.7052  1.3817  0.6420
 2993SOL    HW220442   2.884   1.078   6.732 -0.6388 -1.3127 -0.1854
 2994SOL     OW20443   3.948   0.806   9.136 -0.1714  0.6807 -0.0983
 2994SOL    HW120444   4.016   0.782   9.072 -0.1163  0.5781 -0.0004
 2994SOL    HW220445   3.876   0.844   9.085 -1.2724  1.1102  1.7846
 2995SOL     OW20446   2.102   0.250   1.731 -0.3528  0.1214  0.8033
 2995SOL    HW120447   2.111   0.311   1.658 -0.6674  0.4117  1.0027
 2995SOL    HW220448   2.189   0.210   1.729 -1.1859 -1.6826  0.5645
 2996SOL     OW20449   2.112   1.570  10.171 -0.0790 -0.0586 -0.5807
 2996SOL    HW120450   2.070   1.591  10.254  0.3019 -0.5221 -0.2694
 2996SOL    HW220451   2.183   1.634  10.164 -1.0657  1.2185  1.2541
 2997SOL     OW20452   0.986   3.509  13.783  0.3503  0.1365 -0.4514
 2997SOL    HW120453   1.055   3.491  13.847  1.1481  1.1474 -1.0227
 2997SOL    HW220454   0.970   3.603  13.792  0.7609 -0.0172  1.8571
 2998SOL     OW20455   1.356   1.195   4.375  0.1761 -0.4820 -0.0701
 2998SOL    HW120456   1.288   1.174   4.440  1.1615 -0.6068  0.9191
 2998SOL    HW220457   1.352   1.115   4.322 -1.4506 -1.1954  1.1368
 2999SOL     OW20458   1.672   2.677  11.539  0.5335  0.2422 -0.5088
 2999SOL    HW120459   1.696   2.696  11.630 -0.4124 -3.3288  0.4613
 2999SOL    HW220460   1.736   2.615  11.506 -1.1646 -2.1413  0.7178
 3000SOL     OW20461   0.845   3.487   9.962  0.1511  0.4323 -0.2890
 3000SOL    HW120462   0.898   3.468  10.040 -1.6496 -1.9060  0.3814
 3000SOL    HW220463   0.864   3.420   9.896 -2.4303  1.3000 -1.9203
 3001SOL     OW20464   3.934   0.023  10.622  0.6768  0.0194  0.0667
 3001SOL    HW120465   3.878   0.048  10.696  1.0444  1.9729 -0.3370
 3001SOL    HW220466   3.915   4.652  10.612  1.5259 -0.0225 -1.0834
 3002SOL     OW20467   4.482   0.781   6.657 -0.1393  0.4128  0.6372
 3002SOL    HW120468   4.516   0.858   6.702  0.1580  0.7375 -0.1558
 3002SOL    HW220469   4.539   0.712   6.689  2.6696  1.6535 -1.7441
 3003SOL     OW20470   2.170   3.374  17.291  0.3806  0.1934 -0.1590
 3003SOL    HW120471   2.120   3.456  17.297  0.3730  0.1991 -0.2976
 3003SOL    HW220472   2.147   3.352  17.381 -0.1536 -1.2828 -0.6672
 3004SOL     OW20473   0.217   1.879   4.114  0.0473  0.4889 -0.9299
 3004SOL    HW120474   0.130   1.856   4.083 -0.5990  2.5537 -0.6662
 3004SOL    HW220475   0.270   1.867   4.035  0.3188  1.7178 -0.9427
 3005SOL     OW20476   0.005   1.694   3.330  0.1087 -0.4587  0.1105
 3005SOL    HW120477   4.683   1.773   3.361  1.4142  0.8099 -1.2253
 3005SOL    HW220478   4.656   1.634   3.308  1.7023 -2.5600  0.6378
 3006SOL     OW20479   1.380   0.507   7.319  0.1384 -0.0859 -0.8348
 3006SOL    HW120480   1.298   0.458   7.317  1.2067 -1.9723  1.1388
 3006SOL    HW220481   1.375   0.562   7.241  0.0521  1.0938  0.0019
 3007SOL     OW20482   0.696   2.571  10.623  0.3409  0.2212  0.1403
 3007SOL    HW120483   0.775   2.555  10.570  0.6055 -0.9704  0.8905
 3007SOL    HW220484   0.733   2.600  10.707  1.7348 -1.8953  0.2521
 3008SOL     OW20485   0.931   1.185   3.315 -0.3505 -0.3273  0.5746
 3008SOL    HW120486   0.938   1.111   3.256 -2.3230  0.3525 -0.5150
 3008SOL    HW220487   0.840   1.215   3.306 -0.4904 -1.0467 -0.3707
 3009SOL     OW20488   1.057   2.867  15.886 -0.1155 -0.0268  0.5792
 3009SOL    HW120489   1.065   2.810  15.963 -2.0876 -0.6238  0.3382
 3009SOL    HW220490   1.067   2.956  15.918 -1.0070  0.0656  0.5899
 3010SOL     OW20491   0.393   2.494   6.439 -0.6711  0.4242 -0.0645
 3010SOL    HW120492   0.404   2.407   6.476  0.1785 -0.1791 -1.7329
 3010SOL    HW220493   0.465   2.536   6.487 -0.7744  0.6034 -0.0677
 3011SOL     OW20494   0.283   1.484   7.029 -0.7985 -0.1484  0.1673
 3011SOL    HW120495   0.290   1.560   6.972  0.4830  0.2076  0.7860
 3011SOL    HW220496   0.376   1.486   7.053 -0.6594  1.2057 -0.4738
 3012SOL     OW20497   2.355   1.880   1.139  0.2060  0.5687  0.2581
 3012SOL    HW120498   2.320   1.797   1.108 -1.4058  2.1581 -2.1336
 3012SOL    HW220499   2.414   1.898   1.065  2.2141  1.1225  1.9952
 3013SOL     OW20500   1.127   4.530  14.965 -0.4015 -0.3711  0.4392
 3013SOL    HW120501   1.113   4.536  15.059  2.7781 -0.0437  0.8884
 3013SOL    HW220502   1.049   4.565  14.921  1.6185  0.7270 -2.3267
 3014SOL     OW20503   1.176   4.530   2.573 -0.0555  0.1285 -0.4568
 3014SOL    HW120504   1.247   4.476   2.538 -0.2426 -0.8081  0.6150
 3014SOL    HW220505   1.196   4.615   2.535 -1.6472  1.2245  1.1506
 3015SOL     OW20506   2.343   3.402   7.287 -0.4297 -0.4022 -0.0058
 3015SOL    HW120507   2.351   3.332   7.223  3.2299  0.6536 -0.7033
 3015SOL    HW220508   2.358   3.355   7.369 -1.5985  1.2884  1.1741
 3016SOL     OW20509   3.991   4.537   5.032 -0.3757 -0.1424  0.5524
 3016SOL    HW120510   3.913   4.593   5.037  0.1144  0.4725  1.2743
 3016SOL    HW220511   3.976   4.499   4.945  0.5239  0.6591  0.0439
 3017SOL     OW20512   4.531   1.582  10.518  0.0294  0.0269  0.3176
 3017SOL    HW120513   4.502   1.576  10.428 -0.8435  2.3280  0.4485
 3017SOL    HW220514   4.510   1.497  10.555 -1.0630  1.1153  2.2211
 3018SOL     OW20515   0.563   1.999   2.762  0.0488 -0.3335 -0.1642
 3018SOL    HW120516   0.528   2.000   2.673 -0.4967 -0.4292  0.0475
 3018SOL    HW220517   0.657   2.000   2.748  0.2660 -0.2726  1.2355
 3019SOL     OW20518   3.230   4.583   1.402 -0.0803  0.0756  0.0050
 3019SOL    HW120519   3.298   4.591   1.335  0.1585 -1.3036  0.0771
 3019SOL    HW220520   3.235   4.491   1.429 -1.3852  0.4696  1.5415
 3020SOL     OW20521   4.430   2.098   4.479  0.2646  0.1519  0.6686
 3020SOL    HW120522   4.513   2.072   4.441 -0.8531 -3.3590  0.5794
 3020SOL    HW220523   4.442   2.192   4.467  0.9268 -0.1423 -0.9965
 3021SOL     OW20524   2.980   0.062   6.003  0.4256 -0.1691  0.7351
 3021SOL    HW120525   3.025   0.002   6.062  0.0397  0.4943  1.6979
 3021SOL    HW220526   3.062   0.081   5.959 -0.6567  0.6718 -0.9208
 3022SOL     OW20527   3.127   1.239   9.863  0.4255  0.0925  0.2258
 3022SOL    HW120528   3.063   1.299   9.824  2.8520  2.4835 -0.0762
 3022SOL    HW220529   3.086   1.221   9.947  1.7603  0.1434  0.8933
 3023SOL     OW20530   3.954   3.782   0.696 -0.4320  0.0307 -0.2850
 3023SOL    HW120531   3.966   3.876   0.685 -0.6712  0.1063  0.1195
 3023SOL    HW220532   4.002   3.761   0.616 -0.1209 -3.2658  0.7603
 3024SOL     OW20533   4.582   4.589   7.192  0.3538 -0.5091 -0.1505
 3024SOL    HW120534   4.497   4.622   7.222  0.5859  1.1514 -1.2748
 3024SOL    HW220535   4.598   4.521   7.257  1.7972  0.3609  0.4237
 3025SOL     OW20536   4.584   2.102  12.915 -0.9300  0.1509 -0.8682
 3025SOL    HW120537   4.656   2.044  12.893 -2.1067 -1.2565 -1.0147
 3025SOL    HW220538   4.604   2.118  13.007 -3.2318 -1.0582 -0.1428
 3026SOL     OW20539   0.243   2.091   4.793  0.2584  0.0468  0.4047
 3026SOL    HW120540   0.305   2.022   4.817  0.4768 -0.2350 -0.9531
 3026SOL    HW220541   0.215   2.128   4.877 -1.6606 -0.9707  0.2086
 3027SOL     OW20542   3.999   3.677  14.839  0.2164 -0.1522 -0.8910
 3027SOL    HW120543   4.012   3.601  14.896  1.9619  0.0510 -1.0126
 3027SOL    HW220544   3.988   3.742  14.908  0.3386 -2.6917  1.4999
 3028SOL     OW20545   4.528   0.893   8.544  0.0290  0.0948 -0.0987
 3028SOL    HW120546   4.596   0.959   8.532  0.1231  0.2330  1.1424
 3028SOL    HW220547   4.593   0.822   8.541  1.6109  1.5746 -0.7076
 3029SOL     OW20548   1.377   1.917   3.312  0.0582  0.3017 -0.4535
 3029SOL    HW120549   1.342   1.975   3.244  1.5587 -1.3172 -2.6348
 3029SOL    HW220550   1.342   1.833   3.281  1.0134  0.0266 -0.7809
 3030SOL     OW20551   1.616   4.572   4.327  0.1959 -0.2615 -0.3998
 3030SOL    HW120552   1.696   4.531   4.295  0.6487  0.5046 -0.2455
 3030SOL    HW220553   1.546   4.521   4.286  0.7409  0.5069 -2.3130
 3031SOL     OW20554   2.342   0.090   2.391  0.1311 -0.2768  0.7493
 3031SOL    HW120555   2.318   0.121   2.304 -0.5228 -0.8798  0.7154
 3031SOL    HW220556   2.397   0.016   2.365  1.7014  0.9333  0.6301
 3032SOL     OW20557   4.106   2.378   3.718 -0.3267  0.1998 -0.8891
 3032SOL    HW120558   4.198   2.359   3.698 -0.2820  0.7589 -1.2304
 3032SOL    HW220559   4.105   2.358   3.811  1.1016  0.7943 -0.7428
 3033SOL     OW20560   4.251   3.751   3.450  0.3627 -0.1890  0.5460
 3033SOL    HW120561   4.248   3.799   3.367  3.1478 -1.1024 -0.0879
 3033SOL    HW220562   4.334   3.704   3.442  0.7649  0.6857 -0.4371
 3034SOL     OW20563   0.047   4.457   5.165  0.3729 -0.2005 -0.3475
 3034SOL    HW120564   0.118   4.508   5.203  0.0174  2.3070 -2.9960
 3034SOL    HW220565   4.693   4.503   5.198 -0.2526  0.2585 -2.4121
 3035SOL     OW20566   0.639   1.770   8.266 -0.0526 -0.3608  0.1972
 3035SOL    HW120567   0.714   1.819   8.235 -0.9063  0.8942  0.1102
 3035SOL    HW220568   0.684   1.718   8.332 -0.8213  1.0135  1.7801
 3036SOL     OW20569   2.170   1.449   2.845 -0.0443  0.1950  0.1173
 3036SOL    HW120570   2.241   1.456   2.780 -0.5138 -0.0380 -0.4143
 3036SOL    HW220571   2.165   1.537   2.884 -1.0040  0.3403 -0.3577
 3037SOL     OW20572   0.577   4.557   6.466 -0.5734 -0.5011 -0.0191
 3037SOL    HW120573   0.651   4.607   6.501 -1.2751  1.3882 -1.2302
 3037SOL    HW220574   0.611   4.484   6.413 -0.9968 -0.5356 -0.2374
 3038SOL     OW20575   1.696   4.012   7.116  0.2249  0.1887 -0.5756
 3038SOL    HW120576   1.661   4.100   7.132  0.7883  0.3761 -0.3863
 3038SOL    HW220577   1.751   4.007   7.195 -1.0018 -1.5433  0.1788
 3039SOL     OW20578   3.253   1.153   4.323  1.0439 -0.4892 -0.4543
 3039SOL    HW120579   3.166   1.131   4.292  0.5850  0.0809  0.4337
 3039SOL    HW220580   3.233   1.160   4.416  4.2497  2.0844  0.0535
 3040SOL     OW20581   0.493   3.645  10.635  0.0168  0.1942 -0.3741
 3040SOL    HW120582   0.547   3.571  10.661 -0.2548  0.4035  0.7540
 3040SOL    HW220583   0.420   3.640  10.696 -1.2034  2.2363 -1.6473
 3041SOL     OW20584   3.432   3.444  12.502  0.6650 -0.2687  0.1457
 3041SOL    HW120585   3.504   3.385  12.525 -0.4165 -2.9832 -3.3869
 3041SOL    HW220586   3.406   3.402  12.420 -0.0919  0.7873 -0.1504
 3042SOL     OW20587   2.519   0.198   6.771  0.6267 -0.2255  0.2050
 3042SOL    HW120588   2.484   0.287   6.762  2.5027  0.5697  0.9558
 3042SOL    HW220589   2.605   0.211   6.733  1.9918 -2.5999  2.4916
 3043SOL     OW20590   0.679   0.063   7.482  0.1139  0.2653  0.1238
 3043SOL    HW120591   0.586   0.042   7.474  1.1264 -4.0062 -0.4532
 3043SOL    HW220592   0.704   0.065   7.389  0.2788  1.0295  0.1808
 3044SOL     OW20593   3.471   1.600  11.047 -0.1105 -0.5182  0.2066
 3044SOL    HW120594   3.547   1.655  11.027  0.9439 -1.0007  2.9184
 3044SOL    HW220595   3.507   1.541  11.114 -0.0624 -0.9309 -0.1837
 3045SOL     OW20596   1.159   2.594  15.246 -0.1481 -0.1722 -0.0899
 3045SOL    HW120597   1.103   2.672  15.252  0.8845  0.4635  1.3716
 3045SOL    HW220598   1.196   2.600  15.158 -1.7948 -1.0470 -0.8291
 3046SOL     OW20599   4.274   0.481   4.579 -0.2664 -0.0601 -0.6117
 3046SOL    HW120600   4.292   0.485   4.485  0.4426 -0.4282 -0.4894
 3046SOL    HW220601   4.328   0.555   4.605  0.4008 -0.2919 -1.3211
 3047SOL     OW20602   0.369   1.150   2.989  0.1329  0.0334 -0.5991
 3047SOL    HW120603   0.386   1.207   3.064  3.7803  0.8043 -2.0337
 3047SOL    HW220604   0.457   1.134   2.955  0.2236  1.3084 -0.9745
 3048SOL     OW20605   3.182   0.385  15.963 -0.2494  0.2874  0.4401
 3048SOL    HW120606   3.157   0.374  16.054 -0.7580 -3.1597 -0.1502
 3048SOL    HW220607   3.152   0.474  15.945  0.0963  0.4545  0.6759
 3049SOL     OW20608   4.576   2.452  16.859 -0.5989  0.5745 -0.7223
 3049SOL    HW120609   4.507   2.400  16.900  0.6020  0.4637  1.1476
 3049SOL    HW220610   4.575   2.519  16.927 -0.3779  0.1900 -0.3360
 3050SOL     OW20611   3.796   1.041  15.689 -0.2214 -0.9164  0.5887
 3050SOL    HW120612   3.849   1.115  15.658 -2.6999  0.0099 -1.4653
 3050SOL    HW220613   3.718   1.087  15.720 -1.0761 -1.7867 -0.2464
 3051SOL     OW20614   2.149   2.078   9.409 -0.0543 -0.6617  0.3651
 3051SOL    HW120615   2.204   2.138   9.459  2.2889 -1.5241 -1.1777
 3051SOL    HW220616   2.199   2.075   9.327 -0.8609  2.8649 -0.2280
 3052SOL     OW20617   3.911   2.356  10.477 -0.3289  0.2617  0.0959
 3052SOL    HW120618   3.892   2.280  10.532 -0.8565 -0.0607 -0.5328
 3052SOL    HW220619   3.983   2.393  10.528  1.4518 -1.0991 -1.4591
 3053SOL     OW20620   3.864   2.074   7.983  0.4164  0.3479 -0.2834
 3053SOL    HW120621   3.776   2.102   7.959  0.9457  0.3710 -2.1914
 3053SOL    HW220622   3.905   2.151   8.020  3.2958 -0.9803 -0.7304
 3054SOL     OW20623   2.291   4.272  15.739  0.6046 -0.1534  0.2704
 3054SOL    HW120624   2.351   4.263  15.813  1.1278 -2.5098 -0.4338
 3054SOL    HW220625   2.314   4.362  15.714 -2.4054  0.1170 -1.5288
 3055SOL     OW20626   3.343   2.042  13.373  0.0499 -0.1514 -0.3726
 3055SOL    HW120627   3.420   2.063  13.320 -1.6379 -2.7679 -3.8370
 3055SOL    HW220628   3.373   1.981  13.441  2.1880  0.0861 -1.0996
 3056SOL     OW20629   4.663   2.972   0.370  0.6778 -0.2496 -0.1029
 3056SOL    HW120630   4.696   3.006   0.286  1.2776  0.3846  0.3826
 3056SOL    HW220631   4.613   3.044   0.408  1.1005 -0.6020  1.1214
 3057SOL     OW20632   1.055   2.393   2.804  0.2094  0.6859  0.4088
 3057SOL    HW120633   0.963   2.406   2.828  0.1623  0.1447  0.5165
 3057SOL    HW220634   1.056   2.351   2.718  0.7514  0.6672  0.4244
 3058SOL     OW20635   2.681   4.333  10.706  0.2484  0.0733 -0.2717
 3058SOL    HW120636   2.652   4.248  10.741 -1.8357  1.3050  1.0143
 3058SOL    HW220637   2.714   4.379  10.783  1.1046  2.3537 -2.0174
 3059SOL     OW20638   4.064   1.901   2.967 -0.3484  0.1128  0.7318
 3059SOL    HW120639   3.993   1.849   3.006  1.1461 -2.6340 -0.2386
 3059SOL    HW220640   4.027   1.926   2.883 -1.9903 -1.7569  0.8938
 3060SOL     OW20641   4.256   1.541   9.176 -0.1958 -0.0535 -0.7846
 3060SOL    HW120642   4.275   1.492   9.095 -1.0684 -2.5763  0.5249
 3060SOL    HW220643   4.293   1.478   9.238 -3.2722 -0.0828  0.9670
 3061SOL     OW20644   4.198   3.038  11.436  0.3685  0.5556  0.5009
 3061SOL    HW120645   4.111   3.077  11.421  1.1038  2.1648  0.4320
 3061SOL    HW220646   4.239   3.077  11.359  1.3914  0.9862  1.2661
 3062SOL     OW20647   2.493   3.645   0.069 -0.4192  0.6437  0.5000
 3062SOL    HW120648   2.473   3.552   0.062  4.2648 -0.3461  0.2111
 3062SOL    HW220649   2.576   3.658   0.023 -0.1280 -2.8413  0.0864
 3063SOL     OW20650   2.866   3.137  12.379 -0.7333  0.2912 -0.2329
 3063SOL    HW120651   2.871   3.192  12.301  1.9580  2.0794  1.1706
 3063SOL    HW220652   2.912   3.190  12.444  0.9144 -2.4111  0.8504
 3064SOL     OW20653   0.898   1.265  13.793 -0.5120  0.3107 -0.6941
 3064SOL    HW120654   0.833   1.263  13.864 -1.1094  0.7136 -1.2276
 3064SOL    HW220655   0.974   1.290  13.846 -0.8321  0.7307 -0.4266
 3065SOL     OW20656   3.468   0.231   0.502 -0.0067 -0.7207  0.0282
 3065SOL    HW120657   3.401   0.197   0.442  0.5860 -2.0005  0.0907
 3065SOL    HW220658   3.496   0.151   0.547  1.7772  0.8204  1.6623
 3066SOL     OW20659   1.500   0.006  11.010 -0.4970 -1.1448 -0.3206
 3066SOL    HW120660   1.427   4.701  11.065 -0.3080  0.0091  0.5023
 3066SOL    HW220661   1.518   4.649  10.960  2.2566 -0.9834  0.4415
 3067SOL     OW20662   3.220   3.354   3.541  0.6247 -0.0542 -0.0518
 3067SOL    HW120663   3.198   3.283   3.480  0.3987  0.2097 -0.2779
 3067SOL    HW220664   3.159   3.330   3.610  1.0038  0.1860  0.3624
 3068SOL     OW20665   1.471   0.901   4.044 -0.0219  0.4573 -0.2508
 3068SOL    HW120666   1.392   0.943   4.078  0.6745  0.8186  0.9226
 3068SOL    HW220667   1.529   0.967   4.082 -0.3558  0.4510  0.2653
 3069SOL     OW20668   3.116   0.545  10.290 -0.3868  0.5690 -0.0649
 3069SOL    HW120669   3.090   0.471  10.235  2.6876 -0.3648 -0.2386
 3069SOL    HW220670   3.210   0.543  10.276 -0.2330 -1.5900  1.2183
 3070SOL     OW20671   3.889   0.623   2.568  0.1113 -0.1721  0.0941
 3070SOL    HW120672   3.797   0.614   2.543 -0.7650  1.2316  2.8162
 3070SOL    HW220673   3.930   0.592   2.487 -0.3327 -2.1501  0.6465
 3071SOL     OW20674   3.756   2.488   4.822 -0.6589  0.0509  0.3200
 3071SOL    HW120675   3.688   2.422   4.832  0.0418 -0.7681 -0.3675
 3071SOL    HW220676   3.707   2.568   4.840  0.2614  0.8461 -0.7536
 3072SOL     OW20677   1.498   3.729   4.999 -0.0440  0.1488  0.4588
 3072SOL    HW120678   1.553   3.762   5.070  0.1672 -0.6795  0.6750
 3072SOL    HW220679   1.539   3.761   4.918 -4.4540 -0.2560 -1.9601
 3073SOL     OW20680   0.033   3.490   6.582 -0.3171  0.3435 -0.2822
 3073SOL    HW120681   0.079   3.441   6.513  0.4904 -0.6591  0.9698
 3073SOL    HW220682   0.063   3.451   6.664  0.5804  2.0610  0.1935
 3074SOL     OW20683   0.397   3.961  15.034  0.0634 -0.5829  0.1531
 3074SOL    HW120684   0.404   3.873  14.998 -1.3417 -0.6358 -0.0139
 3074SOL    HW220685   0.461   4.006  14.979 -0.5750  2.0372  1.5365
 3075SOL     OW20686   4.487   1.200  14.604  0.5677  0.0755  0.1091
 3075SOL    HW120687   4.444   1.199  14.689  3.1989  2.8673  1.4795
 3075SOL    HW220688   4.513   1.108  14.610 -1.2557 -0.4449 -0.1305
 3076SOL     OW20689   3.829   3.213  14.542 -0.2898 -0.1204 -0.0707
 3076SOL    HW120690   3.809   3.275  14.473  0.1187  0.0236 -0.0589
 3076SOL    HW220691   3.869   3.268  14.610 -2.2869  1.0481  0.1697
 3077SOL     OW20692   1.863   3.423   8.071 -0.4522  0.4975 -0.6966
 3077SOL    HW120693   1.839   3.496   8.128  0.8022  0.0620  0.3629
 3077SOL    HW220694   1.942   3.459   8.032  0.9087 -0.3643  1.2699
 3078SOL     OW20695   2.374   1.714   5.406 -0.0741 -0.2946 -0.0573
 3078SOL    HW120696   2.312   1.652   5.369 -0.6766  0.2369  0.0517
 3078SOL    HW220697   2.362   1.795   5.357 -4.6363 -1.3887 -0.7645
 3079SOL     OW20698   1.847   0.119   2.553 -0.0254 -0.5060  0.6642
 3079SOL    HW120699   1.854   0.213   2.571 -0.8428 -0.1038 -1.0561
 3079SOL    HW220700   1.923   0.100   2.498  1.1437 -0.5222  2.2958
 3080SOL     OW20701   4.715   0.518   1.456 -0.3186  0.1895 -1.0661
 3080SOL    HW120702   0.055   0.511   1.529  0.0690 -2.9754 -1.6933
 3080SOL    HW220703   0.035   0.570   1.388  2.2746  1.4084  1.4853
 3081SOL     OW20704   1.458   0.006  14.109  0.2442 -0.2500  0.1293
 3081SOL    HW120705   1.469   0.069  14.037 -2.1421  1.2270  1.0793
 3081SOL    HW220706   1.402   4.666  14.063  0.5484  0.6281 -1.4359
 3082SOL     OW20707   3.527   0.742   4.630 -0.5183 -0.1716  0.2617
 3082SOL    HW120708   3.512   0.755   4.537 -1.4543  1.2134  0.6076
 3082SOL    HW220709   3.534   0.830   4.667 -0.0099  0.3728 -1.1294
 3083SOL     OW20710   2.943   0.448   9.879 -0.0938 -0.1509 -0.5819
 3083SOL    HW120711   2.896   0.523   9.915  0.1366  0.4538 -1.5528
 3083SOL    HW220712   2.878   0.377   9.878 -1.6755  1.2347  1.6929
 3084SOL     OW20713   1.589   1.402  15.245 -0.0860 -0.3536  0.5798
 3084SOL    HW120714   1.559   1.341  15.177  2.0829  2.0206 -2.4997
 3084SOL    HW220715   1.639   1.351  15.309 -0.0213 -0.6074  0.3269
 3085SOL     OW20716   4.432   4.608   3.689 -0.1884 -0.3004 -0.3102
 3085SOL    HW120717   4.508   4.661   3.713 -0.4547  0.6251 -1.4890
 3085SOL    HW220718   4.368   4.674   3.661 -1.7793 -1.1120  1.3789
 3086SOL     OW20719   0.684   3.615   2.966 -0.3986  0.1026 -0.3883
 3086SOL    HW120720   0.725   3.611   3.053 -0.4932  0.2648 -0.3353
 3086SOL    HW220721   0.689   3.522   2.944 -0.1053  0.5235 -2.0920
 3087SOL     OW20722   2.157   0.096  15.953  0.5322 -0.7392  0.0865
 3087SOL    HW120723   2.137   0.184  15.985 -0.3393 -0.3066 -1.6582
 3087SOL    HW220724   2.119   0.111  15.866  0.6847 -1.3668 -0.0918
 3088SOL     OW20725   3.431   0.820   5.714 -0.0816  0.2565 -0.6969
 3088SOL    HW120726   3.466   0.821   5.802 -0.5796  0.5474 -0.4996
 3088SOL    HW220727   3.337   0.832   5.727 -0.1207 -1.8386  1.1110
 3089SOL     OW20728   1.666   3.841  11.228  0.0328  0.0311 -0.5372
 3089SOL    HW120729   1.671   3.836  11.133 -2.1977  0.2067 -0.6847
 3089SOL    HW220730   1.756   3.814  11.245 -0.1444 -1.3037 -1.7354
 3090SOL     OW20731   3.708   4.127   9.395  0.9275 -0.1072  0.1483
 3090SOL    HW120732   3.613   4.112   9.396  0.9374 -0.1029  1.8396
 3090SOL    HW220733   3.725   4.088   9.310  1.8493  0.4100  0.0937
 3091SOL     OW20734   2.224   3.631  16.217  0.3914 -0.3067  0.0453
 3091SOL    HW120735   2.257   3.570  16.151  2.0175 -0.3273  0.8904
 3091SOL    HW220736   2.156   3.577  16.258  0.9571 -0.2280  1.0981
 3092SOL     OW20737   2.525   3.170   2.182  0.6339  0.2514 -0.5006
 3092SOL    HW120738   2.527   3.207   2.094  0.5529 -2.6012 -1.6985
 3092SOL    HW220739   2.501   3.250   2.228 -1.1416 -0.3943 -0.2871
 3093SOL     OW20740   0.175   4.607   6.916 -0.2712  0.4818 -0.2611
 3093SOL    HW120741   0.081   4.624   6.911 -0.3238  0.3529  0.2360
 3093SOL    HW220742   0.180   4.561   6.832  2.5999  0.9591 -0.3487
 3094SOL     OW20743   0.953   3.769   2.008 -0.2148 -0.1010 -0.2499
 3094SOL    HW120744   0.903   3.840   1.967  0.4095  0.0756 -0.7111
 3094SOL    HW220745   0.916   3.697   1.957  0.5320 -1.2927  0.8890
 3095SOL     OW20746   3.819   2.292   7.626 -0.0237  0.5345  0.4956
 3095SOL    HW120747   3.747   2.259   7.681 -1.9044  1.4038 -1.4223
 3095SOL    HW220748   3.786   2.289   7.536 -1.7779  2.6660  1.0598
 3096SOL     OW20749   4.268   1.892   3.152  0.4361  0.6499 -0.0878
 3096SOL    HW120750   4.241   1.875   3.243 -1.0216 -2.5873 -1.1284
 3096SOL    HW220751   4.182   1.904   3.112  0.8056  0.7000 -0.8516
 3097SOL     OW20752   1.755   1.024   6.734 -0.0003 -0.0421 -0.2363
 3097SOL    HW120753   1.802   0.958   6.786 -0.7197  0.4035  0.9918
 3097SOL    HW220754   1.825   1.040   6.672  1.4044 -0.2269  1.2927
 3098SOL     OW20755   3.026   0.627  15.946  0.2058  0.1900 -0.2607
 3098SOL    HW120756   2.964   0.697  15.928  2.5355  2.0598 -1.1479
 3098SOL    HW220757   3.028   0.627  16.041 -0.5477 -1.3280 -0.2395
 3099SOL     OW20758   3.676   0.449   2.055  0.0281  0.2594  0.4835
 3099SOL    HW120759   3.729   0.370   2.048 -0.9911 -0.3881  0.1674
 3099SOL    HW220760   3.592   0.411   2.081 -1.3158  2.2723 -0.8965
 3100SOL     OW20761   3.912   4.031  10.149  0.3560  0.2047  0.8020
 3100SOL    HW120762   3.890   4.055  10.059  3.4178 -1.6597 -0.4499
 3100SOL    HW220763   3.941   4.115  10.185 -0.2289  0.8548 -0.2221
 3101SOL     OW20764   4.144   4.364   7.157  0.0586  0.0494 -0.2517
 3101SOL    HW120765   4.101   4.390   7.075  1.5263 -0.1390 -1.0762
 3101SOL    HW220766   4.065   4.330   7.199  0.8884  0.3629  1.5312
 3102SOL     OW20767   0.533   1.942   8.594 -0.2156  0.2661  0.8165
 3102SOL    HW120768   0.449   1.898   8.604  0.6280 -1.3881  0.6314
 3102SOL    HW220769   0.519   2.019   8.648 -0.5000 -0.9338  2.4590
 3103SOL     OW20770   4.146   1.340   3.773  0.2491 -0.4083 -0.2945
 3103SOL    HW120771   4.116   1.361   3.862  2.5955 -1.2539  0.7173
 3103SOL    HW220772   4.201   1.412   3.743 -2.2541  0.9305 -1.6189
 3104SOL     OW20773   2.704   0.525   4.536 -0.3332 -0.2205  0.0184
 3104SOL    HW120774   2.712   0.437   4.500  0.5615 -0.8416  1.7209
 3104SOL    HW220775   2.699   0.580   4.458 -1.0937 -0.3114 -0.0022
 3105SOL     OW20776   0.242   0.015  10.281  0.7175  0.2003 -0.1828
 3105SOL    HW120777   0.187   4.706  10.209  1.7212  1.1002 -1.3410
 3105SOL    HW220778   0.245   4.664  10.342 -0.6275 -1.8613 -2.6022
 3106SOL     OW20779   4.711   4.225   2.784 -0.0777 -0.2250  0.1662
 3106SOL    HW120780   0.006   4.223   2.690 -0.2454  1.7749  0.0941
 3106SOL    HW220781   0.040   4.297   2.820 -0.6775  1.2365 -1.9061
 3107SOL     OW20782   3.754   0.280  12.523  0.0510 -0.6118 -0.0457
 3107SOL    HW120783   3.709   0.304  12.604  1.8219 -1.1468  1.1137
 3107SOL    HW220784   3.741   0.185  12.517  1.8729 -0.9014  0.6474
 3108SOL     OW20785   0.613   2.782  16.166 -0.2792 -0.2346  0.3433
 3108SOL    HW120786   0.618   2.861  16.111 -2.1132 -0.5891 -0.3276
 3108SOL    HW220787   0.707   2.782  16.182 -0.0777 -0.7939 -0.8071
 3109SOL     OW20788   0.397   1.761  13.145 -0.3341 -0.1339  0.3561
 3109SOL    HW120789   0.315   1.712  13.151 -1.2859  1.3129 -0.8781
 3109SOL    HW220790   0.370   1.841  13.099  0.7219  0.5765  0.9765
 3110SOL     OW20791   4.602   3.502  13.832  0.0411  0.0555  0.0557
 3110SOL    HW120792   4.663   3.447  13.784 -0.6832  0.0315 -0.8359
 3110SOL    HW220793   4.603   3.460  13.918 -1.7610  2.1704  1.1002
 3111SOL     OW20794   4.670   3.156  13.276  0.2468  0.2054  0.1708
 3111SOL    HW120795   4.715   3.139  13.359 -1.1213 -1.8293  0.4882
 3111SOL    HW220796   4.593   3.103  13.296 -1.9119  3.2296 -0.1891
 3112SOL     OW20797   4.361   0.726   5.791 -0.2012  0.2231 -0.5582
 3112SOL    HW120798   4.334   0.724   5.883 -0.8194 -3.0873 -0.8189
 3112SOL    HW220799   4.292   0.785   5.763  0.8111  1.9325  0.5046
 3113SOL     OW20800   3.938   1.029   1.091 -0.4544  0.2554 -0.4387
 3113SOL    HW120801   4.015   0.994   1.046 -1.6051 -1.6600 -0.9441
 3113SOL    HW220802   3.952   0.994   1.179  0.0598  2.1273  0.2161
 3114SOL     OW20803   3.174   2.894   1.842  0.0343  0.1827  0.0147
 3114SOL    HW120804   3.168   2.799   1.853 -0.7291  0.2298 -0.0118
 3114SOL    HW220805   3.259   2.906   1.800 -1.1189  1.7297 -1.8559
 3115SOL     OW20806   2.591   0.336   4.073  0.2616 -0.5983 -0.5790
 3115SOL    HW120807   2.569   0.267   4.010  0.1145 -0.1328 -1.0433
 3115SOL    HW220808   2.686   0.328   4.077  0.6157  0.9822 -5.4268
 3116SOL     OW20809   3.857   0.842   8.145 -0.4248  0.6158  0.0972
 3116SOL    HW120810   3.940   0.806   8.174 -0.5609  1.0877  1.0642
 3116SOL    HW220811   3.881   0.920   8.094  0.0842 -0.1343 -0.7997
 3117SOL     OW20812   2.534   3.024   3.875  0.3608 -0.0521  0.0429
 3117SOL    HW120813   2.505   3.022   3.966  0.7195 -1.7383  0.1114
 3117SOL    HW220814   2.530   3.119   3.863  0.8338  0.2926  2.5896
 3118SOL     OW20815   2.753   1.477   8.070  0.1374  0.7519 -0.2540
 3118SOL    HW120816   2.809   1.553   8.088 -0.4954  0.9311  0.9550
 3118SOL    HW220817   2.805   1.415   8.122 -0.5916  1.7981  1.7192
 3119SOL     OW20818   1.085   1.667  15.589  0.1549 -0.4404 -0.0743
 3119SOL    HW120819   1.080   1.754  15.628 -1.2809  1.1221 -3.7471
 3119SOL    HW220820   1.102   1.695  15.500 -0.9768 -1.2139 -0.5442
 3120SOL     OW20821   3.234   0.688   5.036 -0.5003 -0.2743 -0.1011
 3120SOL    HW120822   3.184   0.719   4.960  0.1992 -0.8504 -0.7894
 3120SOL    HW220823   3.202   0.598   5.028 -1.0300  0.0126 -1.2365
 3121SOL     OW20824   0.804   4.701   6.549  0.2817  0.2798 -0.2200
 3121SOL    HW120825   0.784   0.020   6.633 -1.3583 -1.5454  0.2847
 3121SOL    HW220826   0.822   0.048   6.485 -0.4751  1.6240  1.0544
 3122SOL     OW20827   0.771   0.513   5.849  0.0078 -0.5627 -0.2735
 3122SOL    HW120828   0.841   0.566   5.886 -1.8879 -0.1141  2.6768
 3122SOL    HW220829   0.741   0.466   5.927 -0.9980  0.0798 -0.2688
 3123SOL     OW20830   2.357   2.787   5.475 -0.0516 -0.0093 -0.5210
 3123SOL    HW120831   2.268   2.773   5.505 -0.0050 -1.6563 -1.1015
 3123SOL    HW220832   2.394   2.709   5.518 -1.0075 -0.0313  0.2567
 3124SOL     OW20833   0.078   2.806   6.881  0.0730 -0.1608 -0.4707
 3124SOL    HW120834   0.037   2.777   6.963  1.6620  0.2422  0.4776
 3124SOL    HW220835   0.042   2.893   6.869  0.5073  0.0318 -0.3654
 3125SOL     OW20836   3.567   3.210  11.684  0.2557 -0.6872 -0.3137
 3125SOL    HW120837   3.638   3.156  11.648  1.4676  0.1034  0.8629
 3125SOL    HW220838   3.561   3.169  11.769  1.2363 -3.8251 -1.7746
 3126SOL     OW20839   2.699   4.464   5.717 -0.4507 -0.3853  0.1624
 3126SOL    HW120840   2.786   4.430   5.737 -1.1548 -1.0311  2.2529
 3126SOL    HW220841   2.732   4.554   5.714  0.0826 -0.6024 -0.3843
 3127SOL     OW20842   4.403   3.901   5.285 -0.3439  0.2485 -0.5686
 3127SOL    HW120843   4.380   3.948   5.205  1.2711  0.4976 -0.8923
 3127SOL    HW220844   4.496   3.921   5.298 -0.3997  0.1209  0.0244
 3128SOL     OW20845   4.602   4.407   3.539 -0.1593 -0.0556 -0.5431
 3128SOL    HW120846   4.567   4.472   3.600 -0.7395 -1.1275  0.2643
 3128SOL    HW220847   4.682   4.376   3.581 -0.1728 -0.4258 -0.7960
 3129SOL     OW20848   2.860   3.833   4.576 -0.0641  0.6184 -0.0935
 3129SOL    HW120849   2.844   3.739   4.572  1.8323  0.3398 -0.6241
 3129SOL    HW220850   2.822   3.847   4.663 -0.6723 -2.1985  0.0778
 3130SOL     OW20851   0.561   3.693  14.639  0.3759 -0.3933  0.5148
 3130SOL    HW120852   0.621   3.733  14.575  0.8073 -1.6539  0.1207
 3130SOL    HW220853   0.516   3.636  14.576  0.7823 -0.4927  0.3106
 3131SOL     OW20854   2.323   3.454   2.495 -0.4794  0.5469 -0.5241
 3131SOL    HW120855   2.322   3.374   2.548 -0.8868 -0.4942 -2.0636
 3131SOL    HW220856   2.365   3.436   2.410  1.0727  2.8147 -0.2220
 3132SOL     OW20857   2.345   1.956   5.273 -0.2642 -0.8118 -0.1467
 3132SOL    HW120858   2.294   2.036   5.255 -0.6643 -1.6838 -2.8542
 3132SOL    HW220859   2.431   1.984   5.244  0.0376  0.0103  1.5093
 3133SOL     OW20860   0.463   0.830   1.790  0.1950  0.0012 -0.1059
 3133SOL    HW120861   0.446   0.875   1.873  0.5706 -0.0221 -0.0141
 3133SOL    HW220862   0.550   0.867   1.776  0.6389 -0.3989  1.5488
 3134SOL     OW20863   4.325   1.748   8.140 -0.7829  0.4740 -0.5307
 3134SOL    HW120864   4.286   1.750   8.227  2.3423  0.3990  0.8401
 3134SOL    HW220865   4.301   1.664   8.100  0.4913 -0.2936  0.3078
 3135SOL     OW20866   2.911   2.475  13.007  0.2288  0.3610  0.7411
 3135SOL    HW120867   2.982   2.476  12.943  0.7989  1.3917  1.4086
 3135SOL    HW220868   2.923   2.565  13.035  1.6369 -0.1772  1.8005
 3136SOL     OW20869   4.568   0.600  12.246 -0.4081 -0.0705 -0.1604
 3136SOL    HW120870   4.510   0.537  12.203  1.9583 -1.8025 -0.7852
 3136SOL    HW220871   4.504   0.628  12.312  0.0886  2.1105 -0.6097
 3137SOL     OW20872   2.719   1.004   4.177 -0.2501  0.4801  0.0917
 3137SOL    HW120873   2.694   0.986   4.268 -0.6725 -1.9693 -0.5054
 3137SOL    HW220874   2.688   1.095   4.175 -0.3608  0.4482  0.3278
 3138SOL     OW20875   4.281   2.189   2.797 -0.1942 -0.7643  0.2326
 3138SOL    HW120876   4.296   2.113   2.740 -1.6616 -0.8822  0.0193
 3138SOL    HW220877   4.236   2.251   2.741 -0.5420  1.7976  3.3662
 3139SOL     OW20878   2.161   0.540  14.466  0.4268  0.3961 -0.1958
 3139SOL    HW120879   2.133   0.574  14.381 -0.6839 -0.4040 -0.1506
 3139SOL    HW220880   2.248   0.505  14.446  0.8536  0.5110  1.5000
 3140SOL     OW20881   2.460   0.034   7.881  0.4188  0.4575 -0.1148
 3140SOL    HW120882   2.422   0.001   7.799  0.8914 -0.0248 -0.1410
 3140SOL    HW220883   2.439   4.682   7.937  0.1283  0.2904 -0.4467
 3141SOL     OW20884   4.430   1.960  16.770 -0.8039 -0.4599 -0.4959
 3141SOL    HW120885   4.380   1.879  16.763 -0.0682 -0.9762  0.2911
 3141SOL    HW220886   4.353   2.016  16.756  1.1569  2.1702 -0.7105
 3142SOL     OW20887   4.301   1.060   5.199  0.0786  0.2728  0.2396
 3142SOL    HW120888   4.394   1.058   5.175  0.0337  0.5002  0.0478
 3142SOL    HW220889   4.295   1.151   5.227 -2.5678 -0.1120  0.8917
 3143SOL     OW20890   3.909   4.107   5.687 -0.6200 -0.2672 -0.0219
 3143SOL    HW120891   3.943   4.186   5.645 -0.8549 -0.2260 -0.1385
 3143SOL    HW220892   3.861   4.146   5.760 -0.6588  1.7854 -1.1418
 3144SOL     OW20893   2.970   3.237   2.616 -0.0895  0.3262 -0.1132
 3144SOL    HW120894   3.022   3.230   2.536  0.7141  1.3253  0.3275
 3144SOL    HW220895   3.024   3.194   2.683 -1.4783 -1.9699 -0.4536
 3145SOL     OW20896   0.068   0.442   6.099 -0.3169  0.0323 -0.4191
 3145SOL    HW120897   0.013   0.467   6.173 -0.9749 -0.4516 -0.7477
 3145SOL    HW220898   0.084   0.524   6.051  0.9446 -0.0417 -0.1276
 3146SOL     OW20899   2.597   3.083   6.893 -0.3179 -0.4818  0.0411
 3146SOL    HW120900   2.691   3.097   6.896 -0.2043 -1.3684  0.8109
 3146SOL    HW220901   2.598   3.001   6.843  1.4606  0.3755 -1.3059
 3147SOL     OW20902   3.154   4.685   2.246  0.5779 -0.1064 -0.5612
 3147SOL    HW120903   3.120   4.605   2.206  0.0369 -0.2864  0.2714
 3147SOL    HW220904   3.087   0.023   2.215 -0.2893 -0.2137  1.1205
 3148SOL     OW20905   1.649   3.227  13.900 -0.7523  0.2570 -0.5101
 3148SOL    HW120906   1.637   3.241  13.806  1.1450 -0.2052 -0.8219
 3148SOL    HW220907   1.712   3.294  13.928 -1.9728  0.9609  0.5206
 3149SOL     OW20908   0.471   2.823  15.354 -0.1704  0.5587  0.1024
 3149SOL    HW120909   0.522   2.816  15.435  1.2652  0.6851 -0.7928
 3149SOL    HW220910   0.385   2.806  15.391 -0.5565  1.2543 -0.4797
 3150SOL     OW20911   3.242   2.027   5.482  0.0528 -0.1971 -0.2939
 3150SOL    HW120912   3.161   2.029   5.431  0.4283  0.0768 -0.8749
 3150SOL    HW220913   3.213   1.995   5.567  0.6752  0.0969  0.0218
 3151SOL     OW20914   2.787   2.992   7.809 -0.0794 -0.4320 -0.6158
 3151SOL    HW120915   2.827   2.979   7.895 -2.1435  2.7484  0.8092
 3151SOL    HW220916   2.844   2.931   7.762  2.0203  1.3031 -0.2948
 3152SOL     OW20917   3.920   1.697   2.656  0.1426  0.6218  0.7355
 3152SOL    HW120918   3.985   1.667   2.720 -1.9860 -0.5455  2.3275
 3152SOL    HW220919   3.847   1.638   2.674  0.4500  0.1306  0.3809
 3153SOL     OW20920   0.074   4.092  12.831 -0.2723  0.3603 -0.7299
 3153SOL    HW120921   0.018   4.169  12.819 -0.7263 -0.0829 -1.4520
 3153SOL    HW220922   0.046   4.060  12.917 -0.0130  0.1288 -0.7304
 3154SOL     OW20923   0.618   0.912  13.276 -0.1893 -0.0639  0.4243
 3154SOL    HW120924   0.709   0.888  13.260  0.1392  0.1665  1.8819
 3154SOL    HW220925   0.618   1.004  13.249  2.4931 -0.4917 -1.0423
 3155SOL     OW20926   1.900   3.036  11.296 -0.1336  0.0529  0.6887
 3155SOL    HW120927   1.925   3.125  11.318  1.2973  0.1429 -1.2506
 3155SOL    HW220928   1.843   3.059  11.223 -0.6569 -0.4938  0.9202
 3156SOL     OW20929   1.832   1.439   8.841 -0.0994  0.5524  0.2931
 3156SOL    HW120930   1.738   1.451   8.849 -0.0317 -0.3259  2.2889
 3156SOL    HW220931   1.857   1.530   8.826 -0.1145  0.5398  0.1898
 3157SOL     OW20932   2.014   4.023   9.086 -0.0092  0.2082  0.0325
 3157SOL    HW120933   1.974   4.098   9.131  2.3224  0.7531  1.1782
 3157SOL    HW220934   1.959   4.012   9.008  1.2337 -3.7943 -0.2674
 3158SOL     OW20935   3.821   3.355   6.968  0.0059 -0.0390  0.1009
 3158SOL    HW120936   3.903   3.312   6.991  1.0129  2.0062  0.3059
 3158SOL    HW220937   3.832   3.375   6.875  2.3968 -1.0093  0.1833
 3159SOL     OW20938   0.648   2.222   9.205  0.1144  0.0903 -0.1241
 3159SOL    HW120939   0.606   2.305   9.182  0.3522  0.0591 -0.6736
 3159SOL    HW220940   0.576   2.190   9.259 -1.1066  0.3441 -1.6076
 3160SOL     OW20941   3.599   4.483   0.753 -0.1881  0.5209  0.1214
 3160SOL    HW120942   3.525   4.423   0.742 -0.3966  1.1306 -1.8457
 3160SOL    HW220943   3.680   4.432   0.744 -1.9832 -2.4032  0.4285
 3161SOL     OW20944   0.717   0.837  16.370 -0.6754  0.5229 -0.3339
 3161SOL    HW120945   0.657   0.911  16.376  0.1070  1.0355  1.1386
 3161SOL    HW220946   0.781   0.865  16.435  0.6969 -2.0395 -0.5385
 3162SOL     OW20947   1.378   2.536   6.697 -0.4022 -0.1189 -1.1147
 3162SOL    HW120948   1.354   2.622   6.732  1.6405  0.2329 -0.5624
 3162SOL    HW220949   1.349   2.533   6.606  0.6746 -2.1273 -1.4026
 3163SOL     OW20950   1.399   1.041   5.015 -0.1715  0.1082  0.3568
 3163SOL    HW120951   1.398   0.996   4.931  1.4159 -1.1725  1.0275
 3163SOL    HW220952   1.319   1.093   5.009  0.2353  0.5498 -1.2426
 3164SOL     OW20953   1.992   1.955   0.914  0.8277 -0.0382 -0.2986
 3164SOL    HW120954   2.012   1.873   0.869 -0.0973 -0.2056 -0.3985
 3164SOL    HW220955   2.072   2.003   0.891  0.0834  1.0085 -0.7105
 3165SOL     OW20956   4.024   0.350  11.263  0.4164  0.1463  0.3681
 3165SOL    HW120957   4.100   0.368  11.207 -0.2644  1.5585 -0.0871
 3165SOL    HW220958   3.968   0.418  11.226  2.0081 -0.4091 -3.0944
 3166SOL     OW20959   4.640   2.121  14.766 -0.3103  0.4417 -0.5323
 3166SOL    HW120960   4.602   2.178  14.833  0.5880 -1.9927  2.0756
 3166SOL    HW220961   4.677   2.053  14.823 -0.6437  0.2510 -0.5437
 3167SOL     OW20962   2.808   4.370   3.811 -0.3231  0.4242  0.7883
 3167SOL    HW120963   2.860   4.426   3.869  1.7276  0.0664 -0.7453
 3167SOL    HW220964   2.882   4.346   3.756 -0.4427 -0.3573  0.9709
 3168SOL     OW20965   3.046   0.167  10.590 -0.2247 -0.3637 -0.2538
 3168SOL    HW120966   2.979   0.225  10.553  0.5719  1.1268  0.6385
 3168SOL    HW220967   3.049   0.190  10.683 -1.5244 -0.2016 -0.2468
 3169SOL     OW20968   0.120   1.758  11.444 -0.6300  0.6267 -0.0209
 3169SOL    HW120969   0.081   1.711  11.370  2.0131 -0.4820 -0.7050
 3169SOL    HW220970   0.172   1.827  11.403  0.4422 -0.6111 -0.7299
 3170SOL     OW20971   1.519   3.465   5.013 -0.0675  0.2070 -0.7007
 3170SOL    HW120972   1.515   3.559   4.997  0.0202  0.4406  0.7012
 3170SOL    HW220973   1.553   3.435   4.928 -0.0027 -0.7308 -0.3420
 3171SOL     OW20974   4.246   2.027   3.774 -0.4761 -0.1092 -0.4403
 3171SOL    HW120975   4.321   2.016   3.716  0.9486  1.4226  1.1095
 3171SOL    HW220976   4.207   1.939   3.776  0.0024 -0.3330 -1.0509
 3172SOL     OW20977   0.419   0.370   8.374 -0.1125 -0.0323 -0.1851
 3172SOL    HW120978   0.513   0.383   8.364 -0.3645  0.4841 -1.8595
 3172SOL    HW220979   0.391   0.452   8.416  2.1290  1.3885 -1.5034
 3173SOL     OW20980   0.920   4.463   2.531  0.0240  0.3254  0.1835
 3173SOL    HW120981   0.862   4.536   2.555  0.9400  0.4437  2.0347
 3173SOL    HW220982   1.005   4.501   2.551 -0.6986  2.6384 -1.1797
 3174SOL     OW20983   1.715   4.330  13.829 -0.3949 -0.5100  0.7516
 3174SOL    HW120984   1.808   4.344  13.848 -0.4616 -0.1397  0.7939
 3174SOL    HW220985   1.718   4.332  13.733 -0.3624 -1.3123  0.7333
 3175SOL     OW20986   0.599   4.448   5.863  0.2397 -0.3111 -0.2025
 3175SOL    HW120987   0.667   4.428   5.799  0.9879  1.5923 -0.0200
 3175SOL    HW220988   0.590   4.543   5.876 -1.1150 -0.3356 -0.9854
 3176SOL     OW20989   0.292   3.687   2.712  0.6676  0.2510 -0.1371
 3176SOL    HW120990   0.253   3.692   2.799  1.0299  1.7397 -0.0528
 3176SOL    HW220991   0.319   3.595   2.711 -0.2064 -0.0561  2.5195
 3177SOL     OW20992   4.130   1.623   0.480  0.1556  0.1713 -0.2269
 3177SOL    HW120993   4.137   1.707   0.527 -1.8028  0.0369  0.3350
 3177SOL    HW220994   4.174   1.652   0.400  0.0525  1.1588  0.0681
 3178SOL     OW20995   1.218   2.392  14.729  0.5010 -0.1653  0.0993
 3178SOL    HW120996   1.261   2.414  14.812 -1.6339  0.3928  1.0477
 3178SOL    HW220997   1.285   2.333  14.695  1.1440 -0.3323  1.6351
 3179SOL     OW20998   0.873   4.203  12.998  0.3404 -0.0227  0.5453
 3179SOL    HW120999   0.932   4.140  12.956 -1.7473 -1.1401 -0.7253
 3179SOL    HW221000   0.797   4.150  13.021  0.5547 -0.8088 -0.5609
 3180SOL     OW21001   4.440   2.059  13.582  0.4667  0.0960 -0.4550
 3180SOL    HW121002   4.382   2.133  13.598 -1.3665 -1.5806  0.7184
 3180SOL    HW221003   4.383   1.992  13.544  1.9440 -1.9008  0.8445
 3181SOL     OW21004   2.900   2.231   2.722 -0.0727 -0.5727  0.1115
 3181SOL    HW121005   2.952   2.206   2.798 -3.3430  0.2825  2.6075
 3181SOL    HW221006   2.940   2.315   2.701 -2.1335  0.4656  0.3117
 3182SOL     OW21007   3.091   3.492   8.025 -0.6332  0.1022 -0.2712
 3182SOL    HW121008   3.011   3.537   8.052 -1.1535  1.0876 -3.4878
 3182SOL    HW221009   3.075   3.447   7.942 -0.6812  0.0524 -0.2347
 3183SOL     OW21010   1.370   2.709  10.412  0.4999 -0.2188  0.3222
 3183SOL    HW121011   1.364   2.775  10.343  0.6609 -0.4949  0.0432
 3183SOL    HW221012   1.282   2.709  10.451  0.6292  3.2440  0.6114
 3184SOL     OW21013   4.304   1.112  14.241 -0.4809  0.0894  0.1989
 3184SOL    HW121014   4.389   1.152  14.258 -0.2127  0.4786 -1.9984
 3184SOL    HW221015   4.308   1.020  14.267  2.0032 -0.7066 -3.0263
 3185SOL     OW21016   3.849   1.806  15.620  0.0669  0.1929 -0.4161
 3185SOL    HW121017   3.793   1.753  15.676  1.8880 -0.2451  1.0109
 3185SOL    HW221018   3.799   1.887  15.622 -0.0144  0.1281  0.1332
 3186SOL     OW21019   3.993   1.078   3.337  0.1695  0.5801 -0.2451
 3186SOL    HW121020   3.996   1.134   3.415  0.0384 -2.3828  1.9022
 3186SOL    HW221021   3.987   1.144   3.268  2.2371 -1.1591 -2.0478
 3187SOL     OW21022   0.094   2.958  12.802 -0.0889  0.0510 -0.2188
 3187SOL    HW121023   0.091   3.041  12.849  4.0812  1.8393 -3.0605
 3187SOL    HW221024   0.178   2.967  12.756  0.5560  0.2181  0.9943
 3188SOL     OW21025   3.995   1.391   0.188  0.0835 -0.3529 -0.1500
 3188SOL    HW121026   3.965   1.449   0.258 -0.5473 -0.8176 -0.0412
 3188SOL    HW221027   4.080   1.426   0.160 -0.1348  1.0597  0.9406
 3189SOL     OW21028   2.966   1.331   5.163  0.2675  0.5147 -0.5595
 3189SOL    HW121029   2.891   1.294   5.210 -0.2178 -0.1349 -1.8617
 3189SOL    HW221030   2.916   1.370   5.091 -0.8235 -4.2211 -2.3120
 3190SOL     OW21031   0.943   1.191  12.206 -0.3972  0.4269 -0.2265
 3190SOL    HW121032   0.900   1.107  12.194 -0.2033  0.6479 -2.4605
 3190SOL    HW221033   0.944   1.215  12.299 -1.8402  0.4292 -0.2218
 3191SOL     OW21034   1.866   3.384   3.540 -0.2611 -0.4640  0.3382
 3191SOL    HW121035   1.941   3.443   3.541 -0.2954 -0.4267  0.6623
 3191SOL    HW221036   1.890   3.305   3.587  1.3006  0.7698  1.6067
 3192SOL     OW21037   1.318   2.462  14.988  0.3336  0.2818  0.3432
 3192SOL    HW121038   1.231   2.422  14.999  0.7908 -1.1824 -1.4126
 3192SOL    HW221039   1.368   2.421  15.059 -0.5391 -2.1385 -0.4544
 3193SOL     OW21040   1.273   0.240  16.771  0.3027  0.4841 -0.2997
 3193SOL    HW121041   1.254   0.204  16.858  0.8299  0.7894 -0.0564
 3193SOL    HW221042   1.238   0.327  16.789  0.8950  0.3515  1.5750
 3194SOL     OW21043   2.226   3.236   3.813  0.2494  0.9110 -0.5384
 3194SOL    HW121044   2.166   3.172   3.851  3.1490 -2.6738 -2.0438
 3194SOL    HW221045   2.190   3.258   3.727 -1.2392  0.0268 -0.1322
 3195SOL     OW21046   2.934   1.191   1.032  0.0945 -0.4222 -0.6352
 3195SOL    HW121047   2.999   1.259   1.049 -0.5882 -0.3398  1.6211
 3195SOL    HW221048   2.958   1.165   0.943  2.9195 -1.0064  0.3179
 3196SOL     OW21049   0.105   0.046  17.066 -0.2477 -0.2173 -0.1651
 3196SOL    HW121050   0.078   0.003  17.147  0.7743  0.0039  0.2787
 3196SOL    HW221051   0.200   0.041  17.072 -0.3530 -1.7841  0.2142
 3197SOL     OW21052   1.283   3.081   5.174 -0.4519 -0.2034  0.2094
 3197SOL    HW121053   1.225   3.008   5.197 -1.2192  0.9005  1.7912
 3197SOL    HW221054   1.349   3.031   5.127 -1.0190 -1.0498  0.3150
 3198SOL     OW21055   1.533   2.690   3.539 -0.4900 -0.0557 -0.5765
 3198SOL    HW121056   1.527   2.596   3.521  0.7233 -0.0217 -1.1244
 3198SOL    HW221057   1.483   2.729   3.467 -0.5014 -1.0566 -1.1148
 3199SOL     OW21058   3.056   1.053   2.200  0.6496  1.1622  0.3225
 3199SOL    HW121059   3.082   1.064   2.109 -1.3988 -2.3398 -0.7098
 3199SOL    HW221060   2.982   0.994   2.181  3.6043 -3.0217  1.7756
 3200SOL     OW21061   3.992   4.048   3.037 -0.2851  0.3364 -1.0060
 3200SOL    HW121062   4.030   3.960   3.039 -1.7193 -0.3128 -1.7392
 3200SOL    HW221063   4.055   4.095   2.983  0.9689  0.8316  0.8903
 3201SOL     OW21064   1.308   0.618   9.282  0.0223  0.2371  0.2566
 3201SOL    HW121065   1.253   0.609   9.361  1.2283  1.2520  1.2099
 3201SOL    HW221066   1.398   0.619   9.313  1.0170 -0.0953 -2.6525
 3202SOL     OW21067   0.804   3.508   9.304  0.3903 -0.7952  0.3789
 3202SOL    HW121068   0.805   3.602   9.318 -1.0046 -0.6483 -0.4871
 3202SOL    HW221069   0.825   3.482   9.393 -0.6063  2.4723  1.5468
 3203SOL     OW21070   3.226   4.185   9.250 -0.1612  0.7382 -0.8689
 3203SOL    HW121071   3.153   4.128   9.277  0.9731  0.2641  1.1804
 3203SOL    HW221072   3.172   4.264   9.256  0.0288  0.5540  3.2844
 3204SOL     OW21073   0.640   4.396   3.507  0.0768 -0.1855  0.6130
 3204SOL    HW121074   0.643   4.354   3.593  1.5587 -1.7776 -0.1962
 3204SOL    HW221075   0.560   4.448   3.510  0.3958  0.3115  0.4859
 3205SOL     OW21076   2.124   3.815   7.877 -0.3992 -0.1276 -0.1158
 3205SOL    HW121077   2.113   3.752   7.949 -1.2735  0.5937  0.3807
 3205SOL    HW221078   2.101   3.778   7.792 -2.5161  1.8804 -0.4123
 3206SOL     OW21079   3.206   0.078  17.561 -0.2329  0.3017  0.1237
 3206SOL    HW121080   3.160   0.054  17.642 -0.0197 -0.3477  0.0548
 3206SOL    HW221081   3.127   0.085  17.507  0.8534  0.4806 -1.4197
 3207SOL     OW21082   4.236   1.739   6.128  0.1435 -0.4744  0.3139
 3207SOL    HW121083   4.328   1.725   6.106 -0.3362 -2.9200 -0.1463
 3207SOL    HW221084   4.213   1.654   6.166 -1.1642  1.1750  3.1751
 3208SOL     OW21085   0.307   2.798  12.170  0.3977  0.0964  0.3128
 3208SOL    HW121086   0.264   2.863  12.224 -0.7511  1.6960 -2.5086
 3208SOL    HW221087   0.335   2.732  12.234 -0.7459  1.3803  2.1272
 3209SOL     OW21088   4.270   0.836   8.592  0.6731  0.6688  0.5303
 3209SOL    HW121089   4.359   0.852   8.559  0.4747  1.9004  0.5724
 3209SOL    HW221090   4.256   0.916   8.643 -1.5923  0.9028 -0.4730
 3210SOL     OW21091   4.536   0.788   9.253  0.2772 -0.1151  0.1459
 3210SOL    HW121092   4.532   0.713   9.194 -0.3859  0.7414 -0.8989
 3210SOL    HW221093   4.621   0.822   9.228  0.3991  0.7929  1.7854
 3211SOL     OW21094   3.618   0.046   2.532 -0.0453 -0.5107  0.1448
 3211SOL    HW121095   3.644   4.690   2.580 -0.3232 -1.2388 -0.9027
 3211SOL    HW221096   3.686   0.111   2.553 -1.3812  0.6959  0.7495
 3212SOL     OW21097   3.558   0.637   6.296  0.4602  0.1489 -0.1807
 3212SOL    HW121098   3.578   0.560   6.244 -1.9106 -0.2646 -0.4576
 3212SOL    HW221099   3.629   0.692   6.263  0.4320  0.7759  0.8040
 3213SOL     OW21100   4.614   0.369  16.891 -0.7443  0.0534  0.3259
 3213SOL    HW121101   4.647   0.285  16.860  0.3504  0.3754  0.6166
 3213SOL    HW221102   4.570   0.341  16.972 -0.5069  0.5942  0.6435
 3214SOL     OW21103   2.982   3.469  14.617  0.4527 -0.1187  0.2154
 3214SOL    HW121104   2.951   3.420  14.694  0.5892 -1.4198 -0.5558
 3214SOL    HW221105   2.904   3.507  14.576 -0.2927 -0.8084  0.9817
 3215SOL     OW21106   3.583   3.303  15.789 -0.2363 -0.0742  0.0071
 3215SOL    HW121107   3.572   3.339  15.877  0.8325  2.9371 -1.0970
 3215SOL    HW221108   3.675   3.279  15.798  0.0506  1.5878  1.5591
 3216SOL     OW21109   3.687   2.943  11.379 -0.0094  0.1883  0.3862
 3216SOL    HW121110   3.606   2.974  11.339  0.2209  0.4521  0.1332
 3216SOL    HW221111   3.698   2.862  11.329 -0.4855  2.6818 -3.6787
 3217SOL     OW21112   1.515   3.147   8.881 -1.1462  1.1005  0.4386
 3217SOL    HW121113   1.594   3.095   8.892 -0.6001  1.6213 -1.0671
 3217SOL    HW221114   1.498   3.166   8.973  0.6065 -0.0119  0.9714
 3218SOL     OW21115   4.485   3.179   5.585  0.0308  0.1907  0.4001
 3218SOL    HW121116   4.534   3.111   5.629  2.1843  0.8298 -0.9899
 3218SOL    HW221117   4.534   3.261   5.594  0.6127 -0.4531  2.9158
 3219SOL     OW21118   2.101   2.549   4.882 -0.4973  1.1840 -0.4862
 3219SOL    HW121119   2.104   2.592   4.967  0.3231  1.8359 -0.8520
 3219SOL    HW221120   2.048   2.471   4.898  0.2810  0.5565 -0.9619
 3220SOL     OW21121   0.719   0.495   9.303 -0.4629 -0.1382 -0.4828
 3220SOL    HW121122   0.647   0.510   9.365  2.3632  1.6212  2.3277
 3220SOL    HW221123   0.652   0.485   9.235  0.3466 -4.2028 -0.6814
 3221SOL     OW21124   3.160   1.323   6.095  0.0605  0.2182 -0.1388
 3221SOL    HW121125   3.229   1.389   6.098  0.5189 -0.2870  0.7673
 3221SOL    HW221126   3.169   1.309   6.001  1.5723 -3.8600  0.5888
 3222SOL     OW21127   3.024   1.736   6.697  0.4257  0.0797  0.2087
 3222SOL    HW121128   2.954   1.670   6.699  0.8625 -0.3464  1.3871
 3222SOL    HW221129   3.054   1.736   6.606 -0.7089  0.0612 -0.1668
 3223SOL     OW21130   2.774   0.030   7.464  0.7467  0.1378  0.2259
 3223SOL    HW121131   2.754   0.004   7.374 -2.3076  0.5303  0.7962
 3223SOL    HW221132   2.687   0.029   7.504  0.0310  1.7591 -1.2578
 3224SOL     OW21133   2.520   3.560   8.507 -0.5369  0.6846 -0.2014
 3224SOL    HW121134   2.524   3.619   8.432 -0.9494  0.9786  0.0084
 3224SOL    HW221135   2.563   3.483   8.469 -1.4739  0.2106 -0.2962
 3225SOL     OW21136   0.397   2.910   4.445  0.2157  0.0672  0.0012
 3225SOL    HW121137   0.374   2.899   4.538 -2.1444  0.9437 -0.4754
 3225SOL    HW221138   0.455   2.986   4.448  0.2633 -0.0462  1.8732
 3226SOL     OW21139   3.764   0.924  12.190 -0.1138  0.6576 -0.4215
 3226SOL    HW121140   3.806   0.838  12.201  1.7876  1.4530 -1.3237
 3226SOL    HW221141   3.736   0.945  12.278 -1.8328 -1.5836 -0.4449
 3227SOL     OW21142   1.150   0.462   8.020  0.1396 -0.5887 -0.3196
 3227SOL    HW121143   1.136   0.489   7.929 -0.9077 -0.8896 -0.2538
 3227SOL    HW221144   1.068   0.412   8.020 -1.2960  1.7390 -0.3645
 3228SOL     OW21145   1.657   1.603   3.597  0.0296  0.5452 -0.1464
 3228SOL    HW121146   1.728   1.579   3.657 -1.9288 -4.1194  0.2683
 3228SOL    HW221147   1.714   1.640   3.530  0.5831  0.8604  0.4996
 3229SOL     OW21148   1.886   4.421   1.667  0.4874  0.0043  0.1334
 3229SOL    HW121149   1.809   4.424   1.724  0.4437 -0.0464  0.0781
 3229SOL    HW221150   1.864   4.479   1.595 -1.3349 -0.8140  0.0326
 3230SOL     OW21151   2.284   2.780  15.600 -0.3139 -0.6164 -0.7261
 3230SOL    HW121152   2.261   2.849  15.662  1.1299  0.4174 -1.3436
 3230SOL    HW221153   2.377   2.792  15.580 -1.0133  3.7210 -1.3225
 3231SOL     OW21154   1.278   2.025   7.055  0.1449  0.0269 -0.4226
 3231SOL    HW121155   1.304   2.097   7.113  1.7942 -0.1266 -0.9786
 3231SOL    HW221156   1.311   2.062   6.974 -0.8790  0.7774 -0.4965
 3232SOL     OW21157   3.590   3.070   2.244  0.0588 -0.7626  0.8692
 3232SOL    HW121158   3.650   3.111   2.182 -1.8029  2.6102  1.3119
 3232SOL    HW221159   3.596   3.131   2.318 -0.2591 -0.6357  0.7924
 3233SOL     OW21160   3.598   3.911  15.129  0.0185 -0.2078 -0.2183
 3233SOL    HW121161   3.661   3.968  15.174  3.0655 -0.8710 -3.6176
 3233SOL    HW221162   3.609   3.839  15.193  0.2932  0.1465  0.1353
 3234SOL     OW21163   3.684   1.647   3.199 -0.0130  0.3616  0.4180
 3234SOL    HW121164   3.662   1.667   3.290 -0.0074 -0.7570  0.6669
 3234SOL    HW221165   3.615   1.705   3.166 -0.4624  0.1897  1.0566
 3235SOL     OW21166   2.489   1.761   8.689  0.3233  0.0852  0.3740
 3235SOL    HW121167   2.472   1.687   8.630  0.8955 -0.3421  0.7522
 3235SOL    HW221168   2.546   1.710   8.745  0.4008  0.5058  0.6755
 3236SOL     OW21169   3.913   1.455   3.390  0.0560  0.1897  0.3778
 3236SOL    HW121170   3.839   1.402   3.360  0.6246  0.0002 -0.7055
 3236SOL    HW221171   3.871   1.498   3.464  0.5827  0.7761  0.3349
 3237SOL     OW21172   3.284   3.710   4.458  0.6375 -0.6797  0.2322
 3237SOL    HW121173   3.245   3.785   4.503  2.0988  0.9924 -1.3060
 3237SOL    HW221174   3.200   3.665   4.445  0.4135 -0.5655  1.2878
 3238SOL     OW21175   2.739   2.817   1.179 -0.2345  0.6449 -0.4210
 3238SOL    HW121176   2.724   2.723   1.193 -1.2201  0.8356 -0.2339
 3238SOL    HW221177   2.702   2.868   1.251 -2.4568 -1.4183 -0.1188
 3239SOL     OW21178   1.905   3.063  13.755 -0.2183  0.3623 -0.3932
 3239SOL    HW121179   1.885   3.094  13.843  1.9112  0.8631 -0.0977
 3239SOL    HW221180   1.902   3.145  13.707 -0.9960  1.1775  1.0423
 3240SOL     OW21181   0.084   0.372   5.012 -0.1536  0.3595 -0.0230
 3240SOL    HW121182   0.160   0.333   4.969 -0.3128  0.5155 -0.4413
 3240SOL    HW221183   0.016   0.390   4.947 -0.8201  0.5131  0.7198
 3241SOL     OW21184   1.794   3.816   0.858  0.1851 -0.3028 -0.2892
 3241SOL    HW121185   1.828   3.820   0.948 -0.4586 -0.0608 -0.0545
 3241SOL    HW221186   1.871   3.843   0.807 -0.2590 -0.3117 -0.9622
 3242SOL     OW21187   2.560   0.706   8.563  0.1188 -0.1487 -0.2281
 3242SOL    HW121188   2.558   0.611   8.550 -0.7178 -0.4302  2.0915
 3242SOL    HW221189   2.476   0.724   8.606  1.3780  0.0182  2.0936
 3243SOL     OW21190   1.124   0.419  12.380  0.4543 -0.0316 -0.3775
 3243SOL    HW121191   1.190   0.489  12.381  0.7840 -0.3624  0.5938
 3243SOL    HW221192   1.100   0.418  12.473 -4.3636 -2.3597 -1.6706
 3244SOL     OW21193   4.372   2.159   4.120 -0.4124  0.4956  0.4541
 3244SOL    HW121194   4.431   2.166   4.195  0.7813  0.9455 -0.5111
 3244SOL    HW221195   4.406   2.080   4.078  0.6233  0.3031  1.6566
 3245SOL     OW21196   4.169   3.356   1.742  0.6689  0.3940 -0.5356
 3245SOL    HW121197   4.107   3.372   1.671  0.2752  1.7342  0.1183
 3245SOL    HW221198   4.125   3.403   1.813  1.4810  1.3712 -0.6725
 3246SOL     OW21199   4.655   4.171   1.526  0.0987 -0.5097  0.1084
 3246SOL    HW121200   4.633   4.117   1.602 -1.2321 -0.5366 -0.2903
 3246SOL    HW221201   4.568   4.211   1.518 -0.3992 -1.4518  0.6808
 3247SOL     OW21202   1.739   0.234   7.495 -0.0910  0.2130  0.4253
 3247SOL    HW121203   1.802   0.306   7.495 -0.1005  0.2293  1.5762
 3247SOL    HW221204   1.666   0.276   7.540 -1.3184 -0.3632 -1.0382
 3248SOL     OW21205   3.293   4.155   4.497  0.0383  0.4402 -0.2726
 3248SOL    HW121206   3.279   4.163   4.591 -1.5734 -0.1430 -0.4565
 3248SOL    HW221207   3.233   4.217   4.455 -0.8023  0.8480  1.5351
 3249SOL     OW21208   2.224   4.102   3.451 -0.3546  0.5519 -0.4100
 3249SOL    HW121209   2.260   4.116   3.364 -0.8520 -1.5602 -0.9438
 3249SOL    HW221210   2.160   4.173   3.452 -2.2405 -1.1835  0.6839
 3250SOL     OW21211   2.856   2.705   5.161  0.3625  0.4421 -0.2626
 3250SOL    HW121212   2.935   2.745   5.199  0.1910  0.4654  0.0687
 3250SOL    HW221213   2.866   2.751   5.078 -0.9957 -0.0498 -0.6931
 3251SOL     OW21214   0.133   1.561  11.927  0.1801 -0.2806 -0.5069
 3251SOL    HW121215   0.052   1.516  11.905 -0.7570  0.5025  1.3359
 3251SOL    HW221216   0.200   1.497  11.947 -0.1740  0.3888  2.8018
 3252SOL     OW21217   3.589   3.607   5.384 -0.0660 -0.6118 -0.4002
 3252SOL    HW121218   3.511   3.555   5.362  0.4041 -1.6699  0.4210
 3252SOL    HW221219   3.548   3.693   5.390 -0.8671 -1.0946  1.2494
 3253SOL     OW21220   1.798   1.866   7.913 -0.2885 -0.0478 -0.3235
 3253SOL    HW121221   1.713   1.823   7.902 -0.8889  0.9976  0.2479
 3253SOL    HW221222   1.804   1.899   7.823  0.6992  2.5679  0.7217
 3254SOL     OW21223   3.969   3.565  13.497 -0.1089  0.1238 -0.3368
 3254SOL    HW121224   4.002   3.502  13.560 -0.7019  0.2547  0.1058
 3254SOL    HW221225   4.029   3.545  13.424  0.0176 -3.0832  0.6535
 3255SOL     OW21226   3.177   3.531   0.814  0.0802 -0.0118  0.1020
 3255SOL    HW121227   3.187   3.451   0.866  1.0685 -0.0859 -0.2006
 3255SOL    HW221228   3.134   3.501   0.734  2.4828  1.4229 -1.7457
 3256SOL     OW21229   2.920   3.204   5.360 -0.4571  0.3728  0.3419
 3256SOL    HW121230   2.946   3.128   5.413  1.9013  1.6192  0.9660
 3256SOL    HW221231   2.955   3.276   5.413  0.6611  0.7095 -0.8570
 3257SOL     OW21232   3.893   3.823   1.356  0.5281  0.2640 -0.2394
 3257SOL    HW121233   3.973   3.854   1.314 -0.4358  2.3933 -0.5147
 3257SOL    HW221234   3.867   3.753   1.297 -1.0513  2.3570 -1.9869
 3258SOL     OW21235   0.164   3.054   4.291  0.3384  0.2241 -0.1822
 3258SOL    HW121236   0.196   3.142   4.309 -0.4793  0.0420  2.0563
 3258SOL    HW221237   0.211   2.991   4.345 -1.6916 -0.8278  0.3561
 3259SOL     OW21238   0.033   4.188   7.075 -0.1764  0.1146  0.3476
 3259SOL    HW121239   4.721   4.250   7.011  0.7592  0.6814  0.3866
 3259SOL    HW221240   0.047   4.104   7.031  0.0062  0.7976 -0.9120
 3260SOL     OW21241   4.117   2.465   8.539 -0.7610  0.5704 -0.4210
 3260SOL    HW121242   4.206   2.481   8.568 -1.1383  1.9758 -0.0678
 3260SOL    HW221243   4.073   2.549   8.525  0.7333  1.4945  0.4333
 3261SOL     OW21244   0.916   4.360   3.944  0.1392  0.0133 -0.5385
 3261SOL    HW121245   0.935   4.274   3.905 -0.6184 -0.7822  0.8177
 3261SOL    HW221246   1.004   4.377   3.978  0.1242 -0.9929  0.0262
 3262SOL     OW21247   2.268   2.778   7.306 -0.3103  0.1980  0.0074
 3262SOL    HW121248   2.314   2.774   7.222  1.0134  0.4188  0.7257
 3262SOL    HW221249   2.345   2.798   7.359  0.6373  1.2421 -1.7542
 3263SOL     OW21250   0.455   2.890   7.843  0.2199 -0.0550  0.6950
 3263SOL    HW121251   0.550   2.903   7.847 -0.1488  2.7723  0.2318
 3263SOL    HW221252   0.450   2.794   7.839  2.7955 -0.0830 -2.4595
 3264SOL     OW21253   3.362   2.490   3.923  0.6055  0.4559  0.2115
 3264SOL    HW121254   3.331   2.578   3.899 -0.0016 -0.2200 -1.4634
 3264SOL    HW221255   3.405   2.518   4.004 -0.6956  0.5568  0.8767
 3265SOL     OW21256   0.148   2.056   2.352  0.3697 -0.0337  0.5707
 3265SOL    HW121257   0.163   2.065   2.446  1.9155  2.3334  0.0980
 3265SOL    HW221258   0.057   2.028   2.349  0.5471 -0.4106 -1.0837
 3266SOL     OW21259   2.066   2.900   6.077  0.5992  0.5226 -1.0090
 3266SOL    HW121260   2.039   2.849   6.000  0.1709 -0.3842 -0.2577
 3266SOL    HW221261   2.161   2.897   6.075  0.5852  0.2914 -1.3080
 3267SOL     OW21262   1.292   2.228   8.681  1.0374  0.0689  0.0894
 3267SOL    HW121263   1.230   2.167   8.722  0.3623  0.6631 -0.0553
 3267SOL    HW221264   1.284   2.307   8.734  0.2065  1.0291 -1.4722
 3268SOL     OW21265   4.134   0.055   7.091  0.1028  0.1987  0.5116
 3268SOL    HW121266   4.138   0.063   6.995  1.2471  2.0484  0.7143
 3268SOL    HW221267   4.041   0.057   7.112 -0.4555  0.7497 -1.9583
 3269SOL     OW21268   1.006   3.352   8.763  0.1074  0.0957 -1.0904
 3269SOL    HW121269   0.972   3.435   8.728 -1.6116  0.3981  1.3335
 3269SOL    HW221270   1.035   3.310   8.682 -1.3108  0.4468 -1.7759
 3270SOL     OW21271   0.600   0.782   9.568 -0.5154  0.4802 -0.6477
 3270SOL    HW121272   0.587   0.745   9.655  1.1749  0.4694 -0.3849
 3270SOL    HW221273   0.561   0.716   9.511  0.3755 -0.2637 -0.3956
 3271SOL     OW21274   1.569   2.717   1.741 -0.1204  0.2535 -0.6089
 3271SOL    HW121275   1.607   2.640   1.784 -2.9527 -0.3210  0.8404
 3271SOL    HW221276   1.620   2.711   1.660  0.3786  0.1901 -0.2886
 3272SOL     OW21277   1.094   0.894   6.622  0.0858  0.0426  0.4064
 3272SOL    HW121278   1.180   0.864   6.593  0.5637 -0.5803  2.4242
 3272SOL    HW221279   1.103   0.983   6.588 -1.9581  1.1360  2.7145
 3273SOL     OW21280   0.866   0.105   4.713 -0.4508  0.0405  0.0890
 3273SOL    HW121281   0.848   0.193   4.678  1.7953  0.1336 -0.8064
 3273SOL    HW221282   0.789   0.080   4.764 -1.3753  0.1948 -1.2133
 3274SOL     OW21283   3.006   3.336   3.750 -0.1120  0.2080 -0.5809
 3274SOL    HW121284   2.941   3.275   3.786  1.6688 -1.5043 -0.2405
 3274SOL    HW221285   2.944   3.408   3.759  0.1883  0.0580  2.7534
 3275SOL     OW21286   0.009   0.842   9.062  0.2054  0.0675 -0.0913
 3275SOL    HW121287   0.034   0.750   9.065  0.2632  0.0887  0.0836
 3275SOL    HW221288   0.096   0.870   9.033  1.0349  1.5567  3.8312
 3276SOL     OW21289   4.675   3.647   2.359 -0.2532 -0.0269 -0.0139
 3276SOL    HW121290   0.017   3.704   2.399 -0.7647  1.2110 -0.9289
 3276SOL    HW221291   4.614   3.710   2.320 -1.4446 -0.5749  0.9715
 3277SOL     OW21292   1.493   0.606   9.576  0.2462 -0.4595 -0.2491
 3277SOL    HW121293   1.522   0.623   9.486  1.5940 -0.5297  0.1882
 3277SOL    HW221294   1.561   0.649   9.626 -1.4206  0.9185  0.8068
 3278SOL     OW21295   3.497   4.152  17.458  0.0291 -0.3457 -0.3611
 3278SOL    HW121296   3.590   4.135  17.469 -0.0248  0.4700  1.4557
 3278SOL    HW221297   3.457   4.068  17.436  2.1029 -1.4790  0.1936
 3279SOL     OW21298   3.875   0.568   3.486 -0.2805  0.0152 -0.4978
 3279SOL    HW121299   3.951   0.532   3.532 -2.4210 -1.7648  1.5665
 3279SOL    HW221300   3.899   0.660   3.475  0.9839 -0.1335  0.9771
 3280SOL     OW21301   4.536   2.736   5.370 -0.3103  0.3016  0.5918
 3280SOL    HW121302   4.530   2.822   5.328 -1.0738 -0.4291 -0.7817
 3280SOL    HW221303   4.462   2.735   5.430 -0.9047 -2.1055 -0.1844
 3281SOL     OW21304   2.917   0.484  13.609  0.2399 -0.0857  0.2299
 3281SOL    HW121305   2.979   0.486  13.682 -0.6106  2.5967  0.8463
 3281SOL    HW221306   2.921   0.391  13.583 -2.1708 -0.3667  0.8644
 3282SOL     OW21307   0.233   3.427   8.570 -0.2240 -0.0730 -0.0852
 3282SOL    HW121308   0.259   3.514   8.602  1.1814 -0.7690  0.6869
 3282SOL    HW221309   0.142   3.436   8.598 -0.2467 -1.1113  0.1595
 3283SOL     OW21310   0.116   0.273   4.191 -0.2902 -0.7145 -0.0051
 3283SOL    HW121311   0.092   0.346   4.249  2.4717  1.4660 -1.5845
 3283SOL    HW221312   0.091   0.285   4.099 -0.6684 -0.3211  0.1474
 3284SOL     OW21313   3.681   3.204   4.919 -0.2273 -0.2111  0.0173
 3284SOL    HW121314   3.671   3.249   4.836 -2.8424  0.5173  0.7120
 3284SOL    HW221315   3.591   3.208   4.951 -0.7135 -0.1861 -1.3453
 3285SOL     OW21316   1.656   3.409   1.515  0.3869  0.1608  0.5002
 3285SOL    HW121317   1.596   3.344   1.552  1.1766 -0.5035  0.6175
 3285SOL    HW221318   1.716   3.427   1.588  0.1958  1.8727  0.2207
 3286SOL     OW21319   3.380   1.124   9.085 -0.1079  0.0760  0.0401
 3286SOL    HW121320   3.448   1.085   9.031  1.7254  2.7736  0.3955
 3286SOL    HW221321   3.348   1.051   9.138 -0.1970 -1.3717 -2.0001
 3287SOL     OW21322   4.416   0.755   4.964  0.5592 -0.1485  0.1457
 3287SOL    HW121323   4.472   0.758   5.042  0.5005  0.6637  0.1603
 3287SOL    HW221324   4.419   0.849   4.943 -4.3214 -0.8175 -3.4352
 3288SOL     OW21325   1.965   0.727   5.439 -0.1855 -0.1561 -0.4367
 3288SOL    HW121326   1.932   0.732   5.349 -0.2245  1.6638 -0.3058
 3288SOL    HW221327   2.055   0.692   5.436 -0.5030 -0.8447 -2.1473
 3289SOL     OW21328   2.628   4.137   9.065 -0.4658  0.0029  0.1893
 3289SOL    HW121329   2.719   4.115   9.085  0.3237  0.4002 -2.9488
 3289SOL    HW221330   2.610   4.079   8.990 -0.1673 -1.0796  0.9459
 3290SOL     OW21331   4.167   3.340   3.585 -0.1441 -0.3688 -0.1071
 3290SOL    HW121332   4.117   3.399   3.529 -1.2217 -0.3422  0.8818
 3290SOL    HW221333   4.119   3.349   3.668  1.3259 -0.8122  0.8079
 3291SOL     OW21334   2.675   2.540   1.233  0.4334  0.2936  0.5189
 3291SOL    HW121335   2.625   2.503   1.161 -2.0260  2.0172  1.3491
 3291SOL    HW221336   2.726   2.467   1.269  2.6411  1.1018 -1.0212
 3292SOL     OW21337   4.546   2.413   6.807 -0.6513 -0.7923 -0.3712
 3292SOL    HW121338   4.463   2.393   6.764 -1.0186 -1.1080  0.4930
 3292SOL    HW221339   4.545   2.371   6.893 -0.3773  2.0910  1.0525
 3293SOL     OW21340   0.229   3.980   7.150  0.3882  0.1502  0.0902
 3293SOL    HW121341   0.177   3.982   7.230 -1.1854 -1.7799 -0.8716
 3293SOL    HW221342   0.261   4.070   7.143 -1.0821  0.6370 -0.3758
 3294SOL     OW21343   4.501   3.934  12.933  0.2238  0.2016 -0.3998
 3294SOL    HW121344   4.418   3.888  12.926  1.0067 -1.1502 -0.8068
 3294SOL    HW221345   4.540   3.905  13.015  0.1210 -0.0704 -0.4460
 3295SOL     OW21346   0.198   2.466   3.237 -0.6051 -0.0384 -0.8779
 3295SOL    HW121347   0.131   2.534   3.245 -0.7375 -0.2541 -0.1616
 3295SOL    HW221348   0.251   2.491   3.313 -2.6732 -3.0369  1.5326
 3296SOL     OW21349   4.398   0.824   8.222  0.1429 -0.3004  0.1673
 3296SOL    HW121350   4.463   0.874   8.172 -1.8377  1.4422 -0.6844
 3296SOL    HW221351   4.451   0.758   8.266  1.4322 -1.1487 -2.6921
 3297SOL     OW21352   2.303   1.436   2.289 -0.1849 -0.3143  0.6024
 3297SOL    HW121353   2.395   1.446   2.313  0.1618 -3.4023  0.5023
 3297SOL    HW221354   2.316   1.365   2.225 -1.6221 -0.9482  1.0353
 3298SOL     OW21355   0.100   1.209   6.401 -0.1798  0.3422 -0.5706
 3298SOL    HW121356   0.148   1.292   6.400  0.9696 -0.3338 -1.6594
 3298SOL    HW221357   0.131   1.171   6.484  1.3717  0.7523 -0.9490
 3299SOL     OW21358   0.596   3.335   1.683 -0.1615 -0.9354 -0.1006
 3299SOL    HW121359   0.610   3.420   1.725  0.4541 -1.2791  0.3816
 3299SOL    HW221360   0.536   3.340   1.608  0.3961 -0.2153 -0.4943
 3300SOL     OW21361   0.975   3.412   6.568  0.4818 -0.2226  0.1337
 3300SOL    HW121362   0.976   3.439   6.660 -0.5215  1.2998 -0.3085
 3300SOL    HW221363   1.054   3.358   6.556 -0.6204 -1.5349 -1.2721
 3301SOL     OW21364   2.271   2.645   8.362 -0.2579 -0.2977  0.2219
 3301SOL    HW121365   2.362   2.639   8.392  0.2075  0.4616 -0.9967
 3301SOL    HW221366   2.275   2.567   8.307 -1.1247  0.9275 -1.6021
 3302SOL     OW21367   4.508   1.683   6.115 -0.2862 -0.2204  0.5024
 3302SOL    HW121368   4.544   1.670   6.203  0.3107 -1.2804  0.0904
 3302SOL    HW221369   4.516   1.778   6.118 -0.3021 -0.2373  1.2507
 3303SOL     OW21370   3.313   1.147   1.417  0.6449 -0.3254  0.0251
 3303SOL    HW121371   3.403   1.161   1.387  1.0662  1.3700  2.0738
 3303SOL    HW221372   3.289   1.237   1.396 -1.6700 -1.0157 -0.1995
 3304SOL     OW21373   1.756   3.430   9.589 -0.0195 -0.6545 -0.5442
 3304SOL    HW121374   1.719   3.516   9.569 -1.1846 -0.1685  3.5113
 3304SOL    HW221375   1.696   3.372   9.542  1.7162 -0.1469 -3.3716
 3305SOL     OW21376   0.963   0.999   9.306 -0.0950 -0.2779 -0.5310
 3305SOL    HW121377   0.885   0.982   9.359 -0.6189  0.4182 -1.0841
 3305SOL    HW221378   1.029   0.955   9.361 -0.4670 -0.6234 -0.3664
 3306SOL     OW21379   2.203   1.591  12.953 -0.1455  0.0701  0.2181
 3306SOL    HW121380   2.262   1.600  12.878  2.5057  2.4413  2.6017
 3306SOL    HW221381   2.184   1.497  12.956 -0.7277  0.2713  2.4740
 3307SOL     OW21382   1.117   3.971  10.940 -0.1884 -0.4253 -0.0669
 3307SOL    HW121383   1.079   4.036  10.999 -1.9831  0.0027 -1.7011
 3307SOL    HW221384   1.201   3.956  10.983  0.3119  1.3636 -0.4162
 3308SOL     OW21385   4.071   4.207  13.859  0.0157  0.7410 -0.6237
 3308SOL    HW121386   4.167   4.203  13.865 -0.0838 -0.5362  0.1251
 3308SOL    HW221387   4.056   4.230  13.951  1.9213  0.9402 -0.3670
 3309SOL     OW21388   0.133   1.491   9.022 -0.1065  0.3228 -0.4096
 3309SOL    HW121389   0.177   1.546   8.957 -0.0575  1.6584  0.7617
 3309SOL    HW221390   0.109   1.543   9.098 -0.4462 -0.3162 -0.0757
 3310SOL     OW21391   4.699   4.366   6.867 -0.1942 -0.4408  0.0781
 3310SOL    HW121392   0.025   4.389   6.787 -0.0739 -0.5441  0.1218
 3310SOL    HW221393   4.622   4.423   6.863  0.1473 -0.0946 -2.0907
 3311SOL     OW21394   1.950   0.299  11.753  0.1496 -0.3413  0.1217
 3311SOL    HW121395   1.946   0.364  11.823  0.9207 -0.9147  0.6912
 3311SOL    HW221396   1.912   0.347  11.680  1.1795  0.2971  0.0121
 3312SOL     OW21397   3.242   4.533   2.485  0.4600  0.0429 -0.5099
 3312SOL    HW121398   3.276   4.581   2.561 -1.3712  1.5551 -0.6493
 3312SOL    HW221399   3.260   4.584   2.406  0.1563  0.0537 -0.5725
 3313SOL     OW21400   2.589   2.806   1.417 -0.2750 -0.0596  0.2941
 3313SOL    HW121401   2.622   2.717   1.405 -0.2752  0.0257 -0.3729
 3313SOL    HW221402   2.496   2.792   1.436  0.1499 -2.1055  0.8719
 3314SOL     OW21403   1.247   1.531  10.844 -0.3301  0.2028 -0.0196
 3314SOL    HW121404   1.248   1.486  10.928  3.2947 -0.0282 -0.1702
 3314SOL    HW221405   1.221   1.615  10.883 -4.3575 -0.8570 -0.4332
 3315SOL     OW21406   0.061   3.486   8.023  0.8386 -0.2928 -0.2877
 3315SOL    HW121407   0.105   3.570   8.012 -0.8104  0.5087 -0.6981
 3315SOL    HW221408   4.704   3.509   7.976  0.2616  1.6627  1.6720
 3316SOL     OW21409   2.841   3.090   3.888  1.0454  0.0010  0.1019
 3316SOL    HW121410   2.818   3.124   3.802  1.1893  3.2139  1.3534
 3316SOL    HW221411   2.839   2.995   3.874 -1.7692 -0.2115  2.0315
 3317SOL     OW21412   3.786   4.077   4.432 -0.1784 -0.1929 -0.3150
 3317SOL    HW121413   3.838   4.071   4.352  1.0872 -0.5005  0.5401
 3317SOL    HW221414   3.700   4.090   4.392 -1.1169 -3.5023  0.6481
 3318SOL     OW21415   3.922   4.588   2.336  0.4191 -0.0368 -0.0175
 3318SOL    HW121416   3.926   4.680   2.360  0.6965  0.1490 -0.7660
 3318SOL    HW221417   3.869   4.550   2.406  0.6419 -0.0369  0.1507
 3319SOL     OW21418   1.544   2.534  14.846 -0.2452  0.1433  0.8610
 3319SOL    HW121419   1.604   2.520  14.920 -1.0531  0.3282  1.5458
 3319SOL    HW221420   1.464   2.501  14.886 -0.1712  0.5237  1.3199
 3320SOL     OW21421   2.541   3.264   9.154 -0.2193 -0.2296 -0.0476
 3320SOL    HW121422   2.466   3.276   9.096  0.0526  1.0847 -0.1343
 3320SOL    HW221423   2.507   3.203   9.220  0.7516  0.5915  1.2167
 3321SOL     OW21424   0.117   2.508   9.157  0.2857  0.0088 -0.4609
 3321SOL    HW121425   0.049   2.482   9.219  0.0882  3.2068  0.6972
 3321SOL    HW221426   0.138   2.592   9.199  0.4725 -0.7602  0.9798
 3322SOL     OW21427   2.458   1.047   7.749  0.5792  0.1862 -0.4698
 3322SOL    HW121428   2.366   1.070   7.734  0.0482 -0.6650  1.4345
 3322SOL    HW221429   2.470   1.086   7.835 -2.6025  0.1662 -0.0135
 3323SOL     OW21430   1.746   2.920  12.605 -0.5749 -0.0309  0.7809
 3323SOL    HW121431   1.731   2.988  12.539  1.9767 -0.9722 -0.7536
 3323SOL    HW221432   1.660   2.894  12.639  0.1066 -3.4336 -0.1139
 3324SOL     OW21433   2.513   0.404   0.211  0.0952  0.3238 -0.6756
 3324SOL    HW121434   2.596   0.400   0.163  1.1114  1.3121  0.9586
 3324SOL    HW221435   2.464   0.445   0.140  0.7601 -1.2695 -2.0318
 3325SOL     OW21436   4.489   1.443   7.138  0.4421 -0.4620  0.4717
 3325SOL    HW121437   4.553   1.502   7.178 -0.2822  1.3587 -0.9938
 3325SOL    HW221438   4.430   1.507   7.097 -0.0689 -1.2363 -0.0027
 3326SOL     OW21439   4.042   1.585   2.443  0.0575 -0.3052 -0.4695
 3326SOL    HW121440   3.999   1.642   2.507 -2.0378 -0.7330 -1.5107
 3326SOL    HW221441   4.047   1.508   2.500 -0.3386 -0.9325 -1.2899
 3327SOL     OW21442   4.558   2.772   2.938  0.4174 -0.4973  0.4873
 3327SOL    HW121443   4.568   2.863   2.912  0.7971 -0.3925  1.0053
 3327SOL    HW221444   4.470   2.781   2.977  0.8575 -0.8467  1.5626
 3328SOL     OW21445   2.434   3.993   1.677 -0.1366  0.1674  0.4339
 3328SOL    HW121446   2.453   3.909   1.718  0.4992 -0.3100 -0.8416
 3328SOL    HW221447   2.370   4.037   1.733 -0.1290  0.4510  0.2203
 3329SOL     OW21448   4.004   1.784   7.588 -0.1739 -0.2354 -0.1773
 3329SOL    HW121449   3.938   1.822   7.530 -0.7678 -1.1411 -0.1015
 3329SOL    HW221450   4.017   1.853   7.653 -1.6350 -1.4209  1.3687
 3330SOL     OW21451   1.559   3.280   6.932  0.3482 -0.3570  0.1098
 3330SOL    HW121452   1.494   3.268   6.862  0.4073  0.8822 -0.1539
 3330SOL    HW221453   1.586   3.371   6.923  0.0794 -0.3260 -0.3969
 3331SOL     OW21454   4.452   2.751   4.980  0.3378 -0.0278  0.5962
 3331SOL    HW121455   4.406   2.817   5.031 -0.1373 -0.1078  0.2696
 3331SOL    HW221456   4.539   2.781   5.005  0.8074 -1.6506  0.9555
 3332SOL     OW21457   2.988   2.270   6.098  0.6755  0.4660 -0.1792
 3332SOL    HW121458   2.956   2.219   6.172  0.9198  2.9666  1.6324
 3332SOL    HW221459   3.072   2.300   6.132  0.9530 -0.3571 -0.1478
 3333SOL     OW21460   1.882   1.714  15.588  0.6863 -0.3850 -0.3779
 3333SOL    HW121461   1.941   1.663  15.644 -0.0467 -1.1552 -0.2931
 3333SOL    HW221462   1.942   1.773  15.544 -1.0455  1.8089  0.1915
 3334SOL     OW21463   3.354   4.662   2.711  0.1664  0.3217  0.1248
 3334SOL    HW121464   3.353   0.034   2.726 -2.1517  0.2880  0.0892
 3334SOL    HW221465   3.281   4.628   2.762  0.3258  2.1756  1.5672
 3335SOL     OW21466   3.032   4.462  16.724  0.0495 -0.3203  0.6827
 3335SOL    HW121467   3.110   4.511  16.698 -0.3627 -0.7382 -1.3645
 3335SOL    HW221468   2.967   4.529  16.702  0.9609  0.2252 -0.3218
 3336SOL     OW21469   4.319   2.120   7.505  0.0384  0.3429 -0.1477
 3336SOL    HW121470   4.241   2.113   7.561  0.7370 -2.9190  0.4317
 3336SOL    HW221471   4.300   2.053   7.439 -0.2790  1.0108 -0.7325
 3337SOL     OW21472   3.920   2.308   1.164  0.4077  0.1031  0.3930
 3337SOL    HW121473   3.825   2.306   1.159  0.2057  1.5671  3.5360
 3337SOL    HW221474   3.928   2.404   1.168  0.4090  0.1145  0.0883
 3338SOL     OW21475   2.235   3.127  10.384 -0.0637 -0.1581 -0.0265
 3338SOL    HW121476   2.228   3.201  10.325 -1.1203  0.4919  0.9149
 3338SOL    HW221477   2.189   3.158  10.461 -0.1907  2.2563 -1.0884
 3339SOL     OW21478   2.896   3.890   4.027  0.1070 -0.0717 -0.1479
 3339SOL    HW121479   2.861   3.917   4.112 -2.1848 -0.0767 -1.0811
 3339SOL    HW221480   2.872   3.964   3.970 -2.5815  0.2322  1.3813
 3340SOL     OW21481   1.704   3.328  12.846 -0.8163  0.6437  0.0832
 3340SOL    HW121482   1.698   3.399  12.911 -0.9806 -0.2104  0.9973
 3340SOL    HW221483   1.656   3.374  12.777  0.5961 -1.8666 -2.5422
 3341SOL     OW21484   2.626   1.496   2.909 -0.3452 -0.3383 -0.4780
 3341SOL    HW121485   2.574   1.570   2.878  0.2341  0.6968  1.0532
 3341SOL    HW221486   2.647   1.532   2.995 -3.0768 -2.0099  0.8981
 3342SOL     OW21487   1.883   2.143  13.787 -0.2846  0.0450 -0.6947
 3342SOL    HW121488   1.861   2.135  13.694 -0.0342 -0.5326 -0.7000
 3342SOL    HW221489   1.884   2.238  13.798  2.4717  0.1726 -1.8281
 3343SOL     OW21490   4.575   1.905   1.835 -1.1671 -0.3465 -0.5271
 3343SOL    HW121491   4.603   1.819   1.802 -1.9153 -0.8742  0.2290
 3343SOL    HW221492   4.658   1.944   1.863 -0.8418 -1.1045 -0.4148
 3344SOL     OW21493   3.720   2.398   7.885  0.0687 -0.1367 -0.4912
 3344SOL    HW121494   3.642   2.367   7.932  1.3722 -0.8288  1.1872
 3344SOL    HW221495   3.677   2.476   7.849  0.2601  1.0555  1.8738
 3345SOL     OW21496   0.247   1.533  11.504  0.0767 -0.6145 -0.1142
 3345SOL    HW121497   0.204   1.618  11.499  3.3232  0.8992 -1.9816
 3345SOL    HW221498   0.325   1.543  11.449 -0.1646  1.8997  0.0394
 3346SOL     OW21499   1.789   4.627   9.294 -0.4157  0.1057 -0.1160
 3346SOL    HW121500   1.829   4.606   9.209 -1.4189 -0.3395 -0.4743
 3346SOL    HW221501   1.778   4.547   9.344  0.9933 -0.0877 -0.1247
 3347SOL     OW21502   3.950   1.058   5.411  0.2786 -0.0180 -0.0742
 3347SOL    HW121503   3.955   0.981   5.467 -0.6080  0.1797  0.2624
 3347SOL    HW221504   4.045   1.070   5.406  0.5229 -1.3689  1.2913
 3348SOL     OW21505   3.577   4.164   5.407  0.4098  0.5503  0.2200
 3348SOL    HW121506   3.565   4.082   5.456 -1.4523  0.3755 -0.5274
 3348SOL    HW221507   3.637   4.117   5.349  0.5865 -0.8829  1.5602
 3349SOL     OW21508   1.935   3.951   4.668 -0.1862 -0.0235 -0.0132
 3349SOL    HW121509   1.910   4.037   4.637 -1.7660 -0.0217  1.2514
 3349SOL    HW221510   2.010   3.947   4.609  0.9479 -0.5768  1.4723
 3350SOL     OW21511   1.789   4.406  10.180 -0.6783 -0.0249  0.0440
 3350SOL    HW121512   1.827   4.442  10.260 -0.9094  1.8044 -0.6629
 3350SOL    HW221513   1.867   4.395  10.125 -0.1424 -1.9712  1.2124
 3351SOL     OW21514   2.635   2.794  14.749 -0.3758  0.3692 -0.4086
 3351SOL    HW121515   2.629   2.756  14.661 -0.2103  0.2447 -0.3669
 3351SOL    HW221516   2.549   2.780  14.789 -0.4434  0.1701 -0.6234
 3352SOL     OW21517   4.113   4.369  15.674  0.7778 -0.2326  0.0358
 3352SOL    HW121518   4.056   4.393  15.601 -0.8290  0.1628  1.4120
 3352SOL    HW221519   4.185   4.429  15.657 -0.2269  0.0912 -3.0781
 3353SOL     OW21520   2.845   1.739   8.185 -0.0686  0.0279  0.0259
 3353SOL    HW121521   2.812   1.783   8.263  1.1020  0.8454  0.0548
 3353SOL    HW221522   2.940   1.746   8.199 -0.2425  0.5269  0.9966
 3354SOL     OW21523   2.869   3.978   3.425 -0.5751  0.5142 -0.5728
 3354SOL    HW121524   2.785   4.021   3.411 -0.3077  0.9031 -0.9809
 3354SOL    HW221525   2.875   3.939   3.338  0.2764  2.6873 -1.4911
 3355SOL     OW21526   2.027   0.256  15.750 -0.0589 -0.9662 -0.0426
 3355SOL    HW121527   1.959   0.313  15.715  0.6597 -0.4799 -0.6400
 3355SOL    HW221528   2.062   0.202  15.679  0.4528 -0.9008  0.1590
 3356SOL     OW21529   4.490   1.849   6.959  0.1017 -0.0899 -0.2534
 3356SOL    HW121530   4.498   1.873   7.052 -2.2240 -2.7769  0.6331
 3356SOL    HW221531   4.450   1.925   6.916  1.0023  1.0627  0.9272
 3357SOL     OW21532   1.397   1.443   4.786 -0.1769  0.2075  0.0383
 3357SOL    HW121533   1.329   1.510   4.796  0.9248  1.0785  1.5760
 3357SOL    HW221534   1.431   1.464   4.699  2.4448  0.9351  1.2693
 3358SOL     OW21535   4.050   0.087   5.004  0.5870  0.0133 -0.4558
 3358SOL    HW121536   4.013   0.120   4.922 -0.1060  0.8922  0.2118
 3358SOL    HW221537   4.070   4.720   4.975 -0.9349 -0.5819  0.3429
 3359SOL     OW21538   0.187   1.205   3.322  0.4711  0.0293  0.4091
 3359SOL    HW121539   0.107   1.258   3.323  1.2071  1.1550  0.0312
 3359SOL    HW221540   0.171   1.137   3.257 -0.5705 -0.5585  1.2754
 3360SOL     OW21541   0.596   0.685  12.646  0.4491 -0.2384 -0.2804
 3360SOL    HW121542   0.627   0.595  12.642  0.2581 -0.3192  0.0515
 3360SOL    HW221543   0.501   0.682  12.657  0.2366  0.8929 -1.8037
 3361SOL     OW21544   3.331   3.736  12.725 -0.1825 -0.1598 -0.0760
 3361SOL    HW121545   3.316   3.773  12.812  0.5190 -0.4819  0.1846
 3361SOL    HW221546   3.424   3.712  12.735 -0.0428 -0.6453 -2.4191
 3362SOL     OW21547   1.223   3.440   3.026 -0.1759 -0.3232 -0.0141
 3362SOL    HW121548   1.146   3.394   3.058 -0.8671  1.4664  0.8906
 3362SOL    HW221549   1.283   3.437   3.100 -0.4092 -1.5338  0.1327
 3363SOL     OW21550   4.342   4.499  15.608  0.5314  0.2572  0.0718
 3363SOL    HW121551   4.391   4.579  15.628  1.9993 -0.9821  1.5389
 3363SOL    HW221552   4.408   4.443  15.567 -0.2816  0.1205 -1.0405
 3364SOL     OW21553   2.527   4.295  16.664 -0.2887  0.1274  0.3914
 3364SOL    HW121554   2.438   4.295  16.630 -0.3379 -1.1817  0.5417
 3364SOL    HW221555   2.553   4.384  16.640  2.8733 -1.1956 -1.0978
 3365SOL     OW21556   3.520   4.722   5.141 -0.2303  0.0894  0.4361
 3365SOL    HW121557   3.487   4.636   5.166 -1.2885  0.4822  0.4122
 3365SOL    HW221558   3.499   0.051   5.219  0.9147 -1.5248  1.7829
 3366SOL     OW21559   3.571   0.805   3.962 -0.1445 -0.4354 -0.3361
 3366SOL    HW121560   3.543   0.762   4.043 -1.1504  0.7848 -0.0343
 3366SOL    HW221561   3.493   0.790   3.910  0.1360  3.4825 -1.8692
 3367SOL     OW21562   4.078   0.727   1.938  0.3769  0.3103  0.6749
 3367SOL    HW121563   4.006   0.749   1.880 -0.5379  1.5036  2.2454
 3367SOL    HW221564   4.041   0.727   2.026  1.4601  1.2603  1.1383
 3368SOL     OW21565   1.091   4.263   3.548 -0.1286 -0.1277  0.8035
 3368SOL    HW121566   1.162   4.263   3.612 -2.1309 -0.9033  2.9830
 3368SOL    HW221567   1.069   4.356   3.542 -0.0018 -0.1358  0.1576
 3369SOL     OW21568   3.907   4.399   8.037 -0.2994  0.1404  0.3680
 3369SOL    HW121569   3.841   4.418   7.970  0.4983 -1.0220 -0.7388
 3369SOL    HW221570   3.982   4.451   8.010  0.0178 -0.4687  0.0826
 3370SOL     OW21571   3.250   0.067  15.256  0.2260 -0.0162  0.3140
 3370SOL    HW121572   3.223   0.150  15.215  0.6409  0.3254  0.7422
 3370SOL    HW221573   3.252   0.087  15.349  0.2417  0.8995  0.1210
 3371SOL     OW21574   2.879   1.579   8.555 -0.3303 -0.4384 -0.3817
 3371SOL    HW121575   2.835   1.508   8.508  1.7278 -0.2945 -2.5535
 3371SOL    HW221576   2.859   1.559   8.646 -1.6834 -1.6453 -0.9407
 3372SOL     OW21577   1.071   0.104   2.739 -0.1420  0.5632  0.2192
 3372SOL    HW121578   1.122   0.026   2.721  0.4831  0.7316  1.2644
 3372SOL    HW221579   1.012   0.117   2.665 -3.7763 -0.2773  3.0067
 3373SOL     OW21580   4.068   4.508   7.782 -0.0592 -0.5962 -0.1207
 3373SOL    HW121581   4.010   4.540   7.713  1.1290  0.5024 -0.6060
 3373SOL    HW221582   4.041   4.416   7.783 -3.7364  0.4945 -0.0013
 3374SOL     OW21583   2.802   2.712   2.033  0.1473  0.3894 -0.2197
 3374SOL    HW121584   2.852   2.652   1.977 -1.8426 -0.5408 -0.9619
 3374SOL    HW221585   2.721   2.689   1.988 -1.0683 -2.1165  3.3145
 3375SOL     OW21586   2.887   3.608   7.831  0.1609 -0.1097  0.5479
 3375SOL    HW121587   2.950   3.666   7.873 -0.8089  1.4302 -0.1378
 3375SOL    HW221588   2.827   3.675   7.798 -0.4618 -1.1907 -0.5122
 3376SOL     OW21589   3.362   0.420   0.781 -0.3342 -0.5755 -0.1373
 3376SOL    HW121590   3.355   0.417   0.685 -0.8894 -0.5710 -0.0943
 3376SOL    HW221591   3.438   0.474   0.799 -1.5251  1.5070 -1.4132
 3377SOL     OW21592   4.151   2.581   7.375  0.5142 -0.5425  0.3252
 3377SOL    HW121593   4.205   2.631   7.314 -0.7035 -1.0920 -1.2297
 3377SOL    HW221594   4.212   2.535   7.433  2.6503  1.6959 -0.1952
 3378SOL     OW21595   4.572   0.377  15.918 -0.5377 -0.1909 -0.0892
 3378SOL    HW121596   4.582   0.283  15.902  0.7430 -0.3046  1.3011
 3378SOL    HW221597   4.483   0.383  15.952 -0.3194 -0.3544  0.5142
 3379SOL     OW21598   4.268   1.284  15.482 -0.1775 -0.6403  0.1174
 3379SOL    HW121599   4.313   1.343  15.422  0.7189 -0.1801  1.2326
 3379SOL    HW221600   4.278   1.325  15.568  0.1878 -1.3404  0.4088
 3380SOL     OW21601   4.203   4.626  15.333 -0.8215  0.0844 -0.3513
 3380SOL    HW121602   4.140   4.577  15.385  0.7888 -0.2199  1.2921
 3380SOL    HW221603   4.243   4.566  15.271  1.4771 -0.1244  1.3293
 3381SOL     OW21604   2.922   2.403   4.102 -0.1405  0.1903 -0.5498
 3381SOL    HW121605   2.890   2.328   4.152 -0.3809  0.6709  0.0258
 3381SOL    HW221606   2.843   2.453   4.084  0.8879  1.1699 -2.3601
 3382SOL     OW21607   3.123   4.639   6.190 -0.0356 -0.4895 -0.0973
 3382SOL    HW121608   3.155   4.616   6.277 -0.3160 -0.3351  0.0476
 3382SOL    HW221609   3.168   4.573   6.138  0.0186  0.5341 -1.3454
 3383SOL     OW21610   4.655   2.033   5.291 -0.6155 -0.1132 -0.2678
 3383SOL    HW121611   0.006   2.018   5.233 -1.7881 -0.5735 -1.6212
 3383SOL    HW221612   4.594   1.965   5.263  0.9415 -0.9775 -1.5282
 3384SOL     OW21613   3.137   1.028   3.265 -0.1324  0.3802 -0.3273
 3384SOL    HW121614   3.082   1.099   3.231 -1.7063  0.0887  1.5990
 3384SOL    HW221615   3.222   1.073   3.268  0.0831 -0.1304  1.1988
 3385SOL     OW21616   1.534   2.827   6.355 -0.3683  0.6220 -0.4855
 3385SOL    HW121617   1.625   2.841   6.330 -0.0284 -0.7086  0.0357
 3385SOL    HW221618   1.498   2.797   6.272  2.6531  0.7145 -1.8074
 3386SOL     OW21619   4.382   0.550  16.082  0.2054 -0.8678 -0.5858
 3386SOL    HW121620   4.385   0.632  16.131  0.3083 -0.1688 -1.7538
 3386SOL    HW221621   4.368   0.480  16.146  1.4473 -1.9037 -1.4377
 3387SOL     OW21622   3.048   1.745   5.361 -0.1700  0.3846  0.4417
 3387SOL    HW121623   2.960   1.782   5.364 -0.2220  0.1455  1.8962
 3387SOL    HW221624   3.031   1.653   5.339  0.9575  0.7337 -1.9840
 3388SOL     OW21625   4.144   2.649   5.640  0.4214 -0.9161 -0.7736
 3388SOL    HW121626   4.050   2.642   5.655  0.9702  0.6384  3.4406
 3388SOL    HW221627   4.155   2.577   5.578  0.4274 -0.1481 -1.6729
 3389SOL     OW21628   3.381   3.136  16.768  0.4495 -0.1422 -0.0957
 3389SOL    HW121629   3.462   3.111  16.813  1.0162  0.3699 -0.8212
 3389SOL    HW221630   3.382   3.078  16.692 -0.9058 -1.0595  0.5930
 3390SOL     OW21631   3.130   1.399   3.504  0.0110  0.1196 -0.3792
 3390SOL    HW121632   3.136   1.342   3.581 -0.9155 -0.4001 -0.6966
 3390SOL    HW221633   3.046   1.371   3.469 -1.0606  0.6751  1.7552
 3391SOL     OW21634   1.840   4.647   1.171  0.0616  0.3268  0.5220
 3391SOL    HW121635   1.898   4.721   1.186  0.9731 -0.3857  0.5658
 3391SOL    HW221636   1.761   4.700   1.166 -0.3637 -0.3530 -0.0288
 3392SOL     OW21637   3.953   4.310  12.061  0.4919 -0.3419  0.1352
 3392SOL    HW121638   3.944   4.255  12.139 -3.5916  2.6024  1.7461
 3392SOL    HW221639   3.949   4.238  11.998 -0.1558  0.8722 -1.2081
 3393SOL     OW21640   2.244   0.579   5.360  0.0167 -0.3071 -0.5612
 3393SOL    HW121641   2.247   0.585   5.264 -0.2985  2.0663 -0.4048
 3393SOL    HW221642   2.320   0.629   5.387 -0.2459 -0.9723  1.3901
 3394SOL     OW21643   1.625   4.019   3.255  0.1828 -0.0496  0.5645
 3394SOL    HW121644   1.552   4.078   3.273  0.1499  0.2855 -0.6891
 3394SOL    HW221645   1.668   4.065   3.183 -1.1646  0.3379  0.0106
 3395SOL     OW21646   4.421   0.284   7.017  0.0841 -0.3052  0.0419
 3395SOL    HW121647   4.406   0.378   7.027  0.1582 -0.1248 -1.5886
 3395SOL    HW221648   4.516   0.272   7.027 -0.3367 -2.1242  1.7524
 3396SOL     OW21649   1.508   3.375  10.901  0.0352  0.2839 -0.1233
 3396SOL    HW121650   1.551   3.337  10.978  0.5279 -1.9783 -1.4951
 3396SOL    HW221651   1.417   3.345  10.907 -0.4812  1.9198  0.0786
 3397SOL     OW21652   1.240   3.532  13.895  0.1180 -0.0833 -0.0133
 3397SOL    HW121653   1.249   3.569  13.807 -0.0855 -1.7246 -0.7425
 3397SOL    HW221654   1.301   3.586  13.945 -0.2806  0.1909  0.1743
 3398SOL     OW21655   4.159   4.025   9.943  0.1925  0.5801 -0.2220
 3398SOL    HW121656   4.070   4.051   9.968  0.9530  2.4940  0.4783
 3398SOL    HW221657   4.131   3.949   9.891 -0.1431 -1.0295  2.2963
 3399SOL     OW21658   2.724   4.123   4.553  0.4269  0.7340  0.0793
 3399SOL    HW121659   2.653   4.083   4.503  0.2926  1.6213 -0.4329
 3399SOL    HW221660   2.712   4.209   4.514  0.0158  0.6170 -0.0541
 3400SOL     OW21661   2.160   0.088   7.284  0.3953 -0.5550  0.1776
 3400SOL    HW121662   2.088   0.039   7.324  2.4011 -3.4765  0.2038
 3400SOL    HW221663   2.221   0.017   7.265  0.2531 -1.0468  1.5752
 3401SOL     OW21664   2.050   1.110   9.176 -0.7065  0.3984 -0.0085
 3401SOL    HW121665   2.122   1.079   9.121 -0.8550  1.6566 -0.9308
 3401SOL    HW221666   2.006   1.159   9.106  1.6862  0.9578 -1.1258
 3402SOL     OW21667   1.274   1.453   9.431  0.7044 -0.3464  0.1787
 3402SOL    HW121668   1.318   1.522   9.481  0.0706 -1.5519  2.3912
 3402SOL    HW221669   1.238   1.403   9.504 -0.0971 -0.4450 -0.2911
 3403SOL     OW21670   3.970   0.947   1.344 -0.8915  0.6784  0.2885
 3403SOL    HW121671   3.917   0.890   1.401 -0.0501 -0.7204 -0.3424
 3403SOL    HW221672   4.060   0.924   1.366 -0.3618 -0.1119 -2.7945
 3404SOL     OW21673   3.141   0.324   9.688  0.1931 -0.1818  0.0435
 3404SOL    HW121674   3.091   0.404   9.702  0.4664  0.0215 -0.1403
 3404SOL    HW221675   3.223   0.370   9.669 -0.7727  1.2990 -0.5156
 3405SOL     OW21676   0.814   4.389   5.700 -0.0518 -0.5216 -0.1062
 3405SOL    HW121677   0.885   4.339   5.659 -1.7441 -1.1090 -2.2713
 3405SOL    HW221678   0.832   4.471   5.653 -1.5071  0.7298  1.5196
 3406SOL     OW21679   3.320   3.694  16.068 -0.1347 -0.3246  0.5768
 3406SOL    HW121680   3.280   3.658  15.989  1.4877  1.8589 -1.2270
 3406SOL    HW221681   3.251   3.729  16.125 -1.3946  0.2411 -1.2901
 3407SOL     OW21682   2.999   1.245   8.293 -0.1480 -0.0557 -0.1758
 3407SOL    HW121683   3.025   1.333   8.319  0.2906  0.1305 -1.2426
 3407SOL    HW221684   2.911   1.259   8.259 -0.2228 -2.0977 -0.8359
 3408SOL     OW21685   2.461   4.298   5.688 -0.2998  0.7939 -0.3342
 3408SOL    HW121686   2.424   4.301   5.777  0.7583  0.2562  0.1289
 3408SOL    HW221687   2.521   4.373   5.687  1.0952 -0.3372 -0.9307
 3409SOL     OW21688   4.086   0.395   9.054  0.2422 -0.0724 -0.3528
 3409SOL    HW121689   3.996   0.382   9.084  0.0603 -0.4642 -1.0683
 3409SOL    HW221690   4.091   0.311   9.008 -1.3732 -0.4432  0.1500
 3410SOL     OW21691   3.757   1.313  16.269 -0.5559  0.3051  0.0519
 3410SOL    HW121692   3.750   1.247  16.338 -0.4031 -1.8410 -1.9813
 3410SOL    HW221693   3.851   1.318  16.252 -0.6347 -0.6274 -0.6964
 3411SOL     OW21694   1.083   3.794   3.890  0.2056  0.1021  0.6773
 3411SOL    HW121695   1.165   3.752   3.867  0.4723  0.6276  0.6556
 3411SOL    HW221696   1.048   3.831   3.809  1.9530  0.3093  0.0134
 3412SOL     OW21697   2.702   1.801   1.665 -0.8940 -0.0091  0.3533
 3412SOL    HW121698   2.667   1.888   1.683  1.0916  0.8533 -0.0564
 3412SOL    HW221699   2.731   1.772   1.751  1.8181 -2.4370 -1.3564
 3413SOL     OW21700   2.844   2.400   5.693  0.9776 -0.2617  0.3007
 3413SOL    HW121701   2.916   2.378   5.752  0.6028 -0.3841  0.7125
 3413SOL    HW221702   2.768   2.367   5.742  0.2531 -0.4449 -0.9376
 3414SOL     OW21703   4.653   1.614   0.568 -0.2457 -0.5045  0.7141
 3414SOL    HW121704   4.627   1.548   0.504  1.3252 -1.2594  0.8485
 3414SOL    HW221705   4.612   1.694   0.534  1.3955  0.4868  1.0533
 3415SOL     OW21706   0.472   0.269   5.706 -0.1554 -0.4808 -0.5626
 3415SOL    HW121707   0.548   0.215   5.727  0.7489  0.9734 -0.1281
 3415SOL    HW221708   0.411   0.227   5.767  0.8419 -0.3432  0.5251
 3416SOL     OW21709   1.507   3.478   6.668 -0.0383  0.1743  0.7492
 3416SOL    HW121710   1.444   3.449   6.734 -1.5220  0.9046 -0.3527
 3416SOL    HW221711   1.450   3.518   6.603 -2.1893 -0.5043  2.2071
 3417SOL     OW21712   2.000   1.830   0.537 -0.1792  0.0632 -0.8896
 3417SOL    HW121713   1.909   1.834   0.565  0.2932  0.0640  0.6745
 3417SOL    HW221714   2.020   1.736   0.540  1.5398  0.4190 -0.8120
 3418SOL     OW21715   2.378   1.992   1.847  0.3937  0.0205  0.0065
 3418SOL    HW121716   2.465   2.032   1.846  0.0570  0.7368 -1.0827
 3418SOL    HW221717   2.378   1.943   1.765  0.8774 -2.6518  1.6002
 3419SOL     OW21718   4.138   0.305   3.300  0.0541 -0.2772  0.7803
 3419SOL    HW121719   4.118   0.267   3.214 -0.9147  0.6485  0.5908
 3419SOL    HW221720   4.046   0.306   3.328  0.2030  0.8929  1.2201
 3420SOL     OW21721   2.524   1.845   4.528 -0.2041  0.4161  0.0691
 3420SOL    HW121722   2.614   1.840   4.495  0.5100 -0.5118  2.1670
 3420SOL    HW221723   2.527   1.811   4.617 -0.5600 -0.3202 -0.1942
 3421SOL     OW21724   0.242   2.653   5.526  0.0183 -0.4182 -0.1299
 3421SOL    HW121725   0.252   2.587   5.457  1.5402 -0.6522  0.3051
 3421SOL    HW221726   0.147   2.654   5.541 -0.0861  1.2912 -0.9545
 3422SOL     OW21727   1.771   3.286   7.718 -0.0841  0.5057 -0.1730
 3422SOL    HW121728   1.862   3.283   7.749  0.1468 -1.5372 -0.9857
 3422SOL    HW221729   1.759   3.378   7.695 -1.8969  0.0058 -1.2382
 3423SOL     OW21730   3.558   1.781   2.794  0.9476  0.2335 -0.3046
 3423SOL    HW121731   3.526   1.848   2.854  2.8820  0.7833  0.1065
 3423SOL    HW221732   3.519   1.703   2.834  2.0206  0.3862  1.0181
 3424SOL     OW21733   4.540   2.556  17.623  0.1419 -0.6749 -0.4557
 3424SOL    HW121734   4.595   2.618  17.576 -0.7080  1.3372  1.2181
 3424SOL    HW221735   4.560   2.586   0.020  0.2633 -1.3695 -0.2476
 3425SOL     OW21736   3.810   0.463  12.940 -0.7566  0.0598  0.0440
 3425SOL    HW121737   3.778   0.552  12.957 -2.1186 -0.3561 -0.3429
 3425SOL    HW221738   3.847   0.436  13.024  0.6487 -1.3001 -1.0144
 3426SOL     OW21739   2.217   1.547   7.830  0.1781  0.1348 -0.4895
 3426SOL    HW121740   2.162   1.625   7.821 -0.6120 -0.2919  0.6867
 3426SOL    HW221741   2.293   1.586   7.873  1.7496 -0.1084 -3.0749
 3427SOL     OW21742   2.708   4.269   3.158  0.3008 -0.2994  1.0520
 3427SOL    HW121743   2.799   4.287   3.133  0.2487  1.1594  1.9566
 3427SOL    HW221744   2.669   4.317   3.085  1.4349 -0.9988 -0.0084
 3428SOL     OW21745   2.082   2.513  13.600 -0.0583  0.3278 -0.2732
 3428SOL    HW121746   2.046   2.491  13.515  1.6180 -0.9473 -0.6465
 3428SOL    HW221747   2.034   2.455  13.659  1.6854 -0.7152  0.1201
 3429SOL     OW21748   1.669   3.059   4.949 -0.1414 -0.2725 -0.0502
 3429SOL    HW121749   1.615   3.020   5.017  0.9452  0.1283  1.0518
 3429SOL    HW221750   1.668   2.987   4.886 -0.1356 -0.5375  0.2565
 3430SOL     OW21751   0.764   3.861   1.817 -0.2239  0.0052  0.2081
 3430SOL    HW121752   0.676   3.870   1.852  0.2065  2.3960  0.6752
 3430SOL    HW221753   0.772   3.938   1.760  0.9106 -0.3827 -0.1720
 3431SOL     OW21754   0.197   2.725  12.489 -0.1202  0.5008 -0.0474
 3431SOL    HW121755   0.180   2.807  12.443  1.2143  1.7792  1.7451
 3431SOL    HW221756   0.289   2.743  12.507  0.0074 -0.0813 -0.1215
 3432SOL     OW21757   1.689   0.371   3.908  0.5840  0.4565  0.4653
 3432SOL    HW121758   1.666   0.363   4.000  1.4949 -0.2752  0.6217
 3432SOL    HW221759   1.765   0.428   3.913  0.7545  0.2742 -0.0438
 3433SOL     OW21760   0.548   1.925   9.313 -0.0411 -0.5427 -0.2997
 3433SOL    HW121761   0.516   2.003   9.359  2.6647  1.2892 -1.5268
 3433SOL    HW221762   0.524   1.938   9.221  0.4391  0.6076 -0.2592
 3434SOL     OW21763   1.501   2.477   5.595  0.4356  0.0870 -0.4002
 3434SOL    HW121764   1.422   2.454   5.546  0.0580  0.1963  0.1617
 3434SOL    HW221765   1.536   2.389   5.614  1.9043  0.3360 -1.9789
 3435SOL     OW21766   2.020   0.693   3.801 -0.2739 -0.8018 -1.0414
 3435SOL    HW121767   2.079   0.619   3.789 -2.1049 -2.8375  2.4435
 3435SOL    HW221768   2.020   0.726   3.712 -0.8331 -0.7796 -1.0332
 3436SOL     OW21769   3.076   3.797   5.888  1.3401  0.2653 -0.3159
 3436SOL    HW121770   3.065   3.830   5.798 -0.2818 -0.4709 -0.3977
 3436SOL    HW221771   2.991   3.752   5.892  2.2172 -1.3249  0.3081
 3437SOL     OW21772   2.721   4.225   9.934  0.3712 -0.1707 -0.3402
 3437SOL    HW121773   2.775   4.147   9.944 -1.5213 -1.5058 -0.6301
 3437SOL    HW221774   2.639   4.189   9.969  0.1466 -2.3722 -3.1009
 3438SOL     OW21775   1.106   0.634   2.536  0.1796  0.3456  0.3867
 3438SOL    HW121776   1.146   0.577   2.469  2.4300  3.0490 -0.5677
 3438SOL    HW221777   1.012   0.617   2.533 -0.0294  2.4730 -4.8853
 3439SOL     OW21778   3.160   4.269   1.768  0.2445  0.6422  0.7425
 3439SOL    HW121779   3.207   4.232   1.693 -0.2014  1.5827  0.0035
 3439SOL    HW221780   3.210   4.350   1.782 -0.5252  1.0103  1.3725
 3440SOL     OW21781   2.535   2.190   1.406  0.0170  0.2092 -0.1446
 3440SOL    HW121782   2.524   2.227   1.318 -2.6829 -0.4066 -0.0503
 3440SOL    HW221783   2.493   2.105   1.395  0.1388  0.3797 -2.0195
 3441SOL     OW21784   2.462   3.330  15.026  0.6335 -0.0689  0.2704
 3441SOL    HW121785   2.467   3.248  14.977  3.2300 -0.5641  1.3348
 3441SOL    HW221786   2.491   3.301  15.112  3.0115 -1.8404 -1.1295
 3442SOL     OW21787   3.531   1.258   6.076 -0.2736  0.4273  0.7585
 3442SOL    HW121788   3.455   1.303   6.039  0.3679 -0.2002 -1.3460
 3442SOL    HW221789   3.593   1.328   6.094 -0.1066  0.6070 -0.5193
 3443SOL     OW21790   1.651   4.189   4.002 -0.5869  0.1807  0.4178
 3443SOL    HW121791   1.708   4.175   3.926  0.1470  1.1274  0.7935
 3443SOL    HW221792   1.702   4.243   4.062 -2.1103  0.9563  0.9863
 3444SOL     OW21793   2.864   1.181   4.433  1.1935 -0.4871 -0.2347
 3444SOL    HW121794   2.776   1.180   4.396  0.8210  1.1507  0.6216
 3444SOL    HW221795   2.838   1.209   4.521  0.2946 -0.6564 -0.4462
 3445SOL     OW21796   3.461   1.446  16.287 -0.1215 -0.4499 -0.8259
 3445SOL    HW121797   3.511   1.368  16.264 -0.1758 -0.2839 -1.4937
 3445SOL    HW221798   3.527   1.511  16.263  1.0726 -0.3815  2.6853
 3446SOL     OW21799   1.943   2.823   3.858  0.4933  0.1769 -0.3588
 3446SOL    HW121800   1.867   2.769   3.882  0.7211 -0.4421 -1.0205
 3446SOL    HW221801   1.982   2.776   3.784 -0.6915 -0.4888 -0.5742
 3447SOL     OW21802   3.099   0.033  13.405 -0.0193  0.2979 -0.3984
 3447SOL    HW121803   3.128   4.704  13.329  3.0030  0.2183  0.7833
 3447SOL    HW221804   3.175   0.047  13.462 -0.5133 -0.9035  0.5387
 3448SOL     OW21805   2.676   0.777  15.251 -0.4156  0.0756  0.3307
 3448SOL    HW121806   2.704   0.725  15.326 -0.7696 -0.7450 -0.1046
 3448SOL    HW221807   2.611   0.825  15.302  0.9970  1.0924  1.1629
 3449SOL     OW21808   0.283   4.425   8.635 -0.0542 -0.0521  0.5408
 3449SOL    HW121809   0.262   4.436   8.728 -1.3041 -1.4718  0.4309
 3449SOL    HW221810   0.298   4.516   8.608 -0.3243  0.3069  1.6051
 3450SOL     OW21811   4.179   0.370   6.375 -0.0367 -0.2522  0.4586
 3450SOL    HW121812   4.241   0.394   6.444 -0.6359 -0.1135  0.9540
 3450SOL    HW221813   4.122   0.306   6.418  0.9902 -0.7669  1.0498
 3451SOL     OW21814   0.136   4.038   7.706 -0.1573  0.3166  0.0964
 3451SOL    HW121815   0.155   4.118   7.658 -0.7881  0.7090  0.5096
 3451SOL    HW221816   0.218   4.023   7.753 -0.6921  0.9465  1.2183
 3452SOL     OW21817   2.382   2.422   4.926  0.0572 -0.5496  0.1771
 3452SOL    HW121818   2.384   2.378   5.011 -1.8802  0.6007  0.8169
 3452SOL    HW221819   2.292   2.438   4.897 -0.3468 -1.4053  0.9433
 3453SOL     OW21820   2.692   4.244   8.248  0.0682  0.1570  0.0728
 3453SOL    HW121821   2.779   4.273   8.219 -0.2581  0.9117 -0.1770
 3453SOL    HW221822   2.660   4.217   8.162 -1.5511 -2.0895  1.3818
 3454SOL     OW21823   2.208   2.473   7.171 -0.1763 -0.5840  0.2056
 3454SOL    HW121824   2.125   2.517   7.156  0.0156 -0.2335  0.1747
 3454SOL    HW221825   2.274   2.522   7.121 -1.5204 -0.2198 -1.2081
 3455SOL     OW21826   2.823   2.809   3.326  0.6824  0.0889  0.5878
 3455SOL    HW121827   2.825   2.856   3.242 -0.9034  1.0280  1.0729
 3455SOL    HW221828   2.733   2.783   3.341  0.6943  0.7214  1.7899
 3456SOL     OW21829   0.797   2.212   3.123  0.0485  0.1629  0.0158
 3456SOL    HW121830   0.727   2.238   3.062  0.7377  0.6335 -0.5737
 3456SOL    HW221831   0.749   2.203   3.205 -1.4871  1.6743 -0.6935
 3457SOL     OW21832   0.210   2.787   2.998 -0.0669 -0.3487 -0.0210
 3457SOL    HW121833   0.161   2.748   3.071  0.4083  0.4613  0.7297
 3457SOL    HW221834   0.163   2.768   2.917 -0.6169 -0.4486  0.3167
 3458SOL     OW21835   3.282   1.234   6.767  0.3633  0.4166  0.3654
 3458SOL    HW121836   3.355   1.208   6.711  0.9949 -1.7411  2.1523
 3458SOL    HW221837   3.207   1.207   6.715  0.1229  1.9241 -0.0651
 3459SOL     OW21838   0.103   2.732   7.188  0.1349  0.0793 -0.7250
 3459SOL    HW121839   0.057   2.756   7.269  0.0502  0.1269 -0.7875
 3459SOL    HW221840   0.193   2.752   7.211 -0.7789  1.4501  1.7189
 3460SOL     OW21841   2.025   4.292   5.909  0.3608 -0.7587  0.0815
 3460SOL    HW121842   2.118   4.281   5.927 -0.4508 -0.2685  4.7888
 3460SOL    HW221843   1.984   4.277   5.995  1.4513 -1.2369  0.5265
 3461SOL     OW21844   0.659   1.444   8.870  0.7127 -0.5003  0.1131
 3461SOL    HW121845   0.609   1.401   8.939 -0.5191  1.1023  0.2084
 3461SOL    HW221846   0.752   1.424   8.879  0.8553 -0.4210 -1.1722
 3462SOL     OW21847   3.626   0.310  12.760  0.0579 -0.3039  0.2773
 3462SOL    HW121848   3.560   0.271  12.817 -0.8648  0.1390 -0.4827
 3462SOL    HW221849   3.698   0.321  12.822 -0.4917 -0.6014  0.9689
 3463SOL     OW21850   4.624   3.608  16.726  0.9301  0.3093 -0.4715
 3463SOL    HW121851   4.680   3.559  16.785  0.2004 -0.5098 -0.4568
 3463SOL    HW221852   4.668   3.608  16.641 -0.3007  1.5853 -1.1215
 3464SOL     OW21853   4.191   1.791   6.609 -0.1544  0.1284 -0.4266
 3464SOL    HW121854   4.210   1.850   6.536 -1.2118 -0.0700 -0.8598
 3464SOL    HW221855   4.104   1.766   6.579 -1.0451 -0.9487  3.0856
 3465SOL     OW21856   0.830   0.511   5.577  0.0344 -0.4968 -0.0315
 3465SOL    HW121857   0.811   0.497   5.670 -0.7167 -1.9953 -0.3943
 3465SOL    HW221858   0.820   0.606   5.574  2.3060 -0.2890 -0.7675
 3466SOL     OW21859   4.073   3.199  15.189  0.5866  0.3029  0.3403
 3466SOL    HW121860   4.123   3.152  15.122 -1.4535 -1.7263  0.2659
 3466SOL    HW221861   4.122   3.277  15.215 -0.9060  0.6438  2.0872
 3467SOL     OW21862   3.511   3.629   0.586 -0.2416  0.6011 -0.1504
 3467SOL    HW121863   3.500   3.555   0.645 -1.2734 -0.8678 -2.1804
 3467SOL    HW221864   3.555   3.583   0.515  0.6928 -0.5543  1.1933
 3468SOL     OW21865   1.194   0.289   3.590 -0.0451  0.1809 -0.4249
 3468SOL    HW121866   1.133   0.356   3.622 -1.8248 -2.2096  1.2801
 3468SOL    HW221867   1.263   0.299   3.656 -1.3552  1.5372  0.7547
 3469SOL     OW21868   3.375   1.818   3.828  0.3263  0.1157  0.2504
 3469SOL    HW121869   3.454   1.869   3.843 -0.4458  1.4175 -0.0962
 3469SOL    HW221870   3.393   1.787   3.739  0.4504  0.8705  0.0176
 3470SOL     OW21871   1.286   4.171   9.000 -0.3543 -0.1095  0.1065
 3470SOL    HW121872   1.216   4.109   9.022 -0.8539  0.4636  0.1186
 3470SOL    HW221873   1.288   4.157   8.905 -0.4450  2.7364 -0.3068
 3471SOL     OW21874   1.313   0.281  14.191 -0.4290 -0.0870  0.6128
 3471SOL    HW121875   1.395   0.304  14.147  0.8512 -1.7528  2.1341
 3471SOL    HW221876   1.255   0.262  14.116 -1.1659 -1.3310  1.4989
 3472SOL     OW21877   2.185   3.080   9.372 -0.1878  0.2772  0.0021
 3472SOL    HW121878   2.206   3.173   9.375 -2.5741  0.8502 -0.7905
 3472SOL    HW221879   2.105   3.082   9.425  0.8222  0.9356  1.4810
 3473SOL     OW21880   0.210   0.596   4.212 -0.4603  0.3553  0.3352
 3473SOL    HW121881   0.240   0.520   4.262  2.0672  1.4103  0.4054
 3473SOL    HW221882   0.266   0.667   4.241  1.2335 -1.3591  1.2799
 3474SOL     OW21883   2.293   0.877   3.513 -0.0113  0.3848  0.1264
 3474SOL    HW121884   2.265   0.788   3.492  1.4844 -0.6239  2.5427
 3474SOL    HW221885   2.226   0.940   3.486 -0.0378  0.6362  0.7780
 3475SOL     OW21886   2.414   2.427   8.675  0.1216 -0.2653 -0.0723
 3475SOL    HW121887   2.396   2.363   8.744  0.0585 -1.0752 -0.8479
 3475SOL    HW221888   2.324   2.444   8.646 -0.4932 -0.5163  1.6781
 3476SOL     OW21889   0.307   3.885   4.241 -0.1453 -0.3030  0.2452
 3476SOL    HW121890   0.224   3.931   4.252 -0.0401 -0.6780  2.5561
 3476SOL    HW221891   0.310   3.872   4.146  2.3407 -1.5881  0.5070
 3477SOL     OW21892   2.511   2.769   6.365 -0.3583 -0.7354  0.0553
 3477SOL    HW121893   2.565   2.793   6.290 -1.4938 -0.8120 -0.7734
 3477SOL    HW221894   2.549   2.834   6.424  0.1177  1.5543 -2.7734
 3478SOL     OW21895   0.901   1.952   7.797 -0.0763 -0.1150 -0.2850
 3478SOL    HW121896   0.937   1.954   7.709  1.7908  2.0262  0.5463
 3478SOL    HW221897   0.978   1.982   7.845 -0.3782  1.4346 -0.7517
 3479SOL     OW21898   1.234   2.768   6.772 -0.9152  0.4496 -0.3982
 3479SOL    HW121899   1.269   2.857   6.773 -0.9827  0.4680  0.3281
 3479SOL    HW221900   1.223   2.750   6.865  0.1787  0.6599 -0.2375
 3480SOL     OW21901   0.770   1.729   6.317 -0.1920 -0.1126  0.0719
 3480SOL    HW121902   0.786   1.795   6.385  0.5734 -0.0656 -0.1590
 3480SOL    HW221903   0.697   1.681   6.357  0.1222  0.2834  1.1338
 3481SOL     OW21904   2.484   1.452   8.842 -0.6819  0.2512 -0.3081
 3481SOL    HW121905   2.561   1.503   8.869 -0.1715 -0.0209 -1.2429
 3481SOL    HW221906   2.455   1.494   8.761 -0.3854  0.3642 -0.3571
 3482SOL     OW21907   3.780   3.863  17.229 -0.0956  1.0730 -0.1182
 3482SOL    HW121908   3.853   3.811  17.263 -0.8550  0.8583  1.1954
 3482SOL    HW221909   3.775   3.940  17.286 -0.9834  1.9255 -1.3414
 3483SOL     OW21910   1.046   4.525   3.588  0.4316  0.9390  0.5390
 3483SOL    HW121911   1.053   4.599   3.528  0.1877  2.9206  2.9681
 3483SOL    HW221912   1.007   4.565   3.666  1.3716 -0.2945  1.6317
 3484SOL     OW21913   3.349   0.252   2.813  0.2578 -0.0651  0.4551
 3484SOL    HW121914   3.386   0.339   2.826 -0.1784 -0.0078  1.3394
 3484SOL    HW221915   3.289   0.280   2.744 -0.7593 -1.5739  0.7272
 3485SOL     OW21916   2.080   3.442   4.998  0.1566 -0.0745  0.1762
 3485SOL    HW121917   2.169   3.446   4.965 -0.2162  0.2654 -0.7994
 3485SOL    HW221918   2.062   3.367   4.941 -1.6351 -0.3436  1.1054
 3486SOL     OW21919   1.418   1.163   7.738  1.0729 -0.7788 -0.0065
 3486SOL    HW121920   1.468   1.244   7.750  1.1569 -1.0074  1.1233
 3486SOL    HW221921   1.404   1.170   7.643  0.7407  1.3962  0.1846
 3487SOL     OW21922   2.613   2.588   5.853 -0.1339 -0.0100  0.4484
 3487SOL    HW121923   2.631   2.674   5.890 -2.3033  1.8195 -2.7854
 3487SOL    HW221924   2.635   2.610   5.762  1.7761 -0.9301  0.6870
 3488SOL     OW21925   2.166   2.489   4.570  0.1596  0.1231 -0.0755
 3488SOL    HW121926   2.111   2.459   4.643  1.8327 -1.5012  0.5147
 3488SOL    HW221927   2.247   2.443   4.594 -0.3190 -0.6824 -0.0345
 3489SOL     OW21928   1.382   4.338  11.906 -0.0932 -0.4494  0.2369
 3489SOL    HW121929   1.421   4.337  11.819  1.3431  0.5989  0.8712
 3489SOL    HW221930   1.295   4.300  11.895 -0.0913 -0.8435  1.5037
 3490SOL     OW21931   0.953   1.880   0.459  0.0867 -0.0918 -0.5483
 3490SOL    HW121932   0.886   1.909   0.520 -0.2297 -2.8315  0.4353
 3490SOL    HW221933   1.027   1.867   0.518  1.6435  1.5549 -2.1653
 3491SOL     OW21934   1.394   1.767   4.272 -0.1876  0.0445 -0.9348
 3491SOL    HW121935   1.371   1.676   4.292  3.1923 -0.3924  0.8695
 3491SOL    HW221936   1.489   1.760   4.261  0.0894  3.9504 -0.7379
 3492SOL     OW21937   2.998   0.145   2.151  0.4343  0.0897 -0.6258
 3492SOL    HW121938   3.010   0.234   2.185 -0.6083  0.4840 -1.3159
 3492SOL    HW221939   3.013   0.153   2.057  0.1143 -1.2077 -0.7875
 3493SOL     OW21940   0.611   0.123   4.506 -0.1085  0.2527  0.1582
 3493SOL    HW121941   0.694   0.170   4.504 -1.1885  2.0768 -2.2430
 3493SOL    HW221942   0.595   0.113   4.412  0.6418  0.3843  0.0132
 3494SOL     OW21943   3.597   3.486   3.328  0.2527  0.5336 -0.7756
 3494SOL    HW121944   3.589   3.499   3.233 -0.1526 -1.5053 -1.0191
 3494SOL    HW221945   3.630   3.573   3.351 -0.9622  0.8860 -0.3417
 3495SOL     OW21946   0.833   0.533   8.494  0.6364 -0.0819  0.0111
 3495SOL    HW121947   0.883   0.614   8.486  1.7168 -0.8324 -0.9249
 3495SOL    HW221948   0.778   0.565   8.565 -0.0011 -2.1441  0.4475
 3496SOL     OW21949   0.335   4.628   9.506  0.4117  0.2805  0.2417
 3496SOL    HW121950   0.295   4.557   9.557  0.8455 -0.3971 -0.3504
 3496SOL    HW221951   0.268   4.635   9.438  1.4549  1.2975 -0.6634
 3497SOL     OW21952   2.694   2.441  14.447  0.0694 -0.1744  0.2875
 3497SOL    HW121953   2.687   2.396  14.531  0.3350  1.6491  1.2922
 3497SOL    HW221954   2.636   2.389  14.392 -1.1250 -0.9996  2.3251
 3498SOL     OW21955   3.407   3.335   2.143  0.3352 -0.1256 -0.2848
 3498SOL    HW121956   3.341   3.399   2.118 -0.1757 -0.5593 -0.0411
 3498SOL    HW221957   3.492   3.376   2.126 -0.1609  0.0271 -2.3889
 3499SOL     OW21958   2.111   2.795   4.706  0.5475 -0.4710  0.2292
 3499SOL    HW121959   2.117   2.712   4.753  1.0516 -0.4547  0.1901
 3499SOL    HW221960   2.061   2.761   4.631 -0.6566  2.3590 -0.2383
 3500SOL     OW21961   2.985   4.118   4.595  0.6131  0.6491 -0.3387
 3500SOL    HW121962   3.006   4.180   4.525 -0.8865  2.6156  0.9591
 3500SOL    HW221963   2.898   4.083   4.576 -0.0713  0.9911  2.1527
 3501SOL     OW21964   0.048   1.863   7.217 -0.3141  0.2894  0.3124
 3501SOL    HW121965   0.101   1.886   7.141 -0.9122  0.1136 -0.1527
 3501SOL    HW221966   0.117   1.891   7.278 -0.5017  0.5480  0.4067
 3502SOL     OW21967   3.872   4.667  15.247 -0.4763 -0.0139 -0.1196
 3502SOL    HW121968   3.938   4.600  15.228 -0.7533 -0.5591  0.8315
 3502SOL    HW221969   3.822   4.655  15.167  0.3388  0.1872 -0.6640
 3503SOL     OW21970   4.307   0.055   5.931 -0.3906  0.3731  0.3710
 3503SOL    HW121971   4.228   0.048   5.984 -0.2633  1.3794  0.6860
 3503SOL    HW221972   4.364   0.109   5.986  1.6044 -1.0299 -0.2906
 3504SOL     OW21973   3.482   1.015   4.312  0.4969  0.1419 -0.2960
 3504SOL    HW121974   3.401   1.062   4.294 -1.4829 -2.7753  1.0901
 3504SOL    HW221975   3.453   0.924   4.302 -1.3930  0.5200  1.9839
 3505SOL     OW21976   3.696   4.157  15.199  0.0176 -0.1534 -0.4174
 3505SOL    HW121977   3.625   4.217  15.222 -0.1177 -0.2367 -0.6216
 3505SOL    HW221978   3.769   4.213  15.226 -0.6379  0.9949 -0.9874
 3506SOL     OW21979   0.331   0.786   9.313 -0.0656 -0.4792 -0.7734
 3506SOL    HW121980   0.302   0.876   9.330  1.1792 -0.1933 -0.1011
 3506SOL    HW221981   0.306   0.746   9.397  1.0171  1.8466  0.6663
 3507SOL     OW21982   1.869   1.194   5.526  0.3706  0.4442  0.1659
 3507SOL    HW121983   1.928   1.121   5.505 -0.5701  0.0303 -1.0441
 3507SOL    HW221984   1.898   1.192   5.617  2.1106  0.4546 -0.3827
 3508SOL     OW21985   3.767   2.717   1.218 -0.2516  0.3450 -0.1843
 3508SOL    HW121986   3.793   2.756   1.135 -1.0420  1.3875  0.0646
 3508SOL    HW221987   3.708   2.785   1.249 -0.4675 -0.1674  0.5532
 3509SOL     OW21988   1.515   3.038   7.708  0.2613  0.0154 -0.0164
 3509SOL    HW121989   1.573   3.009   7.637 -2.2839  3.8252 -3.6187
 3509SOL    HW221990   1.465   3.105   7.662  0.7704  0.6056  0.3005
 3510SOL     OW21991   1.860   0.687  14.405 -0.1363  0.1338 -0.3727
 3510SOL    HW121992   1.861   0.680  14.501 -0.4590 -0.1404 -0.3888
 3510SOL    HW221993   1.771   0.656  14.389  0.6658 -2.4478  0.2200
 3511SOL     OW21994   0.221   0.354   8.998 -0.1420 -0.6386 -0.7237
 3511SOL    HW121995   0.211   0.449   8.999 -2.2992 -0.8330 -2.0438
 3511SOL    HW221996   0.173   0.327   9.076  0.7969 -0.6949 -0.1810
 3512SOL     OW21997   1.780   0.658   4.838  0.3493  0.2556  0.0624
 3512SOL    HW121998   1.827   0.686   4.759  3.0532 -2.9242  0.5358
 3512SOL    HW221999   1.693   0.642   4.802  1.2278 -0.4210 -1.7475
 3513SOL     OW22000   1.509   2.231  14.047 -0.2073 -0.4851  0.1677
 3513SOL    HW122001   1.521   2.266  14.135 -2.1686  1.8249 -0.4887
 3513SOL    HW222002   1.415   2.214  14.055 -0.4384 -0.3229 -2.3991
 3514SOL     OW22003   1.022   1.097   4.289 -0.2015 -0.5697 -0.4772
 3514SOL    HW122004   0.952   1.133   4.235 -0.2427 -0.7859 -0.5692
 3514SOL    HW222005   0.975   1.107   4.372  0.9439  0.5813  0.0407
 3515SOL     OW22006   0.081   2.199   3.898  0.5005 -0.3884  0.2491
 3515SOL    HW122007   0.059   2.266   3.963 -2.4637 -0.4123 -0.7024
 3515SOL    HW222008   0.155   2.244   3.857 -0.8484 -0.3678 -2.1598
 3516SOL     OW22009   0.283   2.765  10.356  0.1238  0.0270 -0.1229
 3516SOL    HW122010   0.290   2.829  10.286 -0.9914 -0.2535 -0.4963
 3516SOL    HW222011   0.234   2.821  10.417 -0.6409 -2.3274  1.4430
 3517SOL     OW22012   3.100   3.353   4.764 -0.3857  0.0244 -0.3294
 3517SOL    HW122013   3.031   3.419   4.762 -0.4864 -0.0487  1.0518
 3517SOL    HW222014   3.068   3.281   4.710  1.1582  0.5502 -1.9591
 3518SOL     OW22015   4.135   3.674   1.606  0.2617 -0.2546 -0.0060
 3518SOL    HW122016   4.071   3.738   1.575  1.0651  0.9113  0.6865
 3518SOL    HW222017   4.102   3.669   1.696  1.0000  1.9351  0.3994
 3519SOL     OW22018   1.175   0.119   6.729  0.3995 -0.2366 -0.0531
 3519SOL    HW122019   1.144   0.053   6.667 -0.6291 -1.0195  1.2934
 3519SOL    HW222020   1.101   0.179   6.736 -0.9314 -1.7490 -1.3567
 3520SOL     OW22021   2.290   4.132   0.028  0.1540 -0.8294 -0.0814
 3520SOL    HW122022   2.203   4.134   0.067  0.4124  1.5676  0.3826
 3520SOL    HW222023   2.311   4.225   0.033 -1.2677 -0.4051 -1.6957
 3521SOL     OW22024   0.621   4.118   2.345 -0.0464  0.1464  0.3012
 3521SOL    HW122025   0.654   4.199   2.386  1.7286 -0.9427  1.0299
 3521SOL    HW222026   0.622   4.046   2.407  0.5143 -1.0553 -1.1017
 3522SOL     OW22027   0.079   3.801  10.869 -0.4361  0.1913 -0.4932
 3522SOL    HW122028   0.065   3.753  10.788 -0.7712  0.3935 -0.5546
 3522SOL    HW222029   0.063   3.735  10.936 -2.1891 -1.8691 -2.9534
 3523SOL     OW22030   4.140   0.870   5.713  0.4232  0.1253  0.1263
 3523SOL    HW122031   4.084   0.851   5.638  1.1578 -0.3809 -0.2972
 3523SOL    HW222032   4.074   0.907   5.772 -0.5468 -3.1247  1.1242
 3524SOL     OW22033   3.833   3.434   9.676  0.1536 -0.3121  0.1574
 3524SOL    HW122034   3.879   3.517   9.689 -0.1560 -0.0699 -0.3174
 3524SOL    HW222035   3.831   3.401   9.765 -1.8539  3.3315  1.4522
 3525SOL     OW22036   3.790   3.788  13.531 -0.0864  0.5111  0.0698
 3525SOL    HW122037   3.837   3.785  13.447 -1.1003  0.8221 -0.4991
 3525SOL    HW222038   3.844   3.721  13.574  0.0325  1.0043  0.6845
 3526SOL     OW22039   1.772   2.197  11.156 -0.1826 -0.6488 -0.3739
 3526SOL    HW122040   1.732   2.270  11.108 -1.2916 -1.4206 -0.6163
 3526SOL    HW222041   1.823   2.155  11.087  1.3477 -0.0301  0.3767
 3527SOL     OW22042   4.595   0.102   9.065  0.0083 -0.1022  0.3856
 3527SOL    HW122043   4.655   0.047   9.016  0.3847  0.0307  0.6986
 3527SOL    HW222044   4.545   0.156   9.004 -1.7682  0.7915  2.6149
 3528SOL     OW22045   1.456   3.708   6.224 -0.1942  0.3392  0.4862
 3528SOL    HW122046   1.444   3.616   6.248 -3.3760  0.9224  1.2495
 3528SOL    HW222047   1.550   3.712   6.239 -0.2343  0.2380  0.7671
 3529SOL     OW22048   3.520   0.542   8.300  0.8997  0.2967  0.0275
 3529SOL    HW122049   3.601   0.506   8.335 -0.8447 -0.6609  3.0516
 3529SOL    HW222050   3.558   0.606   8.239  1.2641 -0.4158 -0.4865
 3530SOL     OW22051   0.041   2.324   5.289 -0.8171  0.2522  0.6289
 3530SOL    HW122052   0.002   2.237   5.288 -0.4712  0.0753  2.3771
 3530SOL    HW222053   4.688   2.376   5.264  0.1330  2.7673  2.9454
 3531SOL     OW22054   4.421   3.502  11.700 -0.4939  0.2673 -0.4948
 3531SOL    HW122055   4.387   3.590  11.710 -0.5581  0.3688 -1.5746
 3531SOL    HW222056   4.493   3.521  11.640  1.0868 -1.9952  0.7066
 3532SOL     OW22057   2.278   1.194   6.143 -0.0019 -0.4197 -0.0714
 3532SOL    HW122058   2.271   1.251   6.220  0.0340  2.3023 -2.0958
 3532SOL    HW222059   2.337   1.127   6.177 -0.4059 -1.2951 -1.0967
 3533SOL     OW22060   1.094   4.536   3.171  0.4819 -0.4310  0.3865
 3533SOL    HW122061   1.049   4.482   3.236 -0.1829 -0.9629 -0.5080
 3533SOL    HW222062   1.027   4.601   3.153 -0.9816 -2.1418 -0.3510
 3534SOL     OW22063   2.765   1.432  10.022 -0.3663  0.0867  0.4384
 3534SOL    HW122064   2.716   1.514  10.029 -0.0686  0.4524 -1.8045
 3534SOL    HW222065   2.739   1.386  10.102  0.3836 -1.0822 -0.0032
 3535SOL     OW22066   2.975   3.651   7.483 -0.6768 -0.6326  0.0708
 3535SOL    HW122067   3.048   3.690   7.531 -1.3033  1.0240 -0.3379
 3535SOL    HW222068   2.897   3.701   7.510  0.4643  1.1680  0.0364
 3536SOL     OW22069   3.386   3.075   2.792  0.3681 -0.3586 -0.3939
 3536SOL    HW122070   3.448   3.051   2.861 -0.0358 -0.5316 -0.0890
 3536SOL    HW222071   3.416   3.017   2.721  0.7915 -0.5932 -0.0238
 3537SOL     OW22072   2.314   2.320   6.205 -0.4543  0.2952 -0.4242
 3537SOL    HW122073   2.364   2.402   6.205 -0.2969  0.2061 -2.4100
 3537SOL    HW222074   2.235   2.369   6.180  0.0487  0.5063 -1.6106
 3538SOL     OW22075   4.429   0.397   1.579 -0.2019  0.4528  0.0454
 3538SOL    HW122076   4.378   0.359   1.508  0.5512 -2.4238  1.0706
 3538SOL    HW222077   4.504   0.439   1.536 -0.8715 -0.2672 -1.8355
 3539SOL     OW22078   4.426   0.409  13.497 -0.5420 -0.1369 -0.2640
 3539SOL    HW122079   4.375   0.413  13.416 -0.1439 -2.1944 -0.6204
 3539SOL    HW222080   4.411   0.317  13.519  0.1623 -0.0626  0.5283
 3540SOL     OW22081   1.846   4.336  17.579 -0.0142 -0.1604 -0.0281
 3540SOL    HW122082   1.939   4.326  17.562  0.6838  1.9829  2.5547
 3540SOL    HW222083   1.836   4.333  17.674 -1.9723  1.4664 -0.1671
 3541SOL     OW22084   1.465   2.353   4.768 -0.1511  1.2508 -0.5563
 3541SOL    HW122085   1.446   2.415   4.838 -1.4312 -1.2358  1.3324
 3541SOL    HW222086   1.535   2.393   4.717 -0.2104 -0.4033 -1.9313
 3542SOL     OW22087   0.650   0.284   1.631  0.3267  0.1707  0.4649
 3542SOL    HW122088   0.558   0.258   1.636 -0.1619  1.3779 -2.1619
 3542SOL    HW222089   0.677   0.274   1.722  0.1264 -0.3619  0.4689
 3543SOL     OW22090   3.615   4.223   7.846 -0.4404 -0.3268 -0.3372
 3543SOL    HW122091   3.629   4.304   7.796 -0.3347  0.8515  1.6120
 3543SOL    HW222092   3.531   4.195   7.810 -0.3972  0.2994 -0.9227
 3544SOL     OW22093   0.025   2.615   8.837  0.7485 -0.7370  1.0132
 3544SOL    HW122094   0.001   2.536   8.886 -1.5454 -1.6576 -1.6134
 3544SOL    HW222095   0.075   2.663   8.903 -1.1942 -0.0446  1.9536
 3545SOL     OW22096   1.431   0.649   7.562  0.6679  0.1552 -0.0219
 3545SOL    HW122097   1.342   0.682   7.548 -0.0140 -1.3306  0.7952
 3545SOL    HW222098   1.431   0.570   7.508  0.3763 -0.8993  1.5161
 3546SOL     OW22099   2.479   3.733   2.683  0.1120  0.0645  0.0865
 3546SOL    HW122100   2.398   3.745   2.633 -1.4824 -0.8458  2.5035
 3546SOL    HW222101   2.444   3.696   2.764 -2.0801  0.7688 -0.5420
 3547SOL     OW22102   4.232   1.893   5.288 -0.9330 -0.0045  0.0989
 3547SOL    HW122103   4.240   1.963   5.353 -0.2622  1.4412 -1.5444
 3547SOL    HW222104   4.149   1.916   5.245 -1.8369  0.6684  2.2032
 3548SOL     OW22105   1.350   3.892  11.047  0.7313 -0.1371 -0.0303
 3548SOL    HW122106   1.363   3.798  11.061 -1.2504 -0.5178 -0.8315
 3548SOL    HW222107   1.338   3.911  11.140  0.7947 -3.7582  0.7206
 3549SOL     OW22108   2.407   4.270   1.828  1.1390 -0.4272  0.2578
 3549SOL    HW122109   2.496   4.284   1.796  1.5440  0.1338  1.6627
 3549SOL    HW222110   2.353   4.316   1.763  1.5060  0.2867  0.4576
 3550SOL     OW22111   3.722   0.552   7.755 -0.4015 -0.2821  0.2103
 3550SOL    HW122112   3.635   0.577   7.786 -0.4752 -1.1682  0.7194
 3550SOL    HW222113   3.739   0.627   7.698  0.2579  1.6228  2.9302
 3551SOL     OW22114   2.260   2.310  13.267  0.2753  0.0771 -0.5358
 3551SOL    HW122115   2.306   2.387  13.234 -1.5468  1.0083 -0.8964
 3551SOL    HW222116   2.258   2.242  13.200  0.8499 -0.1746 -0.2946
 3552SOL     OW22117   3.290   0.731   4.186 -0.0281 -0.0652  0.8430
 3552SOL    HW122118   3.236   0.715   4.263  0.9973  0.0667  1.5951
 3552SOL    HW222119   3.364   0.671   4.201  0.9921  1.5952  2.5311
 3553SOL     OW22120   0.684   4.659  16.453 -0.2967  0.1300 -0.3551
 3553SOL    HW122121   0.767   4.619  16.477 -0.3894 -0.5240 -1.0981
 3553SOL    HW222122   0.709   0.028  16.461  2.2870 -0.5241 -0.9165
 3554SOL     OW22123   2.134   1.966   7.402 -0.3194  0.2612 -0.7654
 3554SOL    HW122124   2.168   1.935   7.486 -1.4963 -0.5801 -0.5963
 3554SOL    HW222125   2.187   2.043   7.382  0.7478 -0.6717 -1.5338
 3555SOL     OW22126   1.276   2.821   4.923  0.0126 -0.2395 -0.3033
 3555SOL    HW122127   1.184   2.845   4.938  0.7213 -0.1757  3.9726
 3555SOL    HW222128   1.285   2.789   4.834  2.3656  0.9721 -0.4989
 3556SOL     OW22129   3.327   1.540   5.498  0.8279  0.2435  0.0360
 3556SOL    HW122130   3.313   1.565   5.407 -0.3418 -1.5726 -0.2902
 3556SOL    HW222131   3.397   1.476   5.488  0.1650  0.1411 -3.8954
 3557SOL     OW22132   0.649   3.599   1.713 -0.4739  0.3024  0.3537
 3557SOL    HW122133   0.590   3.672   1.734 -2.0279 -0.9634  0.4290
 3557SOL    HW222134   0.674   3.612   1.622 -2.0022 -2.5679 -0.4876
 3558SOL     OW22135   2.908   3.557   9.223 -0.2057  0.0390  0.2656
 3558SOL    HW122136   2.891   3.505   9.145 -0.7288 -0.4497  0.7073
 3558SOL    HW222137   2.902   3.646   9.189 -1.5008  0.0087  0.4181
 3559SOL     OW22138   3.930   3.668  11.292  0.0558 -0.4174  0.1673
 3559SOL    HW122139   4.011   3.647  11.246  0.2351  2.2549 -0.7198
 3559SOL    HW222140   3.928   3.764  11.290 -1.7274 -0.4727 -0.7301
 3560SOL     OW22141   4.280   2.154  15.117  0.3009  0.0195  0.1217
 3560SOL    HW122142   4.344   2.093  15.154  0.3798  0.8008  1.2762
 3560SOL    HW222143   4.218   2.090  15.081  1.0032  0.6059 -2.1063
 3561SOL     OW22144   1.566   3.450   5.474 -0.8288  0.4119  0.5805
 3561SOL    HW122145   1.642   3.458   5.416  1.4382  1.9473  3.8092
 3561SOL    HW222146   1.562   3.355   5.490 -0.8720  0.3657  0.2988
 3562SOL     OW22147   1.382   1.410   2.477  0.3642  0.3175 -0.6804
 3562SOL    HW122148   1.302   1.463   2.471 -0.1247 -0.7063 -3.5358
 3562SOL    HW222149   1.438   1.466   2.530  1.8623 -1.2164 -0.6657
 3563SOL     OW22150   0.572   4.005   5.171 -0.4876 -0.3597  0.3765
 3563SOL    HW122151   0.512   4.066   5.127 -2.6030 -3.2868 -0.7701
 3563SOL    HW222152   0.650   4.014   5.118  1.2750  1.2308  3.2353
 3564SOL     OW22153   0.978   2.840  15.350  0.1508 -0.3730 -0.1999
 3564SOL    HW122154   1.059   2.866  15.392  0.3232 -0.4307 -0.4919
 3564SOL    HW222155   0.914   2.849  15.420  1.1947  3.9030  0.1881
 3565SOL     OW22156   2.747   1.827  14.536  0.2123 -0.6851  0.4615
 3565SOL    HW122157   2.746   1.762  14.607 -0.6229 -0.4880  0.6379
 3565SOL    HW222158   2.821   1.879  14.567 -0.4826 -0.8313  2.4088
 3566SOL     OW22159   2.387   0.531   7.401 -0.0169 -0.4288  0.1207
 3566SOL    HW122160   2.327   0.475   7.451  0.3676  0.6183  1.7530
 3566SOL    HW222161   2.409   0.475   7.327  0.7837 -0.7888  0.6354
 3567SOL     OW22162   2.305   1.600   8.238 -0.4652 -0.8491 -0.1459
 3567SOL    HW122163   2.264   1.672   8.189  0.4432 -0.1120  0.1848
 3567SOL    HW222164   2.370   1.570   8.174  0.3981  2.9348 -1.0838
 3568SOL     OW22165   2.867   0.007   7.120  0.0461 -0.2996 -0.3866
 3568SOL    HW122166   2.946   0.007   7.065  0.2572  0.7117 -0.0825
 3568SOL    HW222167   2.908   4.693   7.199  1.3967 -0.1443 -1.0171
 3569SOL     OW22168   1.284   1.402   1.849 -0.0021 -0.1542 -0.4498
 3569SOL    HW122169   1.285   1.498   1.841  1.3802 -0.3536 -2.6137
 3569SOL    HW222170   1.214   1.398   1.914 -0.9800 -0.4922 -1.5282
 3570SOL     OW22171   4.026   3.933   7.156 -0.2301  0.1881  0.0986
 3570SOL    HW122172   4.088   3.964   7.222 -0.4888  0.6957  0.1006
 3570SOL    HW222173   4.034   3.839   7.176  0.7404 -0.3066 -2.5303
 3571SOL     OW22174   3.001   0.411   2.185  0.4832  0.0089 -0.0027
 3571SOL    HW122175   2.981   0.464   2.262 -0.1568  1.2008 -0.9856
 3571SOL    HW222176   2.936   0.447   2.124 -0.4994 -2.5060 -0.4019
 3572SOL     OW22177   3.620   1.183   6.672 -0.5187  0.4965 -0.3171
 3572SOL    HW122178   3.686   1.223   6.729 -0.9185 -0.2120  0.6407
 3572SOL    HW222179   3.642   1.212   6.584  3.3303 -0.7951  0.2038
 3573SOL     OW22180   3.298   0.090   8.885  0.3632  0.3510 -0.0405
 3573SOL    HW122181   3.315   0.034   8.810 -2.8801 -0.0705 -0.4378
 3573SOL    HW222182   3.233   0.151   8.852 -0.3509 -0.1845  0.3846
 3574SOL     OW22183   3.939   3.476   4.134  0.2015 -0.0745  0.6196
 3574SOL    HW122184   3.852   3.516   4.143  0.0828 -0.2117  0.0890
 3574SOL    HW222185   3.930   3.393   4.179 -1.2999 -0.5669 -0.5699
 3575SOL     OW22186   2.704   0.945   7.062 -0.0091  0.8120  0.3192
 3575SOL    HW122187   2.656   0.879   7.011  0.4350  1.3730 -0.8425
 3575SOL    HW222188   2.695   0.908   7.150 -0.8657  2.0326  0.7351
 3576SOL     OW22189   1.501   1.545   8.387 -0.0475  0.3567 -0.1228
 3576SOL    HW122190   1.471   1.611   8.450 -3.0489 -0.6004 -0.5353
 3576SOL    HW222191   1.591   1.530   8.417  0.6455  3.3245 -0.7210
 3577SOL     OW22192   0.154   2.667  15.683  0.1042  0.5393 -0.8302
 3577SOL    HW122193   0.101   2.617  15.745  1.7519 -0.0963  0.0953
 3577SOL    HW222194   0.241   2.641  15.714 -1.0900 -0.9028  1.2915
 3578SOL     OW22195   0.105   3.076   6.624 -0.0552  0.1532 -0.0106
 3578SOL    HW122196   0.076   3.005   6.568  1.3971 -1.3751  1.1995
 3578SOL    HW222197   0.044   3.076   6.698 -1.3184 -1.2301 -1.0666
 3579SOL     OW22198   3.295   4.369   4.012 -0.0075 -0.3586 -0.3990
 3579SOL    HW122199   3.361   4.322   3.960  3.9628  2.4085  2.0727
 3579SOL    HW222200   3.341   4.370   4.097 -1.3797 -1.8974  0.3520
 3580SOL     OW22201   0.746   3.164  15.365  0.4812 -0.0016 -0.4925
 3580SOL    HW122202   0.727   3.087  15.418  0.4572  0.0254 -0.4616
 3580SOL    HW222203   0.842   3.159  15.360  0.4217  1.2902 -2.7568
 3581SOL     OW22204   0.849   0.589  17.153  0.3010 -0.5966 -0.1896
 3581SOL    HW122205   0.827   0.590  17.246  0.6143 -0.9006 -0.1123
 3581SOL    HW222206   0.758   0.590  17.123 -0.2802 -0.9455  1.5805
 3582SOL     OW22207   0.073   3.880   3.393 -0.2132 -0.3371 -0.3258
 3582SOL    HW122208   0.061   3.965   3.435  0.6010  0.4421 -1.6809
 3582SOL    HW222209   0.013   3.881   3.318  0.8892  1.8075 -1.1743
 3583SOL     OW22210   0.119   4.574   3.763  0.1222 -0.2981 -0.1624
 3583SOL    HW122211   0.172   4.621   3.826 -0.1747 -0.3338  0.1145
 3583SOL    HW222212   0.066   4.639   3.717  0.0053 -0.6874 -0.5850
 3584SOL     OW22213   2.559   1.188   6.224  0.0844 -0.7799 -0.0426
 3584SOL    HW122214   2.574   1.108   6.275 -0.7381 -1.2450 -0.5298
 3584SOL    HW222215   2.633   1.245   6.246 -0.4572 -0.6880  1.4942
 3585SOL     OW22216   3.123   1.886   3.840  0.0031  0.1790 -0.1739
 3585SOL    HW122217   3.217   1.868   3.837  0.1408  0.6701  1.1467
 3585SOL    HW222218   3.087   1.803   3.807 -0.7671  0.8045 -0.9010
 3586SOL     OW22219   2.907   0.710   1.453 -0.3480 -0.3652 -0.0485
 3586SOL    HW122220   2.901   0.754   1.368  1.0659  3.0740  1.6314
 3586SOL    HW222221   2.817   0.716   1.485 -0.2700 -2.6254  0.6546
 3587SOL     OW22222   2.611   2.321   3.288 -0.1590 -0.3343 -0.2254
 3587SOL    HW122223   2.529   2.327   3.338  0.0895  1.6455 -0.0593
 3587SOL    HW222224   2.617   2.405   3.242 -0.8445  0.0985  0.4753
 3588SOL     OW22225   4.355   1.964  12.870  0.7817  0.4257  0.3856
 3588SOL    HW122226   4.329   2.011  12.791 -2.0607 -3.5083 -1.0031
 3588SOL    HW222227   4.435   2.012  12.892  0.3993  1.0029  0.5120
 3589SOL     OW22228   2.540   3.747  14.439 -0.3395  0.4068 -0.1888
 3589SOL    HW122229   2.507   3.743  14.349 -0.5621  1.9560 -0.1704
 3589SOL    HW222230   2.491   3.817  14.482 -1.7528  0.2014 -1.4687
 3590SOL     OW22231   4.472   4.194   2.939  0.5678 -0.2958  0.0773
 3590SOL    HW122232   4.544   4.208   2.877  1.5843 -0.4606  1.2285
 3590SOL    HW222233   4.455   4.280   2.975  2.7886  0.9084 -1.7191
 3591SOL     OW22234   0.154   4.001  10.705  0.2796 -0.4566  0.0948
 3591SOL    HW122235   0.237   4.006  10.752  1.0368  1.4319 -1.4482
 3591SOL    HW222236   0.116   3.935  10.763 -1.2057  1.6523  1.5261
 3592SOL     OW22237   3.024   4.576   7.305 -0.0125 -0.1555  0.0104
 3592SOL    HW122238   3.119   4.566   7.314  0.3212  0.8746 -2.4260
 3592SOL    HW222239   2.996   4.490   7.337 -1.7603  1.4459  2.7688
 3593SOL     OW22240   2.441   2.777   9.607  0.1472 -0.1139 -0.1512
 3593SOL    HW122241   2.522   2.819   9.580 -0.0982  0.1088 -0.5506
 3593SOL    HW222242   2.382   2.853   9.613 -1.1128 -0.7704 -4.1812
 3594SOL     OW22243   2.948   0.983   2.746 -0.2974 -0.4488 -1.2067
 3594SOL    HW122244   2.943   0.968   2.651  1.9659  0.4850 -1.4614
 3594SOL    HW222245   2.941   1.078   2.748 -0.4859 -0.4887 -0.0501
 3595SOL     OW22246   2.815   4.252   7.167 -0.1509  0.1540 -0.1777
 3595SOL    HW122247   2.784   4.162   7.164  0.5177 -0.0747 -0.0275
 3595SOL    HW222248   2.908   4.254   7.189 -0.1426 -1.0200 -0.1355
 3596SOL     OW22249   0.376   4.569   7.136  0.4314 -0.3280  0.0931
 3596SOL    HW122250   0.444   4.530   7.081 -0.1283 -0.2748 -0.6396
 3596SOL    HW222251   0.305   4.577   7.071  1.0341  2.8582 -0.1760
 3597SOL     OW22252   4.313   0.328   2.616 -0.0655  0.1592  0.6074
 3597SOL    HW122253   4.274   0.241   2.608  0.9653 -0.0678 -1.9088
 3597SOL    HW222254   4.354   0.335   2.530  0.5449 -1.1068  0.8019
 3598SOL     OW22255   1.898   3.089  14.058 -0.3009 -0.0687  0.0408
 3598SOL    HW122256   1.808   3.090  14.090  0.2719  2.0405  1.5618
 3598SOL    HW222257   1.912   3.183  14.054 -1.3894  0.0083 -1.4191
 3599SOL     OW22258   0.544   4.146   6.146 -0.0610 -0.6509 -0.2910
 3599SOL    HW122259   0.504   4.158   6.060  1.5901  1.5592 -0.7640
 3599SOL    HW222260   0.633   4.149   6.111  1.0798  0.5331  2.6173
 3600SOL     OW22261   0.577   3.753  16.952 -0.5659 -0.4552 -0.0923
 3600SOL    HW122262   0.576   3.745  17.048 -0.0804 -0.3597 -0.0786
 3600SOL    HW222263   0.570   3.845  16.928  0.5367  0.3199  2.5157
 3601SOL     OW22264   4.568   0.507   4.470  0.2257 -0.0950 -0.3027
 3601SOL    HW122265   4.530   0.539   4.551  1.1781 -0.3405  0.2447
 3601SOL    HW222266   4.493   0.506   4.411 -0.2003  1.0296  0.2177
 3602SOL     OW22267   0.740   3.721   4.666  0.1155 -0.4173 -0.3616
 3602SOL    HW122268   0.726   3.780   4.741  0.5102 -1.8181  0.8042
 3602SOL    HW222269   0.804   3.779   4.623  0.0929 -0.5643 -0.5898
 3603SOL     OW22270   2.003   2.409   2.898 -0.1627 -0.1600 -0.0802
 3603SOL    HW122271   1.919   2.456   2.896  0.2744  0.6147 -0.2482
 3603SOL    HW222272   2.063   2.483   2.885  1.2124 -1.5031 -1.4308
 3604SOL     OW22273   3.470   2.967   4.367  0.2252 -0.0095 -1.1886
 3604SOL    HW122274   3.383   3.006   4.371  0.3696  0.1209  0.7760
 3604SOL    HW222275   3.506   3.039   4.315 -0.7947  1.9218  0.7621
 3605SOL     OW22276   1.430   1.050   8.936  0.8771 -0.2258 -0.0693
 3605SOL    HW122277   1.398   0.986   8.873  1.8713 -1.3614  0.5941
 3605SOL    HW222278   1.506   1.015   8.982 -1.0800  0.6733  3.7876
 3606SOL     OW22279   3.992   0.653   9.445 -0.4266  0.2398 -0.3229
 3606SOL    HW122280   4.068   0.687   9.398  0.1341  0.7308  0.9396
 3606SOL    HW222281   3.948   0.736   9.463 -1.3781 -0.9884  3.1374
 3607SOL     OW22282   0.231   3.830   8.647  0.8453  0.1637  0.5558
 3607SOL    HW122283   0.270   3.876   8.573 -0.8269  0.5171 -0.1126
 3607SOL    HW222284   0.136   3.844   8.639  0.6864 -2.1796 -1.3933
 3608SOL     OW22285   2.316   2.393   7.439  0.0080 -0.1994 -0.1535
 3608SOL    HW122286   2.307   2.454   7.365 -2.7336  2.2033  2.1329
 3608SOL    HW222287   2.228   2.380   7.475  0.5366 -0.2709  1.1248
 3609SOL     OW22288   2.986   3.678   2.572  0.0210 -0.4430  0.5325
 3609SOL    HW122289   2.971   3.734   2.496 -2.4269 -3.1505 -0.9860
 3609SOL    HW222290   2.894   3.651   2.581 -0.1712  0.2653  0.7424
 3610SOL     OW22291   0.051   1.391   9.457 -0.0949 -0.5140 -0.2146
 3610SOL    HW122292   4.708   1.356   9.516  0.2616  0.2559  0.6334
 3610SOL    HW222293   4.720   1.405   9.378 -0.3322  0.3718  0.1017
 3611SOL     OW22294   2.357   0.449   2.068  0.3670 -0.0278 -0.2436
 3611SOL    HW122295   2.365   0.434   1.973  0.5795 -1.3347 -0.0273
 3611SOL    HW222296   2.274   0.492   2.085  1.1315  0.6897  1.6561
 3612SOL     OW22297   1.413   3.969   3.565 -0.0346 -0.0647  0.2279
 3612SOL    HW122298   1.469   3.919   3.625  0.8443 -1.9380 -2.1587
 3612SOL    HW222299   1.430   3.923   3.483  0.5851  1.1160 -0.3078
 3613SOL     OW22300   3.280   3.558   8.817  0.0666  0.7321  0.2702
 3613SOL    HW122301   3.244   3.647   8.813 -0.3157  0.5575 -0.2870
 3613SOL    HW222302   3.260   3.539   8.908 -0.9113 -0.9233 -0.2946
 3614SOL     OW22303   2.981   3.239  15.351  0.1141  0.6521  0.5263
 3614SOL    HW122304   2.890   3.240  15.380 -0.1248 -3.3402 -0.0935
 3614SOL    HW222305   2.958   3.184  15.277 -1.2589 -0.3433  1.6958
 3615SOL     OW22306   3.350   3.456   1.822  0.4008  0.6145 -0.6674
 3615SOL    HW122307   3.387   3.543   1.838  0.1504  0.5579  0.1794
 3615SOL    HW222308   3.337   3.473   1.728  1.8129  0.5292 -0.8796
 3616SOL     OW22309   4.672   1.006   9.904 -0.2898  0.0529 -0.5293
 3616SOL    HW122310   4.634   0.989   9.818 -1.4298  0.9266 -0.2075
 3616SOL    HW222311   0.037   1.037   9.884 -0.4189  0.9168  0.2868
 3617SOL     OW22312   3.057   3.436   3.270  0.1189  0.0587 -0.3429
 3617SOL    HW122313   3.026   3.346   3.282 -2.2471  0.6598 -1.8645
 3617SOL    HW222314   3.152   3.421   3.267  0.1414  0.6333 -2.5963
 3618SOL     OW22315   3.836   1.541   3.680  0.2952  0.1162  0.0881
 3618SOL    HW122316   3.896   1.522   3.752  0.1235 -0.5352  0.0591
 3618SOL    HW222317   3.753   1.551   3.726 -0.3454  0.1958 -1.0979
 3619SOL     OW22318   2.629   2.748   6.892  0.1449  0.1351 -0.1611
 3619SOL    HW122319   2.689   2.676   6.911 -0.3794 -0.4917 -0.8455
 3619SOL    HW222320   2.633   2.798   6.974  2.3320  0.9036 -0.7553
 3620SOL     OW22321   1.443   2.203  13.418 -0.3234  0.1213  0.3964
 3620SOL    HW122322   1.387   2.141  13.372 -0.8729 -1.3097  3.0360
 3620SOL    HW222323   1.390   2.274  13.453 -0.8238  1.3070 -2.7488
 3621SOL     OW22324   3.584   4.526   1.891  0.5638  0.0401  0.2204
 3621SOL    HW122325   3.659   4.544   1.835 -0.0894 -1.9081 -1.2604
 3621SOL    HW222326   3.603   4.436   1.917  0.2422  0.0824  0.6039
 3622SOL     OW22327   0.689   0.208   6.751 -0.1801 -0.1860  0.3538
 3622SOL    HW122328   0.674   0.117   6.777 -2.6013  0.4403  1.0875
 3622SOL    HW222329   0.603   0.230   6.715 -0.3189 -0.1508  0.7123
 3623SOL     OW22330   2.224   3.663   4.035  0.9560  0.4759  0.6661
 3623SOL    HW122331   2.259   3.737   3.985 -1.3533  0.7108 -0.6293
 3623SOL    HW222332   2.244   3.687   4.125 -1.2810  2.3911  0.6772
 3624SOL     OW22333   2.268   4.204   7.876  0.3045 -0.2328 -0.1703
 3624SOL    HW122334   2.190   4.156   7.846 -1.0503  0.6574  1.9428
 3624SOL    HW222335   2.227   4.277   7.922  0.0038 -1.0991  0.9230
 3625SOL     OW22336   0.459   2.569  15.761 -0.3356 -0.0912 -0.1649
 3625SOL    HW122337   0.458   2.475  15.781  0.8991 -0.0186  0.2348
 3625SOL    HW222338   0.546   2.583  15.723 -0.1979 -1.6803 -0.4304
 3626SOL     OW22339   3.323   2.539   6.772  0.1524  0.2496  0.2209
 3626SOL    HW122340   3.330   2.445   6.791  0.8459  0.8004  2.7466
 3626SOL    HW222341   3.395   2.542   6.710  0.3634  0.7519  0.4917
 3627SOL     OW22342   0.103   1.870  11.697  0.3587 -0.4604  0.8099
 3627SOL    HW122343   0.008   1.879  11.699  0.3326 -0.9973  1.9059
 3627SOL    HW222344   0.123   1.832  11.612  1.3197 -0.0569  0.8487
 3628SOL     OW22345   3.258   0.467   6.683 -0.1194  0.6339 -0.6052
 3628SOL    HW122346   3.244   0.377   6.715  0.0302  0.4621 -1.0233
 3628SOL    HW222347   3.308   0.439   6.606 -0.4664  0.2654 -0.7001
 3629SOL     OW22348   1.709   3.536  10.711  0.0475 -0.4663  0.2022
 3629SOL    HW122349   1.771   3.490  10.654 -0.8822 -3.9016  2.0129
 3629SOL    HW222350   1.688   3.483  10.787 -0.4671  0.4217  0.6743
 3630SOL     OW22351   2.831   3.824   6.900  0.1515  0.2763  0.7287
 3630SOL    HW122352   2.879   3.794   6.822 -1.5824  0.9523 -0.5984
 3630SOL    HW222353   2.786   3.746   6.932  0.0741  0.2019  0.4379
 3631SOL     OW22354   0.268   3.244   8.056 -0.6019 -0.1486 -0.2602
 3631SOL    HW122355   0.188   3.294   8.040 -1.2936 -0.7761  1.2248
 3631SOL    HW222356   0.282   3.243   8.151 -0.3856 -0.0290 -0.2906
 3632SOL     OW22357   2.962   0.264  13.213  0.3847  0.3955  0.1863
 3632SOL    HW122358   2.883   0.308  13.182  0.8987  1.3099  0.1745
 3632SOL    HW222359   2.933   0.233  13.298 -2.6010  0.4242 -0.8395
 3633SOL     OW22360   4.303   2.415  17.568 -0.5485  0.0016 -0.0527
 3633SOL    HW122361   4.313   2.393  17.476  0.2941  2.3695 -0.5328
 3633SOL    HW222362   4.388   2.443  17.601 -0.6418  0.7364 -0.4348
 3634SOL     OW22363   2.729   1.805   8.521  0.1792  0.9307 -0.1859
 3634SOL    HW122364   2.680   1.747   8.580 -0.4518  1.6024 -0.0532
 3634SOL    HW222365   2.815   1.764   8.511  0.2454  0.9053  0.4811
 3635SOL     OW22366   1.956   1.668  16.343  0.2061 -0.0731  0.2568
 3635SOL    HW122367   2.017   1.739  16.359  1.3656 -1.5361  2.2461
 3635SOL    HW222368   1.876   1.693  16.390  0.8335 -0.3664  1.4818
 3636SOL     OW22369   2.095   4.619   6.113 -0.1169  0.1292  0.1047
 3636SOL    HW122370   2.010   4.598   6.150  0.6736 -1.2413  1.1532
 3636SOL    HW222371   2.084   4.642   6.021  0.6508 -3.1824 -0.8214
 3637SOL     OW22372   2.723   2.942   2.400  0.0393  0.0035 -0.6326
 3637SOL    HW122373   2.680   2.871   2.447  0.8296 -0.6417 -0.8963
 3637SOL    HW222374   2.650   3.003   2.391  1.1616  1.4074 -0.2237
 3638SOL     OW22375   1.373   0.920   4.766 -0.1711 -0.1132 -0.0560
 3638SOL    HW122376   1.455   0.894   4.724  0.1708 -0.0763  0.5842
 3638SOL    HW222377   1.340   0.973   4.693 -0.6907  0.5085  0.6284
 3639SOL     OW22378   0.872   2.003   5.641  0.3727  0.4199  0.2447
 3639SOL    HW122379   0.842   2.073   5.583  2.0137 -0.0355 -1.1582
 3639SOL    HW222380   0.963   1.998   5.611  1.0088 -0.3099  2.3028
 3640SOL     OW22381   1.271   3.996  17.191  0.1234  0.2862 -0.3902
 3640SOL    HW122382   1.272   3.901  17.175  0.7775 -0.0993  2.0156
 3640SOL    HW222383   1.257   3.994  17.285  0.9293  0.7480 -0.2546
 3641SOL     OW22384   0.771   2.376   2.802  0.4363  0.0696  0.0792
 3641SOL    HW122385   0.753   2.438   2.872 -0.3048  0.0866 -0.1231
 3641SOL    HW222386   0.684   2.368   2.761  0.4236 -0.6017  0.2288
 3642SOL     OW22387   2.092   4.599  12.681 -0.4951  0.4648 -0.1903
 3642SOL    HW122388   2.185   4.593  12.701  0.0477 -0.7122 -3.0216
 3642SOL    HW222389   2.057   4.520  12.720  0.6126  0.5784  1.0028
 3643SOL     OW22390   1.875   0.568  11.272 -0.7416  0.3796  0.3845
 3643SOL    HW122391   1.887   0.660  11.296 -0.7078 -0.0340  1.9546
 3643SOL    HW222392   1.782   0.586  11.261 -1.0908 -0.7081  1.4633
 3644SOL     OW22393   4.719   2.860  11.464 -0.8642  0.2269  0.1660
 3644SOL    HW122394   4.628   2.854  11.492 -2.2159  0.2502 -4.2029
 3644SOL    HW222395   4.700   2.901  11.380  1.8971 -0.9182 -0.9995
 3645SOL     OW22396   0.178   4.077   3.056  0.4527  0.1521 -0.2230
 3645SOL    HW122397   0.211   4.153   3.008 -0.5214  0.8695  0.2582
 3645SOL    HW222398   0.173   4.112   3.145 -1.6353  2.4599 -1.2797
 3646SOL     OW22399   1.781   0.697   7.304 -0.4435 -1.0609  0.0068
 3646SOL    HW122400   1.828   0.631   7.355  2.0968  0.4723 -0.3728
 3646SOL    HW222401   1.859   0.748   7.284  1.0447 -3.7180 -0.9009
 3647SOL     OW22402   2.086   2.132   7.924  0.8206  0.1032 -0.1423
 3647SOL    HW122403   2.156   2.091   7.974  0.7040 -2.7504 -2.3043
 3647SOL    HW222404   2.124   2.212   7.888  1.0032  0.1666  0.1907
 3648SOL     OW22405   3.352   3.519   4.184 -0.1151  0.0071  0.1692
 3648SOL    HW122406   3.292   3.560   4.247  2.4711  1.7432  1.5120
 3648SOL    HW222407   3.295   3.452   4.148 -0.0028  0.9823 -1.8206
 3649SOL     OW22408   2.030   1.190  12.018 -0.1975  0.3847 -0.2055
 3649SOL    HW122409   2.004   1.281  12.035  0.0676  0.6308 -1.0636
 3649SOL    HW222410   2.041   1.164  12.109 -0.8540 -1.3314 -0.6187
 3650SOL     OW22411   2.080   4.550  12.337 -0.7266 -0.9219 -0.0724
 3650SOL    HW122412   2.042   4.500  12.266  1.2904 -2.7354  0.1255
 3650SOL    HW222413   2.036   4.512  12.413 -0.2453 -0.9715  0.1888
 3651SOL     OW22414   0.250   1.361  11.699  0.3345 -0.3889  0.3134
 3651SOL    HW122415   0.275   1.432  11.641  1.8176  1.6578  3.4585
 3651SOL    HW222416   0.242   1.408  11.782 -3.0637  0.9913 -0.7933
 3652SOL     OW22417   4.464   4.264   5.251  0.6203  0.0650  0.0352
 3652SOL    HW122418   4.405   4.329   5.214 -0.0284 -0.8929 -0.6111
 3652SOL    HW222419   4.488   4.216   5.172  1.2481  2.3569 -1.1573
 3653SOL     OW22420   2.678   2.175  16.016  0.5780  0.5033  0.9507
 3653SOL    HW122421   2.647   2.227  15.942 -0.6987 -0.9662  0.4543
 3653SOL    HW222422   2.653   2.236  16.085 -0.9684 -0.7099  1.4697
 3654SOL     OW22423   1.081   3.833   9.197 -0.3088  0.2573 -0.1621
 3654SOL    HW122424   1.008   3.777   9.225 -0.1139 -0.9131 -2.0017
 3654SOL    HW222425   1.027   3.888   9.140  0.4740  1.5516  0.3737
 3655SOL     OW22426   0.513   3.920  14.235  0.2179 -0.3335 -0.0683
 3655SOL    HW122427   0.481   3.956  14.318 -2.8904  0.6952 -1.7313
 3655SOL    HW222428   0.586   3.978  14.215 -0.5831  1.1265  1.1983
 3656SOL     OW22429   3.680   4.076   0.712  0.2557  0.5346 -0.3806
 3656SOL    HW122430   3.714   4.053   0.626  0.8685 -0.1429  0.0424
 3656SOL    HW222431   3.636   3.997   0.744 -0.2835 -0.1542 -2.8402
 3657SOL     OW22432   3.859   2.374  15.198 -0.3933  0.3364  0.0161
 3657SOL    HW122433   3.840   2.310  15.267  1.8728 -1.4292 -1.0124
 3657SOL    HW222434   3.955   2.367  15.200 -0.6529 -2.9255  0.2471
 3658SOL     OW22435   3.663   3.376   7.257  0.1727  0.1417  0.5805
 3658SOL    HW122436   3.664   3.306   7.192  0.6004  0.7388 -0.0520
 3658SOL    HW222437   3.730   3.339   7.315 -0.1869 -0.9177  0.3285
 3659SOL     OW22438   0.797   2.255   1.150 -0.4839 -0.4554  0.3760
 3659SOL    HW122439   0.715   2.299   1.172  0.6157  0.7884  1.9671
 3659SOL    HW222440   0.762   2.170   1.123  0.2085 -0.2192 -1.3159
 3660SOL     OW22441   2.943   1.377   1.761  0.5083 -0.0430 -0.0798
 3660SOL    HW122442   2.850   1.402   1.769  0.1588 -1.2465 -0.4640
 3660SOL    HW222443   2.943   1.312   1.831  1.7589  0.9360  0.8182
 3661SOL     OW22444   4.240   3.638   0.219  0.4437  0.3187  0.0968
 3661SOL    HW122445   4.245   3.633   0.124  3.6525 -1.4298  0.3759
 3661SOL    HW222446   4.180   3.565   0.237  0.5673  0.1736 -0.0818
 3662SOL     OW22447   2.523   0.211  11.939  0.2100  0.5896  0.5584
 3662SOL    HW122448   2.442   0.248  11.973 -0.1063  0.5043 -0.1035
 3662SOL    HW222449   2.509   0.118  11.955  1.9402  0.1238 -0.6083
 3663SOL     OW22450   3.065   2.513  10.336  0.0477 -0.5889 -0.0714
 3663SOL    HW122451   3.070   2.421  10.309 -2.3676 -0.4377 -1.0480
 3663SOL    HW222452   3.020   2.556  10.263 -0.1985 -1.6237 -0.5368
 3664SOL     OW22453   1.447   0.925   7.884  0.2927  0.3805 -0.3843
 3664SOL    HW122454   1.485   0.870   7.816  0.2723 -0.0703 -0.0300
 3664SOL    HW222455   1.415   1.002   7.837 -0.1720  0.6111  0.3181
 3665SOL     OW22456   3.656   1.929   5.432  0.0944  0.0404  0.0295
 3665SOL    HW122457   3.623   1.869   5.366  0.0124 -0.1842  0.2778
 3665SOL    HW222458   3.652   1.870   5.507  1.9421 -0.1890 -0.0426
 3666SOL     OW22459   1.590   2.134   3.379 -0.2172 -0.0441  0.0106
 3666SOL    HW122460   1.530   2.060   3.373  0.6948 -0.9038  1.2897
 3666SOL    HW222461   1.656   2.098   3.320 -0.1845  1.3019 -0.7574
 3667SOL     OW22462   4.006   3.641   6.810 -0.3488 -0.0970  0.4445
 3667SOL    HW122463   3.938   3.574   6.819 -1.4854  1.2551  1.9811
 3667SOL    HW222464   4.065   3.607   6.742  0.1428  2.6565 -0.5261
 3668SOL     OW22465   3.893   1.696   0.748  0.1193 -0.5105  0.5377
 3668SOL    HW122466   3.857   1.728   0.664  1.9174 -0.9522 -0.3915
 3668SOL    HW222467   3.959   1.762   0.768 -1.4859  1.3681 -0.2719
 3669SOL     OW22468   3.152   2.733   3.136  0.8911  0.3092 -0.2795
 3669SOL    HW122469   3.132   2.822   3.105 -0.9307  0.7999  2.2923
 3669SOL    HW222470   3.171   2.690   3.052  1.9259 -1.5208  0.8948
 3670SOL     OW22471   3.498   4.293   7.205 -0.4731  0.2744 -0.4229
 3670SOL    HW122472   3.540   4.379   7.212  0.5231 -0.0993 -1.7531
 3670SOL    HW222473   3.573   4.237   7.223 -0.9211  0.5966  2.5187
 3671SOL     OW22474   1.413   0.358   0.661 -0.9587  0.2553 -0.3941
 3671SOL    HW122475   1.410   0.354   0.757  2.3364  0.5166 -0.2910
 3671SOL    HW222476   1.395   0.451   0.649  1.9952  0.9739  0.6485
 3672SOL     OW22477   0.907   0.466  14.748 -0.0389 -0.0454  0.4281
 3672SOL    HW122478   0.957   0.390  14.780 -0.0186  0.2455  1.0982
 3672SOL    HW222479   0.953   0.543  14.781  0.8102  0.0460 -0.9752
 3673SOL     OW22480   1.868   1.558   3.775  0.4966  0.0197  0.5404
 3673SOL    HW122481   1.835   1.519   3.855 -0.7083 -2.5875 -1.2354
 3673SOL    HW222482   1.940   1.617   3.798  1.2055 -0.7659  0.3543
 3674SOL     OW22483   1.681   2.649   3.269 -0.7032  0.0441 -0.1682
 3674SOL    HW122484   1.597   2.683   3.237 -1.2752 -0.7823  0.4473
 3674SOL    HW222485   1.654   2.558   3.282 -1.3810  0.2329 -0.2533
 3675SOL     OW22486   0.902   4.050   6.392  0.3240  0.0204 -0.2068
 3675SOL    HW122487   0.850   4.110   6.445 -0.2419 -1.9054  1.4420
 3675SOL    HW222488   0.984   4.034   6.438  0.0927  0.3855  0.3308
 3676SOL     OW22489   1.107   1.154   6.363 -0.7397 -0.0392 -0.0795
 3676SOL    HW122490   1.174   1.092   6.334  0.3623  1.7063 -1.2736
 3676SOL    HW222491   1.153   1.197   6.436  3.9010 -2.0864 -1.7542
 3677SOL     OW22492   1.541   0.804   7.350  0.5200 -0.6835  0.2627
 3677SOL    HW122493   1.529   0.761   7.435  1.6229 -1.3934  0.0571
 3677SOL    HW222494   1.621   0.762   7.320  0.7549  1.5758 -2.3207
 3678SOL     OW22495   3.766   4.572  15.016  0.1457 -0.3153  0.2408
 3678SOL    HW122496   3.743   4.645  14.958  0.6213  0.1523  0.6330
 3678SOL    HW222497   3.776   4.505  14.948 -1.0029 -1.1158  0.8713
 3679SOL     OW22498   3.379   1.705  12.445 -0.4558 -0.3816  0.2331
 3679SOL    HW122499   3.374   1.703  12.540 -0.7387 -2.0602  0.1850
 3679SOL    HW222500   3.404   1.615  12.423 -0.7821 -0.7094  1.1978
 3680SOL     OW22501   3.936   4.435   6.033 -0.6281 -0.5760  0.0006
 3680SOL    HW122502   3.893   4.430   6.118  1.1134 -0.0569  0.8944
 3680SOL    HW222503   3.919   4.528   6.022 -1.2192 -0.6095  0.6400
 3681SOL     OW22504   3.200   0.220  10.328  0.4490 -0.0712 -0.0087
 3681SOL    HW122505   3.243   0.285  10.383  0.7374 -0.0002 -0.3202
 3681SOL    HW222506   3.191   0.266  10.244 -1.6001 -1.5735 -0.6118
 3682SOL     OW22507   2.248   2.115   6.376  0.1377 -0.0618 -0.0052
 3682SOL    HW122508   2.267   2.199   6.335 -3.4255  0.6059 -0.2678
 3682SOL    HW222509   2.183   2.080   6.316 -0.5583  0.8502  0.2253
 3683SOL     OW22510   2.996   0.516   3.410  0.3131 -0.3258  0.3933
 3683SOL    HW122511   3.003   0.484   3.500 -1.5037  0.7418  0.8989
 3683SOL    HW222512   3.036   0.602   3.425  0.7842 -0.7541  1.6507
 3684SOL     OW22513   1.268   1.939   0.191 -0.4874  0.3192 -0.1264
 3684SOL    HW122514   1.323   2.018   0.186  0.7974 -0.5083  0.8878
 3684SOL    HW222515   1.294   1.882   0.120 -2.8596 -0.6253 -0.2267
 3685SOL     OW22516   1.118   3.017  17.062  0.2277  0.5116 -0.1800
 3685SOL    HW122517   1.152   3.060  16.984 -1.8153  2.0514 -0.2317
 3685SOL    HW222518   1.150   3.075  17.131  1.6402 -0.1281 -0.2975
 3686SOL     OW22519   4.714   3.850  16.531 -0.5189 -0.1495  0.2643
 3686SOL    HW122520   0.005   3.793  16.456 -2.4978 -1.7621  1.1219
 3686SOL    HW222521   4.662   3.927  16.508  0.1936 -0.0712 -1.0828
 3687SOL     OW22522   0.929   2.595   2.570  0.9066 -0.0955 -0.7200
 3687SOL    HW122523   0.870   2.622   2.640  1.4086 -1.1645  0.1181
 3687SOL    HW222524   0.912   2.501   2.566 -1.0930  0.2124  0.4010
 3688SOL     OW22525   2.017   1.853   4.526  0.2409  0.1121 -0.3549
 3688SOL    HW122526   2.036   1.869   4.433 -1.5056 -0.5958 -0.8340
 3688SOL    HW222527   2.086   1.907   4.564  1.1036 -0.3333 -1.2857
 3689SOL     OW22528   2.912   2.402   2.199  0.0085  0.7187  0.4058
 3689SOL    HW122529   2.854   2.466   2.240 -1.5928 -1.6913  1.9033
 3689SOL    HW222530   2.957   2.456   2.135  1.4770  0.3034  1.0905
 3690SOL     OW22531   3.729   4.157   4.696  0.5747  0.2787 -0.1468
 3690SOL    HW122532   3.758   4.139   4.606  2.5337 -0.1383  0.5592
 3690SOL    HW222533   3.812   4.192   4.729  1.2674 -0.9830 -0.5193
 3691SOL     OW22534   2.020   1.579  15.792  0.0694 -0.2819  0.1429
 3691SOL    HW122535   1.984   1.569  15.880  0.2363 -0.4060  0.1973
 3691SOL    HW222536   2.099   1.526  15.802 -0.6610 -1.8832 -2.6845
 3692SOL     OW22537   0.250   1.519   7.672  0.0968  0.0635 -0.2733
 3692SOL    HW122538   0.344   1.537   7.667 -0.0845  1.1272  0.2081
 3692SOL    HW222539   0.246   1.483   7.761  0.6122 -1.0424 -0.6874
 3693SOL     OW22540   3.209   0.122   1.492  0.5979 -0.2506  0.4025
 3693SOL    HW122541   3.296   0.119   1.532  1.3482 -1.0646 -1.2927
 3693SOL    HW222542   3.195   0.033   1.458  1.4308 -1.0008  2.0225
 3694SOL     OW22543   0.106   4.104   8.517  0.1576  0.3084  0.2759
 3694SOL    HW122544   0.045   4.040   8.554 -0.6705  0.7817 -0.2749
 3694SOL    HW222545   0.053   4.182   8.533  1.1903  1.1989 -0.5999
 3695SOL     OW22546   0.144   3.834  13.995  0.1873 -0.3720  0.5159
 3695SOL    HW122547   0.132   3.749  14.039  0.0418 -0.9574 -0.6599
 3695SOL    HW222548   0.071   3.884  14.034 -1.2489 -1.0121 -1.3519
 3696SOL     OW22549   4.664   1.795  15.624  0.0937  0.0266  0.6190
 3696SOL    HW122550   0.036   1.801  15.618 -0.0951 -0.1941 -2.1566
 3696SOL    HW222551   4.649   1.852  15.700 -0.0617 -0.5868  1.0501
 3697SOL     OW22552   4.516   3.278  10.476 -0.5952  0.2914 -0.2748
 3697SOL    HW122553   4.480   3.366  10.486  0.9524  0.9890 -0.7711
 3697SOL    HW222554   4.590   3.300  10.419 -1.0507  1.0692 -0.5545
 3698SOL     OW22555   0.347   3.908   9.314  0.1040  0.2824  0.1885
 3698SOL    HW122556   0.354   3.857   9.233  2.7309  1.0405 -0.0333
 3698SOL    HW222557   0.339   3.842   9.382  1.2923 -0.1645 -0.1074
 3699SOL     OW22558   1.837   1.568   4.958 -0.3125 -0.4062  0.1261
 3699SOL    HW122559   1.843   1.583   5.052  0.1029 -1.1953  0.2233
 3699SOL    HW222560   1.924   1.602   4.937  0.2465 -0.3092  2.5854
 3700SOL     OW22561   1.750   1.352   1.479  0.4320  0.1951 -0.4816
 3700SOL    HW122562   1.799   1.271   1.464  2.4360  1.7115 -2.0538
 3700SOL    HW222563   1.657   1.331   1.469  0.2925  1.1672 -1.1484
 3701SOL     OW22564   1.608   0.384   7.742 -0.4581 -0.0577 -0.9544
 3701SOL    HW122565   1.608   0.437   7.822  2.5352  2.4108 -2.5704
 3701SOL    HW222566   1.515   0.389   7.720 -0.2280  1.8652 -1.5642
 3702SOL     OW22567   2.755   1.280   4.652  0.5385  0.3763  0.2633
 3702SOL    HW122568   2.681   1.220   4.663  1.1634 -0.3449  0.5104
 3702SOL    HW222569   2.705   1.361   4.638 -0.2485  0.0959  1.4795
 3703SOL     OW22570   1.321   4.678   3.366 -0.1537 -0.2111 -0.1558
 3703SOL    HW122571   1.235   4.688   3.408 -0.2517 -3.5846  0.3981
 3703SOL    HW222572   1.314   4.621   3.289 -2.6390  1.5398 -1.2429
 3704SOL     OW22573   1.433   2.274   9.174  0.3377  0.0239  1.0354
 3704SOL    HW122574   1.437   2.179   9.183  2.4450  0.2013  1.8608
 3704SOL    HW222575   1.337   2.276   9.176  0.3458  2.3395 -0.9283
 3705SOL     OW22576   3.276   1.984   2.710  0.1461  0.4002  0.2448
 3705SOL    HW122577   3.349   1.959   2.654 -1.1565  1.1771 -1.7989
 3705SOL    HW222578   3.241   2.055   2.656 -1.1881 -0.4516  0.0175
 3706SOL     OW22579   1.191   1.610   2.423  0.5304 -0.4867  0.0722
 3706SOL    HW122580   1.120   1.584   2.365  0.9974  0.5265 -0.9641
 3706SOL    HW222581   1.156   1.643   2.505  1.4785  0.8473 -0.0473
 3707SOL     OW22582   0.908   0.709  13.693 -0.0924  0.2010 -0.0575
 3707SOL    HW122583   0.831   0.657  13.669 -0.2167  0.4612 -0.2320
 3707SOL    HW222584   0.893   0.733  13.784  1.2516 -0.3800  0.3070
 3708SOL     OW22585   0.044   3.738   8.990 -0.5498 -0.2622  0.0403
 3708SOL    HW122586   4.703   3.681   8.946 -2.8298  0.5896  2.2165
 3708SOL    HW222587   4.717   3.816   9.016 -0.7400 -0.0786 -0.8941
 3709SOL     OW22588   3.287   4.514  16.417  0.5177  0.1809  0.2573
 3709SOL    HW122589   3.249   4.474  16.339 -1.1274  0.7476  0.7795
 3709SOL    HW222590   3.216   4.548  16.472  0.6801  1.1322 -0.1244
 3710SOL     OW22591   2.294   3.576  10.497 -0.5452  0.2344 -0.1592
 3710SOL    HW122592   2.277   3.525  10.576 -2.7976 -1.3444 -1.6594
 3710SOL    HW222593   2.267   3.516  10.427  0.3238 -1.0087  0.5828
 3711SOL     OW22594   3.938   1.877   1.097  0.2359 -0.1409  0.5475
 3711SOL    HW122595   3.916   1.796   1.143  2.0077 -1.4970 -0.9836
 3711SOL    HW222596   3.849   1.897   1.067  0.1964 -1.1967 -0.0376
 3712SOL     OW22597   1.440   4.643   5.214  0.0609 -0.0043  0.3538
 3712SOL    HW122598   1.399   4.707   5.157 -1.6371 -1.9678 -0.6344
 3712SOL    HW222599   1.367   4.584   5.233 -0.9663  0.8100 -1.0728
 3713SOL     OW22600   0.520   0.852  17.351  0.1994  0.2122  0.8295
 3713SOL    HW122601   0.443   0.866  17.406 -0.6249  0.0596 -0.2999
 3713SOL    HW222602   0.515   0.935  17.304  1.2614 -1.9301 -3.0391
 3714SOL     OW22603   3.835   0.657   8.917 -0.4141 -0.0629 -0.2177
 3714SOL    HW122604   3.927   0.657   8.946  0.2034 -1.0388 -2.1614
 3714SOL    HW222605   3.818   0.751   8.905  0.6415  0.4685  2.4206
 3715SOL     OW22606   0.750   0.367   7.793  0.3955 -0.2396 -0.1421
 3715SOL    HW122607   0.686   0.405   7.853  1.6601  0.5475  0.7078
 3715SOL    HW222608   0.820   0.342   7.854 -2.5270  1.4441  3.9246
 3716SOL     OW22609   4.623   4.644   6.189  0.0208  0.3070  0.5989
 3716SOL    HW122610   4.601   4.613   6.101 -1.1267  1.6989  0.4019
 3716SOL    HW222611   4.700   4.590   6.210 -0.1669 -0.1428  0.1296
 3717SOL     OW22612   1.399   4.234   5.710 -0.4836 -0.0935 -0.2360
 3717SOL    HW122613   1.386   4.320   5.750  1.0038 -0.4980  1.1168
 3717SOL    HW222614   1.404   4.176   5.786  0.0472 -1.5080 -1.3684
 3718SOL     OW22615   0.679   1.309   3.219  0.2401 -0.2802  0.1267
 3718SOL    HW122616   0.704   1.381   3.276  1.6824 -0.9930  0.3898
 3718SOL    HW222617   0.588   1.299   3.247  0.0409  1.9045  0.2655
 3719SOL     OW22618   1.260   2.177  17.369  0.3452 -0.3096  0.2511
 3719SOL    HW122619   1.173   2.205  17.398 -0.4414 -1.0792 -1.3457
 3719SOL    HW222620   1.257   2.082  17.378 -2.1897 -0.4390 -2.0664
 3720SOL     OW22621   3.259   3.176   0.353 -0.2501  0.0230 -0.6442
 3720SOL    HW122622   3.329   3.137   0.300 -1.0939  0.1722 -1.8798
 3720SOL    HW222623   3.298   3.263   0.358 -0.2656 -0.0917  1.4661
 3721SOL     OW22624   0.962   3.080   3.755 -0.2198 -0.5529 -0.0031
 3721SOL    HW122625   0.876   3.059   3.790 -0.8317  0.4680 -0.9178
 3721SOL    HW222626   0.971   3.173   3.772 -0.4798 -0.7390  1.1403
 3722SOL     OW22627   1.466   2.921   9.498 -0.1676 -0.7718 -0.3281
 3722SOL    HW122628   1.538   2.960   9.450  0.3129  1.0602  1.9015
 3722SOL    HW222629   1.506   2.936   9.584 -0.0846 -0.5016 -0.4153
 3723SOL     OW22630   1.531   2.606   4.866  0.1991 -0.6054 -0.1849
 3723SOL    HW122631   1.616   2.613   4.822  0.3545  0.4698  0.2913
 3723SOL    HW222632   1.478   2.675   4.826  0.8421 -0.8479 -1.4592
 3724SOL     OW22633   1.916   4.247  13.108 -0.3065 -0.0859 -0.0205
 3724SOL    HW122634   1.843   4.191  13.081 -2.0290  2.0255  0.2818
 3724SOL    HW222635   1.914   4.227  13.201 -0.7573 -2.0766 -0.4594
 3725SOL     OW22636   0.375   0.322  11.912 -0.3396 -0.3567  0.4792
 3725SOL    HW122637   0.285   0.320  11.881 -0.6567 -0.7978  1.4140
 3725SOL    HW222638   0.425   0.301  11.833 -0.5300  1.9476 -0.2713
 3726SOL     OW22639   4.541   3.663   3.378  0.3534 -0.2889 -0.3091
 3726SOL    HW122640   4.598   3.709   3.316  1.3167 -1.0916 -0.0159
 3726SOL    HW222641   4.565   3.571   3.366  0.2136 -0.4347  0.5494
 3727SOL     OW22642   3.857   4.315   3.136 -0.0997  0.0885 -0.4153
 3727SOL    HW122643   3.940   4.267   3.138 -0.2495 -0.2904 -3.7038
 3727SOL    HW222644   3.788   4.249   3.126 -1.6429  1.5212  0.6140
 3728SOL     OW22645   2.744   2.900   4.949 -0.2311  0.4671  0.4168
 3728SOL    HW122646   2.661   2.852   4.938 -2.3994  4.6238 -1.4225
 3728SOL    HW222647   2.714   2.949   5.026  2.8850  1.4738  0.9699
 3729SOL     OW22648   0.261   2.347  12.174  0.0345 -0.8466 -0.2924
 3729SOL    HW122649   0.190   2.319  12.116  0.5506  2.2770 -2.4018
 3729SOL    HW222650   0.229   2.431  12.208 -1.4214 -0.8853 -1.5614
 3730SOL     OW22651   4.372   0.724   2.162 -0.4455 -0.3008 -0.3493
 3730SOL    HW122652   4.394   0.734   2.069  0.3341 -2.0256 -0.3466
 3730SOL    HW222653   4.304   0.658   2.148 -0.3696 -0.0880 -1.6982
 3731SOL     OW22654   2.109   0.003  14.752 -0.4878 -0.2712  0.2223
 3731SOL    HW122655   2.040   4.661  14.765  2.6681 -3.9450 -1.2957
 3731SOL    HW222656   2.177   4.665  14.723 -0.1769  0.2082 -0.0492
 3732SOL     OW22657   0.032   2.889   4.090 -0.2712 -0.6107  0.3443
 3732SOL    HW122658   0.041   2.929   4.177  2.8925  1.7754 -1.0972
 3732SOL    HW222659   4.673   2.926   4.055  0.6643 -0.5054 -1.7031
 3733SOL     OW22660   3.845   3.652   3.237 -0.2457 -0.4603 -0.6528
 3733SOL    HW122661   3.842   3.681   3.145 -0.0856  1.5077 -0.0421
 3733SOL    HW222662   3.896   3.573   3.223 -0.2549 -0.5218 -0.3174
 3734SOL     OW22663   0.326   1.960  11.394 -0.3385  0.0066  0.5641
 3734SOL    HW122664   0.353   2.025  11.459  0.2985 -1.0891  1.3961
 3734SOL    HW222665   0.407   1.909  11.406  0.4523  0.9053 -0.9351
 3735SOL     OW22666   2.634   2.123   6.453 -0.0034 -0.4950 -0.0719
 3735SOL    HW122667   2.596   2.114   6.366  0.1747  0.2238 -0.2292
 3735SOL    HW222668   2.570   2.080   6.509  0.9927 -0.9495  0.7227
 3736SOL     OW22669   3.485   3.818   7.713 -0.1650 -0.3523 -0.3961
 3736SOL    HW122670   3.424   3.891   7.724 -0.5003 -0.5068 -1.2280
 3736SOL    HW222671   3.561   3.846   7.763 -0.9457 -0.5418  0.9115
 3737SOL     OW22672   2.168   3.007   4.309  0.3238  0.1674  0.1090
 3737SOL    HW122673   2.210   2.988   4.393 -1.8743  1.3021  1.4913
 3737SOL    HW222674   2.180   3.102   4.307  1.7711  0.0210  2.3160
 3738SOL     OW22675   1.570   2.875   6.880  0.1733  0.4740 -0.2789
 3738SOL    HW122676   1.531   2.794   6.914 -1.1509  2.2291  2.3704
 3738SOL    HW222677   1.575   2.920   6.964  0.3006  4.4762 -2.4748
 3739SOL     OW22678   3.849   3.824   3.989  0.4782  0.3021 -0.5520
 3739SOL    HW122679   3.875   3.837   3.898 -1.9038 -1.3948 -1.4896
 3739SOL    HW222680   3.767   3.774   3.981 -0.0748  1.1295  0.0125
 3740SOL     OW22681   0.580   3.255   8.500 -0.1891 -0.3224  0.1573
 3740SOL    HW122682   0.543   3.268   8.413 -1.1914  0.8508  0.7512
 3740SOL    HW222683   0.646   3.189   8.481 -0.3101  0.0180 -1.4464
 3741SOL     OW22684   4.148   2.648   4.637 -0.7367  0.2089  0.4532
 3741SOL    HW122685   4.227   2.695   4.665  0.1886 -0.3357 -1.2177
 3741SOL    HW222686   4.112   2.615   4.719 -1.7990  0.3154  0.0233
 3742SOL     OW22687   4.182   0.884  16.875 -0.2551  0.3003 -0.4478
 3742SOL    HW122688   4.275   0.904  16.883 -0.0076  0.3654 -3.3083
 3742SOL    HW222689   4.143   0.969  16.857  1.8682  1.4418  0.4569
 3743SOL     OW22690   4.084   1.173   2.176 -0.0283  0.2764  0.4051
 3743SOL    HW122691   4.129   1.134   2.101 -0.5143 -0.7371  0.6312
 3743SOL    HW222692   4.154   1.222   2.219  1.1299 -1.7480  0.8226
 3744SOL     OW22693   4.083   3.398  13.699 -0.0124  0.0684  0.1520
 3744SOL    HW122694   4.102   3.474  13.754  1.1710 -0.0163 -0.1374
 3744SOL    HW222695   3.999   3.361  13.725 -0.6484 -0.1474 -2.2321
 3745SOL     OW22696   3.621   1.399  13.560  0.3529 -0.2339 -0.6002
 3745SOL    HW122697   3.622   1.309  13.593 -1.8918  0.0229  0.1511
 3745SOL    HW222698   3.576   1.392  13.476 -1.8772  0.1557  0.5662
 3746SOL     OW22699   4.445   3.302   1.706  0.2586 -0.1843 -0.7157
 3746SOL    HW122700   4.364   3.353   1.710 -0.7022 -1.7502 -0.4355
 3746SOL    HW222701   4.418   3.232   1.766 -0.4393  0.0810 -0.7132
 3747SOL     OW22702   3.522   3.612   4.663  0.3824  0.1283  0.1871
 3747SOL    HW122703   3.447   3.645   4.613 -0.3718  0.2636  1.4187
 3747SOL    HW222704   3.583   3.686   4.660 -1.2209  1.5715  3.5522
 3748SOL     OW22705   1.424   3.090   9.781  0.3421 -0.0542  0.1063
 3748SOL    HW122706   1.497   3.039   9.745  0.2840 -0.4696  0.5756
 3748SOL    HW222707   1.413   3.044   9.865  0.9357 -1.0487 -0.3654
 3749SOL     OW22708   1.659   0.177   5.630 -0.4081  0.2162  0.3841
 3749SOL    HW122709   1.731   0.228   5.591 -0.2584  0.2559  0.7172
 3749SOL    HW222710   1.648   0.231   5.708  0.8052 -1.2397  1.5459
 3750SOL     OW22711   0.587   0.233   5.086  0.1752 -0.2755  0.1659
 3750SOL    HW122712   0.642   0.291   5.140  1.8864 -1.2690 -0.4932
 3750SOL    HW222713   0.567   0.169   5.154 -1.3277 -0.0905 -0.1131
 3751SOL     OW22714   2.592   1.726   6.723  0.2921 -0.7380  0.5222
 3751SOL    HW122715   2.666   1.751   6.668 -0.1934 -1.5150 -0.4734
 3751SOL    HW222716   2.559   1.642   6.694  0.5550 -0.4428 -0.6270
 3752SOL     OW22717   2.821   0.204   4.646  0.1607  0.1813  0.0964
 3752SOL    HW122718   2.854   0.238   4.729  1.4194  0.8413 -0.6796
 3752SOL    HW222719   2.732   0.180   4.674  0.2280  0.0528  0.2038
 3753SOL     OW22720   1.809   4.025  13.736 -0.1481 -0.0715 -0.5036
 3753SOL    HW122721   1.795   4.116  13.760  5.1588  0.7358 -0.6583
 3753SOL    HW222722   1.721   3.994  13.713 -0.8053  0.0512  1.8184
 3754SOL     OW22723   1.270   0.332   2.816  0.4465  0.0804  0.4443
 3754SOL    HW122724   1.196   0.277   2.793 -0.3350  1.0148  0.6916
 3754SOL    HW222725   1.320   0.279   2.878  0.8863 -2.0416 -1.7463
 3755SOL     OW22726   0.881   1.871   8.136 -0.1387  0.0437  0.7170
 3755SOL    HW122727   0.930   1.844   8.213 -0.7164 -2.4285  0.2194
 3755SOL    HW222728   0.925   1.948   8.098 -0.6338  0.6583  1.3925
 3756SOL     OW22729   1.166   2.011   2.532  0.3172  0.2983  0.3909
 3756SOL    HW122730   1.097   1.959   2.573 -0.2010 -0.3901 -1.3474
 3756SOL    HW222731   1.134   2.007   2.442 -2.4198 -1.7219  1.4598
 3757SOL     OW22732   4.677   2.920   2.597 -0.4626 -0.6382  0.4356
 3757SOL    HW122733   4.682   2.961   2.511  0.1719 -0.9593  0.3184
 3757SOL    HW222734   4.675   2.828   2.571  0.5052 -0.7861  0.9044
 3758SOL     OW22735   3.442   2.337   2.251  0.1488  0.3299  0.8944
 3758SOL    HW122736   3.372   2.390   2.213  0.2419  0.2766  0.6436
 3758SOL    HW222737   3.518   2.381   2.213 -0.0565 -1.3702 -1.5007
 3759SOL     OW22738   1.515   2.662   7.013  0.0077 -0.0467  0.5716
 3759SOL    HW122739   1.549   2.668   7.102  0.2334 -1.7543  0.6091
 3759SOL    HW222740   1.441   2.607   7.037  2.4886 -3.6671 -0.0976
 3760SOL     OW22741   3.855   3.722   5.303 -0.1770  0.1808  0.3116
 3760SOL    HW122742   3.774   3.684   5.338 -1.0055 -0.2863 -2.1317
 3760SOL    HW222743   3.907   3.695   5.379  1.0582 -0.1851 -0.6762
 3761SOL     OW22744   2.395   0.070  13.441 -0.8528 -0.4531 -0.4309
 3761SOL    HW122745   2.408   0.075  13.536  1.5505  3.0667 -0.9487
 3761SOL    HW222746   2.299   0.079  13.439 -0.6450  2.1165  1.0447
 3762SOL     OW22747   1.031   1.637  11.143  0.0688  0.4613  0.2563
 3762SOL    HW122748   1.058   1.712  11.195  0.1160  1.1449 -0.7490
 3762SOL    HW222749   0.936   1.639  11.156  0.0990  0.7746  0.4209
 3763SOL     OW22750   1.579   1.910   8.564 -0.3340 -0.5113  0.6771
 3763SOL    HW122751   1.656   1.911   8.508 -0.1545  1.7398  0.9904
 3763SOL    HW222752   1.615   1.901   8.652  0.6555 -2.0172  0.1184
 3764SOL     OW22753   2.935   0.474   7.610 -0.1677  0.0487 -0.4960
 3764SOL    HW122754   2.856   0.462   7.557 -1.3114 -0.8239  1.3752
 3764SOL    HW222755   2.938   0.387   7.651  0.8159  0.0021 -0.6695
 3765SOL     OW22756   2.776   2.739   0.613  1.3146  0.0471  0.1084
 3765SOL    HW122757   2.800   2.827   0.643  0.6594  0.2481  0.0564
 3765SOL    HW222758   2.680   2.737   0.614  1.3195  0.4725  1.3134
 3766SOL     OW22759   0.374   2.753   7.233 -0.3423 -0.2825  0.7902
 3766SOL    HW122760   0.423   2.832   7.254 -0.8523  0.5272 -1.0826
 3766SOL    HW222761   0.417   2.732   7.150 -2.1416 -1.1330  0.0654
 3767SOL     OW22762   3.659   0.463   9.956 -0.4108 -0.0162  0.4135
 3767SOL    HW122763   3.601   0.421   9.893  2.3100 -0.2937 -1.9334
 3767SOL    HW222764   3.644   0.550   9.920  1.0772 -0.7734 -2.0786
 3768SOL     OW22765   1.739   3.633   2.460 -0.0718  0.7483 -0.1378
 3768SOL    HW122766   1.821   3.660   2.419  0.6086 -1.3187 -0.1587
 3768SOL    HW222767   1.761   3.548   2.499 -2.2058  0.6131  0.7886
 3769SOL     OW22768   3.287   4.534   7.425  0.2411  0.5512  0.6093
 3769SOL    HW122769   3.277   4.630   7.421 -0.1841  0.4398 -1.1210
 3769SOL    HW222770   3.382   4.534   7.415 -0.0168  1.4777 -2.0679
 3770SOL     OW22771   4.168   2.934   7.508 -0.5839  0.2815  0.0711
 3770SOL    HW122772   4.158   2.847   7.546  0.8566  0.4318  0.8082
 3770SOL    HW222773   4.084   2.972   7.533 -0.3048  2.1279 -1.7619
 3771SOL     OW22774   0.970   2.554  17.286  0.6464  0.4110 -0.1243
 3771SOL    HW122775   0.900   2.514  17.234  0.8755 -2.5927  1.9193
 3771SOL    HW222776   1.003   2.612  17.217 -0.1238 -0.8014 -1.5180
 3772SOL     OW22777   3.206   0.743   9.405 -0.0356  0.0718 -0.2192
 3772SOL    HW122778   3.152   0.790   9.469 -1.0527 -3.7271  1.7096
 3772SOL    HW222779   3.265   0.685   9.454  0.4965  0.2068 -0.6960
 3773SOL     OW22780   2.667   4.493   9.565  0.0198 -0.3163  0.2097
 3773SOL    HW122781   2.756   4.484   9.600  0.3055  0.0270 -0.4520
 3773SOL    HW222782   2.612   4.473   9.641 -0.0737 -1.7200 -0.2312
 3774SOL     OW22783   0.590   1.950   3.930 -1.0980 -0.0438  0.4662
 3774SOL    HW122784   0.499   1.961   3.901 -1.9793 -0.2060  3.2266
 3774SOL    HW222785   0.591   1.871   3.983 -1.9747 -0.3465  0.0242
 3775SOL     OW22786   1.775   1.631   1.819  0.6659 -0.3853 -0.2360
 3775SOL    HW122787   1.712   1.589   1.877 -2.0017  1.8988 -1.5225
 3775SOL    HW222788   1.722   1.664   1.747 -0.3267 -1.6425 -0.0716
 3776SOL     OW22789   2.617   0.965   8.970  0.8538 -0.8611  0.2135
 3776SOL    HW122790   2.659   1.051   8.979  0.0891 -0.6132  1.4528
 3776SOL    HW222791   2.675   0.919   8.910  1.6027 -1.3782  1.3364
 3777SOL     OW22792   1.265   0.224   7.869 -0.3366  0.2060 -0.0972
 3777SOL    HW122793   1.197   0.289   7.848  0.9871  1.4346 -0.6096
 3777SOL    HW222794   1.262   0.226   7.965 -1.7221 -1.2040 -0.1143
 3778SOL     OW22795   0.381   1.759   5.823  0.4663  0.1000  0.1572
 3778SOL    HW122796   0.336   1.710   5.892 -2.5500  0.2409 -1.7212
 3778SOL    HW222797   0.313   1.767   5.756  3.2076  0.2635 -2.5419
 3779SOL     OW22798   1.949   4.450   7.819  0.2483  0.0821 -0.0354
 3779SOL    HW122799   1.936   4.544   7.818  0.5982  0.1440  2.7780
 3779SOL    HW222800   2.012   4.453   7.747  0.7700 -2.2224  0.3181
 3780SOL     OW22801   0.924   4.687  14.842 -0.4506  0.3399  0.7360
 3780SOL    HW122802   0.848   4.659  14.791 -0.1162 -1.0936  1.0433
 3780SOL    HW222803   0.932   0.051  14.801 -0.4338 -0.6809 -1.4122
 3781SOL     OW22804   3.562   3.910   5.521 -0.0273  0.3488  0.0659
 3781SOL    HW122805   3.655   3.891   5.531 -0.3895 -1.2911  0.2764
 3781SOL    HW222806   3.526   3.934   5.607 -0.6657  0.3495 -0.2052
 3782SOL     OW22807   4.476   0.651  13.778 -0.2570 -0.3832 -0.1137
 3782SOL    HW122808   4.431   0.686  13.856 -0.1724 -0.3974 -0.0583
 3782SOL    HW222809   4.530   0.582  13.815  0.0338 -0.9818 -1.6811
 3783SOL     OW22810   0.318   3.894   3.510 -0.5282 -0.0212  0.0599
 3783SOL    HW122811   0.363   3.973   3.482 -0.9349 -0.3418 -1.5054
 3783SOL    HW222812   0.230   3.889   3.475 -1.1666  0.7890  1.5469
 3784SOL     OW22813   1.416   1.648   9.556 -0.2385  0.6854 -0.3367
 3784SOL    HW122814   1.499   1.691   9.578  0.8928 -1.5713 -0.1764
 3784SOL    HW222815   1.402   1.598   9.637 -2.0187  0.7936 -0.5884
 3785SOL     OW22816   4.715   2.580   5.596 -0.4087 -0.3725  0.6766
 3785SOL    HW122817   4.703   2.487   5.580 -0.4481  0.0210 -1.4928
 3785SOL    HW222818   4.644   2.611   5.540  1.1756  1.1540 -0.4661
 3786SOL     OW22819   3.182   0.903   4.009 -0.0045 -0.1935 -0.0746
 3786SOL    HW122820   3.223   0.836   4.064 -0.2903 -0.7001 -0.4803
 3786SOL    HW222821   3.146   0.954   4.082 -1.7218 -1.0566 -0.3161
 3787SOL     OW22822   4.635   2.369   9.277 -0.7575 -0.7296 -0.8616
 3787SOL    HW122823   4.633   2.315   9.356 -1.2770 -0.3765 -0.6338
 3787SOL    HW222824   4.674   2.306   9.215  0.1488  1.5188 -2.5737
 3788SOL     OW22825   2.957   2.134   9.689 -0.2836  0.0229 -0.0914
 3788SOL    HW122826   2.971   2.201   9.756 -1.4777  1.7500 -1.5724
 3788SOL    HW222827   2.871   2.160   9.654 -0.0813  0.1400 -0.4991
 3789SOL     OW22828   2.718   2.907   5.626 -0.2002 -0.3356 -0.0368
 3789SOL    HW122829   2.663   2.963   5.681 -0.0650  1.0284 -1.2766
 3789SOL    HW222830   2.730   2.827   5.677  1.4095 -0.0745 -0.0320
 3790SOL     OW22831   1.831   2.517   8.102 -0.0637  0.8063  0.2875
 3790SOL    HW122832   1.811   2.431   8.140  2.6072 -0.1781 -0.5697
 3790SOL    HW222833   1.849   2.555   8.188  1.0304 -0.3278  0.5494
 3791SOL     OW22834   1.914   4.167   5.669 -0.3872  0.5224 -0.0256
 3791SOL    HW122835   1.949   4.231   5.731  0.6751  0.0696 -0.1475
 3791SOL    HW222836   1.821   4.187   5.667 -0.6666 -0.7984 -0.6515
 3792SOL     OW22837   1.002   1.285   9.969 -0.3598 -0.3783 -0.4808
 3792SOL    HW122838   1.008   1.353   9.902 -0.2252  2.0106  1.9626
 3792SOL    HW222839   0.994   1.223   9.896 -0.4107 -0.2018 -0.6247
 3793SOL     OW22840   2.784   1.858   5.366  0.0130 -0.0885 -0.0328
 3793SOL    HW122841   2.752   1.927   5.425 -0.1916 -1.9157  1.9869
 3793SOL    HW222842   2.753   1.778   5.408 -1.2744 -0.7714 -2.3318
 3794SOL     OW22843   3.779   3.059   0.492 -0.8330  0.1810 -0.3485
 3794SOL    HW122844   3.736   3.144   0.488  1.0504  1.0398 -2.0112
 3794SOL    HW222845   3.850   3.062   0.428  0.5887 -0.5207  1.1739
 3795SOL     OW22846   0.759   0.729  11.923 -0.2935 -0.0507 -0.3914
 3795SOL    HW122847   0.854   0.737  11.931 -0.3214 -0.6068  0.4301
 3795SOL    HW222848   0.744   0.637  11.902 -2.5160 -0.0891  1.3526
 3796SOL     OW22849   3.107   2.894   6.914 -0.0809 -0.4855 -0.3893
 3796SOL    HW122850   3.114   2.844   6.832 -0.4138 -2.2011  0.6308
 3796SOL    HW222851   3.079   2.825   6.974  0.4853  0.3419  0.8175
 3797SOL     OW22852   3.904   4.252   2.777 -0.0641  0.3551 -0.1501
 3797SOL    HW122853   3.857   4.177   2.741  0.7199  0.5635 -1.6034
 3797SOL    HW222854   3.972   4.204   2.823 -2.0044 -1.3410  0.9696
 3798SOL     OW22855   2.586   2.888   5.375 -0.0165 -0.7064  0.2927
 3798SOL    HW122856   2.645   2.895   5.451  0.6890 -0.9450 -0.2346
 3798SOL    HW222857   2.501   2.882   5.418 -1.3901  2.3365 -2.0526
 3799SOL     OW22858   2.936   3.910  10.712 -0.6422  0.1092  0.6889
 3799SOL    HW122859   2.932   3.839  10.647 -0.3507  1.6963 -1.0792
 3799SOL    HW222860   2.960   3.858  10.789  0.5013 -0.1469  0.1662
 3800SOL     OW22861   3.180   1.191   8.499 -0.0364  0.0881  0.0680
 3800SOL    HW122862   3.248   1.140   8.455  0.6073 -0.2088  1.3809
 3800SOL    HW222863   3.112   1.188   8.432  1.9763 -1.0593 -1.9203
 3801SOL     OW22864   3.465   4.523   7.814 -0.6316 -0.2424  0.3482
 3801SOL    HW122865   3.435   4.601   7.768  0.7367 -0.8397 -1.5928
 3801SOL    HW222866   3.561   4.528   7.821 -0.6748 -0.5451  1.1575
 3802SOL     OW22867   2.739   1.348   0.351 -0.0174  0.3169 -0.1274
 3802SOL    HW122868   2.719   1.277   0.290 -2.5724  0.3716  0.6418
 3802SOL    HW222869   2.803   1.396   0.299  1.5783 -0.4767  1.0775
 3803SOL     OW22870   4.401   4.082   6.398 -0.0384  0.0064 -0.3131
 3803SOL    HW122871   4.460   4.021   6.442  0.1648 -0.4651 -1.2582
 3803SOL    HW222872   4.352   4.037   6.330 -0.3691  0.4824 -0.3901
 3804SOL     OW22873   2.031   1.946   9.179 -0.1335  0.4638 -0.6890
 3804SOL    HW122874   2.064   2.008   9.115  2.0169  1.4390  1.3470
 3804SOL    HW222875   2.021   2.004   9.255 -1.2166  0.3678 -0.7712
 3805SOL     OW22876   1.595   1.106   2.726  0.6557 -0.3942  0.1764
 3805SOL    HW122877   1.662   1.066   2.782 -0.4687 -1.7432  0.5282
 3805SOL    HW222878   1.530   1.129   2.793  1.5916  0.1122  0.9136
 3806SOL     OW22879   4.097   3.023   7.815  0.0027  0.0983  0.2669
 3806SOL    HW122880   4.110   3.060   7.903  0.8162 -1.0104  0.6222
 3806SOL    HW222881   4.190   3.015   7.795 -0.1885  1.6414 -1.2313
 3807SOL     OW22882   4.029   2.722  11.599  0.3960 -0.1128 -0.2501
 3807SOL    HW122883   4.035   2.788  11.667 -1.0013  0.3106 -0.5352
 3807SOL    HW222884   4.022   2.640  11.646 -1.1484  0.2342  0.1059
 3808SOL     OW22885   4.111   1.366   6.983 -0.3646  0.0943  0.2183
 3808SOL    HW122886   4.112   1.282   6.937 -0.3817  1.8186 -2.9813
 3808SOL    HW222887   4.135   1.336   7.070  2.5196 -0.1749 -0.6820
 3809SOL     OW22888   3.231   2.036   6.993  0.2220 -0.0425  0.3136
 3809SOL    HW122889   3.190   2.038   6.907  2.1306 -0.7328 -0.6052
 3809SOL    HW222890   3.179   1.973   7.043 -0.4052 -0.9985 -1.5506
 3810SOL     OW22891   0.411   4.424   5.049 -1.3159 -0.0444  0.5321
 3810SOL    HW122892   0.435   4.497   4.993 -0.8184  0.2117  1.0815
 3810SOL    HW222893   0.388   4.475   5.127 -0.0494 -0.6388  1.2919
 3811SOL     OW22894   2.199   3.629   8.987  0.2642  0.1245 -0.5430
 3811SOL    HW122895   2.128   3.652   9.047  1.1235  0.2609  0.4138
 3811SOL    HW222896   2.169   3.541   8.965  0.5802 -0.6295  2.0848
 3812SOL     OW22897   1.602   1.150   3.254 -0.4936  0.5741 -0.0090
 3812SOL    HW122898   1.527   1.101   3.222  1.7847 -2.1956 -1.1028
 3812SOL    HW222899   1.677   1.094   3.234 -0.0299  0.7814  1.1050
 3813SOL     OW22900   0.391   3.937  15.941 -0.1629 -0.0980  0.2237
 3813SOL    HW122901   0.382   3.846  15.915  1.6595  0.0575 -1.0247
 3813SOL    HW222902   0.357   3.977  15.861  0.4792 -0.6275 -0.3181
 3814SOL     OW22903   2.145   2.899   1.647  0.8104 -0.0770 -0.0400
 3814SOL    HW122904   2.081   2.838   1.685  0.4136  0.1932 -0.2692
 3814SOL    HW222905   2.217   2.894   1.710  2.3648 -0.1252 -1.8327
 3815SOL     OW22906   4.400   2.143   5.911  0.4593  0.6744 -0.0323
 3815SOL    HW122907   4.342   2.219   5.904  0.2642  0.5625  0.3574
 3815SOL    HW222908   4.429   2.151   6.001  1.0677 -2.1124  0.0345
 3816SOL     OW22909   3.083   1.669   2.099 -0.5866  0.0185  0.2897
 3816SOL    HW122910   3.174   1.684   2.075 -0.5369 -1.1391 -0.2221
 3816SOL    HW222911   3.085   1.574   2.098  2.8339  0.0829  2.4855
 3817SOL     OW22912   1.626   1.475  16.110 -0.0246 -0.4586 -0.7595
 3817SOL    HW122913   1.575   1.408  16.155  1.7060 -1.8970 -0.9032
 3817SOL    HW222914   1.557   1.535  16.083  0.0209 -0.2115 -0.3264
 3818SOL     OW22915   2.864   3.527   2.304  0.5797 -0.5864  0.0562
 3818SOL    HW122916   2.788   3.475   2.331 -0.3873  0.5505 -0.4575
 3818SOL    HW222917   2.924   3.457   2.279  0.3915 -0.4784 -0.6936
 3819SOL     OW22918   1.026   3.519   8.361  0.3037  0.1795 -0.2042
 3819SOL    HW122919   1.007   3.587   8.296  0.5271 -1.0830 -1.5896
 3819SOL    HW222920   0.971   3.540   8.437  1.2071 -0.5685  0.6618
 3820SOL     OW22921   0.560   2.441   7.757  0.3395 -0.0143  0.1467
 3820SOL    HW122922   0.600   2.509   7.703  0.7938 -0.5379 -0.1780
 3820SOL    HW222923   0.605   2.366   7.717  0.0921 -0.8389  1.4368
 3821SOL     OW22924   2.338   4.262   7.163  0.1567  0.0349 -0.2402
 3821SOL    HW122925   2.428   4.285   7.140  0.4386 -0.4035  0.4143
 3821SOL    HW222926   2.359   4.201   7.234 -0.3452 -1.3508 -1.2912
 3822SOL     OW22927   3.969   2.386  13.686  0.3646 -0.3304 -0.3110
 3822SOL    HW122928   3.877   2.377  13.708  0.4865  1.8387  1.0392
 3822SOL    HW222929   3.981   2.304  13.638  0.3534 -1.1700  1.1255
 3823SOL     OW22930   3.589   0.734   7.300 -0.6156 -0.3943  0.0759
 3823SOL    HW122931   3.623   0.805   7.244 -1.1500  0.3272  0.6720
 3823SOL    HW222932   3.553   0.675   7.234  0.8581 -1.3910  0.1480
 3824SOL     OW22933   0.322   1.777  14.355  0.6010 -0.2854 -0.4430
 3824SOL    HW122934   0.240   1.813  14.322  0.1474 -1.6210 -0.7654
 3824SOL    HW222935   0.298   1.744  14.442 -0.8672  0.4928 -0.5436
 3825SOL     OW22936   0.292   4.119   9.152 -0.3739  0.1716  0.0943
 3825SOL    HW122937   0.266   4.046   9.208 -0.3507  1.2408  1.4977
 3825SOL    HW222938   0.342   4.076   9.083 -3.0421 -1.7119 -0.6411
 3826SOL     OW22939   2.956   4.260   0.337  0.6052  0.2614  0.6347
 3826SOL    HW122940   2.877   4.236   0.386  0.5309  0.5452  0.6504
 3826SOL    HW222941   2.921   4.245   0.249  0.4201 -1.0607  0.9223
 3827SOL     OW22942   1.435   0.013  12.452 -0.1410 -0.0742 -0.3017
 3827SOL    HW122943   1.412   0.093  12.405  0.6504 -0.9585 -2.1676
 3827SOL    HW222944   1.438   0.029  12.547  4.2497  0.9906 -0.6010
 3828SOL     OW22945   0.118   1.354  13.215  0.5893 -0.3144 -0.8003
 3828SOL    HW122946   0.122   1.408  13.294 -0.8081 -1.5370  0.1218
 3828SOL    HW222947   0.058   1.282  13.233 -1.5741  1.5493 -0.5537
 3829SOL     OW22948   4.105   2.348  13.413  0.1524 -0.3548 -0.2252
 3829SOL    HW122949   4.136   2.305  13.333  3.0769  0.7601  0.3291
 3829SOL    HW222950   4.017   2.309  13.416 -0.0615 -0.0084 -1.8746
 3830SOL     OW22951   2.986   1.658   9.903 -0.0904  0.1972 -0.1979
 3830SOL    HW122952   3.041   1.601   9.957 -0.5941 -0.3182 -0.2310
 3830SOL    HW222953   3.031   1.741   9.920 -0.2373  0.2901 -0.2647
 3831SOL     OW22954   2.671   0.196   8.418 -0.0691  0.5405 -0.0200
 3831SOL    HW122955   2.640   0.175   8.330 -1.2225  0.0387  0.5188
 3831SOL    HW222956   2.640   0.117   8.462  0.3236  1.3499  1.7082
 3832SOL     OW22957   3.004   0.177   7.479  0.7514  0.5938 -0.3300
 3832SOL    HW122958   2.927   0.121   7.479  0.0277  1.5546  2.5348
 3832SOL    HW222959   3.007   0.201   7.572  0.8214 -1.5390  0.2185
 3833SOL     OW22960   2.959   1.620   8.861 -0.0976  0.6702  0.5130
 3833SOL    HW122961   3.046   1.624   8.821 -0.6841 -0.9847 -0.9043
 3833SOL    HW222962   2.968   1.541   8.914  0.9308  1.1382  1.0468
 3834SOL     OW22963   0.440   4.055   3.287 -0.3202  0.3235 -0.1276
 3834SOL    HW122964   0.481   3.969   3.285  1.1578  0.9941  1.7733
 3834SOL    HW222965   0.515   4.113   3.301 -1.9508  2.5464 -0.5333
 3835SOL     OW22966   2.769   1.850   5.097 -0.2275 -0.2445 -1.4841
 3835SOL    HW122967   2.854   1.892   5.088  0.4563 -1.2958  0.1089
 3835SOL    HW222968   2.751   1.875   5.188  1.7690 -0.1719 -1.1189
 3836SOL     OW22969   1.143   2.600   1.507  0.2700 -0.0396  0.1049
 3836SOL    HW122970   1.215   2.651   1.470  0.1346  0.6908  0.8497
 3836SOL    HW222971   1.133   2.534   1.439  2.6487 -0.1880 -0.0995
 3837SOL     OW22972   1.231   3.300   2.476  0.2100 -0.4210  0.2141
 3837SOL    HW122973   1.169   3.230   2.496 -0.5626  0.8348  2.2080
 3837SOL    HW222974   1.279   3.312   2.558 -0.3830  0.9707  0.3505
 3838SOL     OW22975   1.243   1.450   7.756 -0.5887 -0.1865  0.3683
 3838SOL    HW122976   1.279   1.490   7.677 -0.3750 -0.4978  0.3084
 3838SOL    HW222977   1.209   1.530   7.796 -3.1207  0.5152 -3.1704
 3839SOL     OW22978   2.793   3.569   2.857 -0.3471 -0.0095  0.4394
 3839SOL    HW122979   2.773   3.558   2.764 -0.9507  0.4611  0.5189
 3839SOL    HW222980   2.753   3.486   2.881  0.7916  0.1967  3.0893
 3840SOL     OW22981   4.057   3.515   4.975  0.2067  0.0827  0.0935
 3840SOL    HW122982   4.054   3.515   4.879 -1.2042 -2.7229  0.1394
 3840SOL    HW222983   3.979   3.565   4.998 -0.1601  0.0772 -1.1649
 3841SOL     OW22984   1.439   1.741  15.847  0.3175  0.0214 -0.5992
 3841SOL    HW122985   1.416   1.681  15.776  0.4158 -1.0174  0.2374
 3841SOL    HW222986   1.524   1.764  15.810  1.0100 -0.3413  0.7477
 3842SOL     OW22987   0.757   1.394  16.778  0.0760  0.0251  0.2401
 3842SOL    HW122988   0.840   1.353  16.754  0.2874  0.2951  0.5125
 3842SOL    HW222989   0.778   1.479  16.738 -0.8474  1.3845  2.6840
 3843SOL     OW22990   0.852   2.332  17.534 -0.1548  0.0796  0.4774
 3843SOL    HW122991   0.765   2.318  17.496 -1.9863  3.2519  3.4623
 3843SOL    HW222992   0.850   2.267  17.604 -0.9827 -3.1698 -2.5554
 3844SOL     OW22993   3.771   2.892  13.383 -0.0084 -0.2383 -0.4252
 3844SOL    HW122994   3.746   2.878  13.474  1.8412  0.4926  0.1958
 3844SOL    HW222995   3.859   2.929  13.390 -0.6086  1.0713  0.2520
 3845SOL     OW22996   1.964   1.780   6.784  0.2667  0.4531 -0.4024
 3845SOL    HW122997   1.951   1.710   6.848  2.9076  1.6601  1.4568
 3845SOL    HW222998   1.927   1.858   6.825  0.6317 -0.1945  1.1827
 3846SOL     OW22999   4.532   1.776  17.424  0.4433  0.0603 -0.5229
 3846SOL    HW123000   4.569   1.730  17.499  0.2980 -1.2390 -1.2463
 3846SOL    HW223001   4.443   1.790  17.457  0.6035  1.9148 -0.8611
 3847SOL     OW23002   4.222   3.286   6.247 -0.8350  0.0535 -0.1672
 3847SOL    HW123003   4.278   3.251   6.177 -0.1816 -2.0665  1.4230
 3847SOL    HW223004   4.219   3.381   6.230 -4.1699  0.3430  2.0804
 3848SOL     OW23005   3.115   4.124   0.668 -0.5937 -0.0743  0.6631
 3848SOL    HW123006   3.096   4.211   0.703  0.6091  0.7009 -0.5989
 3848SOL    HW223007   3.061   4.058   0.711  0.4358 -0.2424  1.6997
 3849SOL     OW23008   0.821   0.250   5.479 -0.5599 -0.3553  0.6349
 3849SOL    HW123009   0.805   0.335   5.520  1.7907  1.0240 -1.3234
 3849SOL    HW223010   0.899   0.217   5.523  0.2350 -0.0676 -0.5484
 3850SOL     OW23011   3.405   1.986  10.095 -0.0582 -0.3792  0.3093
 3850SOL    HW123012   3.483   2.039  10.077 -1.2422  1.6793  1.2396
 3850SOL    HW223013   3.428   1.903  10.053  1.1952 -0.2408  0.7209
 3851SOL     OW23014   4.164   1.579   4.958 -0.6787  0.0634 -0.0545
 3851SOL    HW123015   4.099   1.606   4.893 -3.1513 -2.6870  1.3191
 3851SOL    HW223016   4.203   1.662   4.984 -2.8055  0.9956  0.1536
 3852SOL     OW23017   0.346   3.054   5.708 -0.2485  0.0684  0.5472
 3852SOL    HW123018   0.257   3.088   5.697 -1.0662 -2.0236  0.8500
 3852SOL    HW223019   0.357   3.014   5.622 -0.4084 -1.0527  1.0507
 3853SOL     OW23020   1.545   2.251   6.459 -0.2303  0.1173  0.4564
 3853SOL    HW123021   1.498   2.332   6.442  0.8062  0.3736 -1.1883
 3853SOL    HW223022   1.623   2.286   6.502 -1.6943  1.2098  2.2464
 3854SOL     OW23023   2.836   1.162   1.549 -0.0425  0.6077 -0.3327
 3854SOL    HW123024   2.769   1.114   1.501 -0.1483  1.6879 -1.2672
 3854SOL    HW223025   2.781   1.235   1.580 -0.4995  1.0468 -2.2215
 3855SOL     OW23026   4.026   1.941   7.810 -0.1605  0.1291  0.7528
 3855SOL    HW123027   3.958   1.983   7.863 -1.7132 -0.7655 -0.5395
 3855SOL    HW223028   4.098   1.954   7.872  0.8190  1.0080 -0.5579
 3856SOL     OW23029   0.583   2.892   8.995 -0.2289  0.1227 -0.4566
 3856SOL    HW123030   0.516   2.920   9.057 -1.9056 -1.0192 -1.7463
 3856SOL    HW223031   0.657   2.939   9.032 -0.3675 -0.7943  1.0053
 3857SOL     OW23032   4.513   1.730   6.601 -1.0123  0.1475 -0.4864
 3857SOL    HW123033   4.496   1.823   6.615 -1.5693  0.4085 -2.8389
 3857SOL    HW223034   4.470   1.695   6.679  0.5403  0.0502  0.3473
 3858SOL     OW23035   2.884   0.982   7.761 -0.0331  0.6630  0.5004
 3858SOL    HW123036   2.961   0.925   7.752  1.0263  2.2242 -0.3031
 3858SOL    HW223037   2.826   0.950   7.691  0.0681  0.5387  0.4717
 3859SOL     OW23038   0.490   0.888   5.006 -0.0157  0.1446  0.0255
 3859SOL    HW123039   0.498   0.794   4.992  1.2611  0.2912 -0.2772
 3859SOL    HW223040   0.398   0.898   4.983  0.1792  2.3797  0.1361
 3860SOL     OW23041   1.595   1.966   6.396 -0.0548 -0.0718 -0.1831
 3860SOL    HW123042   1.563   2.056   6.390  2.0877  0.7050 -0.0726
 3860SOL    HW223043   1.566   1.920   6.316 -0.8793  1.7483 -0.9232
 3861SOL     OW23044   1.032   3.500  13.041 -0.3548 -0.2586 -0.8078
 3861SOL    HW123045   1.067   3.433  13.099  3.1037  2.0602 -0.1876
 3861SOL    HW223046   1.097   3.502  12.971  2.1130 -1.7930  1.4240
 3862SOL     OW23047   2.293   4.620  16.457 -0.1121 -0.0752 -0.2228
 3862SOL    HW123048   2.304   4.635  16.363  1.1756  2.5501  0.3512
 3862SOL    HW223049   2.384   4.615  16.488 -0.9746 -1.1647  2.1354
 3863SOL     OW23050   3.647   4.565  10.828  0.3424 -0.0734 -0.8663
 3863SOL    HW123051   3.672   4.655  10.846  1.4715 -0.8928  1.7798
 3863SOL    HW223052   3.720   4.528  10.778  1.0617  1.5455 -1.0022
 3864SOL     OW23053   0.576   2.762   2.141  0.5906  1.0144  0.2210
 3864SOL    HW123054   0.584   2.754   2.236 -0.3096 -0.5607  0.1578
 3864SOL    HW223055   0.556   2.674   2.110  0.5426  0.3062  2.2508
 3865SOL     OW23056   0.728   0.293  14.864 -0.1934  0.2167  0.6361
 3865SOL    HW123057   0.785   0.284  14.940  1.3625  0.8187 -0.4590
 3865SOL    HW223058   0.799   0.326  14.808 -2.7793  2.3460 -1.3999
 3866SOL     OW23059   2.192   4.611   7.017 -0.1660 -1.1167  0.3020
 3866SOL    HW123060   2.262   4.676   7.005  2.1413 -3.8007 -0.7195
 3866SOL    HW223061   2.147   4.622   6.934 -1.1150 -1.1640  0.8115
 3867SOL     OW23062   0.475   2.454  17.392  0.8433  0.7297 -0.2901
 3867SOL    HW123063   0.448   2.365  17.370 -0.8404  0.9361  0.9697
 3867SOL    HW223064   0.387   2.486  17.411  0.5795  0.3852 -0.9085
 3868SOL     OW23065   3.069   2.719   8.613 -0.5673  0.3469 -0.4949
 3868SOL    HW123066   3.094   2.652   8.677 -2.8920 -0.6290 -0.6283
 3868SOL    HW223067   3.142   2.714   8.552  0.4281  1.1261  0.6221
 3869SOL     OW23068   1.722   3.822  15.591  0.1496 -0.2696  0.0242
 3869SOL    HW123069   1.705   3.827  15.685 -0.1548  1.6264 -0.1226
 3869SOL    HW223070   1.747   3.914  15.580 -1.9635  0.2822 -0.1877
 3870SOL     OW23071   1.103   2.908  16.650  0.0306  0.2236 -0.2017
 3870SOL    HW123072   1.056   2.825  16.657  1.4710 -0.5307  0.3704
 3870SOL    HW223073   1.049   2.968  16.701  0.3770  0.6572 -0.3442
 3871SOL     OW23074   3.354   1.152   2.279 -0.4981 -0.0597 -0.2893
 3871SOL    HW123075   3.359   1.201   2.197  0.6078 -0.9168 -0.7349
 3871SOL    HW223076   3.370   1.065   2.244  1.6893  1.1611 -2.3577
 3872SOL     OW23077   3.458   0.092  11.724 -0.0115  0.4103 -0.1314
 3872SOL    HW123078   3.502   0.150  11.662 -1.3213  0.8599 -0.6442
 3872SOL    HW223079   3.522   0.036  11.768 -0.5441 -0.4299 -0.4080
 3873SOL     OW23080   4.576   3.484   5.141  0.4564 -0.4364  0.2533
 3873SOL    HW123081   4.504   3.421   5.153 -0.0461  0.1326  0.2612
 3873SOL    HW223082   4.562   3.552   5.207  0.7498  1.2460 -1.4151
 3874SOL     OW23083   2.451   1.831   0.483 -0.1732 -0.0686  0.3929
 3874SOL    HW123084   2.474   1.885   0.408 -2.7195 -2.8244 -2.3485
 3874SOL    HW223085   2.505   1.753   0.471 -0.7153 -0.2971 -0.5547
 3875SOL     OW23086   4.532   2.317   9.959  0.1601 -0.0641  0.9107
 3875SOL    HW123087   4.479   2.390   9.992  0.1148 -1.2309  3.4327
 3875SOL    HW223088   4.482   2.242   9.990 -1.0036 -0.3979 -1.7995
 3876SOL     OW23089   2.679   2.034  10.120 -0.2883  0.2914  0.0340
 3876SOL    HW123090   2.739   1.972  10.162  0.2667  0.8277  0.0276
 3876SOL    HW223091   2.605   1.990  10.078 -0.7770 -1.3979  2.6994
 3877SOL     OW23092   2.809   4.438  14.994  0.6272 -0.3175  0.1351
 3877SOL    HW123093   2.828   4.349  14.963  0.2425 -0.1760 -0.4980
 3877SOL    HW223094   2.719   4.451  14.965  0.2237  1.0593  2.0130
 3878SOL     OW23095   2.651   0.871   3.945 -0.0249 -0.1944 -0.3546
 3878SOL    HW123096   2.626   0.931   3.875  1.9804 -1.0118 -1.7567
 3878SOL    HW223097   2.687   0.924   4.017 -2.5204 -2.7919  2.8058
 3879SOL     OW23098   4.504   1.992   7.326  0.1461 -0.2023  0.1664
 3879SOL    HW123099   4.494   1.963   7.416  0.1826 -1.1187 -0.1267
 3879SOL    HW223100   4.583   1.948   7.294  2.4030  3.4914  0.5650
 3880SOL     OW23101   1.193   2.348   6.850 -0.4190 -0.4631 -0.2633
 3880SOL    HW123102   1.262   2.286   6.874  2.3375  2.3489 -0.8667
 3880SOL    HW223103   1.254   2.412   6.814 -1.2033  1.6830  2.2206
 3881SOL     OW23104   1.365   2.121   6.808  0.1223  0.7141 -0.6850
 3881SOL    HW123105   1.450   2.164   6.818  1.5605 -2.0693 -0.9946
 3881SOL    HW223106   1.322   2.158   6.731  1.6643 -1.1279 -2.4500
 3882SOL     OW23107   1.969   3.619  16.657  0.1589  0.4351  0.0498
 3882SOL    HW123108   1.906   3.649  16.723  0.2453 -1.0097  0.7961
 3882SOL    HW223109   2.047   3.599  16.708  0.4809 -0.8007 -0.9134
 3883SOL     OW23110   1.545   0.261  12.982  0.4303  0.2554  0.8054
 3883SOL    HW123111   1.513   0.171  12.986 -2.1702  1.1137 -0.5970
 3883SOL    HW223112   1.633   0.253  12.945  1.3853 -0.5111  3.2926
 3884SOL     OW23113   4.541   3.957  13.850 -0.1468  0.0195 -0.0638
 3884SOL    HW123114   4.509   4.032  13.902  1.7558 -0.8079  2.2998
 3884SOL    HW223115   4.473   3.954  13.782 -1.5574  0.3653  1.3166
 3885SOL     OW23116   3.365   0.575  15.171  0.0932 -0.0625  0.1939
 3885SOL    HW123117   3.322   0.556  15.088 -0.8807 -4.0374  1.6202
 3885SOL    HW223118   3.303   0.639  15.208 -0.9572 -1.6071  1.1292
 3886SOL     OW23119   2.794   0.102  13.778  0.2968  0.6903  0.4538
 3886SOL    HW123120   2.814   0.098  13.684 -3.7676  1.3125 -0.4302
 3886SOL    HW223121   2.847   0.175  13.810 -0.0335  0.7403  0.8857
 3887SOL     OW23122   0.357   3.940  10.927  0.3137 -0.1055  0.5961
 3887SOL    HW123123   0.263   3.919  10.929  0.2445  0.1234 -0.3183
 3887SOL    HW223124   0.404   3.859  10.949 -0.6717 -0.8285  0.0557
 3888SOL     OW23125   0.645   4.007   9.244  0.5917  0.1590 -0.2875
 3888SOL    HW123126   0.671   4.018   9.336 -0.7670  0.6470  0.0400
 3888SOL    HW223127   0.570   3.949   9.258 -0.0430  1.0628  0.0200
 3889SOL     OW23128   1.645   4.108   6.084 -0.9467 -0.6041  0.8962
 3889SOL    HW123129   1.690   4.127   6.166 -0.2676  3.1632 -0.3608
 3889SOL    HW223130   1.649   4.013   6.098  1.3688 -0.5512  0.6068
 3890SOL     OW23131   4.582   1.035   6.792 -0.8506 -0.2462  0.3133
 3890SOL    HW123132   4.586   1.065   6.883  0.4045 -1.1809  0.5676
 3890SOL    HW223133   4.571   1.118   6.745 -1.1836 -0.7862 -0.5575
 3891SOL     OW23134   0.946   2.485   7.783  0.2639  0.4763 -0.0898
 3891SOL    HW123135   0.916   2.454   7.697  0.8458  0.6009 -0.3327
 3891SOL    HW223136   1.015   2.424   7.806 -0.0312  0.2982  0.3295
 3892SOL     OW23137   4.614   0.819  14.444 -0.0049  0.1720 -0.7593
 3892SOL    HW123138   4.538   0.761  14.431  0.4255 -0.8245  1.1851
 3892SOL    HW223139   4.597   0.867  14.525 -1.2458 -0.4122 -0.6685
 3893SOL     OW23140   4.373   0.624  17.227 -0.1328  0.1907 -0.3865
 3893SOL    HW123141   4.382   0.688  17.157 -0.4974  0.5268 -0.1265
 3893SOL    HW223142   4.283   0.638  17.256 -0.4972 -2.4758 -0.2324
 3894SOL     OW23143   2.757   0.641   1.742 -0.0549 -1.1252 -0.0958
 3894SOL    HW123144   2.684   0.632   1.804 -0.5344 -0.1938 -0.5251
 3894SOL    HW223145   2.790   0.724   1.778 -0.6682 -0.0563 -2.0292
 3895SOL     OW23146   0.069   4.265  12.000 -0.4478  0.5800  0.1813
 3895SOL    HW123147   0.023   4.324  12.060  1.6992 -0.2033  2.5836
 3895SOL    HW223148   0.122   4.219  12.065  1.0001  0.2760 -1.2468
 3896SOL     OW23149   1.756   3.670   5.475 -0.0213 -0.3228 -0.1735
 3896SOL    HW123150   1.727   3.725   5.402 -0.3595  1.6411  1.4625
 3896SOL    HW223151   1.827   3.616   5.438 -1.5136 -1.2158 -1.7417
 3897SOL     OW23152   0.461   1.262   5.089  0.6205 -0.2724 -0.0485
 3897SOL    HW123153   0.440   1.197   5.156 -3.9546 -2.4450 -3.6301
 3897SOL    HW223154   0.439   1.339   5.142  1.1960  0.2355 -0.5419
 3898SOL     OW23155   0.271   3.529  10.791 -0.3455  0.2026  0.0553
 3898SOL    HW123156   0.244   3.449  10.836 -1.8994  0.4837 -0.3611
 3898SOL    HW223157   0.197   3.537  10.730 -0.3016  0.3868  0.0239
 3899SOL     OW23158   3.509   1.103   8.469 -0.0836 -0.2201 -0.4972
 3899SOL    HW123159   3.452   1.041   8.423 -1.0559 -0.3748  0.9093
 3899SOL    HW223160   3.599   1.087   8.441 -0.4158 -0.3764 -1.4812
 3900SOL     OW23161   0.599   1.921   4.712 -0.2186  0.0561 -0.3228
 3900SOL    HW123162   0.602   1.913   4.808  1.8677 -0.8700 -0.4711
 3900SOL    HW223163   0.644   2.005   4.704  2.3159 -1.3199 -0.4733
 3901SOL     OW23164   0.496   4.718  12.841  0.1060  0.0973  0.6482
 3901SOL    HW123165   0.518   4.626  12.826 -0.5567 -0.0816  0.7815
 3901SOL    HW223166   0.491   0.022  12.749 -2.1921  1.4670  1.1553
 3902SOL     OW23167   1.684   3.786  16.239  0.0270  0.2916  0.0044
 3902SOL    HW123168   1.731   3.719  16.289 -2.1259 -2.2035 -1.2673
 3902SOL    HW223169   1.750   3.854  16.228  0.6470  0.2458  3.4491
 3903SOL     OW23170   4.207   1.859   3.429 -0.2377  0.5548 -0.1650
 3903SOL    HW123171   4.164   1.809   3.498 -0.5071  0.7079 -0.2231
 3903SOL    HW223172   4.219   1.945   3.470 -1.4455 -0.4447  2.2412
 3904SOL     OW23173   2.987   2.861  12.323  0.1508  0.3450  0.2205
 3904SOL    HW123174   2.958   2.952  12.328  0.8870  0.5599  0.6307
 3904SOL    HW223175   2.907   2.819  12.291  1.3161 -0.7017 -1.2998
 3905SOL     OW23176   0.411   4.458   0.402 -0.2299 -0.0311 -0.2445
 3905SOL    HW123177   0.445   4.541   0.436 -1.1830  0.1628  0.2180
 3905SOL    HW223178   0.372   4.419   0.480 -0.2097  0.6093  0.0908
 3906SOL     OW23179   2.926   2.098  10.533  0.9945 -0.1384  0.3167
 3906SOL    HW123180   2.901   2.190  10.529  0.1105 -0.3535  0.8865
 3906SOL    HW223181   2.888   2.046  10.462 -1.5917  0.0914  1.5747
 3907SOL     OW23182   2.792   0.835   6.249 -0.1781  0.4909  0.1491
 3907SOL    HW123183   2.780   0.920   6.291  0.3260  0.1201  1.0526
 3907SOL    HW223184   2.820   0.867   6.164  0.1744  0.9390  0.4343
 3908SOL     OW23185   2.106   3.461   2.956 -0.2923 -0.2539  0.0421
 3908SOL    HW123186   2.163   3.423   3.023  0.0474  0.4311  0.1456
 3908SOL    HW223187   2.073   3.385   2.909 -1.0277 -0.6242  1.1438
 3909SOL     OW23188   0.745   4.357   6.317  0.2533  0.1861  0.7694
 3909SOL    HW123189   0.695   4.288   6.273  3.1282 -0.3641 -1.6261
 3909SOL    HW223190   0.766   4.323   6.404 -0.8135  2.4506  1.9358
 3910SOL     OW23191   3.543   1.294   1.841  0.5185  0.6157  0.6040
 3910SOL    HW123192   3.638   1.282   1.850  0.1033 -1.8919  1.7097
 3910SOL    HW223193   3.541   1.367   1.779 -0.2630  0.7610  0.8069
 3911SOL     OW23194   4.221   0.848   1.472 -0.0611  0.3750  0.3136
 3911SOL    HW123195   4.308   0.808   1.466 -0.2868 -0.0062 -0.4017
 3911SOL    HW223196   4.227   0.915   1.541  1.6509  0.0867  0.4505
 3912SOL     OW23197   2.750   3.179  10.377 -0.3617 -0.1795 -0.1858
 3912SOL    HW123198   2.710   3.170  10.464 -0.4204 -0.1191 -0.2064
 3912SOL    HW223199   2.745   3.090  10.342 -2.3067 -0.0039 -0.3896
 3913SOL     OW23200   3.966   3.286  12.766  0.2047  0.3036 -0.1488
 3913SOL    HW123201   3.915   3.354  12.724 -0.3092  0.0640  0.0856
 3913SOL    HW223202   4.060   3.305  12.764  0.1265  0.9319  2.0816
 3914SOL     OW23203   1.569   4.124   4.374  0.0640  0.4344 -0.0398
 3914SOL    HW123204   1.561   4.047   4.319 -1.5552 -0.5903  1.6542
 3914SOL    HW223205   1.480   4.133   4.406  0.2312 -1.1034  0.8193
 3915SOL     OW23206   2.475   3.583   8.115  0.8352 -0.1499  0.3496
 3915SOL    HW123207   2.458   3.652   8.051  0.9059 -0.3569  0.1097
 3915SOL    HW223208   2.408   3.522   8.083  0.1332  0.0551  1.4461
 3916SOL     OW23209   2.144   1.828  16.402 -0.1587 -0.2669  0.2878
 3916SOL    HW123210   2.226   1.789  16.373 -0.4384 -1.7291  1.4474
 3916SOL    HW223211   2.183   1.878  16.474  0.5855 -0.1533 -0.1878
 3917SOL     OW23212   0.644   0.947   6.979 -0.1114  0.2513 -0.0458
 3917SOL    HW123213   0.647   0.889   7.055 -2.1953  0.1334 -0.0376
 3917SOL    HW223214   0.596   0.883   6.926 -0.2379  1.0393 -0.8881
 3918SOL     OW23215   1.282   1.835   7.221 -0.1694 -0.4113  1.1428
 3918SOL    HW123216   1.370   1.797   7.226 -1.1992 -2.7707  1.4325
 3918SOL    HW223217   1.299   1.900   7.153  1.9742  0.1816  2.2242
 3919SOL     OW23218   1.342   1.569   9.069 -0.1595 -0.5725 -0.2841
 3919SOL    HW123219   1.294   1.497   9.110 -0.3665  0.1170  0.6912
 3919SOL    HW223220   1.362   1.616   9.150 -1.1298  1.9766 -1.5085
 3920SOL     OW23221   2.458   2.336   9.135  0.5118  0.3114  0.0536
 3920SOL    HW123222   2.425   2.310   9.221  0.7759  1.5345  0.5241
 3920SOL    HW223223   2.463   2.430   9.150 -0.1407  0.4316 -0.5214
 3921SOL     OW23224   0.555   3.630   4.967 -0.2888 -0.8195  0.3234
 3921SOL    HW123225   0.512   3.706   4.928  0.1618  0.5342  2.4637
 3921SOL    HW223226   0.556   3.562   4.900 -0.5472 -1.0719  0.5709
 3922SOL     OW23227   4.064   4.083   2.448  0.4469 -0.6114 -0.0012
 3922SOL    HW123228   4.095   4.174   2.456 -1.8168  0.0270  1.3569
 3922SOL    HW223229   4.039   4.063   2.538  0.7427  0.3941  0.3107
 3923SOL     OW23230   1.774   4.090   2.579  0.1248 -0.1805 -0.7089
 3923SOL    HW123231   1.701   4.128   2.531 -1.4605 -4.1950 -1.5185
 3923SOL    HW223232   1.748   4.000   2.599  2.0968 -0.2593  1.4081
 3924SOL     OW23233   2.518   2.352  13.732  0.8529  0.0990  0.1811
 3924SOL    HW123234   2.582   2.397  13.787 -1.8203  2.7367  1.1820
 3924SOL    HW223235   2.530   2.384  13.643 -2.7963 -0.9451 -0.7145
 3925SOL     OW23236   2.560   2.353   1.069  0.5267  0.5291 -0.3389
 3925SOL    HW123237   2.555   2.257   1.071 -1.7597  0.6742  0.2712
 3925SOL    HW223238   2.473   2.386   1.046  0.5683  0.5497 -0.4665
 3926SOL     OW23239   2.654   4.394   2.429 -0.4504  0.2218  0.0500
 3926SOL    HW123240   2.626   4.311   2.390  1.6707 -0.5098  0.1026
 3926SOL    HW223241   2.739   4.410   2.389 -1.2589  3.2838 -0.4700
 3927SOL     OW23242   0.207   1.780  12.326 -0.0794  0.2420 -0.2867
 3927SOL    HW123243   0.197   1.840  12.252 -0.1382  0.9845  0.3243
 3927SOL    HW223244   0.194   1.693  12.288  1.9787 -0.4133  0.5436
 3928SOL     OW23245   4.243   4.715   8.837  0.6053 -0.0186  0.1139
 3928SOL    HW123246   4.207   4.627   8.847  0.1572  0.0737 -0.6529
 3928SOL    HW223247   4.177   0.028   8.778 -0.0921 -0.3829  0.6723
 3929SOL     OW23248   1.706   2.631   9.601 -0.7091 -0.2490 -0.2801
 3929SOL    HW123249   1.740   2.568   9.663 -0.3816 -0.1947 -0.4069
 3929SOL    HW223250   1.644   2.681   9.655  0.0034  0.4060 -0.0735
 3930SOL     OW23251   2.171   1.968  13.538  0.0768  0.3699  0.2644
 3930SOL    HW123252   2.177   2.064  13.537 -2.3485  0.4939 -1.8904
 3930SOL    HW223253   2.262   1.940  13.536 -0.4383 -1.2855  0.0641
 3931SOL     OW23254   2.510   4.697   7.445  0.0704 -0.3161  0.5754
 3931SOL    HW123255   2.471   4.677   7.530  1.1539 -1.5222  0.7904
 3931SOL    HW223256   2.474   4.630   7.387 -0.1034 -0.1307  0.4707
 3932SOL     OW23257   4.031   3.372   2.651 -0.0476 -0.5627  0.4495
 3932SOL    HW123258   4.036   3.287   2.606  3.2403 -0.9008  1.4708
 3932SOL    HW223259   3.985   3.346   2.731  0.2882  0.2955  0.9099
 3933SOL     OW23260   1.615   1.220  14.120 -1.0022  0.1069 -0.1644
 3933SOL    HW123261   1.599   1.149  14.182  1.4802  0.3467  0.7221
 3933SOL    HW223262   1.710   1.215  14.121 -1.1493 -2.8119  0.0756
 3934SOL     OW23263   4.297   4.339   6.331  0.1705 -0.7173 -0.3249
 3934SOL    HW123264   4.295   4.338   6.235 -0.7866 -1.1853 -0.2979
 3934SOL    HW223265   4.333   4.252   6.344  1.1553  0.0476  1.9321
 3935SOL     OW23266   2.671   1.475  15.078 -0.0071 -0.5121  1.1540
 3935SOL    HW123267   2.597   1.505  15.132  0.1889 -1.3284  1.8696
 3935SOL    HW223268   2.633   1.400  15.032  2.6860 -1.2382  0.1428
 3936SOL     OW23269   3.672   1.792   0.539 -0.2576  0.2169 -0.1059
 3936SOL    HW123270   3.725   1.870   0.554 -0.6678  0.4148  0.3398
 3936SOL    HW223271   3.700   1.765   0.452 -1.7190 -2.0875  0.1265
 3937SOL     OW23272   0.205   3.647   9.190  0.3775  0.0728  0.3904
 3937SOL    HW123273   0.138   3.635   9.122 -1.6718  1.8884  2.1082
 3937SOL    HW223274   0.165   3.724   9.232  0.7699  0.6980 -0.3747
 3938SOL     OW23275   0.395   0.149  14.949  0.0029  0.0826  0.6439
 3938SOL    HW123276   0.442   0.185  15.024  0.8025  0.1591  0.1106
 3938SOL    HW223277   0.389   0.237  14.911  0.1003  0.5318  1.6726
 3939SOL     OW23278   3.411   2.635   6.340  0.1124  0.7098  0.6020
 3939SOL    HW123279   3.340   2.611   6.400  0.1820 -1.2066 -0.0861
 3939SOL    HW223280   3.391   2.729   6.344  0.9506  0.9664 -1.1115
 3940SOL     OW23281   3.436   4.146   2.449 -0.3089  0.1263  0.1568
 3940SOL    HW123282   3.412   4.113   2.363 -0.5838  0.8915 -0.0663
 3940SOL    HW223283   3.522   4.185   2.434 -1.2700  1.7923 -1.0983
 3941SOL     OW23284   2.934   4.207   1.007  0.6112 -0.1130 -0.1505
 3941SOL    HW123285   2.986   4.272   0.961  2.9254 -0.5578  1.8875
 3941SOL    HW223286   2.979   4.124   0.989  0.4965  0.0777 -1.3158
 3942SOL     OW23287   3.688   0.846  13.876 -0.1546 -0.9952 -0.0210
 3942SOL    HW123288   3.657   0.916  13.933  1.3722  1.3519 -2.0962
 3942SOL    HW223289   3.772   0.824  13.918 -0.2800 -3.5715 -1.1174
 3943SOL     OW23290   2.687   3.456   5.513 -0.0600  0.2410  0.2012
 3943SOL    HW123291   2.686   3.451   5.609 -0.3521  0.4174  0.2084
 3943SOL    HW223292   2.671   3.550   5.507  0.4134  0.2502 -0.9236
 3944SOL     OW23293   2.928   4.518   6.521  0.7393  0.3033 -0.1493
 3944SOL    HW123294   2.858   4.459   6.549  1.2383 -1.1890 -2.0635
 3944SOL    HW223295   2.980   4.452   6.475  1.3193  1.9444 -1.8770
 3945SOL     OW23296   0.058   0.576  12.468  0.4100  0.3913 -0.0087
 3945SOL    HW123297   4.699   0.546  12.509 -0.1375 -0.6445 -1.8643
 3945SOL    HW223298   0.027   0.626  12.392  0.3053 -0.1097 -0.2935
 3946SOL     OW23299   0.447   2.230   2.049  0.1497 -0.2814  0.2509
 3946SOL    HW123300   0.439   2.162   1.983 -0.1711  1.1090 -1.1459
 3946SOL    HW223301   0.450   2.178   2.130  0.6662  1.5544  1.4080
 3947SOL     OW23302   0.890   0.784   6.389 -0.2134 -0.4917  0.2946
 3947SOL    HW123303   0.833   0.742   6.453  0.6301 -1.4088  0.4451
 3947SOL    HW223304   0.957   0.818   6.448 -0.5937 -1.0575  1.0436
 3948SOL     OW23305   2.887   3.398   4.311  0.2442 -0.1790 -0.3713
 3948SOL    HW123306   2.900   3.315   4.357 -0.3089  1.1575  2.1907
 3948SOL    HW223307   2.885   3.379   4.217 -0.0771  2.4934 -0.8857
 3949SOL     OW23308   2.962   0.594   8.434 -0.2794 -0.1185 -0.3200
 3949SOL    HW123309   3.047   0.603   8.391  0.6394 -0.3797  1.4224
 3949SOL    HW223310   2.914   0.662   8.388 -0.8209 -0.6235 -0.4962
 3950SOL     OW23311   0.567   2.015   5.163  0.2160  0.2099 -0.0906
 3950SOL    HW123312   0.596   2.105   5.148 -0.0354  0.4115  0.6308
 3950SOL    HW223313   0.547   2.030   5.255  2.0879  1.4199  0.1236
 3951SOL     OW23314   2.445   1.854   7.818 -0.0328 -0.4548 -0.2450
 3951SOL    HW123315   2.471   1.763   7.829  0.2753 -0.3069  0.2583
 3951SOL    HW223316   2.518   1.900   7.860  0.2214 -0.2596 -0.8988
 3952SOL     OW23317   0.639   0.370   6.456  0.6721 -0.2914 -0.3962
 3952SOL    HW123318   0.600   0.351   6.541  0.5828  2.0667  0.0954
 3952SOL    HW223319   0.563   0.358   6.400  0.1129  1.2826  0.0433
 3953SOL     OW23320   0.280   0.309   1.791  0.4163 -0.2638 -0.2432
 3953SOL    HW123321   0.218   0.237   1.787 -0.5317  0.5631 -0.4869
 3953SOL    HW223322   0.284   0.330   1.884 -0.6447 -0.0425 -0.2568
 3954SOL     OW23323   2.579   0.273  17.261  0.0953 -0.3507  0.1894
 3954SOL    HW123324   2.492   0.311  17.260  0.1668 -0.1750  0.7849
 3954SOL    HW223325   2.615   0.308  17.343 -0.5580 -0.7074  0.6213
 3955SOL     OW23326   3.625   0.241  17.567 -0.1201 -0.0073  0.4928
 3955SOL    HW123327   3.590   0.330  17.576  1.1846  0.6752 -1.2487
 3955SOL    HW223328   3.581   0.194  17.638 -0.5930  0.8620  0.7843
 3956SOL     OW23329   4.510   3.424   2.779 -0.5039 -0.0743  0.0383
 3956SOL    HW123330   4.603   3.410   2.794 -1.0186 -2.5862  0.9109
 3956SOL    HW223331   4.512   3.438   2.684 -1.6113 -0.4802 -0.0437
 3957SOL     OW23332   4.651   3.715   4.892 -0.0491 -0.0586  0.2370
 3957SOL    HW123333   0.010   3.686   4.850  1.5525  1.5678  2.1855
 3957SOL    HW223334   4.639   3.650   4.962  0.6970 -0.9106 -0.4121
 3958SOL     OW23335   0.705   3.963  15.307  0.1865 -0.1793 -0.0434
 3958SOL    HW123336   0.784   4.013  15.290 -0.3413  1.5018  2.4698
 3958SOL    HW223337   0.690   3.996  15.396 -0.0356 -0.8019  0.1496
 3959SOL     OW23338   0.940   4.068  15.232 -0.0201 -0.0327  0.4895
 3959SOL    HW123339   0.963   4.148  15.280  2.4682 -1.3235  1.4992
 3959SOL    HW223340   0.986   4.008  15.291 -2.8885 -1.6195  1.1343
 3960SOL     OW23341   0.666   4.383   3.797 -0.3610  0.2991  0.2580
 3960SOL    HW123342   0.743   4.334   3.827 -0.1589 -0.1370 -0.9822
 3960SOL    HW223343   0.650   4.424   3.882 -5.6269  2.5055 -1.8273
 3961SOL     OW23344   2.365   2.576   5.216 -0.2038 -0.7538  0.4976
 3961SOL    HW123345   2.453   2.614   5.205 -0.4706 -0.1021  0.5987
 3961SOL    HW223346   2.364   2.557   5.310 -1.3213 -1.8828  0.2510
 3962SOL     OW23347   2.022   1.875   4.932 -0.0747 -0.7432  0.5574
 3962SOL    HW123348   2.044   1.782   4.945 -0.5351 -1.0728 -0.9628
 3962SOL    HW223349   1.967   1.900   5.006 -1.3590  2.8765 -1.6760
 3963SOL     OW23350   1.110   4.009   5.134 -0.2811  0.0168 -0.1427
 3963SOL    HW123351   1.102   4.062   5.055  0.1369  1.6135  0.8889
 3963SOL    HW223352   1.171   3.942   5.102  1.4394  0.8947  1.3148
 3964SOL     OW23353   2.907   2.691  12.510  0.3160 -0.6537 -0.2623
 3964SOL    HW123354   2.929   2.749  12.436 -0.1363 -0.2071 -0.0474
 3964SOL    HW223355   2.970   2.625  12.480  2.6865  0.5963  2.0401
 3965SOL     OW23356   4.555   3.427   5.867  0.7964 -0.6512 -0.1933
 3965SOL    HW123357   4.574   3.496   5.931  1.0799  1.1207 -2.1401
 3965SOL    HW223358   4.603   3.461   5.791  1.3219 -1.8855 -0.4129
 3966SOL     OW23359   1.366   2.613   2.912 -0.4988 -0.7634  0.2178
 3966SOL    HW123360   1.380   2.541   2.851 -2.6508  0.2286 -1.4211
 3966SOL    HW223361   1.316   2.667   2.851 -1.6352 -0.6749  1.2403
 3967SOL     OW23362   0.710   3.447  11.704 -0.3511 -0.3178  0.1876
 3967SOL    HW123363   0.788   3.439  11.649  0.8448 -0.3681  1.8914
 3967SOL    HW223364   0.743   3.411  11.787  1.2246 -1.4330 -0.9189
 3968SOL     OW23365   1.950   2.157  16.104 -0.6958 -0.2056  0.1776
 3968SOL    HW123366   1.879   2.138  16.042 -2.4285 -2.2085  2.7374
 3968SOL    HW223367   1.911   2.206  16.177  2.0354  1.2178  0.6625
 3969SOL     OW23368   3.417   4.483   0.484  0.9790 -0.1307  0.0645
 3969SOL    HW123369   3.359   4.421   0.440  1.9204 -0.4394 -0.7552
 3969SOL    HW223370   3.361   4.516   0.555  0.5246  0.3072 -0.4947
 3970SOL     OW23371   0.417   0.074   9.232 -0.2979 -0.4202  0.1102
 3970SOL    HW123372   0.483   0.018   9.273  0.6242 -0.2858 -1.1960
 3970SOL    HW223373   0.344   0.013   9.243 -0.5675 -0.5683 -2.5124
 3971SOL     OW23374   4.135   3.610   4.469 -0.2499  0.0805  0.0859
 3971SOL    HW123375   4.044   3.615   4.442 -0.0022 -1.6202 -1.1143
 3971SOL    HW223376   4.184   3.642   4.393 -1.4894  1.6813 -0.0339
 3972SOL     OW23377   1.066   0.063   3.468  0.1789  0.5398 -0.7916
 3972SOL    HW123378   1.110   0.121   3.529 -0.9285 -0.2623  0.7756
 3972SOL    HW223379   1.035   0.129   3.405 -2.1215  1.0465  0.8803
 3973SOL     OW23380   1.444   4.465   7.929  0.0323  0.3211  0.1055
 3973SOL    HW123381   1.523   4.430   7.889 -0.5630 -2.8563  1.6815
 3973SOL    HW223382   1.470   4.443   8.018  2.8985 -0.7043 -0.9932
 3974SOL     OW23383   1.773   3.338  14.231  0.6028 -0.4382 -0.6552
 3974SOL    HW123384   1.855   3.365  14.188  1.1902 -1.0899  0.0634
 3974SOL    HW223385   1.753   3.398  14.302 -0.3155  0.0775 -1.3519
 3975SOL     OW23386   3.879   3.904   8.266  0.0714  0.6500  0.2201
 3975SOL    HW123387   3.812   3.966   8.237  0.8616  1.6175  0.4577
 3975SOL    HW223388   3.909   3.866   8.183 -0.4072 -2.4604  1.4532
 3976SOL     OW23389   0.822   1.250   4.159 -0.5793 -0.3439  0.4809
 3976SOL    HW123390   0.744   1.291   4.196  1.1571 -0.3603  4.1519
 3976SOL    HW223391   0.856   1.329   4.116 -0.0975 -1.1052 -0.5207
 3977SOL     OW23392   3.883   3.950   6.222 -0.1568 -0.3231 -0.5178
 3977SOL    HW123393   3.929   3.880   6.177 -0.1836 -0.0314 -0.9929
 3977SOL    HW223394   3.795   3.919   6.245 -0.4123 -0.0826 -1.1666
 3978SOL     OW23395   0.149   3.294   1.410 -0.0755  0.2155 -0.1689
 3978SOL    HW123396   0.055   3.298   1.426 -0.2128 -1.8097 -0.4854
 3978SOL    HW223397   0.173   3.334   1.493 -1.0392 -0.8044  0.5970
 3979SOL     OW23398   3.326   1.810   7.188  0.3174  0.6952 -0.7170
 3979SOL    HW123399   3.326   1.761   7.106  0.9037  0.8328 -0.8006
 3979SOL    HW223400   3.418   1.813   7.216 -0.4669  0.7607  1.8789
 3980SOL     OW23401   2.140   1.502   9.066  0.6247  0.2408  0.0301
 3980SOL    HW123402   2.079   1.433   9.043  0.5422 -1.0329  4.0440
 3980SOL    HW223403   2.138   1.507   9.162 -0.4548 -1.7468  0.0964
 3981SOL     OW23404   4.613   2.619  17.092 -0.4461  0.0001 -0.2084
 3981SOL    HW123405   4.604   2.710  17.067  1.7720  0.9194  2.3503
 3981SOL    HW223406   4.528   2.608  17.135  0.1384  0.8817  1.1794
 3982SOL     OW23407   0.289   1.825   1.185 -0.3098  0.0038  0.3284
 3982SOL    HW123408   0.231   1.759   1.148 -1.8371 -0.6356  3.9061
 3982SOL    HW223409   0.253   1.898   1.134  1.9040  1.2558  0.5497
 3983SOL     OW23410   3.166   1.539  10.114 -0.7360 -0.3843  0.4102
 3983SOL    HW123411   3.232   1.470  10.108  0.6057  0.8767  0.7273
 3983SOL    HW223412   3.099   1.503  10.173 -0.1602 -0.7994  0.8106
 3984SOL     OW23413   3.233   0.051   5.270 -0.3492  0.3157 -0.1824
 3984SOL    HW123414   3.176   0.032   5.196  0.2574  0.2122 -0.6234
 3984SOL    HW223415   3.185   4.723   5.335  2.5410 -1.1362  0.8132
 3985SOL     OW23416   1.796   1.873   1.615 -0.3464 -0.1176  0.8651
 3985SOL    HW123417   1.729   1.898   1.552  0.5557  0.1584  0.0265
 3985SOL    HW223418   1.837   1.808   1.558  2.2312  1.2737  1.1387
 3986SOL     OW23419   1.293   0.567  14.085  0.8042  0.2565  0.3145
 3986SOL    HW123420   1.213   0.566  14.033 -0.8753 -0.2778  2.9253
 3986SOL    HW223421   1.358   0.520  14.032  0.5507 -0.2262  0.4282
 3987SOL     OW23422   3.469   2.702   5.317  0.5760 -0.2112 -0.3734
 3987SOL    HW123423   3.479   2.658   5.401  1.4737  1.5381  0.4247
 3987SOL    HW223424   3.555   2.694   5.275  1.9358  0.4953  2.2890
 3988SOL     OW23425   1.410   1.905   8.945 -0.0442 -0.4688 -0.6522
 3988SOL    HW123426   1.361   1.929   9.024  1.7293  0.6518  0.1016
 3988SOL    HW223427   1.431   1.990   8.907 -0.7571  0.4503  1.0250
 3989SOL     OW23428   2.327   1.788   2.086  0.4015  0.8104  0.0085
 3989SOL    HW123429   2.355   1.834   2.007  0.5778 -0.0412 -0.4254
 3989SOL    HW223430   2.406   1.788   2.140  0.0761 -0.0606  0.4971
 3990SOL     OW23431   0.033   0.210   1.975  0.3934 -0.2816 -0.3702
 3990SOL    HW123432   0.047   0.182   1.884  0.2117 -1.3137 -0.0745
 3990SOL    HW223433   0.003   0.127   2.012  3.4930 -1.9488 -1.5637
 3991SOL     OW23434   4.430   1.319   9.013 -0.1713 -0.0444  0.8209
 3991SOL    HW123435   4.503   1.340   8.955 -1.5216  0.9699 -0.5026
 3991SOL    HW223436   4.466   1.257   9.076  0.2462 -1.9629 -1.3116
 3992SOL     OW23437   1.199   1.164   3.156 -0.1293 -0.0187  0.1088
 3992SOL    HW123438   1.281   1.123   3.186 -0.4537  0.7894  2.0920
 3992SOL    HW223439   1.142   1.090   3.178 -1.1416 -0.3166 -3.5848
 3993SOL     OW23440   1.270   1.888   2.746  0.6882  0.5616  0.2615
 3993SOL    HW123441   1.198   1.918   2.801  0.0451 -0.2895 -0.1171
 3993SOL    HW223442   1.264   1.934   2.663 -0.8339  0.0192  0.0800
 3994SOL     OW23443   0.781   2.671   1.733  0.0077  0.1757  0.2311
 3994SOL    HW123444   0.786   2.678   1.638  2.1399 -0.1332  0.3209
 3994SOL    HW223445   0.767   2.761   1.763 -1.7433 -0.4890  1.4073
 3995SOL     OW23446   2.319   2.954   8.061 -0.4914  0.1444  0.3985
 3995SOL    HW123447   2.278   2.869   8.079  1.0565 -0.4502  1.1619
 3995SOL    HW223448   2.405   2.926   8.029  0.4070 -0.3871  3.2363
 3996SOL     OW23449   4.239   2.979   5.733  0.3179 -0.1212 -0.0539
 3996SOL    HW123450   4.214   2.909   5.674 -1.4646  0.9434 -0.5614
 3996SOL    HW223451   4.278   3.038   5.669  0.5379  0.0982  0.2832
 3997SOL     OW23452   1.831   2.514   5.467  0.7434 -0.1401 -0.0076
 3997SOL    HW123453   1.837   2.444   5.531 -1.6143  1.4824  1.9876
 3997SOL    HW223454   1.772   2.476   5.401  0.4506  0.1602  0.0815
 3998SOL     OW23455   1.044   2.602   3.291  0.0886 -0.3629 -0.3572
 3998SOL    HW123456   1.029   2.527   3.349 -0.0386  0.6970  0.9950
 3998SOL    HW223457   1.067   2.558   3.209  0.4992  0.7205 -0.8233
 3999SOL     OW23458   3.969   3.284   5.663  0.1786 -0.2965 -0.8353
 3999SOL    HW123459   3.964   3.223   5.589 -0.9282 -1.2755  0.0481
 3999SOL    HW223460   3.877   3.292   5.686  0.0451 -1.7479 -0.8745
 4000SOL     OW23461   3.720   3.306   8.914  0.1670 -0.2972  0.4764
 4000SOL    HW123462   3.789   3.371   8.931  0.5061 -1.1916  2.5349
 4000SOL    HW223463   3.684   3.333   8.830  1.8860 -2.1474 -0.8754
 4001SOL     OW23464   4.230   1.050  15.347 -0.0735  0.2724  0.4339
 4001SOL    HW123465   4.239   1.124  15.407 -0.5994  0.3248  0.4494
 4001SOL    HW223466   4.318   1.017  15.366 -0.2345  1.3895  3.0338
 4002SOL     OW23467   0.670   2.574   7.500 -0.5230  0.1719 -0.2377
 4002SOL    HW123468   0.585   2.559   7.458 -1.5125  0.2249  1.7667
 4002SOL    HW223469   0.712   2.633   7.438 -1.0604  1.3852  0.5686
 4003SOL     OW23470   1.262   0.601  14.363 -0.2458 -0.3991 -0.0115
 4003SOL    HW123471   1.306   0.684  14.377 -0.0640 -0.5529  0.3469
 4003SOL    HW223472   1.266   0.571  14.272 -0.1785 -0.1271 -0.0950
 4004SOL     OW23473   0.198   3.181   8.863  0.1167  0.1867 -0.0258
 4004SOL    HW123474   0.282   3.202   8.822  1.3459 -1.9549  1.3989
 4004SOL    HW223475   0.159   3.108   8.813  1.1035 -0.7857  0.6201
 4005SOL     OW23476   2.248   1.180   2.865  0.1434  0.6986 -0.4395
 4005SOL    HW123477   2.329   1.222   2.836  0.8103 -0.2192  0.0880
 4005SOL    HW223478   2.198   1.258   2.890 -0.8989 -0.5754  1.4193
 4006SOL     OW23479   0.534   0.325   2.577 -0.7140  0.1481 -0.1848
 4006SOL    HW123480   0.576   0.375   2.647 -2.3316  0.8962  0.2568
 4006SOL    HW223481   0.510   0.248   2.629  1.2774 -1.6189 -1.8764
 4007SOL     OW23482   3.844   4.329   3.995 -0.1673  0.1105  0.0634
 4007SOL    HW123483   3.847   4.335   3.899  4.5432  0.2255  0.2159
 4007SOL    HW223484   3.907   4.395   4.025 -0.8332  0.4280  0.7444
 4008SOL     OW23485   1.152   0.112  10.323  0.0833  0.7863  0.0343
 4008SOL    HW123486   1.231   0.122  10.376 -0.3453  1.3579  0.5617
 4008SOL    HW223487   1.084   0.114  10.390 -2.5103  3.6725 -2.7103
 4009SOL     OW23488   3.372   3.098   3.632 -0.0756  0.3668  0.0087
 4009SOL    HW123489   3.407   3.172   3.681 -1.0415  1.5829 -1.1515
 4009SOL    HW223490   3.390   3.132   3.545  3.1968  0.3683  0.6808
 4010SOL     OW23491   4.494   0.940  14.978 -0.0403 -0.0351 -0.6652
 4010SOL    HW123492   4.419   0.893  14.941 -1.2052  1.2921  0.0089
 4010SOL    HW223493   4.450   1.023  15.000 -0.0884 -0.4617  0.8148
 4011SOL     OW23494   0.763   4.025   4.737  0.3018 -0.1173 -0.2105
 4011SOL    HW123495   0.776   4.039   4.831  0.8244 -1.4883 -0.0688
 4011SOL    HW223496   0.676   4.065   4.735  0.9037  1.2069  0.1520
 4012SOL     OW23497   3.521   2.091   2.259 -0.2133 -0.1015  0.1133
 4012SOL    HW123498   3.457   2.031   2.298  0.2365 -0.1033  0.8414
 4012SOL    HW223499   3.478   2.176   2.250  0.3336  0.3592  1.9050
 4013SOL     OW23500   1.979   0.861  17.331 -0.3010 -0.1996  0.2381
 4013SOL    HW123501   1.988   0.888  17.422 -1.8800 -0.0125  0.3316
 4013SOL    HW223502   2.058   0.808  17.318  1.3445  2.6430 -1.6456
 4014SOL     OW23503   2.139   0.870   7.914  0.0159 -0.0166 -0.1387
 4014SOL    HW123504   2.046   0.868   7.893  0.4927 -2.7158 -2.0396
 4014SOL    HW223505   2.131   0.909   8.001 -1.9060  0.4482 -0.5288
 4015SOL     OW23506   3.935   2.499   5.763  0.0574 -0.1065  0.4881
 4015SOL    HW123507   3.963   2.407   5.762 -2.6317 -0.9235 -0.2306
 4015SOL    HW223508   3.839   2.495   5.757  0.1486  1.0676 -1.8302
 4016SOL     OW23509   4.079   4.509   3.911 -0.3134 -0.0863 -0.1875
 4016SOL    HW123510   4.075   4.535   3.819 -2.1606 -1.4125 -0.4887
 4016SOL    HW223511   4.170   4.481   3.922 -1.3179 -2.7675  1.1903
 4017SOL     OW23512   4.676   2.922   5.057 -0.4872 -0.3879  0.1595
 4017SOL    HW123513   4.684   2.998   5.115  1.3651 -0.3722 -0.1089
 4017SOL    HW223514   0.048   2.910   5.054 -0.7184 -1.7326 -1.6186
 4018SOL     OW23515   4.451   2.560   9.498  0.5968  0.1457  0.2756
 4018SOL    HW123516   4.422   2.510   9.574 -2.0462 -0.0844 -0.9069
 4018SOL    HW223517   4.541   2.576   9.528  0.5876 -2.1569  1.5703
 4019SOL     OW23518   2.913   2.345   9.883 -0.2268  0.3571 -0.5677
 4019SOL    HW123519   2.834   2.391   9.856 -2.0746 -2.3778  0.2106
 4019SOL    HW223520   2.977   2.414   9.902  2.2856 -2.2635  0.3869
 4020SOL     OW23521   0.736   1.682   2.717 -0.0241  0.2091  0.1460
 4020SOL    HW123522   0.784   1.632   2.651 -1.4215 -4.0011  2.2887
 4020SOL    HW223523   0.792   1.697   2.794 -0.6089  1.2754  0.3633
 4021SOL     OW23524   3.593   3.767   5.116  0.0974  0.2944 -0.0239
 4021SOL    HW123525   3.504   3.802   5.105 -0.8928 -2.1186  0.1110
 4021SOL    HW223526   3.568   3.680   5.084 -0.3152  0.5979 -0.5478
 4022SOL     OW23527   0.767   1.591  17.232  0.7724  0.2698 -0.2658
 4022SOL    HW123528   0.773   1.543  17.149  0.9079 -1.4337  0.7307
 4022SOL    HW223529   0.850   1.557  17.267  0.0060 -0.7841  0.5203
 4023SOL     OW23530   4.068   0.545   3.895 -0.1461  0.2081  0.0783
 4023SOL    HW123531   4.055   0.638   3.913  1.9916  1.5215 -5.1739
 4023SOL    HW223532   3.987   0.500   3.921  0.6606 -1.0867  0.3321
 4024SOL     OW23533   2.914   2.803   2.253 -0.0010 -0.4097 -0.1140
 4024SOL    HW123534   2.856   2.866   2.296  0.6903 -1.7197  2.7063
 4024SOL    HW223535   2.873   2.791   2.167  2.2418 -1.0285 -1.0988
 4025SOL     OW23536   3.362   2.980   3.229  0.1994 -0.4276 -0.3461
 4025SOL    HW123537   3.369   2.920   3.302  1.1346 -0.4177 -0.4322
 4025SOL    HW223538   3.423   3.051   3.249  0.6135 -0.2203 -2.3500
 4026SOL     OW23539   2.019   2.799   4.271 -0.1559 -0.2141 -0.2384
 4026SOL    HW123540   2.055   2.886   4.291  0.1025 -0.7234  1.4863
 4026SOL    HW223541   2.059   2.772   4.188  2.1451 -1.8040  1.3753
 4027SOL     OW23542   0.177   2.881   3.448  0.0759 -0.0809 -0.1939
 4027SOL    HW123543   0.236   2.841   3.511 -1.6364  0.3497  1.7047
 4027SOL    HW223544   0.102   2.902   3.504  0.3780  0.2205  0.0956
 4028SOL     OW23545   4.262   3.713  10.122  0.2190 -0.1809  0.0379
 4028SOL    HW123546   4.298   3.710  10.211  2.2424 -0.0131 -0.7539
 4028SOL    HW223547   4.171   3.735  10.139 -0.4623 -0.8528 -2.6630
 4029SOL     OW23548   0.609   4.142   7.964 -0.2899 -1.0222  0.1917
 4029SOL    HW123549   0.552   4.168   8.037  0.0195  0.2131 -0.0037
 4029SOL    HW223550   0.581   4.210   7.903  1.3767  0.2533  0.8350
 4030SOL     OW23551   1.069   0.738   2.779 -0.5865  0.6483 -0.1228
 4030SOL    HW123552   0.980   0.741   2.815 -0.7261  1.9108 -0.5519
 4030SOL    HW223553   1.060   0.685   2.700  0.2859 -0.6188  0.6320
 4031SOL     OW23554   0.152   4.124   4.838 -0.0152  0.4565 -0.4957
 4031SOL    HW123555   0.145   4.218   4.858  0.4918  0.8341 -2.1410
 4031SOL    HW223556   0.059   4.112   4.820  0.8130 -1.8442 -3.1646
 4032SOL     OW23557   3.335   3.976   0.570 -0.3168  0.2506  0.4254
 4032SOL    HW123558   3.399   3.960   0.640 -0.6995 -0.4617  0.6107
 4032SOL    HW223559   3.267   4.034   0.606 -1.1274 -0.5349  0.1670
 4033SOL     OW23560   1.206   2.765   7.056 -0.7993  0.0113  0.6411
 4033SOL    HW123561   1.265   2.787   7.127 -2.8351 -1.8054  2.9056
 4033SOL    HW223562   1.120   2.770   7.098 -0.4103 -1.1507  1.5646
 4034SOL     OW23563   0.715   2.604   9.335 -0.4581 -0.2692  0.2122
 4034SOL    HW123564   0.781   2.549   9.376 -0.9434 -0.7718  0.3137
 4034SOL    HW223565   0.768   2.627   9.258  0.4240 -3.0861 -0.0108
 4035SOL     OW23566   0.765   4.232   9.095 -0.1057  0.0701 -0.8103
 4035SOL    HW123567   0.737   4.164   9.156 -0.3023  0.4335 -0.4956
 4035SOL    HW223568   0.695   4.225   9.029  0.5077  0.6179 -1.5200
 4036SOL     OW23569   0.534   2.596   5.892  0.1873 -0.4456  0.2706
 4036SOL    HW123570   0.516   2.657   5.820 -1.8257 -0.1373  1.0195
 4036SOL    HW223571   0.546   2.659   5.963 -0.7005  0.6526 -0.5321
 4037SOL     OW23572   3.019   3.890   5.621  0.8138  0.0987 -0.2597
 4037SOL    HW123573   3.039   3.801   5.591  1.1335  0.2599 -0.5275
 4037SOL    HW223574   2.981   3.933   5.544  0.2139 -0.8797 -0.5053
 4038SOL     OW23575   3.109   2.678   8.202 -0.5159  0.1383 -0.7125
 4038SOL    HW123576   3.153   2.745   8.149 -0.5746  1.5776  1.0603
 4038SOL    HW223577   3.033   2.725   8.236 -1.7667 -2.1568 -0.3716
 4039SOL     OW23578   3.432   3.735   1.812  0.0887  0.2528 -0.4697
 4039SOL    HW123579   3.461   3.728   1.902  2.1345  0.2928 -1.1212
 4039SOL    HW223580   3.338   3.753   1.818 -0.0803 -0.0331 -2.0789
 4040SOL     OW23581   0.360   2.884  14.480  0.0917 -0.6394  0.0491
 4040SOL    HW123582   0.424   2.824  14.442 -0.0751 -1.3549  0.9271
 4040SOL    HW223583   0.351   2.946  14.407 -2.1037 -2.4195 -1.2090
 4041SOL     OW23584   2.334   3.254   1.533  0.0940 -0.4211  0.3094
 4041SOL    HW123585   2.332   3.267   1.438 -1.3873 -0.2891  0.3570
 4041SOL    HW223586   2.419   3.211   1.541  0.4803 -0.3932 -3.4795
 4042SOL     OW23587   3.613   3.182   2.566 -0.2168 -0.0656  0.1012
 4042SOL    HW123588   3.642   3.260   2.613 -0.5363 -0.4392  0.9319
 4042SOL    HW223589   3.699   3.161   2.529 -0.0152  3.4449 -1.3492
 4043SOL     OW23590   2.128   3.822   7.294  0.0928 -0.0785  0.3492
 4043SOL    HW123591   2.136   3.727   7.294 -3.7315 -0.4080 -1.1478
 4043SOL    HW223592   2.046   3.832   7.343  0.4345  0.4177  0.8087
 4044SOL     OW23593   2.053   3.416   5.662  0.2052  0.4496  0.0005
 4044SOL    HW123594   2.088   3.471   5.592 -2.6123  1.5304 -0.5405
 4044SOL    HW223595   1.972   3.377   5.628  1.8769 -1.9706 -1.2506
 4045SOL     OW23596   4.484   4.545  14.181  0.3284 -0.3096 -0.0218
 4045SOL    HW123597   4.426   4.618  14.163 -1.7780 -1.7765  0.8361
 4045SOL    HW223598   4.481   4.503  14.095 -3.0514 -2.4358  1.1299
 4046SOL     OW23599   0.955   3.183   4.656  0.6674  0.5466 -0.0627
 4046SOL    HW123600   0.973   3.207   4.747 -3.2123  0.6388  0.6893
 4046SOL    HW223601   0.862   3.205   4.657  0.5276 -0.0429 -0.1860
 4047SOL     OW23602   2.246   2.188   7.251 -0.2491 -0.4930  0.2356
 4047SOL    HW123603   2.265   2.267   7.303 -2.0980  0.6272 -0.7882
 4047SOL    HW223604   2.216   2.222   7.167 -2.2737  0.9323  1.5232
 4048SOL     OW23605   1.309   4.139   4.541  0.2224  0.2821  0.9032
 4048SOL    HW123606   1.316   4.204   4.611 -0.4815  0.3268  0.9372
 4048SOL    HW223607   1.218   4.152   4.514  0.1380  0.3316  1.2057
 4049SOL     OW23608   0.897   3.972  10.466  0.0530  0.2057  0.3428
 4049SOL    HW123609   0.929   4.030  10.535 -2.8137  0.7393  1.2282
 4049SOL    HW223610   0.950   4.007  10.395  0.5277 -0.4997  0.3532
 4050SOL     OW23611   2.565   3.069  14.943  0.5985 -0.4639 -0.4214
 4050SOL    HW123612   2.487   3.014  14.943  0.0686  0.2933  0.5561
 4050SOL    HW223613   2.630   3.007  14.911 -0.2357 -1.8736  0.6385
 4051SOL     OW23614   1.774   1.216   9.242  0.2458  0.4639 -0.2348
 4051SOL    HW123615   1.708   1.280   9.269  0.9257  0.7550  0.7699
 4051SOL    HW223616   1.767   1.223   9.147 -0.2807  0.5278 -0.1907
 4052SOL     OW23617   2.112   0.873   4.495  0.0440  0.3374 -0.2424
 4052SOL    HW123618   2.172   0.948   4.491  1.4667 -0.8936 -1.7550
 4052SOL    HW223619   2.170   0.797   4.500  0.6972  0.9767  1.9113
 4053SOL     OW23620   3.842   4.325   0.692 -0.2084  0.1328  0.1221
 4053SOL    HW123621   3.825   4.231   0.694  1.0648 -0.0659  1.8184
 4053SOL    HW223622   3.898   4.344   0.767  0.2768 -2.3179  0.3764
 4054SOL     OW23623   1.461   2.538   6.383 -0.3546 -0.2474  0.2401
 4054SOL    HW123624   1.369   2.511   6.384  0.2235 -2.3019 -0.2990
 4054SOL    HW223625   1.452   2.633   6.376 -1.7288 -0.4358 -0.6807
 4055SOL     OW23626   1.141   4.702   6.488  0.0191 -0.3113 -0.2118
 4055SOL    HW123627   1.068   4.651   6.454 -1.8964  2.1798  0.1910
 4055SOL    HW223628   1.218   4.652   6.459 -0.2142 -0.8713  0.1370
 4056SOL     OW23629   0.196   1.024   9.378  0.4170 -1.0640 -0.0420
 4056SOL    HW123630   0.103   1.003   9.365 -0.1428  1.0952  0.5298
 4056SOL    HW223631   0.182   1.089   9.447  0.6131  1.7177 -2.6062
 4057SOL     OW23632   2.689   0.170   1.609  0.5559 -0.4932  0.6969
 4057SOL    HW123633   2.721   0.260   1.602 -1.2483  0.1510  0.7486
 4057SOL    HW223634   2.770   0.126   1.583  0.8103  0.3894 -0.0042
 4058SOL     OW23635   4.347   3.746  11.732 -0.2461  0.2210  0.0125
 4058SOL    HW123636   4.284   3.812  11.759  0.0662  0.4714  0.1223
 4058SOL    HW223637   4.374   3.773  11.644  0.7544 -0.3901  0.1229
 4059SOL     OW23638   2.861   1.360   3.010 -0.0858 -0.2865  0.7508
 4059SOL    HW123639   2.779   1.317   3.034 -0.4453 -0.9891 -1.7697
 4059SOL    HW223640   2.828   1.403   2.931 -0.5710  2.9717  2.7209
 4060SOL     OW23641   3.819   3.362   9.947  0.7928  0.5933  0.3904
 4060SOL    HW123642   3.806   3.299  10.017 -0.7299 -0.8060 -1.1524
 4060SOL    HW223643   3.908   3.393   9.966  0.6589  0.9755  0.3971
 4061SOL     OW23644   2.464   2.762   7.726  0.6131  0.1369 -0.6653
 4061SOL    HW123645   2.388   2.819   7.716 -0.2809 -1.0540 -0.6328
 4061SOL    HW223646   2.529   2.798   7.787 -1.1264 -0.3403  1.4948
 4062SOL     OW23647   1.876   1.125  14.207 -0.0030 -0.4528 -0.2005
 4062SOL    HW123648   1.968   1.151  14.209 -0.2078  0.2498  0.2443
 4062SOL    HW223649   1.859   1.097  14.297 -1.0535  0.3168 -0.1661
 4063SOL     OW23650   4.355   4.647  17.439  0.1130 -0.7431 -0.2568
 4063SOL    HW123651   4.328   4.556  17.426 -0.3777 -0.8619  1.6530
 4063SOL    HW223652   4.408   4.637  17.517 -0.0047  0.3930 -0.0224
 4064SOL     OW23653   0.446   4.115  13.240  0.4592 -0.4610 -0.4575
 4064SOL    HW123654   0.365   4.105  13.190 -0.0747 -1.4459  0.5917
 4064SOL    HW223655   0.409   4.153  13.320 -0.1119 -0.3011 -0.7980
 4065SOL     OW23656   0.049   1.378   0.972 -0.5914 -0.1271  0.6012
 4065SOL    HW123657   0.057   1.343   0.883 -0.8181  1.0868  0.1039
 4065SOL    HW223658   0.043   1.293   1.016  0.1316  1.2774  3.3572
 4066SOL     OW23659   0.598   2.093   7.430  0.1822 -0.1239 -0.0775
 4066SOL    HW123660   0.576   2.073   7.521 -1.5459 -3.4818 -1.2036
 4066SOL    HW223661   0.641   2.012   7.402 -1.9273 -1.1250 -0.4495
 4067SOL     OW23662   3.265   0.595   2.132  0.2345  1.4223 -0.0617
 4067SOL    HW123663   3.246   0.687   2.114 -0.9384  0.6837 -2.5995
 4067SOL    HW223664   3.172   0.573   2.136  0.1579  1.5275 -1.3997
 4068SOL     OW23665   0.591   1.632   3.543  0.0458 -0.3379 -0.7313
 4068SOL    HW123666   0.564   1.636   3.634  2.8121 -0.6865  0.1057
 4068SOL    HW223667   0.515   1.672   3.500 -0.0584 -1.2051 -1.3617
 4069SOL     OW23668   2.805   4.528   6.128  0.3298  0.2010 -0.0548
 4069SOL    HW123669   2.768   4.604   6.085  1.7776  0.8650 -0.1289
 4069SOL    HW223670   2.770   4.534   6.217  0.6370  0.7322  0.0286
 4070SOL     OW23671   0.372   1.757   2.127  0.0408 -0.0017 -0.3405
 4070SOL    HW123672   0.415   1.704   2.193 -0.7714 -0.6801 -0.3578
 4070SOL    HW223673   0.312   1.814   2.175 -0.5997 -1.4620  0.5751
 4071SOL     OW23674   2.884   2.639   3.012 -0.5364  0.2012 -0.0426
 4071SOL    HW123675   2.907   2.725   2.978  1.5014 -0.7805 -1.1453
 4071SOL    HW223676   2.966   2.595   2.990  0.2794  0.5515  2.3209
 4072SOL     OW23677   1.421   3.469   5.958  0.5721 -0.1927 -0.0558
 4072SOL    HW123678   1.361   3.456   5.884 -0.6738 -0.4877  0.9941
 4072SOL    HW223679   1.460   3.554   5.941 -0.6898  0.9900  2.9977
 4073SOL     OW23680   4.270   1.017   6.984  0.1841  0.1686  0.2093
 4073SOL    HW123681   4.218   1.062   6.917 -3.3030 -2.4811  1.1089
 4073SOL    HW223682   4.358   1.044   6.960 -0.0864 -0.4926 -1.5577
 4074SOL     OW23683   1.605   1.090   5.546  0.1074 -0.0860 -0.5864
 4074SOL    HW123684   1.590   1.004   5.507 -0.7788 -1.1590  2.1598
 4074SOL    HW223685   1.699   1.101   5.530  0.8515 -1.7597  2.7164
 4075SOL     OW23686   2.849   2.074  11.831  0.0007  0.2963 -0.2034
 4075SOL    HW123687   2.843   2.140  11.761  3.5922  0.0617 -0.7387
 4075SOL    HW223688   2.757   2.059  11.853  0.0795  0.3816  0.1763
 4076SOL     OW23689   1.677   0.773   8.791  0.6085 -0.1683  0.5862
 4076SOL    HW123690   1.614   0.768   8.720  0.4198 -0.8547  0.8067
 4076SOL    HW223691   1.707   0.861   8.767  0.4295 -0.0538  0.7817
 4077SOL     OW23692   2.828   3.389   4.913  0.2569  0.1921 -0.3569
 4077SOL    HW123693   2.861   3.322   4.972 -1.4888  1.0205  1.5446
 4077SOL    HW223694   2.862   3.469   4.952 -3.4794  1.0732  1.1294
 4078SOL     OW23695   1.138   1.185   8.960 -0.0464  0.0021  0.0882
 4078SOL    HW123696   1.225   1.147   8.950 -0.8885 -1.8719  0.0376
 4078SOL    HW223697   1.149   1.247   9.032 -0.2729  1.0256 -0.7405
 4079SOL     OW23698   3.489   0.403  14.097 -0.2836  0.6244  0.3723
 4079SOL    HW123699   3.566   0.423  14.044  0.0955  0.3232  0.8067
 4079SOL    HW223700   3.410   0.429  14.049 -0.8723 -1.4505  0.2303
 4080SOL     OW23701   3.820   2.153   0.902 -0.2373  0.6439 -0.1734
 4080SOL    HW123702   3.791   2.071   0.942  0.1016  1.7885  2.4177
 4080SOL    HW223703   3.756   2.212   0.940 -1.7441 -0.6030 -0.8075
 4081SOL     OW23704   3.417   2.992   1.732 -0.2515  0.6397 -0.0516
 4081SOL    HW123705   3.352   3.014   1.665 -0.7993  0.9149  0.5709
 4081SOL    HW223706   3.416   3.065   1.793  0.8303 -0.3835  1.1954
 4082SOL     OW23707   3.017   3.053  10.106  0.2100  0.1760 -0.6911
 4082SOL    HW123708   3.066   2.975  10.079 -0.4521 -0.0254 -1.2935
 4082SOL    HW223709   2.956   3.019  10.171 -1.1708  0.9558 -1.5848
 4083SOL     OW23710   3.419   4.626  17.513  0.0471  0.4359 -0.3841
 4083SOL    HW123711   3.361   4.701  17.524  1.2245  1.4131 -0.9198
 4083SOL    HW223712   3.372   4.576  17.446 -1.6367  0.6761  0.5972
 4084SOL     OW23713   4.094   1.801   3.909 -0.2409 -0.4020  0.3176
 4084SOL    HW123714   4.014   1.792   3.960 -0.7561 -1.0675 -0.6021
 4084SOL    HW223715   4.166   1.800   3.972 -1.2446 -1.8605  1.4294
 4085SOL     OW23716   0.205   1.169   3.623 -0.3043 -0.3466 -0.4028
 4085SOL    HW123717   0.261   1.092   3.609  0.5436  0.3788 -0.9278
 4085SOL    HW223718   0.118   1.131   3.634  0.3685 -1.5253  0.9548
 4086SOL     OW23719   4.033   2.635   3.664  0.1311 -0.5305 -0.4197
 4086SOL    HW123720   3.939   2.654   3.662  0.8665  2.9964 -1.4320
 4086SOL    HW223721   4.039   2.544   3.693 -3.6065 -0.3930  0.7564
 4087SOL     OW23722   1.328   0.932   6.465  0.0060 -0.3274  0.2493
 4087SOL    HW123723   1.413   0.927   6.508  0.4962 -0.1198 -0.7090
 4087SOL    HW223724   1.337   1.016   6.420 -2.1346 -0.8422 -1.1799
 4088SOL     OW23725   1.297   2.439   5.420 -0.1378 -0.7444 -0.4450
 4088SOL    HW123726   1.247   2.451   5.339 -2.7191 -0.1423  1.2541
 4088SOL    HW223727   1.341   2.357   5.398  1.8288  0.6190 -1.5761
 4089SOL     OW23728   4.027   0.167   6.446  0.0594  0.3086 -0.7479
 4089SOL    HW123729   3.953   0.172   6.386 -1.6410 -0.0127  1.3517
 4089SOL    HW223730   3.985   0.156   6.531  2.0557 -2.0349 -0.0701
 4090SOL     OW23731   2.624   2.854   9.222  0.1485  0.2951 -0.2350
 4090SOL    HW123732   2.709   2.899   9.221 -0.7377  1.9616 -1.0950
 4090SOL    HW223733   2.560   2.913   9.262  0.4674  0.1128  0.5384
 4091SOL     OW23734   1.047   2.062   8.009 -0.5781  0.0738 -0.3348
 4091SOL    HW123735   1.112   2.132   8.013 -1.0479  0.6451 -2.7506
 4091SOL    HW223736   1.113   1.992   8.004  1.3792  1.7996  1.1786
 4092SOL     OW23737   4.208   0.395  15.304  0.0354 -0.2421  0.3974
 4092SOL    HW123738   4.208   0.489  15.323  3.3903  0.1147 -1.1586
 4092SOL    HW223739   4.251   0.354  15.379  2.4048  0.3322 -0.6406
 4093SOL     OW23740   1.748   4.305  13.557 -0.2934 -0.5537 -0.4057
 4093SOL    HW123741   1.753   4.218  13.518 -2.0534 -0.5209 -0.7008
 4093SOL    HW223742   1.784   4.364  13.490  0.6291 -0.6514  0.0046
 4094SOL     OW23743   0.665   0.251  13.149 -0.6006 -0.9046 -0.0898
 4094SOL    HW123744   0.676   0.331  13.098  1.1499 -0.9654  0.1992
 4094SOL    HW223745   0.586   0.213  13.110 -0.0787 -3.7960  1.6765
 4095SOL     OW23746   1.370   3.028   6.759  0.2902  0.0530 -0.8844
 4095SOL    HW123747   1.378   3.047   6.666 -2.0258  0.4261 -0.9948
 4095SOL    HW223748   1.445   2.974   6.784 -1.0090 -0.9967  0.7106
 4096SOL     OW23749   4.075   0.604   5.200  0.3534  0.2209 -0.3018
 4096SOL    HW123750   4.001   0.552   5.170 -0.1026  1.0458 -0.5887
 4096SOL    HW223751   4.036   0.691   5.194  0.8212  0.4859  0.4923
 4097SOL     OW23752   0.501   2.283   3.338  0.4242  0.0593 -0.3809
 4097SOL    HW123753   0.472   2.314   3.252  0.1134 -0.2088 -0.3730
 4097SOL    HW223754   0.497   2.188   3.326 -0.1032 -0.1082  1.1339
 4098SOL     OW23755   3.174   3.262  15.597  0.9704  0.9732 -0.1967
 4098SOL    HW123756   3.255   3.232  15.639 -0.1328 -0.8288  0.6401
 4098SOL    HW223757   3.176   3.349  15.637  2.4557  0.9770 -0.2560
 4099SOL     OW23758   0.915   1.693   7.171  0.0764  0.3106 -0.1070
 4099SOL    HW123759   0.909   1.773   7.223 -0.9757 -0.0749  0.3761
 4099SOL    HW223760   1.000   1.657   7.197  0.2035 -0.7167 -1.9582
 4100SOL     OW23761   1.633   3.849  12.276 -0.3925  0.4537 -0.0178
 4100SOL    HW123762   1.543   3.859  12.246 -0.4768 -2.1857 -0.6346
 4100SOL    HW223763   1.649   3.943  12.286  2.8527 -0.1877  0.8553
 4101SOL     OW23764   4.385   1.355   5.239 -0.4270  0.0694 -0.6052
 4101SOL    HW123765   4.468   1.348   5.286 -0.4763  1.1254 -0.3463
 4101SOL    HW223766   4.345   1.432   5.281  1.5380  1.2315 -0.8764
 4102SOL     OW23767   0.603   0.701  13.777  0.4647 -0.4979 -0.1349
 4102SOL    HW123768   0.647   0.628  13.734  0.2777 -0.7470  0.0925
 4102SOL    HW223769   0.585   0.648  13.855  2.0877 -1.2684 -0.2844
 4103SOL     OW23770   2.473   1.517   8.588 -0.4596  0.6553 -0.2968
 4103SOL    HW123771   2.405   1.474   8.536 -2.7678  3.3180  0.4806
 4103SOL    HW223772   2.551   1.463   8.572  0.0694  1.6840 -1.2179
 4104SOL     OW23773   4.112   0.525   1.073  0.2094  0.7571 -0.7273
 4104SOL    HW123774   4.174   0.496   1.006 -0.6030  0.6597 -1.4443
 4104SOL    HW223775   4.033   0.529   1.018 -0.3818  0.6547  0.1168
 4105SOL     OW23776   1.811   1.449  14.244  1.0521 -0.4131  0.4173
 4105SOL    HW123777   1.877   1.411  14.302 -1.0494 -2.4018  1.4844
 4105SOL    HW223778   1.864   1.516  14.201  1.4151 -0.4689  0.7817
 4106SOL     OW23779   0.446   1.269  12.437 -0.1198 -0.1605  0.1692
 4106SOL    HW123780   0.502   1.244  12.511  2.4019 -1.0041 -2.0068
 4106SOL    HW223781   0.476   1.357  12.415  0.4550 -0.3061  0.3679
 4107SOL     OW23782   3.903   2.717  10.349  0.1721  0.2370 -0.6441
 4107SOL    HW123783   3.849   2.711  10.428  1.0056  2.1790  0.0575
 4107SOL    HW223784   3.983   2.678  10.384 -0.0058 -1.6397 -2.3340
 4108SOL     OW23785   0.708   3.249  11.304  0.7064  0.2619  0.1861
 4108SOL    HW123786   0.679   3.308  11.374 -0.3319 -0.4259  0.3531
 4108SOL    HW223787   0.799   3.228  11.325 -0.1989 -1.6449  2.3338
 4109SOL     OW23788   1.327   0.528   3.211 -0.2540 -0.1471  0.1821
 4109SOL    HW123789   1.415   0.530   3.173 -0.6649  0.4839 -0.7074
 4109SOL    HW223790   1.278   0.573   3.143  1.2715  0.1512 -0.7061
 4110SOL     OW23791   0.821   2.581   9.092  0.1474 -0.2930 -0.3829
 4110SOL    HW123792   0.826   2.646   9.022  1.6680 -1.6835 -1.5863
 4110SOL    HW223793   0.907   2.540   9.101 -0.3029 -1.4949 -1.5076
 4111SOL     OW23794   1.402   3.229   4.173  0.5232 -0.8295 -0.4695
 4111SOL    HW123795   1.363   3.154   4.218 -0.7470  0.6408  0.8754
 4111SOL    HW223796   1.471   3.259   4.232 -0.6902 -0.9093  1.0156
 4112SOL     OW23797   1.105   0.543   9.496 -0.2404  0.0012  0.1837
 4112SOL    HW123798   1.038   0.606   9.472  0.3885  0.3114 -0.7390
 4112SOL    HW223799   1.074   0.502   9.577 -0.4871 -1.1925 -0.5221
 4113SOL     OW23800   1.030   4.209  14.562 -0.7630 -0.2224  0.1579
 4113SOL    HW123801   1.098   4.224  14.496 -1.3133 -0.4493 -0.4616
 4113SOL    HW223802   1.004   4.122  14.530 -2.3113 -0.3190  1.6927
 4114SOL     OW23803   3.264   3.465   5.779  0.0855 -0.2154  0.6586
 4114SOL    HW123804   3.188   3.420   5.815  0.9792 -1.2350  1.3017
 4114SOL    HW223805   3.267   3.404   5.705  1.6000 -0.9852  1.3285
 4115SOL     OW23806   1.279   1.144   0.593  0.3553  0.5415  0.3809
 4115SOL    HW123807   1.268   1.199   0.515 -1.5861  1.5096  1.3287
 4115SOL    HW223808   1.320   1.200   0.660 -2.4525  1.5743  1.2453
 4116SOL     OW23809   3.686   2.660   6.474  0.0375 -0.9025  0.3178
 4116SOL    HW123810   3.610   2.664   6.417 -1.0301  1.2662  1.9093
 4116SOL    HW223811   3.686   2.751   6.502  0.6771 -0.9207  0.3834
 4117SOL     OW23812   2.714   0.804  13.487  0.1807 -0.2575  0.0083
 4117SOL    HW123813   2.623   0.778  13.467  0.4376 -0.8514 -0.3872
 4117SOL    HW223814   2.752   0.733  13.435 -1.2145 -2.5025  2.0176
 4118SOL     OW23815   1.120   0.691   3.068 -0.1760  0.0755 -0.0292
 4118SOL    HW123816   1.133   0.681   2.973  1.5230  0.1324  0.2012
 4118SOL    HW223817   1.027   0.674   3.084  0.3705 -2.7738  0.1188
 4119SOL     OW23818   3.288   1.589   3.420 -0.5446  0.1446 -0.0808
 4119SOL    HW123819   3.216   1.541   3.459  0.8713  0.0182  2.3811
 4119SOL    HW223820   3.319   1.528   3.353 -0.6968 -0.1160  0.0869
 4120SOL     OW23821   1.345   1.032  13.919 -0.3781  0.1378 -0.4992
 4120SOL    HW123822   1.435   1.028  13.952 -0.5469 -2.1090 -0.2961
 4120SOL    HW223823   1.298   0.984  13.987  0.4838  0.7901  0.5629
 4121SOL     OW23824   2.966   1.180   4.773 -0.5810  0.4763  0.1272
 4121SOL    HW123825   2.907   1.231   4.718 -0.5701  1.0393  0.6421
 4121SOL    HW223826   2.912   1.101   4.780 -2.6385  1.8844 -0.1153
 4122SOL     OW23827   2.469   4.026  13.676  0.1180 -0.2966  0.2272
 4122SOL    HW123828   2.528   4.094  13.643  2.1407 -1.5264  1.2858
 4122SOL    HW223829   2.531   3.955  13.692 -2.3789 -2.8453 -1.3619
 4123SOL     OW23830   3.916   3.061  17.382 -0.1275 -0.2419  0.0594
 4123SOL    HW123831   3.866   3.090  17.306  0.4681  0.5573 -0.0179
 4123SOL    HW223832   3.885   2.971  17.393  1.3932 -0.6805  0.7913
 4124SOL     OW23833   1.684   2.008  12.103  0.5573 -0.3720  0.3000
 4124SOL    HW123834   1.701   1.915  12.084 -0.8824 -0.9920  2.1137
 4124SOL    HW223835   1.594   2.001  12.135  0.2868  0.6198 -0.2421
 4125SOL     OW23836   2.935   3.531   9.920  0.1635  0.1796  0.4734
 4125SOL    HW123837   2.940   3.625   9.938  0.5485 -0.0013  1.2926
 4125SOL    HW223838   2.868   3.533   9.851  0.6866 -2.9539 -0.1076
 4126SOL     OW23839   4.313   1.568   2.309 -0.3441  0.2768 -0.4650
 4126SOL    HW123840   4.346   1.613   2.387 -2.1405  1.0196 -0.1194
 4126SOL    HW223841   4.224   1.560   2.344  0.6951  0.7917  2.2688
 4127SOL     OW23842   1.882   3.822   8.128 -0.2461  0.0857 -0.5725
 4127SOL    HW123843   1.940   3.867   8.190 -0.2669 -0.6536 -0.0262
 4127SOL    HW223844   1.863   3.904   8.081 -0.6175  0.8427  0.8831
 4128SOL     OW23845   1.463   0.796  12.101 -0.0480  0.1966  0.0468
 4128SOL    HW123846   1.392   0.821  12.161  1.4331 -1.0289  2.3424
 4128SOL    HW223847   1.476   0.882  12.062  0.7001  0.2650  0.4527
 4129SOL     OW23848   4.595   0.608  15.736 -0.3853  0.3490 -0.0105
 4129SOL    HW123849   4.577   0.536  15.797  1.0765 -1.2537 -1.4837
 4129SOL    HW223850   4.548   0.682  15.775 -0.2861  0.5377 -0.2489
 4130SOL     OW23851   0.818   1.093   4.482 -0.1965  0.2946  0.0610
 4130SOL    HW123852   0.791   1.005   4.456  2.3628 -0.4720 -0.0514
 4130SOL    HW223853   0.744   1.147   4.455 -0.9388  1.6830  4.9085
 4131SOL     OW23854   4.308   1.396   9.676  0.1863  0.4932 -0.0724
 4131SOL    HW123855   4.288   1.475   9.726 -1.7819  0.1913 -0.3731
 4131SOL    HW223856   4.322   1.343   9.754  0.1136  1.0516  0.3196
 4132SOL     OW23857   4.477   3.629   5.348  0.3220  0.2539  0.0666
 4132SOL    HW123858   4.564   3.663   5.371  1.1941 -1.5821 -0.5015
 4132SOL    HW223859   4.429   3.708   5.325 -0.1357 -0.6172 -2.0053
 4133SOL     OW23860   3.627   2.352  16.076  0.1374 -0.2797 -0.4029
 4133SOL    HW123861   3.534   2.331  16.073  0.1447 -0.5756  1.7660
 4133SOL    HW223862   3.663   2.279  16.026  2.2316 -0.5230  1.4775
 4134SOL     OW23863   2.357   2.443   8.186  0.4866  0.2933 -0.4559
 4134SOL    HW123864   2.373   2.366   8.242 -0.6504  1.4468  1.4597
 4134SOL    HW223865   2.431   2.439   8.126 -0.2738 -0.4473 -1.3520
 4135SOL     OW23866   3.670   1.392   2.161  0.5777 -0.5926  0.3967
 4135SOL    HW123867   3.670   1.318   2.222  0.1261 -0.2520  0.8050
 4135SOL    HW223868   3.588   1.376   2.115 -0.1808  0.9035  1.2338
 4136SOL     OW23869   4.307   3.540   2.175  0.5266 -0.4087  0.1318
 4136SOL    HW123870   4.289   3.447   2.168  1.3780 -0.7367  2.4651
 4136SOL    HW223871   4.241   3.565   2.239 -0.2287 -0.7999 -0.4956
 4137SOL     OW23872   2.195   4.042   6.152 -0.1435  0.1186  0.1110
 4137SOL    HW123873   2.289   4.034   6.167  0.4623  0.9964 -3.2028
 4137SOL    HW223874   2.186   3.951   6.124  0.6865 -0.0938  0.5574
 4138SOL     OW23875   2.687   0.703   8.273 -0.9223  0.2886 -0.5179
 4138SOL    HW123876   2.677   0.716   8.368  0.9354  0.1430 -0.2872
 4138SOL    HW223877   2.670   0.609   8.271  0.5700 -0.0121  0.5691
 4139SOL     OW23878   1.953   3.932  14.932 -1.0743  0.2680  0.5164
 4139SOL    HW123879   1.991   4.019  14.929  0.4945 -0.4739 -1.2453
 4139SOL    HW223880   2.025   3.873  14.954 -0.7968 -0.6669 -2.9130
 4140SOL     OW23881   1.685   2.357   1.666  0.4038 -0.2139 -0.5553
 4140SOL    HW123882   1.607   2.302   1.661  1.6929 -2.2869  2.7637
 4140SOL    HW223883   1.744   2.296   1.623  0.3285 -0.0395 -0.9112
 4141SOL     OW23884   3.386   2.157   5.767  0.0610  0.6130 -0.4414
 4141SOL    HW123885   3.454   2.089   5.768 -0.6143 -0.0463  1.1726
 4141SOL    HW223886   3.442   2.227   5.734  0.5907 -0.0013 -0.8551
 4142SOL     OW23887   1.818   0.827  10.174  0.0944 -0.4967 -0.1923
 4142SOL    HW123888   1.857   0.831  10.087  1.4222 -1.4988  0.3404
 4142SOL    HW223889   1.767   0.746  10.175  0.7024 -0.9038 -3.1191
 4143SOL     OW23890   2.045   3.938   5.629 -0.7863  0.6327 -0.4398
 4143SOL    HW123891   2.003   4.015   5.666  1.1171  2.1458 -1.3908
 4143SOL    HW223892   2.128   3.983   5.614  0.3680 -0.8440  1.4679
 4144SOL     OW23893   3.392   1.527   6.067 -0.2597 -0.0144 -0.0548
 4144SOL    HW123894   3.480   1.547   6.035  0.6801 -1.6119  1.5060
 4144SOL    HW223895   3.367   1.607   6.113 -0.4296 -1.7141  2.8326
 4145SOL     OW23896   0.509   1.835   2.488 -0.1285 -0.2610  0.4426
 4145SOL    HW123897   0.477   1.745   2.484 -0.8207  0.0147 -0.2790
 4145SOL    HW223898   0.595   1.821   2.527 -0.3973 -3.0319  0.0803
 4146SOL     OW23899   1.996   2.984   1.104  0.4451  0.0315 -0.1028
 4146SOL    HW123900   2.051   2.981   1.182  0.1353 -0.0748  0.1132
 4146SOL    HW223901   1.940   3.056   1.132 -1.6047 -1.0162 -1.4763
 4147SOL     OW23902   1.408   1.242   3.850  0.2588 -0.4825 -0.0890
 4147SOL    HW123903   1.477   1.176   3.855  1.4814  0.8183  0.2010
 4147SOL    HW223904   1.414   1.260   3.756  1.8160  1.5152  0.3689
 4148SOL     OW23905   1.564   2.420   5.071  0.1656  0.0551 -0.0655
 4148SOL    HW123906   1.557   2.495   5.012 -1.8262  0.6421  0.8764
 4148SOL    HW223907   1.528   2.352   5.015 -0.4696  0.7714 -0.5333
 4149SOL     OW23908   3.101   4.045   8.901  0.1910  0.8683  0.3100
 4149SOL    HW123909   3.063   4.008   8.980 -0.0252 -0.1061 -0.2494
 4149SOL    HW223910   3.103   4.140   8.912  0.1679  0.8790  0.2268
 4150SOL     OW23911   3.638   0.623   6.566  0.3442 -0.2145 -0.2653
 4150SOL    HW123912   3.587   0.630   6.485  1.3370  2.3278 -0.6476
 4150SOL    HW223913   3.722   0.590   6.534 -0.7675 -0.8678 -2.5406
 4151SOL     OW23914   4.052   1.246   1.618 -0.1324  0.4341 -0.2848
 4151SOL    HW123915   4.140   1.207   1.625 -1.7479 -2.9579  1.2707
 4151SOL    HW223916   4.063   1.312   1.686 -1.1776 -3.0361  3.2504
 4152SOL     OW23917   3.964   4.287   1.951 -0.1545  0.1470 -0.0283
 4152SOL    HW123918   3.960   4.363   1.894 -0.9904  0.2172  0.1267
 4152SOL    HW223919   4.038   4.255   1.900 -0.7966  1.6019 -1.8347
 4153SOL     OW23920   0.253   2.472   5.353 -0.1524  0.4547  0.2110
 4153SOL    HW123921   0.180   2.424   5.313 -0.1017  0.7430 -0.2290
 4153SOL    HW223922   0.288   2.513   5.274 -0.7052 -1.6057 -1.0961
 4154SOL     OW23923   2.873   2.148   2.114  0.2384 -0.4065  0.2075
 4154SOL    HW123924   2.879   2.239   2.142 -1.7097  0.2410 -1.4982
 4154SOL    HW223925   2.904   2.147   2.023  1.1999 -0.5280  0.5327
 4155SOL     OW23926   2.359   0.394   7.059 -0.1766  0.6138  0.0458
 4155SOL    HW123927   2.300   0.408   6.985  0.7765 -2.3487 -1.2632
 4155SOL    HW223928   2.441   0.425   7.020 -0.4703  0.5938 -0.5800
 4156SOL     OW23929   3.191   3.554   6.706  0.4907  0.6347  0.2185
 4156SOL    HW123930   3.233   3.631   6.746  2.5265 -1.2349  1.6897
 4156SOL    HW223931   3.214   3.564   6.614 -0.7282 -0.1403 -0.1648
 4157SOL     OW23932   4.558   1.682   9.154  0.0663 -0.0560  0.4393
 4157SOL    HW123933   4.469   1.658   9.180 -1.7875  2.8770 -3.2378
 4157SOL    HW223934   4.604   1.607   9.192 -0.4498 -0.8806 -0.5398
 4158SOL     OW23935   1.794   1.615   8.042  0.0532  0.1263 -0.0134
 4158SOL    HW123936   1.815   1.703   8.011 -1.5084  0.6706  0.4857
 4158SOL    HW223937   1.819   1.626   8.134  1.4204 -1.2360 -0.2093
 4159SOL     OW23938   3.441   4.179   0.149  0.5884 -0.2488  0.1784
 4159SOL    HW123939   3.471   4.224   0.228  1.3895  0.0835 -0.3153
 4159SOL    HW223940   3.453   4.253   0.088  0.7344  0.1790  0.7242
 4160SOL     OW23941   3.248   3.338   7.708  0.1624 -0.0604 -0.3792
 4160SOL    HW123942   3.285   3.398   7.773  1.0044  0.4195 -1.3054
 4160SOL    HW223943   3.303   3.357   7.632 -0.2975 -2.7575 -1.3726
 4161SOL     OW23944   3.403   2.194   0.124  0.3447 -0.5915  0.4817
 4161SOL    HW123945   3.316   2.224   0.098 -0.2883 -2.2550  0.6538
 4161SOL    HW223946   3.400   2.098   0.123 -2.3486 -0.4820 -1.6242
 4162SOL     OW23947   4.255   2.151   8.195  0.0581 -0.3732  0.3101
 4162SOL    HW123948   4.269   2.113   8.282  0.9577  1.3377  0.9099
 4162SOL    HW223949   4.276   2.242   8.214 -0.6317 -0.1393 -0.0614
 4163SOL     OW23950   1.809   2.356   5.667 -0.2479 -0.4948 -0.1379
 4163SOL    HW123951   1.779   2.335   5.756 -0.2456  1.9356  0.4568
 4163SOL    HW223952   1.748   2.302   5.617 -0.2498 -1.7386  1.1920
 4164SOL     OW23953   1.864   4.125  16.804  1.1637  0.0717 -0.1438
 4164SOL    HW123954   1.819   4.161  16.880  1.0894 -1.0267  0.3363
 4164SOL    HW223955   1.888   4.042  16.846  0.6876  0.8068  1.5539
 4165SOL     OW23956   0.786   2.018   8.588 -0.3751  0.2469  0.4169
 4165SOL    HW123957   0.839   1.941   8.566 -0.6036  0.0876  0.4188
 4165SOL    HW223958   0.700   1.983   8.611 -1.0380  1.8087  0.2663
 4166SOL     OW23959   1.458   3.798   3.366 -0.3244  0.0999  0.4444
 4166SOL    HW123960   1.383   3.805   3.307  0.7914 -1.0917 -1.1443
 4166SOL    HW223961   1.519   3.853   3.317  2.4798 -1.3435  2.3187
 4167SOL     OW23962   2.712   3.103   8.051 -0.2816  0.0592 -0.0034
 4167SOL    HW123963   2.789   3.152   8.025  0.6968 -0.5827  1.7077
 4167SOL    HW223964   2.697   3.150   8.133 -2.5472 -0.0079 -0.3623
 4168SOL     OW23965   4.353   3.769   9.878 -0.0293  0.7334 -0.3296
 4168SOL    HW123966   4.264   3.797   9.858 -1.1067 -0.7487  2.3878
 4168SOL    HW223967   4.340   3.746   9.970  1.2181  0.2461 -0.2701
 4169SOL     OW23968   1.616   1.235   0.502  0.0247  0.5492 -0.2936
 4169SOL    HW123969   1.639   1.180   0.427  0.7998 -0.2581  0.5365
 4169SOL    HW223970   1.606   1.168   0.569 -2.7570 -0.4223 -1.6616
 4170SOL     OW23971   1.817   2.778   9.201 -0.1457  0.1355  0.5990
 4170SOL    HW123972   1.848   2.791   9.290  0.9237  1.0868  0.0962
 4170SOL    HW223973   1.895   2.805   9.153 -0.6590 -3.4355 -2.2363
 4171SOL     OW23974   3.616   4.551   5.934 -0.2123  0.3090 -0.3946
 4171SOL    HW123975   3.545   4.490   5.953  0.3369 -0.2934 -0.3060
 4171SOL    HW223976   3.582   4.626   5.983 -3.6040 -1.5835  0.1504
 4172SOL     OW23977   4.331   0.116  13.292  0.0350  0.3055 -0.0378
 4172SOL    HW123978   4.408   0.060  13.280  1.2545  1.8979  0.3272
 4172SOL    HW223979   4.343   0.175  13.218 -1.1343  2.7512  1.7206
 4173SOL     OW23980   3.104   4.705   6.957 -0.5284 -0.4187 -0.2747
 4173SOL    HW123981   3.146   0.053   7.006 -1.3299  0.8197 -1.3829
 4173SOL    HW223982   3.141   4.630   7.004  0.2878 -0.2156 -0.5950
 4174SOL     OW23983   3.127   3.678   1.166 -0.3984 -0.4748 -0.2502
 4174SOL    HW123984   3.100   3.586   1.168 -1.5543 -0.1097  0.5389
 4174SOL    HW223985   3.067   3.725   1.109  0.5870 -0.9319 -1.6563
 4175SOL     OW23986   2.747   2.767  13.082  0.9952 -0.2398 -0.0513
 4175SOL    HW123987   2.700   2.793  13.002  0.6539  1.2095  0.6146
 4175SOL    HW223988   2.837   2.777  13.052  0.5349  0.5835 -1.1702
 4176SOL     OW23989   2.406   2.176  10.962  0.5439 -0.6777  0.2299
 4176SOL    HW123990   2.499   2.177  10.984  0.6011 -0.6713 -0.0170
 4176SOL    HW223991   2.413   2.170  10.867  0.1526 -0.6930  0.1986
 4177SOL     OW23992   0.322   3.941  17.634 -0.0762  0.0300 -0.7613
 4177SOL    HW123993   0.227   3.932  17.640  0.1256 -1.5354  0.1516
 4177SOL    HW223994   0.340   3.977   0.028 -1.1437  1.0864 -0.9722
 4178SOL     OW23995   1.989   3.625   3.595  0.4969  0.0511  0.6163
 4178SOL    HW123996   2.022   3.601   3.682  0.7485 -0.8915  0.2622
 4178SOL    HW223997   2.053   3.688   3.561 -0.2769 -0.4688 -1.8089
 4179SOL     OW23998   1.778   0.697   8.071 -0.2240  0.0554  0.3778
 4179SOL    HW123999   1.696   0.662   8.104 -0.2494 -1.1556 -1.0096
 4179SOL    HW224000   1.735   0.773   8.032 -2.9190 -2.5733 -1.7708
 4180SOL     OW24001   0.085   4.006   7.382  0.4271  0.2021  0.1653
 4180SOL    HW124002   0.061   3.978   7.471  2.1285 -0.9023  0.2794
 4180SOL    HW224003   4.718   3.995   7.350  0.1146  0.2560  1.0044
 4181SOL     OW24004   2.180   3.605   8.264  0.0084  0.0420 -0.2050
 4181SOL    HW124005   2.215   3.574   8.347  0.5538 -1.2312 -0.9101
 4181SOL    HW224006   2.241   3.677   8.251  0.7095  0.0146  3.0097
 4182SOL     OW24007   0.624   2.745   6.115  0.2274 -0.5048  0.3362
 4182SOL    HW124008   0.611   2.834   6.150  0.4616 -0.5724  0.5971
 4182SOL    HW224009   0.715   2.749   6.088 -0.1548  3.1772 -0.3928
 4183SOL     OW24010   2.170   2.201   0.596 -0.1073  0.6289  0.1698
 4183SOL    HW124011   2.189   2.131   0.533  0.3703  0.4662  0.4906
 4183SOL    HW224012   2.075   2.193   0.601  0.0196 -0.5649  0.8303
 4184SOL     OW24013   3.933   1.337   7.325  0.0113  0.4609 -0.2465
 4184SOL    HW124014   4.029   1.336   7.322  0.0561  1.3057  0.9115
 4184SOL    HW224015   3.903   1.373   7.241 -3.0256 -0.4591  0.4384
 4185SOL     OW24016   0.236   3.676   9.735  0.4512  0.1206  0.4233
 4185SOL    HW124017   0.249   3.749   9.795  0.0469 -0.6263  1.4341
 4185SOL    HW224018   0.142   3.682   9.720  0.4503  1.0037  0.7878
 4186SOL     OW24019   2.540   0.686   8.971  0.1927 -0.5609  0.1515
 4186SOL    HW124020   2.560   0.770   8.928  0.7793 -0.8085 -0.0560
 4186SOL    HW224021   2.461   0.721   9.012 -0.2496 -0.2932 -0.9131
 4187SOL     OW24022   1.450   2.576   1.284  0.1615  0.3761  0.3128
 4187SOL    HW124023   1.538   2.537   1.286  0.9142  1.8056 -3.4600
 4187SOL    HW224024   1.404   2.524   1.350  1.4332 -2.5703 -1.0702
 4188SOL     OW24025   0.869   2.984  14.644  0.1019  0.2776  0.6188
 4188SOL    HW124026   0.928   3.042  14.596 -0.8059 -1.6258 -2.7860
 4188SOL    HW224027   0.785   3.009  14.605 -0.8442  1.1106  3.2062
 4189SOL     OW24028   2.419   3.807   1.927 -1.0170  0.0859 -0.1063
 4189SOL    HW124029   2.324   3.798   1.933 -1.0608  1.9968  2.1033
 4189SOL    HW224030   2.432   3.769   2.014  1.4712 -1.6022 -1.2336
 4190SOL     OW24031   1.405   2.267   1.677 -0.0285  0.2190  0.5170
 4190SOL    HW124032   1.330   2.271   1.616 -0.1311 -0.3397  0.6015
 4190SOL    HW224033   1.385   2.344   1.729  2.5149  0.6791  0.8043
 4191SOL     OW24034   2.355   2.887   5.956  0.4680 -0.2109  0.2139
 4191SOL    HW124035   2.342   2.959   5.894 -0.4760  0.9838  1.8034
 4191SOL    HW224036   2.402   2.921   6.032 -1.6711  0.0270  1.4272
 4192SOL     OW24037   1.990   4.524   5.093  0.6028  0.0393  0.4844
 4192SOL    HW124038   1.938   4.600   5.069 -0.0838 -0.4663  0.3397
 4192SOL    HW224039   2.064   4.565   5.137 -0.4338 -0.3695  2.5900
 4193SOL     OW24040   2.188   2.170   7.615 -0.1895  0.0494  0.4677
 4193SOL    HW124041   2.162   2.254   7.655  0.6702 -0.1060  1.3726
 4193SOL    HW224042   2.263   2.197   7.561 -0.4386 -2.3505 -1.0319
 4194SOL     OW24043   2.035   0.268   6.854  0.0680  0.2320  0.0121
 4194SOL    HW124044   1.986   0.344   6.886  2.1890  0.9324  1.5802
 4194SOL    HW224045   1.995   0.199   6.907 -0.3365  0.6411  0.2430
 4195SOL     OW24046   1.562   0.542   6.366 -0.2532 -0.1659 -0.1860
 4195SOL    HW124047   1.512   0.461   6.359 -0.7136  0.3556 -2.9618
 4195SOL    HW224048   1.494   0.608   6.353  1.0712  1.4083  0.8024
 4196SOL     OW24049   0.545   3.493   9.170  0.2266 -0.7039  0.2893
 4196SOL    HW124050   0.556   3.404   9.138  3.6476 -0.5266  1.0571
 4196SOL    HW224051   0.628   3.508   9.214  0.4026 -0.6974 -0.0475
 4197SOL     OW24052   0.473   2.812   2.861 -0.9372  0.1045 -0.1601
 4197SOL    HW124053   0.458   2.717   2.859  1.1920 -0.2270 -0.5472
 4197SOL    HW224054   0.395   2.838   2.909 -1.0575  0.0986 -0.3521
 4198SOL     OW24055   3.403   1.907  11.768  0.3615  0.3072 -0.6045
 4198SOL    HW124056   3.313   1.902  11.737  0.1135 -0.2042  0.2043
 4198SOL    HW224057   3.442   1.943  11.688  0.6290 -0.1488 -0.6764
 4199SOL     OW24058   1.892   0.255   3.663 -0.2328 -0.5601  0.7375
 4199SOL    HW124059   1.856   0.316   3.599  1.0764 -1.4091 -0.7974
 4199SOL    HW224060   1.828   0.260   3.735 -1.2190 -1.3423 -0.0787
 4200SOL     OW24061   0.755   4.491  15.390  0.4962  0.1552 -0.0214
 4200SOL    HW124062   0.669   4.508  15.353  0.6000  1.0559  0.1422
 4200SOL    HW224063   0.791   4.580  15.385  0.3793  0.3136  1.8888
 4201SOL     OW24064   4.646   2.030   4.357 -0.6156  0.1109  0.5799
 4201SOL    HW124065   4.692   2.102   4.313  3.1164 -1.3356  2.1091
 4201SOL    HW224066   4.712   1.999   4.420  0.4961 -1.2007 -1.2396
 4202SOL     OW24067   4.084   2.097   1.150  0.2795 -0.1295 -0.2350
 4202SOL    HW124068   4.025   2.172   1.141 -0.1362 -0.1687  1.9723
 4202SOL    HW224069   4.021   2.027   1.135 -0.0750  0.0489  0.4197
 4203SOL     OW24070   2.859   2.237   3.235 -0.0443  0.2377  0.0288
 4203SOL    HW124071   2.920   2.309   3.223 -0.3550  0.7375  1.5125
 4203SOL    HW224072   2.774   2.276   3.257 -0.5615 -0.5781 -0.4895
 4204SOL     OW24073   1.248   3.320   7.083  0.5115 -0.3921 -0.2423
 4204SOL    HW124074   1.334   3.306   7.124  0.7620 -0.2584 -0.7279
 4204SOL    HW224075   1.233   3.232   7.049  1.9797 -0.1055 -1.6096
 4205SOL     OW24076   0.648   3.226   8.243 -0.0237  0.2374  0.0446
 4205SOL    HW124077   0.656   3.130   8.246  1.2334  0.3554  0.4035
 4205SOL    HW224078   0.738   3.253   8.261  0.1463  0.9986 -1.8743
 4206SOL     OW24079   0.228   2.456   1.968 -0.4818 -0.0278  0.6531
 4206SOL    HW124080   0.294   2.396   1.933  0.5993  1.8301 -0.5578
 4206SOL    HW224081   0.174   2.409   2.031 -0.9040  0.7717  0.8867
 4207SOL     OW24082   2.463   0.604   2.685 -0.0008  0.2533  0.1045
 4207SOL    HW124083   2.524   0.590   2.757 -1.9832 -0.7274  1.5902
 4207SOL    HW224084   2.443   0.513   2.662  1.0774  0.3415 -1.1938
 4208SOL     OW24085   1.637   1.107   4.103  0.1851 -0.0413  0.0089
 4208SOL    HW124086   1.723   1.141   4.077 -0.6585  0.4994 -1.9939
 4208SOL    HW224087   1.593   1.191   4.101  0.2902  0.1111  2.8929
 4209SOL     OW24088   4.309   0.383   7.901 -0.0656 -0.1445  0.5186
 4209SOL    HW124089   4.301   0.475   7.925  1.0888 -0.2169  1.1836
 4209SOL    HW224090   4.286   0.345   7.986 -0.2661  0.1013  0.5711
 4210SOL     OW24091   0.452   1.478   3.860 -0.7935 -0.4315  0.4305
 4210SOL    HW124092   0.498   1.421   3.921 -0.8091 -2.7729 -1.7348
 4210SOL    HW224093   0.424   1.405   3.805 -1.7021  1.3902 -1.5377
 4211SOL     OW24094   3.806   3.842   2.137  0.3271 -0.1307  0.0965
 4211SOL    HW124095   3.853   3.921   2.162 -1.5646  1.7679 -2.4137
 4211SOL    HW224096   3.810   3.848   2.042 -3.4058  0.3684 -0.0024
 4212SOL     OW24097   0.047   2.866   9.942  0.8812  0.4198  0.2648
 4212SOL    HW124098   0.078   2.957   9.947  1.7795  0.2089 -1.5664
 4212SOL    HW224099   0.110   2.822  10.000  1.4772  2.6748  1.3822
 4213SOL     OW24100   1.056   1.681   6.730 -0.5464 -0.4896  0.0711
 4213SOL    HW124101   0.987   1.670   6.795 -1.6589  1.2102 -0.8337
 4213SOL    HW224102   1.125   1.723   6.781 -0.0114  1.6101 -2.3667
 4214SOL     OW24103   0.954   0.614   3.803 -0.1842 -0.0493 -0.3299
 4214SOL    HW124104   1.008   0.626   3.726 -0.1202  3.2354  0.2155
 4214SOL    HW224105   1.021   0.584   3.864 -0.8816 -2.5542 -0.8185
 4215SOL     OW24106   3.507   1.731   6.742  0.3766  0.3638 -0.1798
 4215SOL    HW124107   3.415   1.706   6.750  0.1321  0.8838 -1.4013
 4215SOL    HW224108   3.544   1.663   6.687 -2.9819 -1.7865  0.2136
 4216SOL     OW24109   1.149   0.953   7.933 -0.1352  0.0100  0.0102
 4216SOL    HW124110   1.108   0.907   7.859  0.5024  0.3136 -0.5303
 4216SOL    HW224111   1.194   1.031   7.900  1.8320  0.3254  3.4753
 4217SOL     OW24112   2.204   3.007   5.706 -0.6451  0.8163  0.0849
 4217SOL    HW124113   2.192   3.061   5.628 -0.4171  3.4021  1.8120
 4217SOL    HW224114   2.166   2.929   5.666  0.2485 -0.8809  2.4949
 4218SOL     OW24115   3.260   4.553   3.312  0.2157 -0.1972 -0.0410
 4218SOL    HW124116   3.292   4.642   3.328 -0.9960  0.0971  0.7428
 4218SOL    HW224117   3.340   4.507   3.288 -0.2343 -0.4308 -1.0811
 4219SOL     OW24118   4.342   0.089   1.157  0.0173  0.4071  0.4943
 4219SOL    HW124119   4.398   0.163   1.134 -0.6188  1.3257  1.9588
 4219SOL    HW224120   4.405   0.036   1.206  1.1629  0.3169 -1.0587
 4220SOL     OW24121   1.468   4.689  13.220  0.7635  0.2461 -0.3609
 4220SOL    HW124122   1.493   4.597  13.228 -0.8820 -0.1663  0.0151
 4220SOL    HW224123   1.492   4.701  13.128 -0.5319 -2.5259 -1.0738
 4221SOL     OW24124   1.603   1.461  13.667  0.1212  0.0945 -0.0444
 4221SOL    HW124125   1.528   1.515  13.689 -0.4540 -0.6521 -0.1788
 4221SOL    HW224126   1.620   1.436  13.758  0.8652 -0.1459 -0.2493
 4222SOL     OW24127   1.731   4.239   6.915  0.7325 -0.2279 -0.1300
 4222SOL    HW124128   1.682   4.312   6.877  1.0648 -0.1236 -0.3541
 4222SOL    HW224129   1.667   4.168   6.909  1.1959 -0.4466 -2.4605
 4223SOL     OW24130   4.204   0.289   7.264  0.4020  0.1142  0.2009
 4223SOL    HW124131   4.169   0.304   7.177 -1.1381  1.8608  1.1025
 4223SOL    HW224132   4.282   0.238   7.243 -1.4792 -2.1204 -1.3242
 4224SOL     OW24133   3.949   0.009  12.499  0.5871 -0.0898  0.5214
 4224SOL    HW124134   3.855   0.020  12.512  0.4622  0.8239 -1.1093
 4224SOL    HW224135   3.947   4.647  12.455 -0.9495 -0.0043  0.4270
 4225SOL     OW24136   2.319   1.519   7.336 -0.5657  0.3793  0.4701
 4225SOL    HW124137   2.267   1.572   7.277 -0.8586 -0.8608 -0.3943
 4225SOL    HW224138   2.323   1.566   7.419 -2.6786  0.8211  0.3136
 4226SOL     OW24139   3.103   0.105  14.489 -0.5361  0.5198 -0.0476
 4226SOL    HW124140   3.079   0.015  14.512  1.1404 -0.0963 -0.6804
 4226SOL    HW224141   3.086   0.102  14.395 -1.1982 -1.5001  0.1204
 4227SOL     OW24142   3.024   3.664   6.176 -0.2659  0.0959  0.0180
 4227SOL    HW124143   3.037   3.659   6.081  0.0427 -2.7670  0.2184
 4227SOL    HW224144   2.939   3.626   6.195 -0.0356  1.0731  3.1201
 4228SOL     OW24145   4.230   0.372   2.871 -0.1292 -0.4109  0.1773
 4228SOL    HW124146   4.250   0.348   2.781  1.8700  1.8802  0.0006
 4228SOL    HW224147   4.160   0.435   2.858  1.9291  2.3040  2.1992
 4229SOL     OW24148   2.318   3.828  12.395 -0.2656 -0.0011 -0.1334
 4229SOL    HW124149   2.396   3.834  12.450  0.2120 -1.3003 -0.6708
 4229SOL    HW224150   2.352   3.849  12.308 -0.8775  0.5629 -0.2393
 4230SOL     OW24151   2.036   0.071   5.553  0.3768 -0.1065 -0.3226
 4230SOL    HW124152   2.051   0.165   5.550 -1.9373  0.2313 -1.6236
 4230SOL    HW224153   2.119   0.042   5.590  0.2536  0.3145  0.2718
 4231SOL     OW24154   0.456   2.478   7.373 -0.3655  0.1822  0.0623
 4231SOL    HW124155   0.366   2.450   7.357 -0.1349 -0.3838 -0.2507
 4231SOL    HW224156   0.501   2.406   7.328  1.1269 -0.0888  1.9759
 4232SOL     OW24157   0.430   2.533   2.871  0.5843 -0.7182  0.4545
 4232SOL    HW124158   0.335   2.539   2.885  0.7246  0.0054  1.0922
 4232SOL    HW224159   0.428   2.476   2.794 -0.8705  0.1557 -0.1630
 4233SOL     OW24160   0.717   1.287   7.445 -0.1543  0.2390 -0.4539
 4233SOL    HW124161   0.771   1.210   7.427  1.3521  1.0733  0.5338
 4233SOL    HW224162   0.782   1.357   7.445  0.7555 -0.5790  2.0582
 4234SOL     OW24163   3.219   0.302  10.898  0.6210  0.1489  0.3565
 4234SOL    HW124164   3.181   0.228  10.946  2.3539 -1.5563 -0.9120
 4234SOL    HW224165   3.163   0.377  10.918 -0.0652 -0.2389 -0.1209
 4235SOL     OW24166   2.841   4.579   5.020  0.3271  0.2406  0.4500
 4235SOL    HW124167   2.778   4.647   4.995 -0.2829  0.0146  1.3612
 4235SOL    HW224168   2.839   4.596   5.114 -1.1934  1.0211  0.2752
 4236SOL     OW24169   2.278   4.587   4.224 -0.0534  0.0355 -0.0018
 4236SOL    HW124170   2.257   4.615   4.135  2.9527 -0.5197 -0.9048
 4236SOL    HW224171   2.209   4.521   4.232  0.1113 -0.1427 -0.0317
 4237SOL     OW24172   2.527   2.463  13.488 -0.4236  0.7917  0.4058
 4237SOL    HW124173   2.454   2.525  13.494 -1.5831 -0.7358  2.2507
 4237SOL    HW224174   2.549   2.487  13.399 -1.7190 -0.1005 -0.1632
 4238SOL     OW24175   3.236   4.655   6.642  0.1630 -0.5472 -0.1156
 4238SOL    HW124176   3.194   4.569   6.648 -0.0602 -0.3576  0.8993
 4238SOL    HW224177   3.297   4.651   6.716  0.3968 -2.1586 -0.3958
 4239SOL     OW24178   0.858   4.542   5.468  0.1023  0.6093 -0.6713
 4239SOL    HW124179   0.942   4.576   5.438  0.1094 -0.7561 -2.2172
 4239SOL    HW224180   0.866   4.450   5.442  1.4915  0.4619  0.3160
 4240SOL     OW24181   4.274   3.786   3.175 -0.2543 -0.3344  0.0091
 4240SOL    HW124182   4.246   3.798   3.085 -1.6293 -1.7829  0.2215
 4240SOL    HW224183   4.366   3.793   3.153  0.1203 -1.3507  1.1913
 4241SOL     OW24184   3.974   2.631  11.908 -0.3782  0.0399 -0.0762
 4241SOL    HW124185   3.895   2.582  11.883 -1.9491  2.0843  0.8840
 4241SOL    HW224186   3.937   2.693  11.971  0.9438 -0.4516  1.1833
 4242SOL     OW24187   3.521   3.963   3.561 -0.1739  0.2841  0.4594
 4242SOL    HW124188   3.594   4.008   3.604  0.5958 -1.1178  0.6093
 4242SOL    HW224189   3.492   4.025   3.493  0.8115 -0.1938 -0.4030
 4243SOL     OW24190   0.105   0.751   2.009 -0.1137  0.2030 -0.4150
 4243SOL    HW124191   0.153   0.686   2.061 -1.0344 -0.0044  0.1691
 4243SOL    HW224192   0.043   0.693   1.965  0.1220 -0.1106 -0.3321
 4244SOL     OW24193   3.537   0.716   4.331  0.0991 -0.4560  0.3588
 4244SOL    HW124194   3.621   0.761   4.336 -0.7630  1.0278  1.1069
 4244SOL    HW224195   3.563   0.640   4.278 -0.9014 -1.6245  1.5311
 4245SOL     OW24196   1.160   2.099   4.783  0.1774 -0.3847  0.0376
 4245SOL    HW124197   1.243   2.058   4.757 -0.0258 -0.2183 -0.8477
 4245SOL    HW224198   1.151   2.172   4.722  0.7779 -1.3449 -1.2078
 4246SOL     OW24199   1.316   0.080  13.740 -0.0385  0.1547 -0.2216
 4246SOL    HW124200   1.303   0.127  13.823  2.5667  0.8290 -0.1842
 4246SOL    HW224201   1.361   0.001  13.768  1.4712  1.2867  0.5592
 4247SOL     OW24202   2.844   0.190   2.387  0.7429  0.2953  0.1616
 4247SOL    HW124203   2.927   0.153   2.358  0.9129 -0.0397  1.0663
 4247SOL    HW224204   2.852   0.166   2.479  2.2024 -1.6529 -0.4751
 4248SOL     OW24205   0.277   4.633  17.526 -0.4111 -0.2114 -0.0095
 4248SOL    HW124206   0.221   4.565  17.563  0.1749 -0.8660 -0.3255
 4248SOL    HW224207   0.355   4.619  17.580 -0.2928 -1.0470 -0.3990
 4249SOL     OW24208   1.348   2.777   1.443  0.1731 -0.0479 -0.1120
 4249SOL    HW124209   1.394   2.853   1.480 -0.8175  1.2205 -1.4813
 4249SOL    HW224210   1.413   2.730   1.391  1.6038 -1.2443  2.7321
 4250SOL     OW24211   4.286   2.959  14.715  0.2113 -0.0818  0.7607
 4250SOL    HW124212   4.242   2.924  14.637 -0.4782 -0.3930  1.2784
 4250SOL    HW224213   4.375   2.966  14.681 -0.0117 -1.7351 -0.1703
 4251SOL     OW24214   2.553   2.233  14.354  0.6414 -0.5835 -0.0150
 4251SOL    HW124215   2.519   2.156  14.308 -0.7541 -1.0187  1.7255
 4251SOL    HW224216   2.602   2.184  14.421 -0.2044 -2.1572 -0.5349
 4252SOL     OW24217   0.807   2.879   6.446  0.2849 -0.1525  0.2894
 4252SOL    HW124218   0.860   2.937   6.501  0.7411  1.3277 -1.7176
 4252SOL    HW224219   0.793   2.811   6.512 -1.9773 -0.7138 -0.7361
 4253SOL     OW24220   2.370   1.770   7.001 -0.0873  0.0780  0.4985
 4253SOL    HW124221   2.391   1.840   7.064  2.2218  2.3996 -2.8555
 4253SOL    HW224222   2.297   1.732   7.051 -0.6055  2.2198  1.3766
 4254SOL     OW24223   1.659   2.262   3.016 -0.2386 -0.1983  0.4636
 4254SOL    HW124224   1.606   2.188   3.046 -1.3813  0.1435 -0.7014
 4254SOL    HW224225   1.624   2.289   2.931  2.0629 -0.3847 -0.5395
 4255SOL     OW24226   2.114   0.227  14.590  0.3583 -0.4280  0.8399
 4255SOL    HW124227   2.102   0.182  14.506 -0.5635  1.7872 -0.2121
 4255SOL    HW224228   2.124   0.155  14.652 -0.5431 -1.7015 -0.4958
 4256SOL     OW24229   3.856   1.643   1.790  0.6872  0.0240 -0.2116
 4256SOL    HW124230   3.911   1.602   1.856  1.4287 -0.3802 -1.0907
 4256SOL    HW224231   3.907   1.723   1.774  2.7718 -1.1059  0.8717
 4257SOL     OW24232   1.840   0.948  13.992 -0.0269  0.0913 -0.1891
 4257SOL    HW124233   1.750   0.918  14.005 -0.0221  0.0455 -0.2661
 4257SOL    HW224234   1.853   1.012  14.063  0.3304  0.6706 -0.7774
 4258SOL     OW24235   0.570   3.226  10.896  0.0268  0.1598 -0.0275
 4258SOL    HW124236   0.595   3.180  10.816  2.3606 -0.5328  1.0811
 4258SOL    HW224237   0.610   3.312  10.887 -0.9820  0.6095 -0.1814
 4259SOL     OW24238   4.408   1.158  11.680  0.4927 -0.1505  0.2669
 4259SOL    HW124239   4.502   1.161  11.697  0.5771 -1.2219 -0.0243
 4259SOL    HW224240   4.400   1.153  11.584  1.1561 -0.6805  0.2350
 4260SOL     OW24241   3.727   3.982   5.247 -0.2801 -0.1389 -0.3862
 4260SOL    HW124242   3.801   3.944   5.296 -0.5472 -0.4270 -0.2061
 4260SOL    HW224243   3.698   3.907   5.195  0.8189 -1.0539  0.3124
 4261SOL     OW24244   3.114   1.309   7.607  0.6659 -0.6528  0.0128
 4261SOL    HW124245   3.018   1.306   7.610  0.4752  3.5307 -1.2462
 4261SOL    HW224246   3.136   1.252   7.533  1.2339  1.1667 -1.2150
 4262SOL     OW24247   4.471   0.080   7.875 -0.1180 -0.2797  0.3328
 4262SOL    HW124248   4.429   4.718   7.891  2.3632 -1.5158  0.2633
 4262SOL    HW224249   4.398   0.119   7.827  0.3936 -0.9183 -0.9456
 4263SOL     OW24250   1.575   1.750   7.866  0.4472 -0.8773  0.6007
 4263SOL    HW124251   1.580   1.657   7.847  1.1582 -0.2370 -2.4118
 4263SOL    HW224252   1.566   1.787   7.778 -0.7618 -0.6257  0.8289
 4264SOL     OW24253   0.307   1.559   4.225  0.2088  0.2334 -0.1185
 4264SOL    HW124254   0.253   1.597   4.294 -0.3808  2.8602 -2.0280
 4264SOL    HW224255   0.245   1.490   4.199  1.2680  0.5756 -3.6131
 4265SOL     OW24256   2.734   2.043   7.730 -0.1914  0.3559  0.4630
 4265SOL    HW124257   2.810   2.063   7.784  0.7365 -1.1507 -0.2939
 4265SOL    HW224258   2.755   1.955   7.699  2.5127  2.0430 -2.4328
 4266SOL     OW24259   1.395   0.741   4.398 -0.6708  0.0199 -0.8004
 4266SOL    HW124260   1.350   0.659   4.377 -1.5514  0.3777 -0.3019
 4266SOL    HW224261   1.316   0.794   4.407  0.8979  2.0115  1.3966
 4267SOL     OW24262   0.856   4.337  14.044 -0.4684  0.2936  0.2033
 4267SOL    HW124263   0.952   4.333  14.037 -0.4333 -2.6612  2.3923
 4267SOL    HW224264   0.840   4.431  14.034  0.2500  0.4891  0.8331
 4268SOL     OW24265   3.514   2.468   6.583  1.0801  0.5591  0.1798
 4268SOL    HW124266   3.436   2.503   6.539  0.9091 -0.5257 -0.3621
 4268SOL    HW224267   3.587   2.508   6.535  1.6965 -1.2070 -0.3503
 4269SOL     OW24268   4.449   2.996   6.256 -0.6408 -0.2215  0.2266
 4269SOL    HW124269   4.534   3.030   6.229 -1.1559  1.7079  1.0236
 4269SOL    HW224270   4.429   2.923   6.199 -0.1365 -1.2193  1.3154
 4270SOL     OW24271   2.162   2.095   4.337 -0.2232  0.6714  0.1986
 4270SOL    HW124272   2.188   2.067   4.425  2.1991 -2.0789 -1.3727
 4270SOL    HW224273   2.206   2.180   4.340  0.7725  0.2196 -1.3039
 4271SOL     OW24274   0.767   4.136   5.769 -0.5413 -0.1862  0.6172
 4271SOL    HW124275   0.769   4.232   5.762 -1.8504 -0.1488  0.7329
 4271SOL    HW224276   0.731   4.112   5.683  1.0202 -0.4800  0.0611
 4272SOL     OW24277   2.701   4.683   5.279  0.2825  0.2795 -0.0864
 4272SOL    HW124278   2.611   4.714   5.280  0.5496  0.9826  1.2734
 4272SOL    HW224279   2.736   4.681   5.368 -0.7624 -1.2650  0.2937
 4273SOL     OW24280   2.016   0.738  13.965 -0.5191 -0.0005 -0.0941
 4273SOL    HW124281   1.963   0.818  13.961  0.5043  0.6509 -0.4004
 4273SOL    HW224282   1.975   0.685  13.898 -2.5577 -0.4092  1.4593
 4274SOL     OW24283   4.556   2.356   5.574  0.1940 -0.4829 -0.4696
 4274SOL    HW124284   4.498   2.345   5.499  0.5715 -0.0184 -0.8332
 4274SOL    HW224285   4.502   2.353   5.653  1.0350 -1.7763  0.0487
 4275SOL     OW24286   3.221   1.996   1.570 -0.2075 -0.4665 -0.0876
 4275SOL    HW124287   3.188   1.951   1.493 -1.6518  0.8888 -0.2665
 4275SOL    HW224288   3.309   2.014   1.536 -0.5872  0.9815 -0.3157
 4276SOL     OW24289   3.160   0.602   9.132 -0.1697 -0.0047  0.3658
 4276SOL    HW124290   3.252   0.577   9.119  0.5979  1.6730  2.4900
 4276SOL    HW224291   3.168   0.615   9.227  0.2539  2.2221  0.0088
 4277SOL     OW24292   2.218   1.569   6.444  0.4079 -0.4381 -0.1988
 4277SOL    HW124293   2.263   1.617   6.374 -0.4915  1.3794  0.4647
 4277SOL    HW224294   2.219   1.630   6.518 -0.1536 -0.8528  0.1441
 4278SOL     OW24295   2.336   4.563  14.679  0.3456 -0.0065  0.0046
 4278SOL    HW124296   2.411   4.526  14.632  0.6186  0.9340 -0.2952
 4278SOL    HW224297   2.306   4.491  14.734 -1.8062  0.8514 -0.0347
 4279SOL     OW24298   4.216   4.069   4.455  0.0183  0.2095  0.7181
 4279SOL    HW124299   4.216   3.988   4.403 -0.3918 -0.3762  1.6230
 4279SOL    HW224300   4.280   4.116   4.401 -0.4701  0.1821  0.1134
 4280SOL     OW24301   2.974   4.354   7.464 -0.4194 -0.5820 -0.3126
 4280SOL    HW124302   3.046   4.387   7.517 -0.9743 -0.1416  0.1691
 4280SOL    HW224303   3.002   4.268   7.433  0.1401 -1.1561  1.8436
 4281SOL     OW24304   3.562   3.358   4.010  0.0043  0.6529 -0.7119
 4281SOL    HW124305   3.653   3.364   3.980  0.2623  0.1195 -0.0409
 4281SOL    HW224306   3.549   3.444   4.050 -0.9972 -1.1040  2.7399
 4282SOL     OW24307   3.818   2.848   0.983 -0.4585  0.0419  0.1677
 4282SOL    HW124308   3.776   2.898   0.914 -0.8792 -0.7893 -0.1809
 4282SOL    HW224309   3.913   2.855   0.971 -0.1602 -1.5177  1.6326
 4283SOL     OW24310   0.613   0.601  17.467 -0.3469  0.6054 -0.2731
 4283SOL    HW124311   0.595   0.683  17.420 -1.6558  1.3977  1.6035
 4283SOL    HW224312   0.527   0.559  17.468 -1.1436  2.2016 -1.9425
 4284SOL     OW24313   4.112   0.640   7.555 -0.5018  0.7266  0.8513
 4284SOL    HW124314   4.032   0.661   7.507 -0.1635 -0.9678 -0.4636
 4284SOL    HW224315   4.086   0.668   7.643 -0.8884  0.0018  0.9647
 4285SOL     OW24316   4.361   1.656   3.932 -0.0243 -0.3387  0.3841
 4285SOL    HW124317   4.357   1.703   3.848  1.9696  3.1143  2.2389
 4285SOL    HW224318   4.430   1.593   3.911 -0.9202 -1.4501  0.7620
 4286SOL     OW24319   3.478   3.658   2.077  0.1230  0.5102  0.5195
 4286SOL    HW124320   3.517   3.686   2.160  1.1285  1.2797 -0.2161
 4286SOL    HW224321   3.539   3.585   2.064  0.5318  0.7073  1.3256
 4287SOL     OW24322   1.047   4.056  10.706 -0.0698  0.7939  0.5638
 4287SOL    HW124323   1.082   4.013  10.784 -0.6383  0.2386  0.5128
 4287SOL    HW224324   1.122   4.084  10.655  0.0903 -1.0285 -0.2043
 4288SOL     OW24325   2.597   1.406   6.767 -0.1799  0.0370 -0.2959
 4288SOL    HW124326   2.559   1.368   6.688 -1.6464  0.3602  0.2576
 4288SOL    HW224327   2.516   1.447   6.797  0.0422  1.5698 -1.7391
 4289SOL     OW24328   1.623   3.628  11.546 -0.6370  0.1040  0.8739
 4289SOL    HW124329   1.653   3.541  11.522  0.7820  0.8401 -0.0616
 4289SOL    HW224330   1.551   3.642  11.484  1.8763  1.8210 -1.6680
 4290SOL     OW24331   0.411   3.256  12.593  0.7076  0.3369  0.7740
 4290SOL    HW124332   0.408   3.305  12.675 -4.0301  2.8638 -0.8934
 4290SOL    HW224333   0.418   3.334  12.538  1.8810  0.2041  0.7380
 4291SOL     OW24334   3.391   4.359   5.431 -0.2188  0.5698  0.6760
 4291SOL    HW124335   3.459   4.293   5.427 -0.1904  0.5948  0.7350
 4291SOL    HW224336   3.382   4.382   5.339 -2.3182  0.0498  0.7456
 4292SOL     OW24337   1.378   4.139   8.734  0.2815  0.2630 -0.4377
 4292SOL    HW124338   1.440   4.089   8.680  1.0097 -0.6283  1.1948
 4292SOL    HW224339   1.338   4.199   8.672  1.1050  1.0701 -0.1891
 4293SOL     OW24340   3.368   4.474   4.279 -0.1204  0.6121 -0.3009
 4293SOL    HW124341   3.420   4.397   4.302  0.0071  0.3854 -1.3515
 4293SOL    HW224342   3.277   4.450   4.296  0.2100 -1.3514 -1.2439
 4294SOL     OW24343   0.169   0.238   3.821  0.5835  0.1828 -0.0650
 4294SOL    HW124344   0.190   0.312   3.878  2.6199 -0.0802 -0.4665
 4294SOL    HW224345   0.230   0.252   3.749  0.3856 -0.4393 -0.3474
 4295SOL     OW24346   2.477   3.293  16.780 -0.0679  1.2697  0.1522
 4295SOL    HW124347   2.514   3.261  16.862 -3.9603 -0.9340  1.0632
 4295SOL    HW224348   2.382   3.285  16.793  0.0521 -1.9062 -1.0229
 4296SOL     OW24349   2.108   1.121   2.195 -0.7470  0.4047 -0.2984
 4296SOL    HW124350   2.043   1.084   2.135 -1.8431  1.9840 -0.0886
 4296SOL    HW224351   2.163   1.179   2.143  2.7596 -0.6233  2.2649
 4297SOL     OW24352   1.429   0.314   6.323  0.7568  0.2674 -0.0891
 4297SOL    HW124353   1.392   0.293   6.237  3.0213  0.5238 -1.1250
 4297SOL    HW224354   1.357   0.336   6.382 -1.0677  1.9270 -2.9546
 4298SOL     OW24355   0.391   0.389   2.837  0.0060  0.1091 -0.1271
 4298SOL    HW124356   0.395   0.307   2.885 -0.2353 -0.1182 -0.4929
 4298SOL    HW224357   0.307   0.426   2.866  0.1557  0.2654  0.1051
 4299SOL     OW24358   4.203   1.888   6.362  0.1379  0.3879  0.3497
 4299SOL    HW124359   4.216   1.980   6.342  0.2370  0.2692 -0.1239
 4299SOL    HW224360   4.206   1.851   6.274 -2.9286  0.7455  0.0758
 4300SOL     OW24361   3.658   0.393   2.363  0.3080  0.0897  0.5542
 4300SOL    HW124362   3.715   0.453   2.315 -0.1928 -0.4126 -0.6637
 4300SOL    HW224363   3.586   0.381   2.301  1.1959 -1.9275 -0.1114
 4301SOL     OW24364   4.439   2.298  14.963 -0.3047 -0.1684  0.5623
 4301SOL    HW124365   4.399   2.225  15.011  1.7464 -1.5721  0.1206
 4301SOL    HW224366   4.520   2.302  15.014  1.4770 -0.7782 -2.2324
 4302SOL     OW24367   3.518   4.432   3.251  0.4342  0.1257  0.0179
 4302SOL    HW124368   3.456   4.359   3.244 -0.1224  0.3561  2.8373
 4302SOL    HW224369   3.556   4.415   3.164 -2.1492 -0.7508 -0.9349
 4303SOL     OW24370   0.464   2.669   8.913 -0.0976 -0.1449 -0.3848
 4303SOL    HW124371   0.493   2.742   8.968 -3.5430 -0.3399  1.7110
 4303SOL    HW224372   0.552   2.669   8.876 -1.0468  3.3938 -2.6956
 4304SOL     OW24373   2.799   2.279  11.623 -0.2057  0.4379 -0.4716
 4304SOL    HW124374   2.859   2.258  11.551  1.3630  0.0840  0.9281
 4304SOL    HW224375   2.765   2.362  11.590  0.2347  0.8633  0.1354
 4305SOL     OW24376   0.110   1.818   6.245  0.0406  0.2498 -0.4301
 4305SOL    HW124377   0.050   1.752   6.281  2.2336 -0.9439  1.0878
 4305SOL    HW224378   0.057   1.895   6.266  0.8866  1.6648 -3.5963
 4306SOL     OW24379   0.057   3.582   5.758 -0.4570 -0.1892  0.0071
 4306SOL    HW124380   0.053   3.656   5.697  1.5801 -1.6185 -1.8692
 4306SOL    HW224381   0.073   3.623   5.842 -0.9144  2.2089 -1.0686
 4307SOL     OW24382   1.330   2.520   9.660  0.1063  0.2509 -0.0684
 4307SOL    HW124383   1.390   2.458   9.618 -0.0689 -0.0769  0.1648
 4307SOL    HW224384   1.385   2.594   9.686 -0.1501  0.6978 -0.8060
 4308SOL     OW24385   2.207   1.468   5.357 -0.7915 -0.5394  0.4826
 4308SOL    HW124386   2.130   1.448   5.304  1.9660 -2.0287 -3.0094
 4308SOL    HW224387   2.172   1.456   5.446 -0.0494  1.6555  1.0660
 4309SOL     OW24388   4.665   4.561   2.693 -0.4140 -0.4087  0.0832
 4309SOL    HW124389   4.706   4.609   2.621 -0.5906  0.3918  0.5167
 4309SOL    HW224390   0.004   4.489   2.688  0.8398  0.7514 -1.2831
 4310SOL     OW24391   3.686   4.554   4.712  0.1451 -0.1827  0.2617
 4310SOL    HW124392   3.603   4.512   4.690 -0.2297  0.6819  0.0152
 4310SOL    HW224393   3.678   4.628   4.651  0.0421  0.1329  0.6504
 4311SOL     OW24394   3.118   0.816   7.726  0.2484 -0.3843 -0.3027
 4311SOL    HW124395   3.151   0.874   7.658 -2.4191  1.7877  0.2340
 4311SOL    HW224396   3.124   0.729   7.687 -2.7517 -1.1793  0.9373
 4312SOL     OW24397   0.685   3.031   2.141  0.3215 -0.8789 -0.7755
 4312SOL    HW124398   0.627   2.956   2.130 -2.0389  0.8017  0.4218
 4312SOL    HW224399   0.661   3.081   2.063 -0.8133 -0.4783 -0.1574
 4313SOL     OW24400   2.689   2.523   8.062  0.2849 -0.2803  0.1957
 4313SOL    HW124401   2.642   2.469   7.999 -0.4284 -0.0880  0.5688
 4313SOL    HW224402   2.752   2.576   8.012 -0.9810  1.3608  0.3399
 4314SOL     OW24403   2.291   3.965   2.903  0.1810 -0.0297 -0.8254
 4314SOL    HW124404   2.282   4.043   2.848  1.4009 -0.3693 -1.4866
 4314SOL    HW224405   2.385   3.951   2.902  0.5621  2.4980  0.4484
 4315SOL     OW24406   3.315   1.341  12.949  0.1783 -0.1247 -0.8225
 4315SOL    HW124407   3.291   1.430  12.976  0.4965 -0.1971 -0.2913
 4315SOL    HW224408   3.348   1.361  12.862  2.3115  0.6469  0.1599
 4316SOL     OW24409   1.599   2.965   7.351 -0.1831 -0.6052 -0.5471
 4316SOL    HW124410   1.612   3.013   7.269 -0.2585 -0.4888 -0.4900
 4316SOL    HW224411   1.629   3.028   7.415 -2.1631 -0.9446  0.7179
 4317SOL     OW24412   2.396   0.767   7.992 -0.6085 -0.1919 -0.1593
 4317SOL    HW124413   2.308   0.804   7.986 -0.1076  1.1202  0.7194
 4317SOL    HW224414   2.419   0.793   8.081  2.6321 -0.1004 -1.0162
 4318SOL     OW24415   0.903   1.772   8.400 -0.6376 -0.9309  0.1598
 4318SOL    HW124416   0.872   1.684   8.419 -1.4334 -1.1629 -2.1852
 4318SOL    HW224417   0.976   1.791   8.460 -2.2103  0.2383  1.7073
 4319SOL     OW24418   1.854   2.033   7.683 -0.4019 -0.1029  0.2999
 4319SOL    HW124419   1.934   2.071   7.719 -1.5007  1.5560  0.9878
 4319SOL    HW224420   1.789   2.090   7.723 -0.3724 -2.0638  3.1291
 4320SOL     OW24421   0.356   1.765   6.369 -0.0016 -0.2352  0.1472
 4320SOL    HW124422   0.294   1.756   6.297  1.8825  0.5174 -1.5509
 4320SOL    HW224423   0.291   1.753   6.439 -1.2824 -1.5349 -1.2610
 4321SOL     OW24424   2.942   3.669   5.272 -0.8891  0.2027  0.3494
 4321SOL    HW124425   2.996   3.748   5.274 -1.3126  0.5510 -2.1532
 4321SOL    HW224426   2.967   3.610   5.343 -1.0168 -2.3059 -1.6950
 4322SOL     OW24427   1.040   0.415  10.878 -0.4808 -0.4614  0.1631
 4322SOL    HW124428   1.129   0.405  10.844  0.0411 -0.3164  1.4716
 4322SOL    HW224429   1.057   0.414  10.973  3.0723  2.0086 -0.4633
 4323SOL     OW24430   3.524   3.649   2.483  0.2874 -0.0880 -0.8170
 4323SOL    HW124431   3.455   3.620   2.543 -0.7538  0.7279 -1.6201
 4323SOL    HW224432   3.481   3.722   2.437 -0.3978  0.1627  0.2234
 4324SOL     OW24433   3.126   3.425   1.968 -0.5320  0.2548  0.2952
 4324SOL    HW124434   3.086   3.340   1.986  1.2508 -0.5360  0.5250
 4324SOL    HW224435   3.186   3.408   1.895  0.2207  2.0996  0.4686
 4325SOL     OW24436   4.533   4.326   6.562  0.1037  0.0415 -0.2097
 4325SOL    HW124437   4.611   4.274   6.544 -1.8596 -2.2294 -2.0990
 4325SOL    HW224438   4.462   4.270   6.531 -2.1322  1.4974  2.3317
 4326SOL     OW24439   0.554   4.532  15.629  0.2913 -0.4680 -0.1905
 4326SOL    HW124440   0.459   4.546  15.628  0.3124 -0.2789  0.5378
 4326SOL    HW224441   0.564   4.453  15.576 -1.5687 -1.2633  0.6367
 4327SOL     OW24442   1.973   1.343   5.305 -0.6096 -0.3139  0.5857
 4327SOL    HW124443   1.931   1.323   5.389 -0.0561 -3.3415  0.1396
 4327SOL    HW224444   1.990   1.256   5.270 -1.5586  0.7558 -2.4634
 4328SOL     OW24445   0.262   1.963   6.650 -0.2518 -0.3853  0.0138
 4328SOL    HW124446   0.282   2.030   6.715  1.6968 -0.3219 -0.6499
 4328SOL    HW224447   0.342   1.952   6.598  1.2768  2.7228  1.7069
 4329SOL     OW24448   0.711   1.582   8.454  0.0045 -0.1794  0.0661
 4329SOL    HW124449   0.627   1.594   8.500 -0.2491 -1.1520 -0.1505
 4329SOL    HW224450   0.741   1.503   8.498  1.8920 -0.3298 -1.5124
 4330SOL     OW24451   0.318   1.093   7.751 -0.5966 -0.1709 -0.0161
 4330SOL    HW124452   0.332   1.188   7.746 -2.1701  0.1095  0.9881
 4330SOL    HW224453   0.388   1.064   7.693 -0.7785  2.1223 -1.3746
 4331SOL     OW24454   3.419   3.597  11.548 -0.1606  0.0098 -0.4096
 4331SOL    HW124455   3.380   3.526  11.598 -0.8330 -0.1028 -1.0970
 4331SOL    HW224456   3.509   3.589  11.581 -0.5471 -1.0152  0.3883
 4332SOL     OW24457   1.332   0.207   6.067  0.0352 -0.7912 -0.0980
 4332SOL    HW124458   1.270   0.251   6.011  0.1423 -0.9471 -0.3387
 4332SOL    HW224459   1.402   0.172   6.011  1.8336  0.7753  1.1601
 4333SOL     OW24460   0.322   0.630   3.108  0.3057 -0.1271  0.4790
 4333SOL    HW124461   0.287   0.624   3.019 -1.4574  0.0076  1.1637
 4333SOL    HW224462   0.256   0.602   3.171  0.2624  1.0354  0.9507
 4334SOL     OW24463   4.537   0.247   3.481  0.0599  0.1262  0.1153
 4334SOL    HW124464   4.556   0.333   3.444 -0.2425 -0.1549 -0.6968
 4334SOL    HW224465   4.522   0.189   3.406 -1.4590 -0.4473  0.8512
 4335SOL     OW24466   1.569   1.501   8.905  0.0796  0.4365  0.6323
 4335SOL    HW124467   1.506   1.560   8.946 -2.0595 -0.3264 -1.5824
 4335SOL    HW224468   1.586   1.430   8.968  1.0919  1.5327  1.5900
 4336SOL     OW24469   4.532   1.281  17.071 -0.8048  0.2525 -0.1899
 4336SOL    HW124470   4.518   1.186  17.079 -0.1138  0.2681  1.1056
 4336SOL    HW224471   4.542   1.285  16.976  0.6278 -0.9843 -0.0881
 4337SOL     OW24472   0.730   3.369   2.880  0.2032 -0.4684  0.5777
 4337SOL    HW124473   0.694   3.333   2.799  2.7543 -3.0791  0.6023
 4337SOL    HW224474   0.822   3.342   2.876  0.4491  0.6208 -1.0364
 4338SOL     OW24475   0.943   4.089  10.151 -0.0019 -0.9546 -0.0659
 4338SOL    HW124476   0.855   4.086  10.113  0.8183 -1.7807 -1.8607
 4338SOL    HW224477   0.960   3.995  10.152  1.4597 -0.6806  0.3277
 4339SOL     OW24478   2.381   0.492   4.947 -0.0917  0.1425 -0.1139
 4339SOL    HW124479   2.430   0.550   4.889 -0.1433 -1.3810 -1.6624
 4339SOL    HW224480   2.372   0.549   5.023 -0.1517  1.1833 -0.9053
 4340SOL     OW24481   0.023   1.315   6.906  0.0459 -0.0129 -0.1029
 4340SOL    HW124482   0.005   1.389   6.847  0.4065 -0.9639 -1.3961
 4340SOL    HW224483   0.087   1.349   6.968 -0.1029 -1.7356  0.9884
 4341SOL     OW24484   0.909   1.905  16.084  0.0826 -0.2824 -0.1602
 4341SOL    HW124485   0.924   1.999  16.093  2.4591 -0.6785  0.1753
 4341SOL    HW224486   0.846   1.912  16.013 -0.2108  0.3105  0.1515
 4342SOL     OW24487   3.274   2.254   1.190 -0.5340 -0.1743  0.2775
 4342SOL    HW124488   3.241   2.343   1.197 -1.0517 -0.3620  0.2372
 4342SOL    HW224489   3.321   2.263   1.107 -1.1484  0.9297  0.0579
 4343SOL     OW24490   0.290   2.953  14.218 -0.5301 -0.0286 -0.7372
 4343SOL    HW124491   0.228   3.012  14.260 -0.1172  0.3954 -0.7245
 4343SOL    HW224492   0.250   2.866  14.227 -0.4874  0.3012  2.7510
 4344SOL     OW24493   3.942   1.315   4.832 -0.0396 -0.0852  0.7303
 4344SOL    HW124494   4.005   1.255   4.792 -1.1876 -1.0193  0.3349
 4344SOL    HW224495   3.981   1.399   4.809 -0.0875 -0.3695 -0.3838
 4345SOL     OW24496   0.262   2.617   6.075 -0.8262 -0.1930  0.5360
 4345SOL    HW124497   0.200   2.617   6.002  1.1859  0.3581 -1.1490
 4345SOL    HW224498   0.306   2.700   6.055  1.2653 -1.2594  0.7443
 4346SOL     OW24499   1.217   3.041   1.593  0.0539 -0.3975 -0.0313
 4346SOL    HW124500   1.178   2.991   1.522  2.1052  2.1368 -2.9725
 4346SOL    HW224501   1.263   2.976   1.647  0.4846  0.2494  0.3873
 4347SOL     OW24502   0.222   3.886   4.715  0.1315  0.2840  0.2818
 4347SOL    HW124503   0.225   3.919   4.626 -0.5442  0.3469  0.2854
 4347SOL    HW224504   0.185   3.965   4.754  0.2671  1.1530 -1.3731
 4348SOL     OW24505   2.121   0.393   0.338 -0.2073 -0.3851 -0.3416
 4348SOL    HW124506   2.144   0.435   0.255 -2.1925  0.8021 -0.3026
 4348SOL    HW224507   2.097   0.470   0.390  0.4680  1.0156 -2.1038
 4349SOL     OW24508   0.235   1.639   6.039 -0.0795  0.2205  0.1756
 4349SOL    HW124509   0.175   1.565   6.023 -0.6479  0.4763  1.1224
 4349SOL    HW224510   0.197   1.686   6.113  1.1660 -0.1885  1.0705
 4350SOL     OW24511   1.014   2.047   0.253  0.0021 -0.1275 -0.5276
 4350SOL    HW124512   1.105   2.019   0.263  0.4568  1.1291 -1.1614
 4350SOL    HW224513   0.974   1.990   0.318  2.7832  0.3710  1.6190
 4351SOL     OW24514   2.905   0.586   6.538 -0.1443  0.5834 -0.0533
 4351SOL    HW124515   2.904   0.543   6.453 -0.5244 -1.7556  1.1442
 4351SOL    HW224516   2.897   0.512   6.598 -2.1005 -0.3348 -1.4530
 4352SOL     OW24517   0.132   1.851   4.923 -0.4325  0.1585 -0.7338
 4352SOL    HW124518   0.109   1.826   5.012 -0.1088  1.0072 -0.4190
 4352SOL    HW224519   0.223   1.875   4.938 -0.3592 -0.3427 -0.3545
 4353SOL     OW24520   4.105   3.968   2.001 -0.1199 -0.8126  0.2926
 4353SOL    HW124521   4.188   3.935   2.036  0.4347 -0.2047 -0.4177
 4353SOL    HW224522   4.062   3.993   2.082 -0.2757 -1.5777  0.4392
 4354SOL     OW24523   0.013   0.176   9.309  0.1821  0.0249 -0.3008
 4354SOL    HW124524   4.686   0.155   9.230  0.7554  1.4707 -1.0458
 4354SOL    HW224525   4.697   0.116   9.373  0.5343 -0.5667 -0.6396
 4355SOL     OW24526   2.103   2.972  11.503 -0.1248 -0.2453  0.3788
 4355SOL    HW124527   2.151   2.970  11.420 -0.9871 -2.5250 -0.0602
 4355SOL    HW224528   2.019   2.972  11.458 -0.4263  0.6005  0.9380
 4356SOL     OW24529   0.799   4.445   4.699 -0.0144  0.2822  0.4545
 4356SOL    HW124530   0.742   4.407   4.632  0.2245  0.9462 -0.1221
 4356SOL    HW224531   0.764   4.534   4.694 -1.9489 -0.6063 -1.6596
 4357SOL     OW24532   2.656   1.213   2.202 -0.3795 -0.3584 -0.4864
 4357SOL    HW124533   2.692   1.135   2.160  0.5462  0.7885 -1.8568
 4357SOL    HW224534   2.727   1.231   2.264 -0.8829 -0.0767  0.0049
 4358SOL     OW24535   4.391   1.656  15.849 -0.1779 -0.0375 -0.0631
 4358SOL    HW124536   4.476   1.683  15.883  0.0939 -0.3514 -0.4849
 4358SOL    HW224537   4.395   1.567  15.815  1.4550  1.2600 -3.3616
 4359SOL     OW24538   1.492   0.595  13.565 -0.5702 -0.2120  0.4308
 4359SOL    HW124539   1.587   0.580  13.569 -0.6492 -0.2415  2.3598
 4359SOL    HW224540   1.485   0.666  13.630 -1.5688 -0.0561  0.1441
 4360SOL     OW24541   4.691   3.538  15.107  0.7109 -0.3345 -0.1822
 4360SOL    HW124542   4.651   3.514  15.023  0.6904  1.0075 -0.5503
 4360SOL    HW224543   4.619   3.582  15.152  1.7584  1.6415 -0.4454
 4361SOL     OW24544   0.515   3.848   1.611 -0.2809  0.7003  0.0264
 4361SOL    HW124545   0.530   3.919   1.674  0.2009  0.9954 -0.4204
 4361SOL    HW224546   0.420   3.848   1.603 -0.3004  1.6205  0.2095
 4362SOL     OW24547   0.881   0.245  15.088 -0.4157  0.0334  0.4748
 4362SOL    HW124548   0.835   0.292  15.157 -0.0080 -0.5680  1.1528
 4362SOL    HW224549   0.861   0.153  15.105  2.3318 -0.2859  1.9805
 4363SOL     OW24550   0.406   4.698   8.988  0.0582 -0.2639  1.0592
 4363SOL    HW124551   0.421   0.035   9.062 -0.6802  0.0316  0.9795
 4363SOL    HW224552   0.381   0.045   8.927 -0.5450 -2.4947 -1.2273
 4364SOL     OW24553   3.223   3.135   5.814  0.0689  0.0784 -0.2407
 4364SOL    HW124554   3.138   3.113   5.854 -1.1472  0.5603 -2.5225
 4364SOL    HW224555   3.218   3.108   5.722  3.0963  0.0052 -0.3812
 4365SOL     OW24556   0.229   4.531   8.882  0.1463 -0.6572  0.5375
 4365SOL    HW124557   0.287   4.586   8.934  1.9847 -1.6991 -0.3846
 4365SOL    HW224558   0.216   4.456   8.940  1.3773 -0.0835  1.5382
 4366SOL     OW24559   2.675   3.655   8.265  0.2554  0.4702 -0.3712
 4366SOL    HW124560   2.653   3.748   8.258  1.0493  0.5131 -2.2667
 4366SOL    HW224561   2.613   3.617   8.202  1.0773 -0.8047 -0.4074
 4367SOL     OW24562   1.868   0.520   8.745 -0.1944 -0.4557 -0.2540
 4367SOL    HW124563   1.803   0.590   8.749  1.0609  0.6800  0.3687
 4367SOL    HW224564   1.902   0.524   8.835  0.4309  0.2742 -0.5289
 4368SOL     OW24565   1.023   1.158  17.467 -0.3954  0.0258 -0.7067
 4368SOL    HW124566   0.973   1.097  17.412  3.4392 -2.4850 -1.4145
 4368SOL    HW224567   1.090   1.103  17.508  2.2595  0.8392 -3.9847
 4369SOL     OW24568   2.966   0.154   0.369 -0.2696  0.1681  0.8468
 4369SOL    HW124569   2.988   0.182   0.280 -0.8497 -0.2424  0.5773
 4369SOL    HW224570   2.873   0.175   0.373 -0.2638  0.1891  0.8708
 4370SOL     OW24571   2.492   0.326   8.108 -0.4843 -0.6362  0.3635
 4370SOL    HW124572   2.505   0.388   8.036  1.2777 -0.0330  1.2246
 4370SOL    HW224573   2.432   0.380   8.159 -0.0290  0.7268 -0.5365
 4371SOL     OW24574   4.675   1.591  13.851 -0.3443 -0.0575  0.1419
 4371SOL    HW124575   4.680   1.678  13.812  1.4236 -0.3770 -0.3413
 4371SOL    HW224576   4.584   1.594  13.881  0.2978  0.5740  1.9879
 4372SOL     OW24577   3.298   3.703  17.006  0.1613  0.0463  0.1277
 4372SOL    HW124578   3.355   3.770  17.041 -0.4802  0.8127 -0.3027
 4372SOL    HW224579   3.259   3.752  16.934  0.3887 -0.8393 -0.6061
 4373SOL     OW24580   3.728   2.248  13.110 -0.2371 -0.6206  0.2003
 4373SOL    HW124581   3.781   2.309  13.162  1.3131 -1.0491 -0.8872
 4373SOL    HW224582   3.682   2.301  13.045  0.6979 -1.2275 -0.9575
 4374SOL     OW24583   2.568   2.992   6.533 -0.0894 -0.0403  0.0521
 4374SOL    HW124584   2.498   2.991   6.598  0.2354  4.4199  0.4201
 4374SOL    HW224585   2.645   3.019   6.583 -1.8012  3.0350  0.9722
 4375SOL     OW24586   3.515   3.217  17.007  0.8712  0.5295 -0.6004
 4375SOL    HW124587   3.563   3.243  17.085  1.5432 -1.3330 -0.4120
 4375SOL    HW224588   3.570   3.144  16.979  0.9509  1.1228 -2.0099
 4376SOL     OW24589   0.742   1.545  15.994 -0.6798 -0.2458 -0.0988
 4376SOL    HW124590   0.832   1.579  15.985 -1.0247  0.7543  0.1625
 4376SOL    HW224591   0.750   1.459  15.953 -0.6856 -0.4952  0.4202
 4377SOL     OW24592   1.135   3.230   1.789 -0.2484  0.1969  0.2129
 4377SOL    HW124593   1.170   3.145   1.761  0.5488  0.2071  1.1760
 4377SOL    HW224594   1.173   3.276   1.715 -0.3626 -0.1658 -0.0732
 4378SOL     OW24595   3.567   3.076  11.916  0.1058 -0.6794  0.0464
 4378SOL    HW124596   3.599   2.987  11.909  0.1714 -0.4166 -2.8465
 4378SOL    HW224597   3.500   3.072  11.984  0.2039  3.3457  0.3697
 4379SOL     OW24598   3.507   0.700   7.581 -0.6960  0.5486 -0.1679
 4379SOL    HW124599   3.494   0.743   7.497  1.5479  0.0462 -0.7850
 4379SOL    HW224600   3.445   0.627   7.574 -2.7132  2.0574  1.9551
 4380SOL     OW24601   3.234   4.614  13.214  0.9027 -0.2610  0.2939
 4380SOL    HW124602   3.282   4.538  13.248  0.6548  0.0049  1.2528
 4380SOL    HW224603   3.194   4.578  13.136  1.2078  2.7360 -1.2663
 4381SOL     OW24604   1.900   3.676   5.986  0.0552 -0.8098 -0.0959
 4381SOL    HW124605   1.984   3.633   5.969  0.7510 -0.7311  3.1130
 4381SOL    HW224606   1.873   3.719   5.905 -0.5212 -1.5445 -0.2977
 4382SOL     OW24607   2.814   3.930  17.214  1.0350 -0.0695  0.1329
 4382SOL    HW124608   2.794   3.866  17.282  0.1645  3.2585  2.9843
 4382SOL    HW224609   2.731   3.971  17.188  1.0083 -0.6206 -0.6436
 4383SOL     OW24610   1.485   1.217   1.876  0.0722  0.6972  0.2101
 4383SOL    HW124611   1.504   1.258   1.960 -0.1816  1.2351  0.0054
 4383SOL    HW224612   1.435   1.292   1.844 -2.0876  0.0298  1.9981
 4384SOL     OW24613   0.636   3.428   0.208  0.4463 -0.7311  0.6856
 4384SOL    HW124614   0.682   3.373   0.145 -1.6716 -0.3931 -1.1460
 4384SOL    HW224615   0.643   3.375   0.287  0.6848  0.5106  1.5025
 4385SOL     OW24616   0.182   1.559   4.505 -0.5994  0.1976  0.1268
 4385SOL    HW124617   0.138   1.481   4.540 -0.7634  0.5133  0.6233
 4385SOL    HW224618   0.130   1.630   4.543  1.4170  0.8872  1.5945
 4386SOL     OW24619   0.845   0.234   4.389 -0.0020  0.1309 -0.2132
 4386SOL    HW124620   0.885   0.161   4.341  1.4541 -0.2958  1.6789
 4386SOL    HW224621   0.927   0.283   4.396  1.1572 -1.9660  0.8038
 4387SOL     OW24622   4.692   0.910   6.321 -0.3759 -0.0051 -0.6626
 4387SOL    HW124623   0.053   0.926   6.278  0.0564  3.0458  1.3145
 4387SOL    HW224624   4.716   0.920   6.413 -0.3823  0.7451 -0.7442
 4388SOL     OW24625   3.429   0.952   6.701  0.3343  0.0807 -0.4274
 4388SOL    HW124626   3.468   0.878   6.747 -1.8541 -1.2660 -0.7060
 4388SOL    HW224627   3.491   1.024   6.709 -1.6799  1.7179  0.6148
 4389SOL     OW24628   2.865   4.642   3.684  0.0393  0.0392 -0.5980
 4389SOL    HW124629   2.864   4.640   3.779  3.0251  0.2172 -0.5449
 4389SOL    HW224630   2.795   4.706   3.671  1.2012  1.5159  0.2810
 4390SOL     OW24631   3.304   3.255   6.354  0.3282 -0.1154 -0.4814
 4390SOL    HW124632   3.257   3.183   6.312 -1.5972  0.9567 -0.1801
 4390SOL    HW224633   3.380   3.261   6.296 -0.3344 -1.9149 -1.5490
 4391SOL     OW24634   0.233   2.871   8.736 -0.0921  0.4285 -0.4177
 4391SOL    HW124635   0.138   2.875   8.738 -0.0119  1.4357  0.7559
 4391SOL    HW224636   0.255   2.836   8.822  0.1599  1.5631 -0.0220
 4392SOL     OW24637   0.677   2.531   8.383 -0.0309  0.0829  0.2642
 4392SOL    HW124638   0.685   2.456   8.325  0.8445 -0.2820  0.8522
 4392SOL    HW224639   0.743   2.509   8.449  0.9970  1.5779 -0.2535
 4393SOL     OW24640   3.250   1.353   5.822 -0.0485 -0.3080  0.4770
 4393SOL    HW124641   3.286   1.441   5.832  0.8335 -0.5046 -0.9090
 4393SOL    HW224642   3.173   1.365   5.766  1.8547 -0.8849 -2.2655
 4394SOL     OW24643   3.720   1.166   5.117 -1.0901 -0.3506  0.2560
 4394SOL    HW124644   3.746   1.152   5.208 -0.0103  2.3584  0.3523
 4394SOL    HW224645   3.760   1.095   5.066 -0.9443 -1.2480  1.6198
 4395SOL     OW24646   2.169   0.718   6.359 -0.5628 -0.2142  0.0195
 4395SOL    HW124647   2.264   0.706   6.357 -0.3662  1.4458 -0.0093
 4395SOL    HW224648   2.160   0.812   6.347  0.0508 -0.3564 -1.5766
 4396SOL     OW24649   0.167   1.231   9.019  0.4099 -0.1726  0.6571
 4396SOL    HW124650   0.169   1.326   9.028 -1.1948  0.0771 -1.5780
 4396SOL    HW224651   0.165   1.221   8.923  0.1400  1.1503  0.5277
 4397SOL     OW24652   1.180   0.584   4.305  0.1240 -0.3653  0.4778
 4397SOL    HW124653   1.099   0.628   4.333 -1.1577 -1.1154 -1.9921
 4397SOL    HW224654   1.186   0.513   4.369 -0.1407 -1.6303 -0.9008
 4398SOL     OW24655   4.060   0.454   1.339 -0.0562 -0.0510 -0.0311
 4398SOL    HW124656   3.969   0.444   1.311 -0.4763 -3.5615  2.6287
 4398SOL    HW224657   4.103   0.464   1.254  1.1357  0.1171  0.5901
 4399SOL     OW24658   2.627   1.973  11.178  0.2764 -0.4669 -0.3418
 4399SOL    HW124659   2.617   2.059  11.138 -2.7290 -1.1396 -1.0731
 4399SOL    HW224660   2.635   1.987  11.273 -1.0907  0.6255 -0.3897
 4400SOL     OW24661   1.056   4.132   0.084 -0.1330  0.5259 -0.1034
 4400SOL    HW124662   1.139   4.088   0.066 -0.8652 -0.8946 -0.1054
 4400SOL    HW224663   1.014   4.066   0.140 -2.1971  0.7654 -1.3667
 4401SOL     OW24664   3.998   2.355   7.821  0.0639 -0.2704 -0.0541
 4401SOL    HW124665   3.937   2.352   7.748  1.9896  0.2847 -1.6921
 4401SOL    HW224666   3.944   2.375   7.897  0.9969  0.1999  0.4937
 4402SOL     OW24667   2.848   3.441  17.523  0.4890 -0.4094 -0.0867
 4402SOL    HW124668   2.758   3.411  17.513  0.4982 -0.0006 -1.3581
 4402SOL    HW224669   2.835   3.471  17.613 -1.2174  1.3122 -0.9151
 4403SOL     OW24670   3.621   1.354   1.142  0.0475 -0.1104  0.2432
 4403SOL    HW124671   3.707   1.319   1.167  0.4027 -0.4769 -1.4810
 4403SOL    HW224672   3.634   1.419   1.073 -0.5190  0.5688  0.7742
 4404SOL     OW24673   3.602   2.832   9.656 -0.5837  0.2591 -0.3236
 4404SOL    HW124674   3.661   2.813   9.584 -0.4135 -0.6373  0.0502
 4404SOL    HW224675   3.543   2.759   9.636  0.6830 -1.6607  2.8981
 4405SOL     OW24676   3.107   0.192   4.411  0.0415  0.5147  0.5962
 4405SOL    HW124677   3.059   0.247   4.472 -3.1911 -1.5558 -0.1114
 4405SOL    HW224678   3.197   0.223   4.423  0.4332 -1.1276  1.8778
 4406SOL     OW24679   2.940   1.664   4.793  0.1112  0.1988  0.1379
 4406SOL    HW124680   3.002   1.711   4.850 -0.0777 -0.1694  0.6440
 4406SOL    HW224681   2.989   1.646   4.713 -2.8052 -1.4751 -1.2332
 4407SOL     OW24682   1.454   3.223   2.367  0.6658 -0.0258 -0.4727
 4407SOL    HW124683   1.416   3.177   2.293 -0.0422  0.7539 -0.5957
 4407SOL    HW224684   1.381   3.259   2.419 -0.0382  0.6182 -1.8942
 4408SOL     OW24685   0.403   0.425   6.933  0.5929  0.8888  0.0313
 4408SOL    HW124686   0.321   0.439   6.886  0.4353  0.0847  0.0639
 4408SOL    HW224687   0.450   0.381   6.862  1.7145 -0.5065  1.6358
 4409SOL     OW24688   0.316   1.938  17.228  0.2478  0.2113 -0.3427
 4409SOL    HW124689   0.390   1.879  17.215  0.3439  0.1368  0.5330
 4409SOL    HW224690   0.246   1.893  17.182  0.0308 -0.5277  0.7114
 4410SOL     OW24691   3.374   0.773   1.619  0.1683 -0.2255  0.2032
 4410SOL    HW124692   3.341   0.862   1.629 -0.8322 -0.5213 -0.4736
 4410SOL    HW224693   3.309   0.725   1.568  2.1364 -3.4398  0.7458
 4411SOL     OW24694   2.463   0.997   5.857  0.0573 -0.1460 -0.4218
 4411SOL    HW124695   2.534   1.061   5.862  0.2847 -0.4008 -0.3860
 4411SOL    HW224696   2.418   1.023   5.937  0.4878 -0.7875  0.0246
 4412SOL     OW24697   1.703   1.717   0.491 -0.6489  0.3266 -0.0549
 4412SOL    HW124698   1.656   1.636   0.507  0.6487 -0.3748  0.2107
 4412SOL    HW224699   1.738   1.733   0.579 -0.7708  0.6271 -0.0583
 4413SOL     OW24700   0.488   0.598  11.690  0.2809  0.8157 -0.3394
 4413SOL    HW124701   0.548   0.539  11.736 -0.8665 -2.2310 -2.7057
 4413SOL    HW224702   0.411   0.587  11.746  0.9429 -0.9976  0.2303
 4414SOL     OW24703   0.365   3.301   5.924  0.3946  0.7435 -0.1204
 4414SOL    HW124704   0.322   3.384   5.946 -0.5850  0.1314  0.2587
 4414SOL    HW224705   0.304   3.262   5.862 -0.7269 -1.2210  2.2224
 4415SOL     OW24706   3.818   3.118  15.878  0.3564 -0.2936 -1.0597
 4415SOL    HW124707   3.863   3.122  15.794  1.2828 -2.5288 -0.6530
 4415SOL    HW224708   3.888   3.093  15.938 -1.0758  0.7279  1.0486
 4416SOL     OW24709   4.448   2.233   6.178  0.4391  0.2682 -0.1770
 4416SOL    HW124710   4.525   2.282   6.149  0.2439  0.0766 -1.0139
 4416SOL    HW224711   4.409   2.291   6.244  1.3026  1.9731 -1.1548
 4417SOL     OW24712   2.332   1.866   3.782  0.6159 -0.4378  0.7001
 4417SOL    HW124713   2.280   1.939   3.749  2.8542  0.8439  0.0100
 4417SOL    HW224714   2.272   1.793   3.769 -0.0810 -0.1728  2.3480
 4418SOL     OW24715   1.980   0.028   4.490 -0.5617 -0.0841  0.5067
 4418SOL    HW124716   1.980   4.655   4.485  0.2172  0.1158 -3.4321
 4418SOL    HW224717   2.071   0.045   4.515 -0.6832  0.2942  0.6900
 4419SOL     OW24718   0.695   2.361  15.360 -0.4062  0.5965  0.0101
 4419SOL    HW124719   0.749   2.416  15.303  0.2773  1.4650  1.4893
 4419SOL    HW224720   0.676   2.296  15.292  0.5524 -1.0135  1.2847
 4420SOL     OW24721   4.405   2.113   6.841  0.6028 -0.2727  0.1260
 4420SOL    HW124722   4.313   2.110   6.867  0.5430  1.9037  0.1137
 4420SOL    HW224723   4.444   2.161   6.915 -1.2786  2.9784 -1.0054
 4421SOL     OW24724   3.090   0.707  11.863  0.3313 -0.1384 -0.1524
 4421SOL    HW124725   3.009   0.681  11.819  0.1464 -0.5621  0.4338
 4421SOL    HW224726   3.152   0.682  11.795 -0.9960  0.5500 -1.6014
 4422SOL     OW24727   2.632   3.126   7.273  0.0232 -0.3500 -1.0718
 4422SOL    HW124728   2.726   3.143   7.280  0.5153 -3.5004 -0.3392
 4422SOL    HW224729   2.639   3.052   7.334  0.0796 -0.2650 -0.9734
 4423SOL     OW24730   0.370   3.233  11.404  0.4780 -0.1796 -0.3968
 4423SOL    HW124731   0.436   3.291  11.440 -0.7421  1.7706 -1.2812
 4423SOL    HW224732   0.401   3.223  11.314  0.8884  3.0513 -0.5872
 4424SOL     OW24733   0.738   4.663   2.566  0.1800 -0.8648 -0.6956
 4424SOL    HW124734   0.773   0.022   2.529  0.3153 -1.0186 -0.9067
 4424SOL    HW224735   0.656   4.706   2.592  0.8220 -1.5149  2.3350
 4425SOL     OW24736   1.109   2.014  17.555 -0.0440 -0.3017  0.2887
 4425SOL    HW124737   1.085   1.927  17.588 -2.7919 -0.9186 -3.3195
 4425SOL    HW224738   1.202   2.005  17.580 -0.2131  0.3883  1.1638
 4426SOL     OW24739   1.040   2.059   5.132  0.3368 -0.3566  0.0747
 4426SOL    HW124740   1.023   2.140   5.084 -0.6332 -0.4135  0.3181
 4426SOL    HW224741   1.124   2.040   5.090  1.0648 -2.7864  2.6207
 4427SOL     OW24742   0.462   1.880  12.854 -0.1674  0.1640  0.0491
 4427SOL    HW124743   0.391   1.871  12.917 -0.9487  0.6091 -0.7686
 4427SOL    HW224744   0.424   1.922  12.777  0.2786 -1.1875 -0.9060
 4428SOL     OW24745   1.306   0.718   6.014  0.0984 -0.0202  0.2197
 4428SOL    HW124746   1.334   0.807   5.993  2.7137 -1.0999 -0.8801
 4428SOL    HW224747   1.242   0.701   5.946 -0.5474  0.8304  0.6003
 4429SOL     OW24748   4.537   2.585   9.791 -0.1496 -0.0651 -0.1281
 4429SOL    HW124749   4.525   2.680   9.791  1.8916  0.2080  0.6087
 4429SOL    HW224750   4.564   2.574   9.882  1.1919 -0.2848 -0.5462
 4430SOL     OW24751   2.549   0.735   6.546 -0.5321  0.0482  0.5788
 4430SOL    HW124752   2.571   0.642   6.542 -2.0121 -0.3244  1.3781
 4430SOL    HW224753   2.460   0.726   6.578 -1.2347  1.2791 -1.0129
 4431SOL     OW24754   2.977   0.451  10.536  0.7407  0.1821  0.4227
 4431SOL    HW124755   2.996   0.506  10.461  0.1110 -1.1611 -0.7351
 4431SOL    HW224756   3.067   0.458  10.568 -0.3008  1.6586  3.0277
 4432SOL     OW24757   2.516   2.760   4.181 -0.6590  0.0557 -0.6676
 4432SOL    HW124758   2.469   2.695   4.233 -0.5723 -0.7363 -1.5790
 4432SOL    HW224759   2.532   2.825   4.250 -0.7858  0.2595 -0.8300
 4433SOL     OW24760   0.465   2.469   6.868  0.5750 -0.2812 -0.3381
 4433SOL    HW124761   0.482   2.374   6.873  0.0273 -0.5773 -4.0602
 4433SOL    HW224762   0.520   2.484   6.791 -0.0491  2.2966 -0.2664
 4434SOL     OW24763   1.382   1.917  16.050  0.3336  0.4159  0.6152
 4434SOL    HW124764   1.357   1.983  15.986 -3.0567 -0.5186  0.9525
 4434SOL    HW224765   1.406   1.838  16.001  1.8754  0.8971  0.5930
 4435SOL     OW24766   3.696   1.391   8.069  0.2591 -0.3058  0.2406
 4435SOL    HW124767   3.775   1.374   8.018 -2.1342  0.4558 -3.6743
 4435SOL    HW224768   3.732   1.417   8.154 -0.6754 -0.6035  0.7273
 4436SOL     OW24769   4.470   2.742   3.353  0.4076  0.1313 -0.1142
 4436SOL    HW124770   4.399   2.774   3.409 -0.5052  0.9652 -1.7526
 4436SOL    HW224771   4.425   2.666   3.317 -0.0161  1.1412 -1.6933
 4437SOL     OW24772   0.275   2.835  10.070  0.2022  0.0774  0.3337
 4437SOL    HW124773   0.328   2.914  10.071 -1.1137  0.9528  1.3736
 4437SOL    HW224774   0.330   2.757  10.079  0.4897  0.0997 -1.2706
 4438SOL     OW24775   3.548   0.773   2.907  0.1337  0.0045  0.5675
 4438SOL    HW124776   3.612   0.795   2.840 -1.0774 -0.2983 -0.6767
 4438SOL    HW224777   3.486   0.844   2.893  0.2469  0.1638  0.8658
 4439SOL     OW24778   2.082   1.675   2.145  0.1653 -0.3581 -0.0410
 4439SOL    HW124779   2.165   1.704   2.108 -0.2571  1.1332  0.1737
 4439SOL    HW224780   2.020   1.698   2.076 -0.3331 -0.7641  0.2633
 4440SOL     OW24781   2.203   0.857   5.935 -0.3962  0.3018 -0.4157
 4440SOL    HW124782   2.204   0.765   5.906 -0.3109  1.4492 -4.0737
 4440SOL    HW224783   2.281   0.859   5.989 -0.2966 -0.4655 -0.5196
 4441SOL     OW24784   2.913   4.271   1.498 -0.2463 -0.0013 -0.3638
 4441SOL    HW124785   3.007   4.287   1.491 -0.1940  1.0192  2.5152
 4441SOL    HW224786   2.896   4.316   1.581  1.1834  1.5336 -0.9207
 4442SOL     OW24787   0.171   3.414   2.400 -0.2421 -0.0558 -0.3780
 4442SOL    HW124788   0.206   3.414   2.490  1.1771  0.7609 -0.9371
 4442SOL    HW224789   0.100   3.350   2.408  1.2753 -1.6820  0.3169
 4443SOL     OW24790   2.878   3.416   7.047 -0.2373 -0.0132  0.1138
 4443SOL    HW124791   2.961   3.392   7.005 -0.8635  1.4135 -1.9663
 4443SOL    HW224792   2.909   3.429   7.136  3.1864 -3.8408 -0.5379
 4444SOL     OW24793   4.084   0.018   6.109  0.4446  0.7323  0.0344
 4444SOL    HW124794   4.004   0.005   6.058  1.0422 -0.8985 -0.4670
 4444SOL    HW224795   4.044   0.018   6.196  0.4548  0.5484  0.0387
 4445SOL     OW24796   0.322   0.103   5.843 -0.3619  0.3321 -0.0143
 4445SOL    HW124797   0.293   0.133   5.929  2.3056  1.3247  0.5106
 4445SOL    HW224798   0.247   0.050   5.816  0.1554 -0.8399  0.8468
 4446SOL     OW24799   0.588   0.776   8.100  0.4374  0.0574  0.0845
 4446SOL    HW124800   0.526   0.784   8.172  0.7483  1.1484  0.2281
 4446SOL    HW224801   0.529   0.772   8.025 -1.9112  0.2912  1.9296
 4447SOL     OW24802   2.278   2.290  17.363  0.0882  0.1906 -0.0447
 4447SOL    HW124803   2.218   2.247  17.302 -0.7700  0.7363  0.4159
 4447SOL    HW224804   2.258   2.248  17.447  2.9360 -0.7645  0.1327
 4448SOL     OW24805   3.728   3.401   5.538 -0.2051  0.4530 -0.6889
 4448SOL    HW124806   3.694   3.455   5.610  2.8248  1.6132 -0.1287
 4448SOL    HW224807   3.730   3.457   5.460  1.3893  0.0151 -0.9551
 4449SOL     OW24808   4.152   3.134   5.942 -0.1253  0.0215 -0.0201
 4449SOL    HW124809   4.169   3.067   5.877 -0.5400  1.8917 -2.0662
 4449SOL    HW224810   4.239   3.173   5.949 -1.1705  2.2157  1.1254
 4450SOL     OW24811   0.970   3.159   6.093 -0.5574 -0.1215  0.5016
 4450SOL    HW124812   0.947   3.201   6.010  0.8745  0.6149  0.4777
 4450SOL    HW224813   0.886   3.137   6.133 -1.2760 -0.7951 -1.4059
 4451SOL     OW24814   2.381   0.083   6.976 -0.4123  0.4920 -0.0290
 4451SOL    HW124815   2.384   0.169   7.019 -3.5143  1.2679 -1.4085
 4451SOL    HW224816   2.432   0.098   6.896 -1.0814 -1.3014 -0.7855
 4452SOL     OW24817   3.828   0.311  16.272  0.6517 -0.1705 -0.5761
 4452SOL    HW124818   3.845   0.218  16.255 -1.1086 -0.4299 -0.9077
 4452SOL    HW224819   3.769   0.327  16.199 -0.2288 -0.7002  0.0094
 4453SOL     OW24820   1.728   1.510   2.190  0.3875 -0.0561 -0.1856
 4453SOL    HW124821   1.821   1.487   2.186  0.8745  1.8472  0.6204
 4453SOL    HW224822   1.714   1.538   2.280  0.6102  0.8303 -0.4267
 4454SOL     OW24823   4.215   3.081   6.406  0.2668 -0.9687  0.2377
 4454SOL    HW124824   4.301   3.038   6.399  0.7446 -0.2875  1.8728
 4454SOL    HW224825   4.227   3.155   6.347  1.0417 -1.0077  0.3455
 4455SOL     OW24826   2.562   3.714   7.693  0.2739 -0.4679  0.4007
 4455SOL    HW124827   2.482   3.700   7.642 -0.5703  1.5485  1.1609
 4455SOL    HW224828   2.530   3.744   7.779  0.8319 -0.3488  0.5652
 4456SOL     OW24829   1.177   0.997   5.626  0.0569 -0.2101  0.1508
 4456SOL    HW124830   1.222   1.082   5.635 -0.1209 -0.0754 -0.2414
 4456SOL    HW224831   1.166   0.991   5.531  0.7750 -0.4962  0.0824
 4457SOL     OW24832   1.043   2.560   2.248  0.4547 -0.3546 -0.3085
 4457SOL    HW124833   1.133   2.572   2.279  0.0797  1.6836 -0.0474
 4457SOL    HW224834   0.986   2.612   2.305  0.3815 -0.4580 -0.2869
 4458SOL     OW24835   4.316   4.281   5.771  0.4979  0.8726 -0.1662
 4458SOL    HW124836   4.298   4.375   5.777  1.3041  1.1849 -2.3710
 4458SOL    HW224837   4.290   4.277   5.679  0.1825  0.1164 -0.0390
 4459SOL     OW24838   4.368   2.516   7.560  0.2195  0.3578  0.0742
 4459SOL    HW124839   4.291   2.538   7.612  0.5181  1.9464 -0.1458
 4459SOL    HW224840   4.414   2.592   7.596 -1.7235  1.9130 -0.7060
 4460SOL     OW24841   0.233   3.831  16.934  0.0125 -0.3011  0.1503
 4460SOL    HW124842   0.253   3.916  16.975 -2.7340 -0.5068  1.8730
 4460SOL    HW224843   0.182   3.857  16.857  0.2339  0.8874  0.3927
 4461SOL     OW24844   4.647   1.814  14.670  0.0566  0.4057  0.1822
 4461SOL    HW124845   0.008   1.794  14.627  0.6950  0.9634  1.1832
 4461SOL    HW224846   4.672   1.830  14.760 -1.7416  0.4543  0.6842
 4462SOL     OW24847   2.943   1.222  11.212  0.5091 -0.0692  0.5242
 4462SOL    HW124848   3.032   1.235  11.179  0.4531  0.4439  0.5761
 4462SOL    HW224849   2.898   1.295  11.171 -0.3653 -0.0656  1.4899
 4463SOL     OW24850   3.261   0.097   7.411 -0.1980 -0.0431  0.9868
 4463SOL    HW124851   3.298   0.165   7.354  2.0294 -0.2245  2.2149
 4463SOL    HW224852   3.182   0.146   7.433 -1.6014 -1.6258 -0.5334
 4464SOL     OW24853   0.281   4.089  10.487 -0.0078  0.6051 -0.0341
 4464SOL    HW124854   0.257   4.066  10.577 -1.7040  0.3667 -0.5401
 4464SOL    HW224855   0.372   4.116  10.481 -0.2986  1.2111 -1.8412
 4465SOL     OW24856   0.714   4.078   9.992 -0.7734  0.5098  0.2638
 4465SOL    HW124857   0.690   4.171   9.997  1.6945  1.1736 -0.5956
 4465SOL    HW224858   0.630   4.033   9.999 -0.1651 -0.9853 -2.3722
 4466SOL     OW24859   4.373   3.671   8.415 -0.3098  0.2830  0.4607
 4466SOL    HW124860   4.288   3.630   8.430  0.5140 -2.0775 -1.3106
 4466SOL    HW224861   4.351   3.761   8.439  0.8994  1.0412 -1.2753
 4467SOL     OW24862   0.306   2.791   8.249  0.5761 -0.2244 -0.2620
 4467SOL    HW124863   0.283   2.854   8.317 -0.0602 -1.5354  0.7468
 4467SOL    HW224864   0.319   2.848   8.173 -2.4564 -0.9618 -1.3441
 4468SOL     OW24865   3.133   3.081   3.932 -0.2727  1.0311 -0.6190
 4468SOL    HW124866   3.156   3.043   3.847  0.2817  2.4011 -1.0718
 4468SOL    HW224867   3.038   3.069   3.935 -0.0097 -0.2758  2.3413
 4469SOL     OW24868   1.262   4.269   6.492 -0.1440  0.1921  0.3002
 4469SOL    HW124869   1.329   4.220   6.444  0.8334  3.1064 -1.2761
 4469SOL    HW224870   1.327   4.322   6.538 -1.5685  3.3103 -1.2739
 4470SOL     OW24871   2.811   1.050   6.383 -0.3105 -0.1255  0.1597
 4470SOL    HW124872   2.846   1.063   6.471 -0.2689 -0.0422  0.1313
 4470SOL    HW224873   2.856   1.120   6.335  0.5663 -1.3666 -0.8317
 4471SOL     OW24874   1.883   3.819   7.479  0.3214  0.0882  0.3675
 4471SOL    HW124875   1.817   3.777   7.425  0.5179  0.9145 -0.5213
 4471SOL    HW224876   1.825   3.875   7.531  2.4796  1.8992  0.8215
 4472SOL     OW24877   3.855   0.469   8.718  0.0929  0.0971 -0.0308
 4472SOL    HW124878   3.856   0.561   8.744  0.3742  0.4927 -1.4379
 4472SOL    HW224879   3.862   0.428   8.804  0.3210  0.1048 -0.0459
 4473SOL     OW24880   2.457   0.918  13.838 -0.4750  0.4096  0.3001
 4473SOL    HW124881   2.494   0.935  13.752 -4.0300 -0.4228 -1.4077
 4473SOL    HW224882   2.532   0.921  13.897 -0.8539 -0.1489  0.8184
 4474SOL     OW24883   3.473   3.335   8.082  0.5315 -0.0890  0.5542
 4474SOL    HW124884   3.402   3.319   8.144  1.1098 -2.9586  0.5035
 4474SOL    HW224885   3.423   3.379   8.013  1.3745  1.2761  0.8126
 4475SOL     OW24886   0.300   2.470   8.927  0.6824 -0.3478  0.4060
 4475SOL    HW124887   0.245   2.523   8.986  1.8023  0.3928  0.7827
 4475SOL    HW224888   0.366   2.536   8.905 -0.8288  1.0653  0.0452
 4476SOL     OW24889   3.134   0.780   1.263  0.1168 -0.2693 -0.6587
 4476SOL    HW124890   3.198   0.744   1.201 -0.5225  0.0310 -1.4949
 4476SOL    HW224891   3.163   0.733   1.342  2.6604 -0.1670 -1.5398
 4477SOL     OW24892   1.199   4.421   8.206 -0.4543  0.2859 -0.1808
 4477SOL    HW124893   1.108   4.391   8.213 -0.3655  0.1424  0.3219
 4477SOL    HW224894   1.184   4.501   8.154 -1.6262  0.2588  0.1043
 4478SOL     OW24895   0.350   0.321   4.917  0.5151 -0.5038  0.1850
 4478SOL    HW124896   0.365   0.327   4.823  1.4350 -1.2931  0.2822
 4478SOL    HW224897   0.436   0.303   4.954 -0.1853  1.4381  2.7659
 4479SOL     OW24898   2.011   1.609  16.079  0.4528 -0.5791 -0.5870
 4479SOL    HW124899   2.082   1.672  16.072  0.3400 -0.3941  0.0216
 4479SOL    HW224900   1.998   1.611  16.173 -1.5140  1.6955 -0.9099
 4480SOL     OW24901   0.797   2.362   2.463 -0.1987 -0.1620  0.4225
 4480SOL    HW124902   0.739   2.293   2.429  0.3950 -0.2071 -0.5047
 4480SOL    HW224903   0.874   2.309   2.485 -0.2001  0.1115  1.0777
 4481SOL     OW24904   0.419   0.961   2.048 -0.1504 -0.9882  0.3910
 4481SOL    HW124905   0.374   0.940   2.130  2.0394 -0.7561  1.6812
 4481SOL    HW224906   0.502   0.995   2.083 -0.8108  1.5910 -0.5240
 4482SOL     OW24907   0.299   1.802  12.588  0.0121  0.2686 -0.0805
 4482SOL    HW124908   0.276   1.714  12.618  1.0921  1.3589  3.8760
 4482SOL    HW224909   0.267   1.791  12.498 -1.9242  0.6591  0.5495
 4483SOL     OW24910   2.771   3.157   1.113 -0.1468 -0.1691 -0.3311
 4483SOL    HW124911   2.738   3.150   1.023 -1.2850  0.5084  0.0354
 4483SOL    HW224912   2.704   3.210   1.155  0.4570  0.3480 -0.0147
 4484SOL     OW24913   0.335   3.240   7.464  0.4209  0.3881 -0.2649
 4484SOL    HW124914   0.328   3.147   7.486  0.5264  0.6051  0.6940
 4484SOL    HW224915   0.427   3.252   7.486  0.3281 -0.9571  0.9078
 4485SOL     OW24916   3.534   0.097   2.984  0.4835  0.2079 -0.0358
 4485SOL    HW124917   3.513   0.136   3.069  0.3836 -1.3598  0.6635
 4485SOL    HW224918   3.471   0.138   2.925  0.3291 -0.0284 -0.0338
 4486SOL     OW24919   0.937   0.288  10.462  0.0669  0.8208  0.5306
 4486SOL    HW124920   1.023   0.294  10.503  0.9845  1.9318 -1.5851
 4486SOL    HW224921   0.877   0.296  10.536  1.5495  3.2834  1.4671
 4487SOL     OW24922   2.680   3.769  12.251 -0.1862  0.2621  0.8408
 4487SOL    HW124923   2.596   3.798  12.216  0.5891  0.3475 -0.9053
 4487SOL    HW224924   2.678   3.832  12.323  1.6871 -1.1416  2.1198
 4488SOL     OW24925   0.191   0.040   7.978  0.0226  0.0777  0.9477
 4488SOL    HW124926   0.248   4.688   7.958  1.1023  1.5242 -1.3407
 4488SOL    HW224927   0.106   4.720   7.977  0.3229 -0.4189 -1.5009
 4489SOL     OW24928   2.114   4.645   1.657  0.4245  0.7228  0.0887
 4489SOL    HW124929   2.049   4.649   1.727 -2.5036  0.8454 -2.6337
 4489SOL    HW224930   2.054   4.666   1.586 -0.6420  0.4142  0.9049
 4490SOL     OW24931   4.140   0.266   2.198 -0.0646 -0.2577 -0.2552
 4490SOL    HW124932   4.133   0.192   2.138 -0.7610 -1.3087  1.0955
 4490SOL    HW224933   4.175   0.224   2.276  0.3399  1.3060  0.4088
 4491SOL     OW24934   2.264   4.472   1.995 -0.0485  0.0073  0.3134
 4491SOL    HW124935   2.320   4.394   1.997  1.7099  1.2595 -0.0856
 4491SOL    HW224936   2.197   4.436   1.936 -1.4312  0.5851  1.5368
 4492SOL     OW24937   3.954   4.594   8.829  0.4412  0.2602  0.1165
 4492SOL    HW124938   3.916   4.559   8.748  2.6353  0.2347 -0.9041
 4492SOL    HW224939   4.000   4.519   8.867  0.7100 -1.1815 -3.0594
 4493SOL     OW24940   3.564   1.014   4.702 -0.7890  0.5531  0.2716
 4493SOL    HW124941   3.652   0.980   4.716  0.0844  2.8018  0.1415
 4493SOL    HW224942   3.585   1.098   4.661  0.8779  0.8992  1.8597
 4494SOL     OW24943   0.313   4.330  15.647 -0.5255 -0.4257 -0.5080
 4494SOL    HW124944   0.322   4.424  15.663 -0.2398 -0.8060  1.6242
 4494SOL    HW224945   0.228   4.300  15.681 -0.7401  1.1765  0.3417
 4495SOL     OW24946   3.596   3.350   9.551 -0.0721  0.3076 -0.5395
 4495SOL    HW124947   3.676   3.371   9.600 -0.0330  0.2773 -0.5902
 4495SOL    HW224948   3.608   3.256   9.538  1.5338 -0.0881  3.6299
 4496SOL     OW24949   2.341   4.072   3.709  0.0558 -0.2057  0.1120
 4496SOL    HW124950   2.426   4.113   3.699 -0.0318 -0.0920 -0.1860
 4496SOL    HW224951   2.303   4.077   3.621 -0.3532 -2.4313  0.1750
 4497SOL     OW24952   0.035   0.150   4.800  0.0421  0.1678 -0.4506
 4497SOL    HW124953   0.065   0.218   4.740  2.2031  0.4152  0.8971
 4497SOL    HW224954   4.684   0.198   4.836  0.5904  0.9085 -0.3141
 4498SOL     OW24955   0.717   3.452  11.113  0.6940  0.1937  0.0120
 4498SOL    HW124956   0.735   3.392  11.186  1.1800 -0.9052 -1.0201
 4498SOL    HW224957   0.770   3.427  11.038  0.2045 -0.5354 -0.0814
 4499SOL     OW24958   2.943   0.133  12.631  0.4477 -0.2538  0.4639
 4499SOL    HW124959   2.895   0.063  12.675  1.9870 -0.4774  1.7525
 4499SOL    HW224960   2.874   0.200  12.633 -0.6004 -1.3335  0.6675
 4500SOL     OW24961   3.429   3.139  10.152  0.0894 -0.5161 -0.1569
 4500SOL    HW124962   3.486   3.066  10.128  0.4740 -0.0192 -0.7472
 4500SOL    HW224963   3.410   3.134  10.246  0.5574 -2.1142 -0.1531
 4501SOL     OW24964   3.156   4.263   2.136  0.0042  0.2067  1.0869
 4501SOL    HW124965   3.151   4.285   2.043 -0.4469 -0.7676  0.8827
 4501SOL    HW224966   3.114   4.340   2.174 -0.4176  0.8965 -0.7285
 4502SOL     OW24967   2.252   1.595  13.253  0.1984 -0.3902 -0.4455
 4502SOL    HW124968   2.240   1.625  13.162  2.0245  1.9321  0.0657
 4502SOL    HW224969   2.166   1.625  13.280  0.5944  1.1045 -0.8058
 4503SOL     OW24970   0.312   4.291   2.333  0.1939  0.5209 -0.3060
 4503SOL    HW124971   0.399   4.330   2.343  0.0780  1.2125 -1.9808
 4503SOL    HW224972   0.319   4.208   2.380 -1.5408 -0.1862 -1.3202
 4504SOL     OW24973   2.805   4.220   5.569 -0.7421  0.1614 -0.6842
 4504SOL    HW124974   2.899   4.232   5.555 -0.6186  1.5111  1.2933
 4504SOL    HW224975   2.766   4.280   5.505  1.0249  0.5455 -1.4030
 4505SOL     OW24976   1.654   1.751   5.774 -0.0103 -0.1976 -0.4677
 4505SOL    HW124977   1.607   1.737   5.857 -0.1250 -0.2495 -0.5409
 4505SOL    HW224978   1.691   1.665   5.753  0.7378  0.3458 -1.3689
 4506SOL     OW24979   3.687   0.015  12.466 -0.2034  0.6185 -0.0152
 4506SOL    HW124980   3.594   4.719  12.448 -0.2956  0.9698  0.0897
 4506SOL    HW224981   3.723   0.048  12.384  0.2962  0.1518  0.0251
 4507SOL     OW24982   0.898   2.169   9.304 -0.0898  0.3428  0.6413
 4507SOL    HW124983   0.807   2.185   9.277  0.4028  1.5041 -0.3054
 4507SOL    HW224984   0.878   2.078   9.326 -1.3797  0.3153 -0.6595
 4508SOL     OW24985   2.137   4.219  16.341  0.4254  0.2681 -0.2605
 4508SOL    HW124986   2.149   4.248  16.431 -0.5775  0.1949 -0.0994
 4508SOL    HW224987   2.099   4.132  16.353  1.2050  0.0626  0.7407
 4509SOL     OW24988   0.158   1.024   2.008  0.0691  0.0058 -0.0903
 4509SOL    HW124989   0.151   0.929   2.005  2.1548 -0.1395  0.1356
 4509SOL    HW224990   0.252   1.037   2.019  0.0253  0.2905 -0.0492
 4510SOL     OW24991   4.627   4.458  12.117 -0.1978  0.1957  0.0657
 4510SOL    HW124992   4.564   4.455  12.189 -0.4850 -0.0193 -0.1952
 4510SOL    HW224993   4.678   4.535  12.141  0.7985 -0.2689 -0.5425
 4511SOL     OW24994   2.823   0.698   4.162 -0.1241 -0.0985 -0.3030
 4511SOL    HW124995   2.754   0.643   4.198  0.4135  0.3780  1.4245
 4511SOL    HW224996   2.785   0.785   4.174  0.1058  0.0337 -0.5203
 4512SOL     OW24997   1.770   2.144   5.070 -0.3648 -0.2548  0.0156
 4512SOL    HW124998   1.743   2.055   5.096 -1.1965 -0.2155 -0.7138
 4512SOL    HW224999   1.713   2.152   4.994  0.7694 -0.1393 -0.8116
 4513SOL     OW25000   4.050   1.695  16.391  0.3285  0.0750  0.5719
 4513SOL    HW125001   4.066   1.754  16.465 -2.6113  0.2763  1.0188
 4513SOL    HW225002   4.125   1.699  16.331  1.8581 -1.7929  2.3389
 4514SOL     OW25003   2.422   2.093   2.434 -0.4290  0.5949 -0.3607
 4514SOL    HW125004   2.499   2.145   2.410  1.2892 -0.7101  2.3540
 4514SOL    HW225005   2.363   2.101   2.359  0.1864 -0.1099 -0.9281
 4515SOL     OW25006   3.173   4.482   3.560  0.4691  0.0513 -0.0235
 4515SOL    HW125007   3.186   4.527   3.476 -0.6411 -2.1629 -1.3895
 4515SOL    HW225008   3.096   4.429   3.537  0.2843 -0.1607  1.0767
 4516SOL     OW25009   1.827   4.050   8.871 -0.1810  0.7875 -0.7451
 4516SOL    HW125010   1.775   3.992   8.928  0.2326 -0.3223 -1.5004
 4516SOL    HW225011   1.766   4.124   8.876 -1.8220 -0.6850  1.1349
 4517SOL     OW25012   2.766   1.532   4.305 -0.4098  0.0836 -0.1827
 4517SOL    HW125013   2.809   1.453   4.272 -1.6312  0.8908 -3.6868
 4517SOL    HW225014   2.729   1.495   4.386  1.1112 -1.0671 -0.0068
 4518SOL     OW25015   0.777   0.934  12.641 -0.6929  0.3549 -0.3300
 4518SOL    HW125016   0.749   0.967  12.727 -1.0404 -2.1098  0.4862
 4518SOL    HW225017   0.723   0.856  12.637  0.1384 -0.1466 -1.5649
 4519SOL     OW25018   4.711   1.368   7.838  0.5649  0.1943  0.2090
 4519SOL    HW125019   0.025   1.307   7.901  2.8643  1.6770  0.2994
 4519SOL    HW225020   4.667   1.307   7.778  0.8482 -1.7915  2.0325
 4520SOL     OW25021   0.654   3.005   2.914 -0.2399  0.2009  0.0239
 4520SOL    HW125022   0.721   2.963   2.967 -1.2504 -0.0731  1.0873
 4520SOL    HW225023   0.597   2.930   2.895  0.2659 -0.4771  1.1670
 4521SOL     OW25024   4.188   0.419  11.055 -0.5063 -0.0984 -0.0033
 4521SOL    HW125025   4.156   0.508  11.045  0.1334  0.3643  2.0164
 4521SOL    HW225026   4.280   0.432  11.034 -1.0341  0.6152 -1.8944
 4522SOL     OW25027   1.380   3.468   7.961  0.5089  0.0273  0.6874
 4522SOL    HW125028   1.445   3.407   7.996  0.2493  0.6873  2.3305
 4522SOL    HW225029   1.395   3.458   7.867  0.5070  1.2141  0.5592
 4523SOL     OW25030   0.812   0.761   5.643 -0.2023 -0.5910  0.2157
 4523SOL    HW125031   0.872   0.784   5.572 -0.7964  1.2254  0.2938
 4523SOL    HW225032   0.861   0.796   5.718 -1.9603  2.0412  0.1423
 4524SOL     OW25033   2.181   3.439   6.404  1.3474  0.6494 -0.0527
 4524SOL    HW125034   2.219   3.485   6.330  0.3924 -1.2383 -1.7252
 4524SOL    HW225035   2.255   3.380   6.421  1.5048  0.7982 -0.2293
 4525SOL     OW25036   0.716   3.963   7.527  0.7188 -0.1606 -0.2831
 4525SOL    HW125037   0.754   3.989   7.611 -2.1749  0.9024  0.7150
 4525SOL    HW225038   0.732   3.870   7.514  0.1733 -0.4837  1.3648
 4526SOL     OW25039   1.501   0.102   3.828  0.1867 -0.6961 -0.9971
 4526SOL    HW125040   1.448   0.151   3.891  1.0770 -2.1157  0.8706
 4526SOL    HW225041   1.443   0.033   3.796 -0.9921 -0.6283  0.9963
 4527SOL     OW25042   0.456   1.521   1.162  0.1268 -0.6164  0.0077
 4527SOL    HW125043   0.462   1.481   1.248  0.8623  1.5117  0.9330
 4527SOL    HW225044   0.364   1.516   1.136 -0.4570  0.8452  1.8457
 4528SOL     OW25045   2.048   2.390   7.449 -0.3443  0.1513 -0.1989
 4528SOL    HW125046   2.030   2.363   7.359 -1.6185 -1.3228  0.4998
 4528SOL    HW225047   2.018   2.480   7.443 -0.6506  0.0165 -0.6539
 4529SOL     OW25048   1.313   4.245   5.444  0.1012  1.0874 -0.1744
 4529SOL    HW125049   1.330   4.263   5.536 -2.6979 -1.6516  0.8440
 4529SOL    HW225050   1.292   4.330   5.403 -0.2692  0.5685 -1.0656
 4530SOL     OW25051   0.578   2.924  16.465 -0.2420 -0.3342  0.1963
 4530SOL    HW125052   0.502   2.915  16.522  0.3379  0.9212  1.1801
 4530SOL    HW225053   0.562   3.017  16.448  2.5158  0.1779  0.3463
 4531SOL     OW25054   0.619   0.539   2.764  0.0781  0.1170 -0.6216
 4531SOL    HW125055   0.538   0.503   2.801 -0.4037  2.0016  0.1688
 4531SOL    HW225056   0.589   0.629   2.755 -3.5714 -0.9442  0.8656
 4532SOL     OW25057   1.412   1.695   0.902  0.2836 -0.1871  0.2190
 4532SOL    HW125058   1.478   1.636   0.866  1.4071  1.4522 -0.4280
 4532SOL    HW225059   1.391   1.653   0.985  0.4067  0.4184  0.5590
 4533SOL     OW25060   2.961   2.038   1.651 -0.4024  0.5743  0.4475
 4533SOL    HW125061   3.055   2.040   1.635 -1.0719  1.9999 -3.1317
 4533SOL    HW225062   2.937   1.995   1.569 -0.2345 -0.3476  0.8820
 4534SOL     OW25063   0.340   2.175   6.801 -0.0197  0.2785  0.5161
 4534SOL    HW125064   0.246   2.176   6.823 -0.3641  1.2865 -0.9742
 4534SOL    HW225065   0.376   2.163   6.888 -0.5860  0.1737  0.7400
 4535SOL     OW25066   1.754   3.366   2.207  0.1914 -0.2944 -0.6078
 4535SOL    HW125067   1.664   3.375   2.177 -0.3035  0.9804  1.2368
 4535SOL    HW225068   1.775   3.277   2.180  3.0326 -0.6761  2.7652
 4536SOL     OW25069   1.449   4.284  10.219  0.4573 -0.1411  0.9543
 4536SOL    HW125070   1.524   4.237  10.182 -2.1708 -1.8051 -2.1625
 4536SOL    HW225071   1.450   4.235  10.302 -1.1056 -0.2575  0.9029
 4537SOL     OW25072   2.454   4.089   0.997  0.2473 -0.3059  0.7877
 4537SOL    HW125073   2.520   4.157   1.012 -3.3019  3.5207 -0.9339
 4537SOL    HW225074   2.374   4.139   0.981  0.7629 -0.1195 -1.1521
 4538SOL     OW25075   2.296   3.710   5.699 -0.1813 -0.5952  1.0218
 4538SOL    HW125076   2.326   3.629   5.657  0.4598 -0.5537  1.3974
 4538SOL    HW225077   2.203   3.702   5.676  0.7030 -2.2646 -1.9800
 4539SOL     OW25078   3.954   2.290   0.658  0.1767  0.4926  0.3602
 4539SOL    HW125079   4.000   2.354   0.713 -1.0543  1.4449  0.2898
 4539SOL    HW225080   3.895   2.259   0.727  0.4276 -0.0542  0.3293
 4540SOL     OW25081   4.365   4.318  16.313  0.7017  0.4393  0.3643
 4540SOL    HW125082   4.434   4.375  16.277 -0.2207  1.1303 -0.3176
 4540SOL    HW225083   4.352   4.260  16.237 -0.5543  0.2210  0.7571
 4541SOL     OW25084   3.526   3.672   2.804 -0.1893  0.2244  0.0936
 4541SOL    HW125085   3.446   3.639   2.765  0.3150  2.3576 -2.7546
 4541SOL    HW225086   3.512   3.764   2.779  1.6134  0.3025 -0.6485
 4542SOL     OW25087   2.965   4.453  15.213 -0.5147  0.0453  0.6052
 4542SOL    HW125088   2.896   4.427  15.152  1.4305  0.2647 -1.6619
 4542SOL    HW225089   2.971   4.546  15.189  0.4956 -0.3350 -0.5913
 4543SOL     OW25090   1.605   1.370   9.360  0.1671 -0.2584 -0.3253
 4543SOL    HW125091   1.641   1.450   9.399 -0.3716 -0.7858  1.2529
 4543SOL    HW225092   1.586   1.323   9.441  0.8091 -1.8416 -1.0816
 4544SOL     OW25093   1.518   3.840   6.967 -0.6076 -1.0059 -0.1219
 4544SOL    HW125094   1.444   3.866   7.021 -0.9718  0.3691 -1.2942
 4544SOL    HW225095   1.584   3.897   7.007  0.4491 -2.2303 -0.0984
 4545SOL     OW25096   4.604   3.872   9.772  0.2193 -0.9476  0.4119
 4545SOL    HW125097   4.516   3.855   9.807  0.7213 -2.6972  0.8199
 4545SOL    HW225098   4.655   3.820   9.834  1.1952 -0.2128  0.2274
 4546SOL     OW25099   4.377   3.162  10.045 -0.2419 -0.0769  0.2062
 4546SOL    HW125100   4.411   3.117   9.968 -1.7948 -1.5633  0.3910
 4546SOL    HW225101   4.343   3.089  10.097 -2.3256  0.9943  0.3176
 4547SOL     OW25102   1.794   4.436   8.349 -0.3803  0.5543 -0.1966
 4547SOL    HW125103   1.888   4.450   8.345 -0.1818 -0.8022 -0.3458
 4547SOL    HW225104   1.757   4.511   8.395  0.1923  0.7374 -0.0443
 4548SOL     OW25105   0.213   0.871   5.006  0.5006 -0.9697 -0.0097
 4548SOL    HW125106   0.180   0.786   4.975  0.2319 -0.1895 -1.8983
 4548SOL    HW225107   0.152   0.902   5.072 -0.6518 -0.3520 -1.3575
 4549SOL     OW25108   1.302   0.440  10.743 -0.8416  0.1604  0.2378
 4549SOL    HW125109   1.357   0.369  10.776 -0.2998  0.5644  0.2079
 4549SOL    HW225110   1.356   0.517  10.763  0.9660 -0.7167 -1.2498
 4550SOL     OW25111   1.253   2.934   9.207 -0.1863  0.4587  0.1714
 4550SOL    HW125112   1.230   3.001   9.143  3.6499  2.3591  0.7519
 4550SOL    HW225113   1.320   2.879   9.166  0.8215  0.8127  1.3248
 4551SOL     OW25114   3.704   4.284  14.627  0.0750 -0.2286  0.6486
 4551SOL    HW125115   3.779   4.227  14.610 -0.7711 -1.3076  0.5420
 4551SOL    HW225116   3.742   4.356  14.677  0.9914 -0.1441 -0.1742
 4552SOL     OW25117   2.130   1.167   3.603  0.0813 -0.2366  0.7637
 4552SOL    HW125118   2.155   1.177   3.511 -0.1955 -1.1150  0.5854
 4552SOL    HW225119   2.164   1.249   3.639 -0.0952 -0.6350  1.8524
 4553SOL     OW25120   1.871   2.335   1.915 -0.4659  0.3130  0.3881
 4553SOL    HW125121   1.811   2.290   1.855  1.0239 -0.4232 -0.5398
 4553SOL    HW225122   1.859   2.271   1.985 -0.3963 -1.3506 -1.1148
 4554SOL     OW25123   3.684   0.862   2.686  0.3923 -0.0507  0.0864
 4554SOL    HW125124   3.675   0.840   2.593 -0.0437  2.3520 -0.4433
 4554SOL    HW225125   3.624   0.936   2.697  1.1029 -0.0607  3.8723
 4555SOL     OW25126   0.451   0.263   6.685  0.2849  0.5588  0.3320
 4555SOL    HW125127   0.407   0.330   6.633  0.3112 -0.8278 -1.4999
 4555SOL    HW225128   0.379   0.209   6.719  0.0192  0.3968 -0.4905
 4556SOL     OW25129   3.661   1.280   4.874  0.1147  0.0502 -0.1379
 4556SOL    HW125130   3.756   1.285   4.866  0.2844 -2.8619 -0.0658
 4556SOL    HW225131   3.662   1.216   4.945  1.1273  0.8313  0.5562
 4557SOL     OW25132   3.881   2.033  13.251 -0.1781  0.0737 -0.3345
 4557SOL    HW125133   3.888   2.116  13.203 -1.0574  0.3319 -0.0229
 4557SOL    HW225134   3.816   1.985  13.200  0.0536  0.6856 -1.2244
 4558SOL     OW25135   2.897   4.604   3.946 -0.0625  0.4927 -0.1998
 4558SOL    HW125136   2.991   4.617   3.931 -0.0540  0.1137 -0.5016
 4558SOL    HW225137   2.891   4.631   4.037 -3.5324 -1.1271  0.0340
 4559SOL     OW25138   0.520   2.979   5.273 -0.6786 -0.1591 -0.0538
 4559SOL    HW125139   0.522   3.023   5.188 -0.4883  0.2805  0.1773
 4559SOL    HW225140   0.574   3.039   5.325  0.1442 -0.4584 -0.5543
 4560SOL     OW25141   3.655   1.932   2.013 -0.2061  0.3318  0.0870
 4560SOL    HW125142   3.577   1.941   2.068 -0.6414  2.9538 -0.9777
 4560SOL    HW225143   3.710   1.991   2.064 -0.2666 -0.8848  1.5513
 4561SOL     OW25144   3.548   1.357  10.269  0.1181 -0.2306 -0.1548
 4561SOL    HW125145   3.489   1.329  10.199  0.5243  0.3943 -0.7484
 4561SOL    HW225146   3.489   1.398  10.332  0.3661  1.0386 -0.7488
 4562SOL     OW25147   4.339   3.597   7.570 -0.2488  0.3555  0.6537
 4562SOL    HW125148   4.407   3.648   7.612  1.7727 -1.7517 -0.0445
 4562SOL    HW225149   4.306   3.663   7.508  0.8348  1.0259  0.7984
 4563SOL     OW25150   2.110   0.965   6.965  0.6022 -0.3287  0.2995
 4563SOL    HW125151   2.120   1.060   6.975 -0.1114 -0.6130  3.6249
 4563SOL    HW225152   2.195   0.943   6.926  0.8040  0.1861  0.4451
 4564SOL     OW25153   4.011   0.523   2.786  0.4757 -0.0707  0.0626
 4564SOL    HW125154   3.974   0.568   2.710 -0.3678 -1.4376 -0.3360
 4564SOL    HW225155   3.932   0.478   2.816 -0.0589  0.9134  0.1009
 4565SOL     OW25156   3.047   1.371   8.924  0.2256  0.1251 -0.4010
 4565SOL    HW125157   3.047   1.310   8.997 -0.9560 -0.3293 -0.7653
 4565SOL    HW225158   3.119   1.335   8.872 -0.4533 -0.2023 -1.1350
 4566SOL     OW25159   0.264   2.072   3.625 -0.4590 -0.0896  0.3470
 4566SOL    HW125160   0.305   2.158   3.612 -0.5485  0.2919  2.5393
 4566SOL    HW225161   0.190   2.088   3.566 -0.9726 -0.6265  0.8526
 4567SOL     OW25162   2.094   3.287   4.522 -0.3300  0.0400 -0.4708
 4567SOL    HW125163   2.081   3.289   4.427 -0.3401 -0.7874 -0.4882
 4567SOL    HW225164   2.150   3.210   4.531 -1.4486 -0.6400  0.5031
 4568SOL     OW25165   3.764   2.277   4.508 -0.1372  0.0262 -0.7318
 4568SOL    HW125166   3.694   2.341   4.497 -0.1206  0.1943  0.1156
 4568SOL    HW225167   3.745   2.224   4.431 -2.0480 -1.8382  1.0235
 4569SOL     OW25168   1.652   2.332   2.747 -0.3572 -0.1920  0.4574
 4569SOL    HW125169   1.737   2.305   2.711 -1.1417 -2.3760  0.2410
 4569SOL    HW225170   1.610   2.250   2.721  1.8497 -0.5825 -1.9218
 4570SOL     OW25171   0.717   2.382   5.895  0.0237 -0.9970  0.1226
 4570SOL    HW125172   0.714   2.372   5.990 -0.4653 -0.6375  0.1451
 4570SOL    HW225173   0.656   2.455   5.903  1.0775  0.0163 -1.0760
 4571SOL     OW25174   2.307   4.372  14.869 -0.1846  0.1048  0.0149
 4571SOL    HW125175   2.261   4.397  14.950 -0.7441  2.8748 -1.1740
 4571SOL    HW225176   2.317   4.278  14.878 -2.6881 -0.2992 -1.3124
 4572SOL     OW25177   1.636   3.785   8.736 -0.2010  0.0640 -0.0444
 4572SOL    HW125178   1.556   3.783   8.789  0.4425 -0.9076  0.8801
 4572SOL    HW225179   1.623   3.869   8.692  0.7152  0.9434  1.3609
 4573SOL     OW25180   1.943   1.531   2.553 -0.5649  0.3512 -0.2364
 4573SOL    HW125181   1.968   1.439   2.557 -1.0761  0.2901  1.7506
 4573SOL    HW225182   2.023   1.569   2.517 -0.6669 -0.7676 -1.5988
 4574SOL     OW25183   1.353   0.258  12.704  0.1518  0.3485  0.0479
 4574SOL    HW125184   1.405   0.180  12.723 -1.5749 -0.1214  2.8269
 4574SOL    HW225185   1.329   0.281  12.794  2.2268  0.8255  0.5000
 4575SOL     OW25186   4.519   3.085   9.507 -0.3276 -0.5390  0.0855
 4575SOL    HW125187   4.536   2.998   9.471  3.0380 -0.7884  2.2977
 4575SOL    HW225188   4.531   3.142   9.431 -3.5607  2.1242  1.5706
 4576SOL     OW25189   2.397   0.642   6.056 -0.1913  0.8005  0.1065
 4576SOL    HW125190   2.424   0.564   6.104 -0.6394  0.7808  0.3266
 4576SOL    HW225191   2.426   0.630   5.966 -1.9570  0.5594 -0.4189
 4577SOL     OW25192   4.413   2.830  15.498  0.3425 -0.2760 -0.4281
 4577SOL    HW125193   4.414   2.756  15.559  1.9355 -0.3038 -0.4920
 4577SOL    HW225194   4.504   2.855  15.510  0.3932 -0.7950  0.2218
 4578SOL     OW25195   4.501   3.799   4.623 -0.0233 -0.1051 -0.2314
 4578SOL    HW125196   4.408   3.775   4.624  0.3551 -1.5953 -0.6815
 4578SOL    HW225197   4.517   3.814   4.716 -1.0707 -0.9197  0.0889
 4579SOL     OW25198   0.635   3.707  11.198  0.2179 -0.1240  0.2860
 4579SOL    HW125199   0.658   3.618  11.171  4.0229  0.9684 -0.1626
 4579SOL    HW225200   0.646   3.754  11.115  0.3058  0.8949  0.8709
 4580SOL     OW25201   0.454   1.337   6.234  0.7835  0.2009  0.4023
 4580SOL    HW125202   0.546   1.361   6.237  1.4228 -2.0710 -0.5294
 4580SOL    HW225203   0.461   1.242   6.221  2.2841  0.4578 -0.6738
 4581SOL     OW25204   1.457   4.669   7.628  0.3281 -0.4798 -0.1262
 4581SOL    HW125205   1.496   4.715   7.703  1.7169 -1.6986 -0.1025
 4581SOL    HW225206   1.517   4.595   7.616  1.1079  0.2309 -0.6498
 4582SOL     OW25207   1.943   1.781  13.573 -0.1045  0.3344 -0.0785
 4582SOL    HW125208   1.905   1.838  13.640 -0.9005  1.6949 -1.6795
 4582SOL    HW225209   2.026   1.823  13.548  0.6455 -1.0562  0.0947
 4583SOL     OW25210   2.354   4.003   7.329  0.2819  0.8876  0.4499
 4583SOL    HW125211   2.430   3.955   7.296 -0.7109 -1.8153  2.1500
 4583SOL    HW225212   2.280   3.942   7.323  1.0472  0.0202 -0.0410
 4584SOL     OW25213   0.560   2.401  11.659 -0.1911 -0.1471 -0.5274
 4584SOL    HW125214   0.520   2.483  11.690 -3.3893 -1.9386  0.0573
 4584SOL    HW225215   0.605   2.427  11.579  0.8301  0.1528  0.1346
 4585SOL     OW25216   3.341   1.155  11.394  0.5199  0.0533  0.1213
 4585SOL    HW125217   3.334   1.221  11.325 -0.2967  1.1352  1.2355
 4585SOL    HW225218   3.309   1.079  11.345  1.2302 -0.5384  0.5704
 4586SOL     OW25219   2.480   3.222   7.906  0.1668 -0.3322  0.4515
 4586SOL    HW125220   2.533   3.288   7.862 -0.7420 -0.5048 -0.8912
 4586SOL    HW225221   2.547   3.179   7.960 -1.2394 -1.3297  1.4231
 4587SOL     OW25222   4.642   1.164   2.690  0.1353  0.7579  0.0110
 4587SOL    HW125223   4.703   1.213   2.635  0.4289 -0.6730 -0.9479
 4587SOL    HW225224   4.605   1.238   2.738  1.3174  1.5858 -0.3428
 4588SOL     OW25225   1.809   4.033   5.390  0.8878 -0.2345 -0.9127
 4588SOL    HW125226   1.794   3.993   5.476  0.7875  0.2960 -0.6806
 4588SOL    HW225227   1.905   4.036   5.380  1.1882  1.7387  2.3665
 4589SOL     OW25228   2.832   3.395  15.110 -0.1528 -0.2094 -0.2442
 4589SOL    HW125229   2.806   3.367  15.197 -0.2893 -1.9782 -0.8487
 4589SOL    HW225230   2.876   3.315  15.080  1.5912  0.9537 -0.8370
 4590SOL     OW25231   1.641   3.450   8.930  0.4911  0.0014 -0.1038
 4590SOL    HW125232   1.579   3.484   8.994 -0.6593  0.6960 -1.6001
 4590SOL    HW225233   1.725   3.455   8.977  0.6828  2.1708 -0.7059
 4591SOL     OW25234   4.306   0.945  15.705  0.0883 -0.1498 -0.3933
 4591SOL    HW125235   4.234   1.008  15.716 -1.1091 -1.8399  1.5507
 4591SOL    HW225236   4.258   0.869  15.672  0.7933 -0.2284 -1.2254
 4592SOL     OW25237   2.558   2.227   7.645  1.0552 -0.4384 -0.0355
 4592SOL    HW125238   2.509   2.170   7.585 -0.4216  0.0025  0.7437
 4592SOL    HW225239   2.616   2.160   7.680  2.6183  0.9243 -0.0245
 4593SOL     OW25240   4.315   3.420   4.584  0.6074 -0.3140 -0.4742
 4593SOL    HW125241   4.261   3.491   4.550  3.8123  2.7079  0.6858
 4593SOL    HW225242   4.338   3.439   4.675 -0.5382  1.2264 -0.5145
 4594SOL     OW25243   3.694   0.365   4.394 -0.3517  0.1044  0.1342
 4594SOL    HW125244   3.664   0.403   4.477 -2.1372 -1.3050  0.1364
 4594SOL    HW225245   3.630   0.295   4.383 -0.1450 -0.2611  1.2278
 4595SOL     OW25246   1.905   0.047   1.789  0.2432  0.1406 -0.1316
 4595SOL    HW125247   1.925   0.122   1.733 -0.5756  2.0093  2.0845
 4595SOL    HW225248   1.815   0.020   1.773  0.1958  0.5099 -0.4885
 4596SOL     OW25249   2.228   2.036   3.581  0.1421  0.1435  0.2711
 4596SOL    HW125250   2.235   2.005   3.491 -2.0883 -0.9337  0.4805
 4596SOL    HW225251   2.135   2.014   3.582  0.2756 -0.4631 -1.6464
 4597SOL     OW25252   2.289   2.322   4.332  0.4800 -0.1369 -0.2014
 4597SOL    HW125253   2.305   2.352   4.421 -0.6101  0.2890 -0.1478
 4597SOL    HW225254   2.345   2.387   4.288  0.4868  0.1236  0.1965
 4598SOL     OW25255   0.710   1.835  10.102  0.0158  0.5160 -0.4144
 4598SOL    HW125256   0.786   1.779  10.091  1.1118  1.7739  0.6748
 4598SOL    HW225257   0.751   1.906  10.152 -3.0235  0.7013  1.8763
 4599SOL     OW25258   0.451   4.556   7.635  0.3218  0.4721 -0.3509
 4599SOL    HW125259   0.484   4.548   7.545 -0.8267 -0.3266 -0.7051
 4599SOL    HW225260   0.415   4.644   7.623 -0.5573  0.2063  0.3319
 4600SOL     OW25261   3.687   0.923   2.236 -0.2957  0.0087 -0.4753
 4600SOL    HW125262   3.612   0.937   2.178 -0.4887  1.1333  0.0321
 4600SOL    HW225263   3.758   0.938   2.173  2.2227  0.5224  2.4579
 4601SOL     OW25264   0.502   1.339   7.716 -0.0640 -0.2417 -0.5361
 4601SOL    HW125265   0.519   1.431   7.738  1.0133 -0.5423 -0.1650
 4601SOL    HW225266   0.565   1.328   7.645 -0.2090 -0.0197 -0.7023
 4602SOL     OW25267   4.707   0.683   8.513 -0.4296  0.0237  0.1032
 4602SOL    HW125268   0.079   0.698   8.511 -0.2370 -1.1782  0.0217
 4602SOL    HW225269   4.695   0.626   8.589 -1.9951  2.9602  2.0528
 4603SOL     OW25270   2.065   2.693   3.641 -0.1825 -0.2081 -0.0705
 4603SOL    HW125271   1.988   2.657   3.598  0.1943  1.0639 -1.8105
 4603SOL    HW225272   2.131   2.632   3.607  0.9608  0.1873  1.4237
 4604SOL     OW25273   0.984   3.831   4.566  0.4713 -0.0372  0.3064
 4604SOL    HW125274   0.968   3.923   4.547 -2.0593 -0.2565  1.3915
 4604SOL    HW225275   1.027   3.799   4.487 -1.6437  0.0192 -0.8671
 4605SOL     OW25276   3.126   4.078   3.513  0.4332 -0.4528  0.6055
 4605SOL    HW125277   3.036   4.055   3.489  0.7205 -1.3196  0.3770
 4605SOL    HW225278   3.159   4.101   3.425  1.9865  1.0406  1.5667
 4606SOL     OW25279   1.149   0.168  13.956 -0.1047 -0.3966 -0.3719
 4606SOL    HW125280   1.102   0.086  13.969 -0.1061 -0.0139  2.0046
 4606SOL    HW225281   1.084   0.211  13.901  0.1473 -2.4350 -2.2623
 4607SOL     OW25282   3.998   1.447   1.037 -0.2104  0.4495  0.4791
 4607SOL    HW125283   3.931   1.383   1.059 -2.2542  3.1779  2.1246
 4607SOL    HW225284   4.077   1.406   1.074  0.8515  1.2891 -0.8495
 4608SOL     OW25285   1.402   1.854   7.488  0.0047 -0.3044 -0.2300
 4608SOL    HW125286   1.346   1.899   7.426  0.5737 -1.1893 -1.3934
 4608SOL    HW225287   1.456   1.795   7.434  1.1535  1.3037 -0.8471
 4609SOL     OW25288   3.912   0.787  14.016 -0.2839  0.5042  0.0886
 4609SOL    HW125289   3.895   0.766  14.108 -1.5906 -0.3718 -0.3669
 4609SOL    HW225290   4.008   0.797  14.014 -0.4557  1.8465 -1.1038
 4610SOL     OW25291   3.815   2.105   2.198  0.6355  0.3737 -0.7298
 4610SOL    HW125292   3.851   2.178   2.248 -0.3554 -1.5012  2.7049
 4610SOL    HW225293   3.726   2.106   2.235  0.2562  1.8521 -1.6904
 4611SOL     OW25294   2.669   3.806   5.659  0.6744  0.4894 -0.4105
 4611SOL    HW125295   2.633   3.893   5.646  1.4008  1.2417  2.5951
 4611SOL    HW225296   2.637   3.771   5.576  0.3389  0.5772 -0.3152
 4612SOL     OW25297   1.096   3.175   5.387 -0.2100  0.1163  0.1178
 4612SOL    HW125298   1.104   3.260   5.429  3.1770  1.0445 -2.4515
 4612SOL    HW225299   1.079   3.198   5.295 -0.4367  0.2251  0.1852
 4613SOL     OW25300   2.010   3.112  11.702 -0.5676 -0.3307  0.5550
 4613SOL    HW125301   2.041   3.196  11.668 -0.7316 -0.5931 -0.2369
 4613SOL    HW225302   2.042   3.056  11.632  0.7744  1.1664 -0.0415
 4614SOL     OW25303   3.119   0.559   0.938 -0.8991 -0.9217  0.1062
 4614SOL    HW125304   3.136   0.570   0.844 -0.4334 -0.1182  0.2806
 4614SOL    HW225305   3.206   0.591   0.963  0.4782 -3.8431 -0.9884
 4615SOL     OW25306   0.694   0.935   4.801  0.1320 -0.5939 -0.0856
 4615SOL    HW125307   0.625   0.978   4.750 -0.6233 -2.0992 -0.3344
 4615SOL    HW225308   0.644   0.903   4.876  0.6507 -1.7163 -0.2155
 4616SOL     OW25309   1.881   2.894   1.905  0.2597  0.1733 -0.1701
 4616SOL    HW125310   1.902   2.801   1.901 -0.2165  0.0514  0.1766
 4616SOL    HW225311   1.965   2.938   1.893 -0.5797  1.4108 -1.5185
 4617SOL     OW25312   1.068   2.772   1.720 -0.1415  0.5090 -0.1461
 4617SOL    HW125313   1.018   2.847   1.689 -0.9564  0.6890  1.5813
 4617SOL    HW225314   1.050   2.708   1.652 -0.0488 -1.8011  1.9937
 4618SOL     OW25315   2.151   2.756   0.966 -0.7611  0.4387  0.3066
 4618SOL    HW125316   2.210   2.767   0.892  0.0042  1.9372  1.1529
 4618SOL    HW225317   2.128   2.847   0.984  0.8202  0.7321  0.7882
 4619SOL     OW25318   1.199   0.049   2.434  0.0538 -0.1804  0.2222
 4619SOL    HW125319   1.267   0.102   2.476  0.9529 -0.7779 -0.4692
 4619SOL    HW225320   1.224   0.046   2.342  0.7254  0.8494  0.3724
 4620SOL     OW25321   2.640   1.697  10.104 -0.1087 -0.2589 -0.1397
 4620SOL    HW125322   2.661   1.720  10.014 -0.4995 -0.0725 -0.1832
 4620SOL    HW225323   2.708   1.743  10.153 -0.4106  0.0571 -0.0141
 4621SOL     OW25324   2.370   3.515   5.477 -0.1098  0.1518  0.2911
 4621SOL    HW125325   2.434   3.499   5.408  1.0050 -0.0795  1.3624
 4621SOL    HW225326   2.304   3.579   5.454 -1.1651 -0.8881  0.4402
 4622SOL     OW25327   0.272   2.942  10.859 -0.0348  0.2939  0.3060
 4622SOL    HW125328   0.198   2.881  10.852  1.4775 -1.6364  1.1275
 4622SOL    HW225329   0.347   2.883  10.864 -0.2851 -0.0607 -0.1392
 4623SOL     OW25330   0.703   1.659   4.686  0.3090 -0.0893  0.0539
 4623SOL    HW125331   0.614   1.624   4.693 -0.1883  0.9317 -1.0254
 4623SOL    HW225332   0.686   1.751   4.664 -2.9030 -0.4246  1.1173
 4624SOL     OW25333   3.248   3.923   6.547 -0.0003 -0.2499  0.6798
 4624SOL    HW125334   3.241   4.017   6.563  0.3550  0.0222 -0.7167
 4624SOL    HW225335   3.280   3.883   6.627  1.4167  0.2258  0.3590
 4625SOL     OW25336   1.799   3.528   2.879  0.0159  0.0733 -0.0665
 4625SOL    HW125337   1.735   3.464   2.848  1.7147 -1.1814 -0.9673
 4625SOL    HW225338   1.746   3.606   2.897 -0.6272  0.0155 -1.7626
 4626SOL     OW25339   0.012   1.890   9.107 -0.0939 -0.4239  0.8919
 4626SOL    HW125340   0.062   1.875   9.027 -1.2366  0.5943 -0.0192
 4626SOL    HW225341   4.674   1.817   9.110  1.5455 -1.8849 -1.9150
 4627SOL     OW25342   3.852   1.221   0.901  0.3458 -0.3728 -0.2466
 4627SOL    HW125343   3.927   1.180   0.857  0.3180  0.0532 -0.6924
 4627SOL    HW225344   3.848   1.174   0.984  1.9984  2.6201  1.5203
 4628SOL     OW25345   1.005   1.015   2.860 -0.4374 -0.1392  0.4108
 4628SOL    HW125346   0.975   1.016   2.951 -0.2974 -1.9531  0.4760
 4628SOL    HW225347   1.063   0.939   2.860  2.1970  1.9063 -0.6811
 4629SOL     OW25348   3.117   1.039   2.967 -0.4542 -0.3248 -0.5381
 4629SOL    HW125349   3.051   1.003   2.909  0.5844  0.6286 -2.2958
 4629SOL    HW225350   3.145   0.955   3.004  1.6516  1.5760  2.2239
 4630SOL     OW25351   0.401   3.885  11.335 -0.2223  0.3759  0.3183
 4630SOL    HW125352   0.436   3.945  11.268 -0.0200 -0.6132 -0.4592
 4630SOL    HW225353   0.475   3.824  11.331 -0.3508  0.0871  2.5133
 4631SOL     OW25354   2.204   2.619   9.256  0.3794  0.2493 -0.4454
 4631SOL    HW125355   2.136   2.581   9.312  0.4774  3.0101  1.5123
 4631SOL    HW225356   2.171   2.709   9.253  1.5692  0.7077  0.2484
 4632SOL     OW25357   4.423   2.943   2.341  0.1341 -0.4507  0.4447
 4632SOL    HW125358   4.446   2.872   2.281 -1.1947 -1.6133  1.3262
 4632SOL    HW225359   4.504   2.992   2.332  0.6448 -0.8032  3.3713
 4633SOL     OW25360   3.631   0.287  16.811 -0.0997 -0.0968 -0.2719
 4633SOL    HW125361   3.676   0.332  16.739  0.2710 -0.4241 -0.2456
 4633SOL    HW225362   3.553   0.244  16.775 -0.0899  0.9126 -1.4858
 4634SOL     OW25363   1.331   1.178   2.615  0.3389  0.2787 -0.2190
 4634SOL    HW125364   1.340   1.250   2.553 -0.1591  0.7999  0.3125
 4634SOL    HW225365   1.333   1.216   2.703  1.0017 -1.5878  0.5634
 4635SOL     OW25366   3.549   3.381  16.044 -0.0153 -0.1307  0.3295
 4635SOL    HW125367   3.481   3.364  16.109 -0.2315  0.1928  0.1864
 4635SOL    HW225368   3.547   3.476  16.057  0.1798 -0.0445 -0.2597
 4636SOL     OW25369   1.097   1.948   2.971 -0.7729 -0.6731 -0.3685
 4636SOL    HW125370   1.069   2.031   3.010  0.8128  0.0655 -0.8315
 4636SOL    HW225371   1.038   1.880   3.005 -0.1670 -0.1895  1.6014
 4637SOL     OW25372   0.872   3.431   5.593  0.1903  0.0517  0.5326
 4637SOL    HW125373   0.832   3.501   5.542  2.5350 -0.0914 -1.5400
 4637SOL    HW225374   0.967   3.441   5.581  0.0715  1.6483  0.8823
 4638SOL     OW25375   3.323   1.673  16.518  0.0627  0.0261 -0.8177
 4638SOL    HW125376   3.414   1.650  16.536 -0.4120 -0.8261  0.5345
 4638SOL    HW225377   3.323   1.768  16.524 -2.2070  0.0146 -0.7654
 4639SOL     OW25378   2.923   0.460  12.174  1.2716 -0.2761  0.1359
 4639SOL    HW125379   2.903   0.552  12.157 -2.6920 -1.0477  0.5830
 4639SOL    HW225380   2.885   0.444  12.261 -0.7458  0.4657 -0.5989
 4640SOL     OW25381   2.526   0.817  11.358  0.3268 -0.8282  0.3624
 4640SOL    HW125382   2.581   0.826  11.279 -0.5421  1.1898 -0.0145
 4640SOL    HW225383   2.570   0.871  11.423 -0.6918  0.6013 -0.1183
 4641SOL     OW25384   0.982   1.875   2.661 -0.2825 -0.3812  0.0495
 4641SOL    HW125385   0.922   1.860   2.588 -2.0976 -0.3595  1.5612
 4641SOL    HW225386   0.939   1.952   2.699 -0.8018 -1.2158  1.1325
 4642SOL     OW25387   3.642   1.972  15.769 -0.1898 -0.2871  0.0932
 4642SOL    HW125388   3.573   2.011  15.714  0.1989 -0.0744 -0.2437
 4642SOL    HW225389   3.606   1.883  15.763 -0.9164 -0.0200  0.4296
 4643SOL     OW25390   2.872   3.973   5.096  0.7548  0.2551  0.0132
 4643SOL    HW125391   2.912   4.005   5.015 -0.9900 -1.6337 -1.5744
 4643SOL    HW225392   2.954   3.960   5.145  0.0056 -1.9915  0.7045
 4644SOL     OW25393   2.697   0.923   2.582  0.1114  0.2900 -0.0122
 4644SOL    HW125394   2.686   0.828   2.580  1.4654  0.1495 -0.8305
 4644SOL    HW225395   2.777   0.928   2.530  0.1776 -3.5047 -0.2831
 4645SOL     OW25396   1.108   4.389   5.926  0.0103  0.2062  0.2520
 4645SOL    HW125397   1.111   4.294   5.929 -2.0635  0.1144 -0.4788
 4645SOL    HW225398   1.027   4.405   5.974 -0.9639 -0.8188 -1.0740
 4646SOL     OW25399   3.697   1.204   2.340 -0.0841 -0.2862 -0.0648
 4646SOL    HW125400   3.642   1.127   2.327  2.7783 -1.9577 -2.0243
 4646SOL    HW225401   3.782   1.163   2.357 -0.0765 -0.5833 -0.8595
 4647SOL     OW25402   3.797   4.550   6.243  0.1078 -0.0927  0.0292
 4647SOL    HW125403   3.807   4.521   6.334 -0.9569  3.4680  1.2480
 4647SOL    HW225404   3.702   4.540   6.242 -0.1459  2.2520  0.8270
 4648SOL     OW25405   3.731   2.988  11.626 -0.1156  0.2555  0.6098
 4648SOL    HW125406   3.736   2.905  11.674 -1.7146 -0.2952 -0.1530
 4648SOL    HW225407   3.699   2.955  11.542  1.5535  0.3302 -0.0414
 4649SOL     OW25408   0.812   2.006  15.624  0.7986  0.3125 -0.3849
 4649SOL    HW125409   0.826   2.101  15.625 -0.9531  0.5632  1.1146
 4649SOL    HW225410   0.720   2.013  15.596  0.7285 -2.4289 -0.7841
 4650SOL     OW25411   0.491   0.342   7.476 -0.1063 -0.1142  0.1260
 4650SOL    HW125412   0.586   0.335   7.462 -0.2255 -1.6799  0.0470
 4650SOL    HW225413   0.465   0.357   7.385 -2.7234  0.7390  1.0387
 4651SOL     OW25414   1.858   3.899   1.138  0.6542 -0.3153  0.1095
 4651SOL    HW125415   1.858   3.980   1.189 -1.2682 -1.9893  2.7836
 4651SOL    HW225416   1.804   3.844   1.194 -0.2962  0.2076 -0.2982
 4652SOL     OW25417   1.124   1.167  15.615 -0.3677 -0.2911  0.6503
 4652SOL    HW125418   1.084   1.100  15.559 -0.2253  1.0757 -1.0776
 4652SOL    HW225419   1.206   1.185  15.569 -1.3082  1.8519 -0.1677
 4653SOL     OW25420   0.474   3.643  14.370  0.2434 -0.0411 -0.3411
 4653SOL    HW125421   0.389   3.600  14.378  0.4814 -0.8751 -2.3193
 4653SOL    HW225422   0.448   3.727  14.330  2.9314  1.0932  0.3000
 4654SOL     OW25423   2.286   1.990   5.518  0.1959  0.1260  0.0218
 4654SOL    HW125424   2.192   1.980   5.504  0.1183  0.7840  0.0932
 4654SOL    HW225425   2.305   1.985   5.425  2.5075  0.8271  0.4600
 4655SOL     OW25426   0.166   2.484  14.981  0.1537 -0.4171 -0.1073
 4655SOL    HW125427   0.260   2.469  14.979  0.0079 -1.1279 -1.5619
 4655SOL    HW225428   0.155   2.579  14.974 -0.0822 -0.3184  1.4801
 4656SOL     OW25429   2.427   2.267  11.233  0.4888 -0.6021  0.1063
 4656SOL    HW125430   2.472   2.330  11.289 -1.5907 -1.3952  2.6288
 4656SOL    HW225431   2.504   2.243  11.181 -0.8268 -1.4927 -1.4451
 4657SOL     OW25432   1.092   4.049   3.058 -0.5897  0.1594 -0.4514
 4657SOL    HW125433   1.128   4.138   3.054  0.2277 -0.1412  0.3034
 4657SOL    HW225434   1.047   4.049   2.973  1.7844  0.9997 -1.7109
 4658SOL     OW25435   2.882   2.280   7.544 -0.0583 -0.0702 -0.6046
 4658SOL    HW125436   2.813   2.214   7.548  2.4972 -2.4911  3.1078
 4658SOL    HW225437   2.947   2.223   7.504 -1.4194 -1.2276 -1.1731
 4659SOL     OW25438   4.377   1.306   4.964 -0.2352 -0.0591 -0.1297
 4659SOL    HW125439   4.398   1.334   5.053 -1.4875  1.0422 -0.1845
 4659SOL    HW225440   4.341   1.383   4.920  0.1875  0.6701  0.8100
 4660SOL     OW25441   1.012   3.802   4.173  0.8655  0.2099 -0.1223
 4660SOL    HW125442   1.041   3.792   4.082 -1.7050 -2.5195 -0.6767
 4660SOL    HW225443   1.008   3.714   4.211  0.2290  1.2250  2.1075
 4661SOL     OW25444   4.584   1.140   8.330 -0.4943 -0.7271 -0.0974
 4661SOL    HW125445   4.527   1.151   8.406  0.3064 -0.0800  0.4144
 4661SOL    HW225446   4.660   1.097   8.369 -1.8067 -1.5893  1.4582
 4662SOL     OW25447   1.210   0.764   4.918 -0.0343 -0.5349 -0.2708
 4662SOL    HW125448   1.269   0.828   4.879  0.1807  0.2770  1.3777
 4662SOL    HW225449   1.154   0.736   4.846  0.2889 -2.6694  0.2958
 4663SOL     OW25450   4.693   4.316   7.285  0.2891 -0.1669 -0.2614
 4663SOL    HW125451   4.705   4.264   7.206 -0.9676 -1.9081  0.7109
 4663SOL    HW225452   4.609   4.287   7.318  0.1804  0.3027 -0.1227
 4664SOL     OW25453   2.704   2.502   9.795  0.0692  0.3454  0.8015
 4664SOL    HW125454   2.610   2.513   9.809  0.0479  0.6784  0.3860
 4664SOL    HW225455   2.724   2.593   9.775 -0.6043  0.6894  1.7404
 4665SOL     OW25456   3.131   0.635   6.085 -0.2946 -0.9156  0.3610
 4665SOL    HW125457   3.140   0.721   6.044  1.2575 -0.4917  1.5914
 4665SOL    HW225458   3.111   0.669   6.172  0.3075  1.3637 -0.3751
 4666SOL     OW25459   2.808   0.064   5.745  0.1601 -0.3652 -0.6669
 4666SOL    HW125460   2.769   0.081   5.831  0.6786 -0.7523 -0.3515
 4666SOL    HW225461   2.811   0.155   5.715  3.5138 -1.8254 -4.7450
 4667SOL     OW25462   0.505   3.583   8.442 -0.7328 -0.0598  0.0357
 4667SOL    HW125463   0.600   3.590   8.446 -0.9012  1.1801  2.2612
 4667SOL    HW225464   0.488   3.677   8.438  2.3378  0.5045  0.2572
 4668SOL     OW25465   0.656   0.696  13.453  0.0864  0.0552  0.1003
 4668SOL    HW125466   0.646   0.605  13.425  1.0894 -0.1841  0.5119
 4668SOL    HW225467   0.642   0.750  13.376  3.6841 -0.1015 -0.6314
 4669SOL     OW25468   0.031   4.534  17.267 -0.2127 -0.1861  0.6518
 4669SOL    HW125469   0.070   4.463  17.317  0.4197  1.6645  2.8014
 4669SOL    HW225470   4.698   4.484  17.207  0.0555 -1.3324  1.3550
 4670SOL     OW25471   4.643   1.611   7.283 -0.0544 -0.0322  0.3699
 4670SOL    HW125472   4.678   1.699   7.270  3.3211 -1.5191 -0.6800
 4670SOL    HW225473   0.002   1.568   7.311  0.4561  0.6012 -0.1362
 4671SOL     OW25474   2.314   3.338  11.326 -1.0440  0.2664 -0.0874
 4671SOL    HW125475   2.322   3.425  11.286 -1.1675  0.6869  0.7772
 4671SOL    HW225476   2.354   3.281  11.261  1.4623 -0.3298  1.9760
 4672SOL     OW25477   4.291   3.439  15.134 -0.1788 -0.1684  0.2439
 4672SOL    HW125478   4.315   3.480  15.217 -0.4563  3.1187 -1.2993
 4672SOL    HW225479   4.358   3.483  15.083 -1.4691 -0.0803 -1.3765
 4673SOL     OW25480   4.573   2.913   7.958  0.5418 -0.0616 -0.3228
 4673SOL    HW125481   4.591   2.976   8.027  0.7034  0.7406 -1.0907
 4673SOL    HW225482   4.594   2.968   7.883 -1.1373 -0.6433 -1.2388
 4674SOL     OW25483   3.212   1.396   0.986  0.2336 -0.2307 -0.4867
 4674SOL    HW125484   3.228   1.460   0.918  0.7198 -0.0237 -0.1792
 4674SOL    HW225485   3.233   1.316   0.938  0.0701  0.2450 -1.3392
 4675SOL     OW25486   4.639   2.254  16.197  0.2391 -0.0186  0.3913
 4675SOL    HW125487   0.007   2.227  16.215  1.6282  1.9966 -3.6821
 4675SOL    HW225488   4.597   2.212  16.272 -1.1276 -1.2356 -1.0678
 4676SOL     OW25489   2.115   0.560  13.734 -0.2435  0.2755  0.5818
 4676SOL    HW125490   2.175   0.631  13.710  0.4211 -1.0672 -1.7501
 4676SOL    HW225491   2.127   0.509  13.654  3.7129  1.3377  0.4589
 4677SOL     OW25492   2.092   3.961   0.983  0.1624 -0.3958 -0.0371
 4677SOL    HW125493   2.016   3.934   1.034  0.3107 -0.5497  0.1002
 4677SOL    HW225494   2.081   3.912   0.901  0.3548  0.8701 -0.8138
 4678SOL     OW25495   3.887   3.723  10.859  0.1516 -0.1176 -0.3358
 4678SOL    HW125496   3.932   3.767  10.931 -0.0470  1.1854 -1.0111
 4678SOL    HW225497   3.861   3.639  10.898 -0.7513  0.5238  0.4494
 4679SOL     OW25498   2.679   2.765   8.953  0.0870 -0.8513  0.5713
 4679SOL    HW125499   2.773   2.785   8.946  0.3087 -1.6070  1.4485
 4679SOL    HW225500   2.661   2.805   9.038 -1.7229  2.0606 -1.1748
 4680SOL     OW25501   0.404   0.236   6.324 -0.1950  0.1598  0.5904
 4680SOL    HW125502   0.331   0.227   6.385 -0.8780  0.3911 -0.1895
 4680SOL    HW225503   0.401   0.158   6.268  0.8446 -0.1614  0.9717
 4681SOL     OW25504   0.805   0.400   0.136  0.0282 -0.5267 -0.6588
 4681SOL    HW125505   0.874   0.349   0.180  0.6109  0.0971 -0.8464
 4681SOL    HW225506   0.722   0.358   0.159 -0.1632  0.2699  0.1079
 4682SOL     OW25507   3.153   3.355   4.124  0.4599  0.5021  0.2623
 4682SOL    HW125508   3.159   3.264   4.150 -0.2977  0.3850  0.0174
 4682SOL    HW225509   3.058   3.359   4.111  0.9040 -2.4804 -3.9766
 4683SOL     OW25510   0.133   1.511  12.325 -0.0294  0.1874 -0.4683
 4683SOL    HW125511   0.120   1.424  12.288  2.1423 -0.6116  0.6577
 4683SOL    HW225512   0.199   1.515  12.394 -2.6099 -1.8754  2.1265
 4684SOL     OW25513   2.151   2.874   8.476  0.0662 -0.0487 -0.0961
 4684SOL    HW125514   2.208   2.802   8.450  1.8990  1.2215  0.3822
 4684SOL    HW225515   2.089   2.886   8.403 -0.3475 -1.1339  0.0761
 4685SOL     OW25516   1.766   4.623   3.491 -0.0790  0.0534 -0.1983
 4685SOL    HW125517   1.760   4.646   3.583  0.1748  4.5100 -1.2581
 4685SOL    HW225518   1.712   4.698   3.464  0.1655 -0.3052 -1.7010
 4686SOL     OW25519   1.098   0.672  14.789 -0.3947 -0.1011  0.4488
 4686SOL    HW125520   1.167   0.623  14.833  0.7313  0.4593 -0.6752
 4686SOL    HW225521   1.101   0.754  14.838 -1.5731  0.3027 -0.1699
 4687SOL     OW25522   0.509   0.101   5.317  0.2211 -0.2966 -0.3249
 4687SOL    HW125523   0.565   0.049   5.375  1.0359  1.8464  0.8061
 4687SOL    HW225524   0.490   0.179   5.368 -1.3816  0.3235 -1.8896
 4688SOL     OW25525   2.079   1.984   8.301  0.1199 -0.1859 -0.5470
 4688SOL    HW125526   2.113   1.913   8.247 -1.4837  0.0585 -1.8653
 4688SOL    HW225527   1.994   2.003   8.260 -0.8686  2.7333  2.7978
 4689SOL     OW25528   1.987   0.709   3.109  0.1899 -0.1681  0.2356
 4689SOL    HW125529   1.913   0.702   3.049 -0.1125 -0.2454  0.6178
 4689SOL    HW225530   1.940   0.719   3.192 -0.9559  0.2160 -0.4585
 4690SOL     OW25531   3.806   2.676  10.587  0.2648 -0.0950  0.2246
 4690SOL    HW125532   3.860   2.699  10.663  0.9481  0.7777 -0.5129
 4690SOL    HW225533   3.722   2.639  10.611 -0.0195  1.3797  1.5314
 4691SOL     OW25534   4.527   0.221   3.169 -0.1778  0.3681 -0.1478
 4691SOL    HW125535   4.568   0.190   3.088 -0.3542  0.4647 -0.2762
 4691SOL    HW225536   4.493   0.307   3.142 -0.5917 -0.5916 -2.6580
 4692SOL     OW25537   0.668   1.511   5.694 -0.3020  0.0363  0.3620
 4692SOL    HW125538   0.732   1.477   5.631  0.4552  0.3689  0.9623
 4692SOL    HW225539   0.589   1.533   5.645 -0.8029  0.1792  1.2388
 4693SOL     OW25540   2.383   0.967  16.388  0.4245  0.1860 -0.2811
 4693SOL    HW125541   2.374   1.035  16.455 -1.0281  1.2612 -1.5510
 4693SOL    HW225542   2.290   0.952  16.370  0.0126 -0.2926  2.2745
 4694SOL     OW25543   2.355   3.822   6.660 -0.0901  0.7652  0.5289
 4694SOL    HW125544   2.301   3.822   6.581  0.6444  2.0378  0.0359
 4694SOL    HW225545   2.336   3.912   6.689  1.6411  1.4336 -0.4032
 4695SOL     OW25546   4.405   3.060   5.371  0.1296  0.5300 -0.1744
 4695SOL    HW125547   4.436   3.114   5.444 -0.4977 -0.7799  1.0783
 4695SOL    HW225548   4.378   2.979   5.415  1.2061 -0.5223 -1.4557
 4696SOL     OW25549   2.775   1.359   6.239  0.4246  0.2248  0.0109
 4696SOL    HW125550   2.771   1.447   6.276 -0.9232 -1.6530  4.3695
 4696SOL    HW225551   2.787   1.370   6.145 -0.1610  0.0760 -0.0806
 4697SOL     OW25552   3.105   0.104   2.474 -0.3229  0.3559 -0.2226
 4697SOL    HW125553   3.188   0.148   2.494  0.2865 -0.5467 -0.8208
 4697SOL    HW225554   3.131   0.047   2.402 -0.7563  0.4884 -0.4849
 4698SOL     OW25555   2.560   2.103   5.192 -0.3576 -0.5975  0.1835
 4698SOL    HW125556   2.644   2.141   5.217  0.3556  0.3130 -3.4771
 4698SOL    HW225557   2.584   2.052   5.115 -2.2507  0.1259 -0.9089
 4699SOL     OW25558   0.085   0.106   1.713  0.4902  0.3751 -0.1166
 4699SOL    HW125559   0.117   0.018   1.695  0.2489 -0.0044  1.2750
 4699SOL    HW225560   0.067   0.146   1.628  0.0059  2.6903  1.0582
 4700SOL     OW25561   2.674   0.922  11.165 -0.2387 -0.2241  0.2688
 4700SOL    HW125562   2.763   0.930  11.201 -0.6444 -2.0749  1.6954
 4700SOL    HW225563   2.665   1.008  11.125 -1.6609  0.0155  1.1089
 4701SOL     OW25564   1.495   4.123  15.382  0.2781  0.1504  0.7115
 4701SOL    HW125565   1.470   4.051  15.324  1.2736 -0.7380  1.3899
 4701SOL    HW225566   1.461   4.198  15.334 -0.8160  0.0093  1.2636
 4702SOL     OW25567   0.074   1.529   0.313  0.1691 -0.1664  0.0279
 4702SOL    HW125568   0.004   1.581   0.274  1.2464  2.5136  1.6614
 4702SOL    HW225569   0.141   1.597   0.323 -2.5271  2.4902 -0.0667
 4703SOL     OW25570   3.540   2.513   4.594  0.0037  0.5204 -0.1585
 4703SOL    HW125571   3.632   2.530   4.617  0.3623 -0.2967 -0.9808
 4703SOL    HW225572   3.513   2.578   4.529 -0.7565  1.1347  0.7692
 4704SOL     OW25573   1.050   3.665   7.070  0.0024  0.3341  0.0723
 4704SOL    HW125574   1.133   3.631   7.103  0.4302 -1.1831 -2.5253
 4704SOL    HW225575   1.039   3.742   7.126  0.0216  0.6655 -0.3847
 4705SOL     OW25576   1.179   0.424   8.820 -0.3094 -0.4394  0.0943
 4705SOL    HW125577   1.227   0.358   8.869  2.4659  1.3087 -0.2732
 4705SOL    HW225578   1.179   0.498   8.881  0.1780  1.0661 -1.7474
 4706SOL     OW25579   1.128   4.515  17.144  0.0260 -0.1873 -0.3097
 4706SOL    HW125580   1.148   4.423  17.124  1.0593 -0.1640  0.6682
 4706SOL    HW225581   1.051   4.516  17.087  1.1098  1.7467 -1.7262
 4707SOL     OW25582   0.039   2.820   9.554  1.0160 -0.0461  0.1711
 4707SOL    HW125583   4.715   2.841   9.635 -1.6802 -3.1692 -0.5417
 4707SOL    HW225584   0.052   2.725   9.557  2.8871  0.1729 -1.4115
 4708SOL     OW25585   2.080   2.136   8.995  0.2760  0.1446 -0.6227
 4708SOL    HW125586   2.002   2.171   8.952 -1.1510  0.3991  2.1620
 4708SOL    HW225587   2.104   2.073   8.928  0.5870  1.9765 -2.2449
 4709SOL     OW25588   2.793   1.670   1.133 -0.0134 -0.3356  0.3235
 4709SOL    HW125589   2.827   1.610   1.199  2.0568 -0.8094 -1.1831
 4709SOL    HW225590   2.809   1.632   1.047 -1.5013 -0.2364 -0.0114
 4710SOL     OW25591   2.531   2.425  14.149 -0.4128 -0.7427 -0.0151
 4710SOL    HW125592   2.538   2.353  14.212 -0.4881 -1.3918 -0.7497
 4710SOL    HW225593   2.462   2.485  14.178 -0.9329 -1.4111  0.1492
 4711SOL     OW25594   2.896   2.834   8.296  0.1241  0.1148 -0.1623
 4711SOL    HW125595   2.945   2.907   8.333 -1.0258  0.3505  0.9058
 4711SOL    HW225596   2.807   2.869   8.302  0.1292 -0.1046  1.1268
 4712SOL     OW25597   1.346   2.347   2.119  0.0922  0.0422  0.0126
 4712SOL    HW125598   1.396   2.429   2.115  1.5691 -0.8204  0.9743
 4712SOL    HW225599   1.305   2.347   2.033 -2.1137 -1.0358  1.0465
 4713SOL     OW25600   1.775   2.791   7.741 -0.5162 -0.5770  1.0789
 4713SOL    HW125601   1.718   2.805   7.816 -2.4713 -0.2098 -0.4672
 4713SOL    HW225602   1.862   2.802   7.780  0.1596  1.1899 -0.9161
 4714SOL     OW25603   2.206   3.299   9.146  0.0173  0.4481 -0.0240
 4714SOL    HW125604   2.193   3.309   9.240  0.5468  1.0298 -0.0163
 4714SOL    HW225605   2.232   3.207   9.143 -2.8336 -0.3146 -1.1122
 4715SOL     OW25606   2.293   3.789  11.384  0.3989  0.2999 -0.2279
 4715SOL    HW125607   2.341   3.794  11.467  0.0068 -0.0816  0.0178
 4715SOL    HW225608   2.301   3.882  11.361 -0.6950  0.3411 -0.4051
 4716SOL     OW25609   1.319   0.155   8.880 -0.5270 -0.0639 -0.1122
 4716SOL    HW125610   1.372   0.140   8.802 -0.3098 -0.3475  0.0935
 4716SOL    HW225611   1.353   0.089   8.940  2.1811 -0.0235 -1.6169
 4717SOL     OW25612   1.008   3.293  10.725 -0.3239 -0.1511 -0.0753
 4717SOL    HW125613   0.954   3.339  10.661  0.2645 -0.4815 -0.8107
 4717SOL    HW225614   1.085   3.271  10.672  1.4079  3.6084  0.8930
 4718SOL     OW25615   0.255   3.631   3.875  0.8261  0.2574 -0.3008
 4718SOL    HW125616   0.324   3.570   3.901  0.8187  0.5828  0.4700
 4718SOL    HW225617   0.193   3.582   3.820  0.0400 -0.3048  1.0910
 4719SOL     OW25618   1.627   0.887   9.044 -0.4225  0.3691 -0.0165
 4719SOL    HW125619   1.679   0.821   8.998  1.7370  3.0139 -1.3920
 4719SOL    HW225620   1.697   0.916   9.102  0.1009 -0.1847 -0.3617
 4720SOL     OW25621   2.683   1.648   8.867  0.5373 -0.0786 -0.4383
 4720SOL    HW125622   2.674   1.742   8.885  0.9177 -0.1133 -0.0557
 4720SOL    HW225623   2.778   1.638   8.878  0.0003 -3.0810  1.5169
 4721SOL     OW25624   0.011   0.645   5.463  0.3804  0.5534  0.1915
 4721SOL    HW125625   0.093   0.607   5.433 -0.4260 -0.3614 -0.8777
 4721SOL    HW225626   4.706   0.569   5.514  0.5334 -0.0460 -0.6100
 4722SOL     OW25627   1.059   3.665   7.556  0.0318 -0.2431 -0.0283
 4722SOL    HW125628   1.084   3.578   7.526  0.6070 -0.4777  1.1298
 4722SOL    HW225629   0.985   3.678   7.497  0.6417 -0.7168 -0.9003
 4723SOL     OW25630   0.715   1.387   3.493 -0.1916 -0.6208  0.3143
 4723SOL    HW125631   0.809   1.401   3.495  0.0666 -2.5355  1.9408
 4723SOL    HW225632   0.670   1.470   3.507  0.1833 -0.4933  0.7455
 4724SOL     OW25633   4.587   1.007   5.167  0.3299 -0.3416  0.1471
 4724SOL    HW125634   4.641   0.935   5.200  0.5994 -0.7912 -1.2587
 4724SOL    HW225635   4.663   1.064   5.160 -0.1557  0.3883  0.7436
 4725SOL     OW25636   3.752   2.952   4.814 -0.3544  0.0675  0.0136
 4725SOL    HW125637   3.709   3.024   4.860  0.1223 -0.0172  0.5875
 4725SOL    HW225638   3.699   2.933   4.737 -0.2049 -1.5650  0.3059
 4726SOL     OW25639   1.669   3.017   2.359  0.0932  0.3813 -0.8125
 4726SOL    HW125640   1.710   3.056   2.436 -0.3291 -0.1423 -0.3235
 4726SOL    HW225641   1.625   3.090   2.316 -2.0412 -1.0405 -1.0538
 4727SOL     OW25642   4.546   0.064   6.675  0.1336  0.6995  0.2630
 4727SOL    HW125643   4.518   4.695   6.667  0.5014  0.8111 -2.2382
 4727SOL    HW225644   4.619   0.055   6.614 -2.3896  0.2409 -2.6600
 4728SOL     OW25645   2.729   3.814   9.242 -0.4847  0.6097 -0.6732
 4728SOL    HW125646   2.661   3.881   9.246 -1.4223 -0.3404 -0.8828
 4728SOL    HW225647   2.753   3.815   9.149 -1.1072 -0.8503 -0.8434
 4729SOL     OW25648   1.076   1.944  15.606 -0.3324  0.4354  0.2754
 4729SOL    HW125649   0.985   1.973  15.607  0.2974  2.4328  0.2904
 4729SOL    HW225650   1.125   2.002  15.547  1.5838  0.2423  1.6834
 4730SOL     OW25651   3.378   0.897  14.841  0.1336 -0.2207 -0.2737
 4730SOL    HW125652   3.452   0.957  14.852 -1.3703  1.7914 -1.1336
 4730SOL    HW225653   3.422   0.825  14.795 -1.1829 -0.8929 -0.4935
 4731SOL     OW25654   4.277   2.956   4.132 -0.3653 -0.2671  0.3784
 4731SOL    HW125655   4.294   2.971   4.225 -0.6308  1.5539  0.1237
 4731SOL    HW225656   4.366   2.970   4.098 -0.3176 -1.0125  0.1822
 4732SOL     OW25657   1.740   1.768  16.150  0.7197 -0.3748 -0.1716
 4732SOL    HW125658   1.740   1.673  16.135 -2.0213 -0.5761  1.2294
 4732SOL    HW225659   1.775   1.800  16.066  1.3370  0.4088  0.3927
 4733SOL     OW25660   3.351   2.154   8.890  0.0536  0.0023  0.3523
 4733SOL    HW125661   3.263   2.164   8.854  0.8793  3.0959 -0.7805
 4733SOL    HW225662   3.408   2.181   8.818 -0.5389  2.6371  0.8794
 4734SOL     OW25663   4.454   0.833   7.660  0.2334 -0.3527 -0.2705
 4734SOL    HW125664   4.390   0.892   7.700  3.9986  1.0959  3.6246
 4734SOL    HW225665   4.523   0.824   7.726  1.8839  1.9966 -1.6424
 4735SOL     OW25666   0.285   1.107   6.912  0.7662 -0.0749 -0.1794
 4735SOL    HW125667   0.312   1.017   6.935 -0.9333 -0.2526  1.0903
 4735SOL    HW225668   0.199   1.092   6.950  1.5535 -2.9884  0.5210
 4736SOL     OW25669   0.523   2.256   2.794 -0.3739  0.2170  0.2705
 4736SOL    HW125670   0.512   2.162   2.775 -0.7984  0.0055  1.5629
 4736SOL    HW225671   0.468   2.293   2.725 -2.2531 -0.4608  1.4279
 4737SOL     OW25672   1.456   1.206   5.745  0.4361 -0.1540  0.2640
 4737SOL    HW125673   1.387   1.234   5.685  0.8808 -0.8933 -0.5901
 4737SOL    HW225674   1.517   1.160   5.688  0.8490  0.6692  0.0408
 4738SOL     OW25675   0.150   0.974   3.181 -0.5448 -0.0800 -0.3546
 4738SOL    HW125676   0.080   0.978   3.115  0.9098  0.6972 -1.8514
 4738SOL    HW225677   0.092   0.929   3.242  1.2272 -1.4492  0.3329
 4739SOL     OW25678   0.495   1.722   4.007 -0.0357  0.3690  0.3303
 4739SOL    HW125679   0.445   1.682   4.078 -1.1051  0.6206 -0.2904
 4739SOL    HW225680   0.486   1.661   3.934 -1.7113  0.3391  0.5634
 4740SOL     OW25681   2.905   1.230   4.008 -0.6566 -0.3326  0.2037
 4740SOL    HW125682   2.845   1.300   3.982 -0.7462 -0.3765  0.2947
 4740SOL    HW225683   2.932   1.200   3.921  1.3552 -0.7861  0.9718
 4741SOL     OW25684   3.625   1.019  17.155 -0.0219 -0.0300  0.1076
 4741SOL    HW125685   3.714   0.984  17.146 -1.7601 -4.0453 -1.3593
 4741SOL    HW225686   3.639   1.099  17.104 -0.2903  0.4044  0.7110
 4742SOL     OW25687   0.227   2.251  10.629  0.6461 -0.3776  0.4279
 4742SOL    HW125688   0.157   2.215  10.575  0.4037 -0.3070  0.6981
 4742SOL    HW225689   0.191   2.225  10.714 -1.2438 -0.0605 -0.2770
 4743SOL     OW25690   2.070   0.961   3.344  0.4528  0.1330 -0.4974
 4743SOL    HW125691   2.120   0.979   3.265  0.1719 -0.1424 -0.7386
 4743SOL    HW225692   2.000   1.026   3.333  1.8869  1.7763  0.1812
 4744SOL     OW25693   3.099   1.192   5.448 -0.2205 -0.2061  0.2558
 4744SOL    HW125694   3.076   1.115   5.500  0.6124 -0.9844 -0.5455
 4744SOL    HW225695   3.119   1.256   5.517  0.9280  0.3885 -0.6418
 4745SOL     OW25696   2.101   1.562   8.547 -0.5005 -0.2868  0.3160
 4745SOL    HW125697   2.133   1.558   8.638  0.4126 -0.6890 -0.0187
 4745SOL    HW225698   2.133   1.649   8.521  0.9631 -1.2307 -1.0511
 4746SOL     OW25699   1.661   1.328   2.553 -0.3291 -0.0210  0.3552
 4746SOL    HW125700   1.626   1.259   2.611 -0.1988 -0.7325 -0.4198
 4746SOL    HW225701   1.720   1.272   2.503  0.9850  1.0288  0.7401
 4747SOL     OW25702   0.111   3.658  12.165  0.0628 -0.4909  0.2913
 4747SOL    HW125703   0.097   3.610  12.083  0.5115 -1.0614  0.5462
 4747SOL    HW225704   0.072   3.742  12.142 -0.1843 -0.6802  0.0179
 4748SOL     OW25705   4.686   1.682   3.756  0.2243  1.2864 -0.5882
 4748SOL    HW125706   0.028   1.691   3.686 -1.4898 -2.1010 -2.6118
 4748SOL    HW225707   4.714   1.600   3.796 -3.3363  0.9544  1.2234
 4749SOL     OW25708   1.530   4.498   9.519 -0.0308 -0.1976 -0.1582
 4749SOL    HW125709   1.440   4.469   9.507 -0.2875 -0.2164  1.8331
 4749SOL    HW225710   1.520   4.593   9.525 -1.4581 -0.2758 -1.3515
 4750SOL     OW25711   4.419   2.484   3.507 -0.1577 -0.3323  0.0705
 4750SOL    HW125712   4.465   2.419   3.453  0.3230  0.9031 -0.9909
 4750SOL    HW225713   4.489   2.543   3.532 -0.3351  0.4131 -1.2273
 4751SOL     OW25714   1.824   0.577   5.625 -0.0017  0.0793  0.3075
 4751SOL    HW125715   1.733   0.605   5.610 -0.6535 -0.9598  2.2864
 4751SOL    HW225716   1.863   0.647   5.574  0.5460 -1.0461 -0.8312
 4752SOL     OW25717   2.652   3.036   4.419  0.3065  0.5942 -0.0901
 4752SOL    HW125718   2.645   3.089   4.339 -0.8624  0.0600 -0.3452
 4752SOL    HW225719   2.709   2.965   4.389 -2.2752 -1.6263  0.2236
 4753SOL     OW25720   0.545   2.427   0.894  0.4581  0.4037  0.5710
 4753SOL    HW125721   0.481   2.377   0.844 -0.1136  1.8894 -0.1705
 4753SOL    HW225722   0.519   2.408   0.983  1.0776  1.8619  1.0696
 4754SOL     OW25723   1.796   2.983   1.634  0.3041 -0.1034 -0.0244
 4754SOL    HW125724   1.869   2.956   1.578  1.2917  0.1424  1.1536
 4754SOL    HW225725   1.808   2.933   1.715 -0.0821 -0.7440 -0.3574
 4755SOL     OW25726   2.887   4.705   6.735  0.8031 -0.2988  0.1810
 4755SOL    HW125727   2.941   4.649   6.679  0.8145  0.7408 -0.8624
 4755SOL    HW225728   2.947   4.719   6.809  0.2577  3.1146 -0.0126
 4756SOL     OW25729   0.241   0.889   7.907  0.1459  0.2544 -0.3230
 4756SOL    HW125730   0.308   0.832   7.944  0.9473  1.0318 -0.5710
 4756SOL    HW225731   0.285   0.938   7.837  1.1885 -0.8595 -0.4407
 4757SOL     OW25732   4.131   2.999   2.916  0.4625  0.7900  0.3418
 4757SOL    HW125733   4.210   3.035   2.958  2.1940  1.5828 -3.5883
 4757SOL    HW225734   4.122   2.914   2.959  2.1409  0.8649  0.8389
 4758SOL     OW25735   3.865   2.805  17.097  0.2245  0.0875 -0.0224
 4758SOL    HW125736   3.893   2.778  17.184  1.2436  4.4225  1.0210
 4758SOL    HW225737   3.925   2.749  17.048  0.2361  0.0338  0.0538
 4759SOL     OW25738   3.787   4.229   5.928  0.2286 -0.0734  0.1551
 4759SOL    HW125739   3.856   4.276   5.975  0.3605  2.3503 -2.4456
 4759SOL    HW225740   3.710   4.283   5.944  0.3188  0.5028 -1.4171
 4760SOL     OW25741   1.245   2.737   9.455 -0.1096  0.1770 -0.1923
 4760SOL    HW125742   1.305   2.665   9.435  0.6761  0.8048 -0.0983
 4760SOL    HW225743   1.310   2.806   9.469 -0.0183 -0.0270  0.3925
 4761SOL     OW25744   2.384   0.961   5.142 -1.0191  0.1975  0.3320
 4761SOL    HW125745   2.340   1.008   5.212 -1.1912 -0.9554  0.9941
 4761SOL    HW225746   2.334   1.001   5.071  1.1269  2.7991  0.2878
 4762SOL     OW25747   0.458   1.523   5.217  0.1782 -0.1644 -0.5217
 4762SOL    HW125748   0.502   1.522   5.302 -0.6706 -1.5640 -0.1007
 4762SOL    HW225749   0.367   1.538   5.244  0.8613  1.5779  0.8709
 4763SOL     OW25750   0.303   2.886   6.060 -0.5615 -0.2740  0.1833
 4763SOL    HW125751   0.392   2.904   6.089  0.0857 -2.1385 -0.6120
 4763SOL    HW225752   0.265   2.973   6.055  2.6316  1.1933  1.4556
 4764SOL     OW25753   4.653   3.374  11.477  0.0579  0.2569 -0.3448
 4764SOL    HW125754   0.010   3.330  11.507 -0.9614 -2.4270 -1.5988
 4764SOL    HW225755   4.592   3.303  11.496 -0.9812  1.7858  2.0422
 4765SOL     OW25756   4.555   2.347   3.276 -0.5670  0.0984  0.2924
 4765SOL    HW125757   4.474   2.298   3.262 -2.1319  1.8471  3.2498
 4765SOL    HW225758   4.544   2.418   3.212  0.3284 -0.0845 -0.0562
 4766SOL     OW25759   1.664   0.125  17.564 -0.1699  0.0085  0.5134
 4766SOL    HW125760   1.595   0.075  17.520  1.2933 -1.1460 -0.4235
 4766SOL    HW225761   1.739   0.122  17.506  0.4143  0.1847  1.2549
 4767SOL     OW25762   1.829   0.482  15.942 -0.4512  0.0757 -0.3987
 4767SOL    HW125763   1.839   0.462  15.848  0.8085 -0.0316 -0.2427
 4767SOL    HW225764   1.739   0.452  15.953 -0.2693  0.2309  1.4358
 4768SOL     OW25765   3.489   2.904   5.697  0.3807  0.2684  0.4952
 4768SOL    HW125766   3.476   2.988   5.654  0.4152  0.0559  0.0743
 4768SOL    HW225767   3.557   2.935   5.757  0.0815  1.2710  0.3039
 4769SOL     OW25768   1.530   1.821   1.977 -0.4000 -0.2719 -0.1496
 4769SOL    HW125769   1.441   1.790   1.963 -1.7143  2.5564  1.8177
 4769SOL    HW225770   1.544   1.876   1.900 -1.4577  0.8288  0.4447
 4770SOL     OW25771   3.105   0.128   5.716  0.1281 -0.6339  0.0452
 4770SOL    HW125772   3.184   0.176   5.691 -0.1019 -0.9153 -1.1937
 4770SOL    HW225773   3.035   0.193   5.719  0.2126 -0.4978 -1.1685
 4771SOL     OW25774   2.555   2.878  15.492 -0.3429  0.2131 -0.2879
 4771SOL    HW125775   2.526   2.958  15.447 -1.1712  1.0371  1.7151
 4771SOL    HW225776   2.618   2.846  15.427  0.0005 -1.0024  0.6535
 4772SOL     OW25777   1.975   3.216   7.382 -0.0797 -0.3360 -0.0232
 4772SOL    HW125778   1.974   3.260   7.297 -0.5474  1.8671  1.1427
 4772SOL    HW225779   2.027   3.138   7.362 -0.1687 -0.3625 -0.1540
 4773SOL     OW25780   0.752   0.353   4.760  0.2371  0.4269  0.2040
 4773SOL    HW125781   0.705   0.348   4.843  0.2921  1.7703  0.3216
 4773SOL    HW225782   0.753   0.445   4.734  0.7219 -0.1868 -1.9405
 4774SOL     OW25783   3.841   4.685   3.833 -0.3879  0.1668 -0.2577
 4774SOL    HW125784   3.775   4.652   3.772 -0.4069  0.6432 -0.4911
 4774SOL    HW225785   3.918   4.677   3.776  1.8494  0.0186  2.7693
 4775SOL     OW25786   3.616   1.263   3.724  0.0990 -0.0250  0.5189
 4775SOL    HW125787   3.622   1.197   3.794 -1.8180  0.3533  1.0555
 4775SOL    HW225788   3.703   1.253   3.685 -0.1000 -0.2787  0.1374
 4776SOL     OW25789   0.959   1.754   3.078 -0.1302 -0.4552 -0.3111
 4776SOL    HW125790   0.870   1.725   3.060  0.5149 -1.4269 -2.0128
 4776SOL    HW225791   0.955   1.753   3.174  1.1729 -1.7275 -0.2764
 4777SOL     OW25792   2.135   2.602   9.655  0.1364 -0.0305  0.0413
 4777SOL    HW125793   2.152   2.545   9.730  0.1043  2.1029  1.6543
 4777SOL    HW225794   2.220   2.622   9.615 -0.2002  3.2163  0.9999
 4778SOL     OW25795   1.911   2.470   9.743  0.4389  0.4309 -0.4425
 4778SOL    HW125796   2.000   2.481   9.775  0.5520 -1.2118 -0.1827
 4778SOL    HW225797   1.868   2.524   9.810 -1.1321  1.5855 -2.3837
 4779SOL     OW25798   3.186   0.644   1.486 -0.0507 -0.1840  0.7599
 4779SOL    HW125799   3.093   0.663   1.503  0.8485  3.6987  1.2184
 4779SOL    HW225800   3.183   0.548   1.489 -2.1482 -0.1875 -1.1967
 4780SOL     OW25801   4.545   4.310   7.863 -0.1122 -0.1295  0.6239
 4780SOL    HW125802   4.617   4.296   7.924  1.6616 -0.8863 -1.6575
 4780SOL    HW225803   4.553   4.224   7.820 -0.7752 -0.3868  1.0235
 4781SOL     OW25804   0.226   2.122   6.325 -0.1287 -0.2601 -0.5514
 4781SOL    HW125805   0.155   2.148   6.267 -0.3370  0.2325 -0.0726
 4781SOL    HW225806   0.294   2.093   6.264  0.7824  0.3879  0.1571
 4782SOL     OW25807   4.540   0.946   8.911  0.3208  0.6472 -0.4309
 4782SOL    HW125808   4.604   0.893   8.958  0.1752  0.3721 -0.5441
 4782SOL    HW225809   4.537   0.912   8.822 -1.0626  0.8610 -0.4677
 4783SOL     OW25810   0.416   0.550   5.813 -0.1654 -0.0893  0.3547
 4783SOL    HW125811   0.480   0.494   5.771  0.2937  0.8664 -0.2299
 4783SOL    HW225812   0.380   0.493   5.882 -0.3126 -1.3284 -0.7647
 4784SOL     OW25813   0.620   2.770   6.694 -0.7004  0.1724  0.1358
 4784SOL    HW125814   0.680   2.790   6.765  1.1416 -1.3997 -0.9613
 4784SOL    HW225815   0.530   2.788   6.722 -0.9250  2.6294 -2.1618
 4785SOL     OW25816   0.316   3.900   5.492  0.2463 -0.0215 -0.0913
 4785SOL    HW125817   0.342   3.984   5.454  1.9509 -0.0011  1.1080
 4785SOL    HW225818   0.330   3.839   5.421  0.6353  1.6815 -1.4712
 4786SOL     OW25819   2.510   0.739  16.470  0.3072  0.1450  0.6699
 4786SOL    HW125820   2.423   0.715  16.502 -0.9948  1.1960 -2.0969
 4786SOL    HW225821   2.485   0.824  16.434  0.5717 -0.1518 -0.2301
 4787SOL     OW25822   1.595   2.264  13.132  0.0599 -0.0295  0.0910
 4787SOL    HW125823   1.558   2.331  13.189 -1.0281  0.5346 -1.2609
 4787SOL    HW225824   1.666   2.234  13.188 -0.0644 -0.4652  0.0202
 4788SOL     OW25825   2.135   2.040   8.748  0.3184 -0.3815  0.0059
 4788SOL    HW125826   2.194   2.054   8.673 -0.7555 -0.5978 -0.8830
 4788SOL    HW225827   2.184   1.965   8.782  0.3614 -0.5601 -0.4379
 4789SOL     OW25828   2.744   1.328  10.276  0.0829 -0.5214  1.2516
 4789SOL    HW125829   2.698   1.403  10.313 -2.6976 -0.3096 -2.6086
 4789SOL    HW225830   2.672   1.284  10.231  2.7224 -1.8957 -1.6191
 4790SOL     OW25831   0.051   2.450   7.143 -0.9270 -0.0866 -0.0563
 4790SOL    HW125832   0.097   2.413   7.219 -1.2187  0.8942  0.5971
 4790SOL    HW225833   0.051   2.545   7.155 -0.8437 -0.3717  2.3113
 4791SOL     OW25834   3.478   4.616  15.276  0.0580 -0.2281 -0.1969
 4791SOL    HW125835   3.395   4.644  15.237 -0.3875 -2.1194 -0.6121
 4791SOL    HW225836   3.532   4.695  15.269  0.6332 -0.7076 -1.2492
 4792SOL     OW25837   1.890   3.837   3.962 -0.0423  0.0653  0.1255
 4792SOL    HW125838   1.822   3.824   4.028 -2.0882 -1.4696 -2.3124
 4792SOL    HW225839   1.858   3.815   3.874  0.9955 -0.9065 -0.0232
 4793SOL     OW25840   0.888   2.852   6.181 -0.1474 -0.3579  0.1875
 4793SOL    HW125841   0.864   2.854   6.274 -1.2070 -0.0277 -0.0987
 4793SOL    HW225842   0.837   2.919   6.135 -0.8586  0.2430  1.8346
 4794SOL     OW25843   2.226   3.222   6.907  0.2301  0.1699 -0.0650
 4794SOL    HW125844   2.314   3.253   6.926 -0.4549  1.6784  0.6139
 4794SOL    HW225845   2.174   3.302   6.917  0.5330 -0.0729  3.7089
 4795SOL     OW25846   0.964   4.352   4.275  0.5954 -0.2991  0.2831
 4795SOL    HW125847   0.969   4.318   4.185  1.0455 -1.8514  0.8859
 4795SOL    HW225848   0.892   4.415   4.277  0.8722  0.1172 -2.4504
 4796SOL     OW25849   1.633   1.895   5.158  0.4171 -0.3737 -0.1972
 4796SOL    HW125850   1.564   1.879   5.222  1.4618  0.6046  1.1636
 4796SOL    HW225851   1.628   1.813   5.109 -0.3574 -0.0344 -0.6901
 4797SOL     OW25852   3.537   3.935  12.117  0.2105 -0.5568  0.1257
 4797SOL    HW125853   3.506   3.863  12.171 -1.6528 -1.1705 -1.7410
 4797SOL    HW225854   3.468   3.938  12.051  0.6901  0.7092 -0.3366
 4798SOL     OW25855   0.916   3.914   5.813 -0.3206 -0.1395 -0.3757
 4798SOL    HW125856   0.866   3.995   5.803  0.2792  0.0726 -1.6458
 4798SOL    HW225857   0.921   3.892   5.720 -0.2602 -1.7064  0.0042
 4799SOL     OW25858   3.017   3.761   3.805 -0.1595 -0.4907 -0.9333
 4799SOL    HW125859   3.002   3.791   3.895  2.2301 -0.4563 -0.5447
 4799SOL    HW225860   2.940   3.799   3.762 -0.0324  1.0983  0.2247
 4800SOL     OW25861   3.113   2.872   7.451  0.4336 -0.4000 -0.4874
 4800SOL    HW125862   3.144   2.788   7.485 -1.6315 -1.9022 -2.3123
 4800SOL    HW225863   3.186   2.931   7.468 -0.0136 -0.3747  1.3278
 4801SOL     OW25864   4.089   4.001   4.694  1.1006  0.1718  0.2086
 4801SOL    HW125865   4.066   4.080   4.742  1.6332  0.0528  0.6630
 4801SOL    HW225866   4.129   4.046   4.620  0.2418 -1.9154 -1.5110
 4802SOL     OW25867   4.145   2.447   5.473 -0.0209 -0.0918  0.0135
 4802SOL    HW125868   4.057   2.415   5.452 -0.4702  1.6171 -0.7424
 4802SOL    HW225869   4.182   2.412   5.391 -2.5469 -2.7416  0.0232
 4803SOL     OW25870   4.035   2.121   7.578 -0.3763 -0.9317 -0.5546
 4803SOL    HW125871   3.947   2.155   7.594  1.1433  1.5951  2.3300
 4803SOL    HW225872   4.072   2.110   7.666  0.8861 -0.9948 -1.0935
 4804SOL     OW25873   3.734   1.722   3.455  0.0241 -0.2746 -0.7536
 4804SOL    HW125874   3.670   1.769   3.508  1.0305 -0.1214  0.3566
 4804SOL    HW225875   3.793   1.710   3.530 -0.4599  0.0963 -0.3184
 4805SOL     OW25876   2.123   1.608   4.950 -0.1014  0.1107 -0.5050
 4805SOL    HW125877   2.187   1.585   5.018 -1.0863 -1.5851 -0.1509
 4805SOL    HW225878   2.133   1.549   4.875  0.1460 -1.5022  0.7931
 4806SOL     OW25879   0.306   1.444   3.497 -0.3906  0.0292  0.2082
 4806SOL    HW125880   0.281   1.527   3.538 -0.2453  0.8006 -1.2444
 4806SOL    HW225881   0.238   1.380   3.517 -0.9497  0.4869 -0.2075
 4807SOL     OW25882   4.218   2.091   6.201  0.4885  0.1238  0.3970
 4807SOL    HW125883   4.173   2.074   6.118  0.6046 -0.1174  0.3851
 4807SOL    HW225884   4.305   2.120   6.173 -0.1119  0.3780 -1.2120
 4808SOL     OW25885   3.666   1.548   0.943 -0.1253  0.0243  0.3178
 4808SOL    HW125886   3.611   1.574   0.869 -0.7259 -2.1551 -0.0062
 4808SOL    HW225887   3.653   1.624   1.000  1.2504  2.6940 -2.9474
 4809SOL     OW25888   2.281   2.228  15.420 -0.1529 -0.2731  0.2069
 4809SOL    HW125889   2.203   2.209  15.368 -0.6966 -1.6107  1.4809
 4809SOL    HW225890   2.335   2.149  15.420 -0.2938 -0.3702  0.1482
 4810SOL     OW25891   3.301   3.833   5.112  0.3404 -0.0669  0.0399
 4810SOL    HW125892   3.260   3.801   5.032  1.7987 -0.8950 -0.3687
 4810SOL    HW225893   3.339   3.918   5.087 -1.0672  0.5490 -0.0230
 4811SOL     OW25894   2.184   3.749   2.064 -0.6023 -0.1840  0.1297
 4811SOL    HW125895   2.192   3.658   2.092 -0.3220 -0.5783 -1.2602
 4811SOL    HW225896   2.102   3.759   2.015 -0.9034 -1.2381  0.4223
 4812SOL     OW25897   0.315   4.214  13.496  0.2071  0.0921  0.0959
 4812SOL    HW125898   0.263   4.259  13.563  0.7821  0.6570  0.1576
 4812SOL    HW225899   0.252   4.228  13.425  1.5859  3.4038 -0.4851
 4813SOL     OW25900   1.143   1.398   6.592 -0.3227 -0.2488  0.1129
 4813SOL    HW125901   1.207   1.394   6.662 -0.1728 -2.7223 -0.1873
 4813SOL    HW225902   1.068   1.384   6.649 -0.7859  0.3081 -0.3533
 4814SOL     OW25903   1.482   3.056   2.918  0.4163  0.2537 -0.0163
 4814SOL    HW125904   1.571   3.063   2.882 -0.0565  0.2051 -1.2178
 4814SOL    HW225905   1.488   3.056   3.013 -0.7223  1.7051  0.0548
 4815SOL     OW25906   0.314   3.765  10.442  0.2684 -0.5814  0.1760
 4815SOL    HW125907   0.358   3.712  10.508  0.3330 -1.1559 -0.3313
 4815SOL    HW225908   0.320   3.854  10.478  0.7426 -0.6319  0.2297
 4816SOL     OW25909   1.006   0.473   6.055 -0.4657 -0.9633  0.1179
 4816SOL    HW125910   1.001   0.455   6.149 -1.5868 -1.8249 -0.1101
 4816SOL    HW225911   1.004   0.569   6.050 -1.2976 -0.9910 -0.1572
 4817SOL     OW25912   4.405   1.877   1.604  0.1491 -0.2780  0.0936
 4817SOL    HW125913   4.477   1.844   1.657 -0.8006  0.5465  1.8966
 4817SOL    HW225914   4.350   1.801   1.618 -0.7901  0.2093 -0.9114
 4818SOL     OW25915   4.240   2.149  16.761 -0.2574  0.0898  0.3103
 4818SOL    HW125916   4.198   2.205  16.827 -2.0291  0.1023 -0.8448
 4818SOL    HW225917   4.245   2.215  16.693 -2.1428 -1.7179 -1.5882
 4819SOL     OW25918   2.357   3.785   8.353 -0.1349  0.3903  0.1969
 4819SOL    HW125919   2.355   3.815   8.444  0.8588 -1.3227  0.7872
 4819SOL    HW225920   2.393   3.867   8.318  0.0149  0.4446  0.4744
 4820SOL     OW25921   2.483   2.355   0.730 -0.0983  0.0891 -0.1895
 4820SOL    HW125922   2.398   2.359   0.688 -0.4821 -1.8441  0.4024
 4820SOL    HW225923   2.479   2.427   0.794  3.1058 -2.0472  2.4621
 4821SOL     OW25924   3.950   0.751   3.107 -0.3849 -0.1474 -0.7122
 4821SOL    HW125925   3.954   0.767   3.013  2.3919  1.3431 -0.3211
 4821SOL    HW225926   3.854   0.746   3.114 -0.5087 -0.0561 -2.3623
 4822SOL     OW25927   4.567   1.151  15.243  0.3718  0.2016 -0.5854
 4822SOL    HW125928   4.524   1.068  15.263  0.6781  0.3860  0.8731
 4822SOL    HW225929   4.613   1.163  15.326  2.5403 -0.0302 -1.7337
 4823SOL     OW25930   4.597   4.463   2.310 -0.1921  0.6653  0.9091
 4823SOL    HW125931   4.565   4.552   2.325 -1.5783  0.4661 -0.8823
 4823SOL    HW225932   4.689   4.473   2.285 -0.2351  3.4537  1.8622
 4824SOL     OW25933   1.618   0.564  14.374  0.0143 -0.4761 -0.5035
 4824SOL    HW125934   1.645   0.516  14.295  3.0870 -0.0677  0.2919
 4824SOL    HW225935   1.589   0.494  14.432  0.7417 -1.3333 -1.1597
 4825SOL     OW25936   3.013   3.350   5.848 -0.3030  0.1369  0.3785
 4825SOL    HW125937   3.042   3.327   5.937 -0.1239 -0.7470  0.0870
 4825SOL    HW225938   2.922   3.372   5.867 -0.7603  0.2216 -1.9260
 4826SOL     OW25939   0.206   2.754   9.286 -0.1237  1.1362 -0.0919
 4826SOL    HW125940   0.297   2.738   9.310 -0.5794 -0.1924  0.7565
 4826SOL    HW225941   0.189   2.795   9.371  0.8822  0.5627  0.3816
 4827SOL     OW25942   3.736   1.768   8.314 -0.1445  0.1950 -0.0546
 4827SOL    HW125943   3.774   1.842   8.361 -1.1487 -0.7627  2.2702
 4827SOL    HW225944   3.790   1.773   8.235 -1.3209 -0.9692 -0.9254
 4828SOL     OW25945   2.837   1.477   4.963 -0.0607 -0.1632  0.0641
 4828SOL    HW125946   2.757   1.519   4.993 -0.4025  1.5874 -3.2822
 4828SOL    HW225947   2.870   1.541   4.899  0.3654  0.7575  1.2078
 4829SOL     OW25948   3.375   0.536  16.642  0.1061  0.0880 -0.1461
 4829SOL    HW125949   3.439   0.491  16.586 -0.5302 -0.0429 -0.7804
 4829SOL    HW225950   3.404   0.627  16.643  1.4011 -0.3153 -1.1779
 4830SOL     OW25951   3.437   0.053  14.757  0.1057 -0.0530 -0.1017
 4830SOL    HW125952   3.386   4.701  14.788 -0.9085  0.9177  0.5669
 4830SOL    HW225953   3.525   0.033  14.791  1.0160  1.9771 -1.2476
 4831SOL     OW25954   4.206   1.520   0.093  0.2047  0.0269  0.2561
 4831SOL    HW125955   4.291   1.494   0.057  0.1281 -0.4204  0.3945
 4831SOL    HW225956   4.171   1.562   0.014  0.6149  0.1796  0.1579
 4832SOL     OW25957   1.052   2.898   1.415  0.4513  0.2855 -0.4187
 4832SOL    HW125958   1.070   2.824   1.357 -0.0929 -0.0611 -0.1392
 4832SOL    HW225959   1.060   2.971   1.354  1.9866  0.7078  0.2847
 4833SOL     OW25960   0.684   1.452   1.912  0.0432  0.0975  0.4158
 4833SOL    HW125961   0.608   1.510   1.910 -0.2562 -0.2462  1.6129
 4833SOL    HW225962   0.642   1.369   1.935 -1.1058  0.7991  0.8176
 4834SOL     OW25963   3.440   2.705   4.091  0.5717 -0.2149 -0.0317
 4834SOL    HW125964   3.357   2.751   4.101  0.3758 -0.5952  0.1068
 4834SOL    HW225965   3.491   2.763   4.036 -0.6256  1.6546  0.8440
 4835SOL     OW25966   2.017   4.434   7.387 -0.0880  0.2900 -0.5354
 4835SOL    HW125967   1.922   4.447   7.397 -0.1882  0.4437 -1.6293
 4835SOL    HW225968   2.044   4.463   7.300  0.7491  1.4172  0.1114
 4836SOL     OW25969   0.493   2.711   4.874  0.2243 -0.3280 -0.6767
 4836SOL    HW125970   0.549   2.641   4.842  0.4698 -1.6424  2.6616
 4836SOL    HW225971   0.411   2.663   4.887  0.6885 -0.6357  1.0430
 4837SOL     OW25972   4.228   1.360  11.516  0.5649 -0.0322  0.2270
 4837SOL    HW125973   4.277   1.296  11.466  1.7834  0.0157  1.3639
 4837SOL    HW225974   4.164   1.301  11.557  1.5939 -0.2551  1.5207
 4838SOL     OW25975   3.679   0.688   2.421 -0.5867  0.1304  0.0759
 4838SOL    HW125976   3.674   0.772   2.375 -2.7839 -1.0192 -1.8106
 4838SOL    HW225977   3.594   0.652   2.396 -1.6453  0.8821  2.6290
 4839SOL     OW25978   0.258   4.196   8.017  0.4973 -0.4002  0.0314
 4839SOL    HW125979   0.192   4.258   7.989  1.6754  0.1475 -1.5422
 4839SOL    HW225980   0.281   4.155   7.934 -0.7701 -0.5211 -0.2457
 4840SOL     OW25981   0.916   4.419   8.830  0.2391 -0.2143 -0.3659
 4840SOL    HW125982   0.841   4.463   8.868 -0.7790 -1.1333 -1.3120
 4840SOL    HW225983   0.982   4.487   8.818  1.3843 -0.8340  2.4817
 4841SOL     OW25984   1.828   2.662   3.519  0.0174 -0.2042 -0.3146
 4841SOL    HW125985   1.736   2.646   3.497 -0.1376  0.9657 -0.5702
 4841SOL    HW225986   1.875   2.644   3.438 -2.2688  0.0442 -1.7238
 4842SOL     OW25987   2.708   2.031   2.272 -0.3278  0.2905 -0.3351
 4842SOL    HW125988   2.796   2.049   2.239  0.6215 -2.1998  0.8704
 4842SOL    HW225989   2.662   2.098   2.222 -1.5041  0.7501  1.3679
 4843SOL     OW25990   3.007   1.245  10.122 -0.0270  0.2804 -0.5310
 4843SOL    HW125991   3.061   1.199  10.186 -3.0035 -1.5551  0.6228
 4843SOL    HW225992   2.937   1.287  10.171  0.6645 -0.4252  1.0716
 4844SOL     OW25993   4.402   0.589   2.689 -0.4371 -0.4885  0.1345
 4844SOL    HW125994   4.369   0.519   2.633 -3.5803  0.4816  0.7711
 4844SOL    HW225995   4.348   0.663   2.662 -0.1815 -0.3316  0.0552
 4845SOL     OW25996   2.832   1.125  17.248  0.1572  0.2694 -0.4487
 4845SOL    HW125997   2.822   1.141  17.154 -0.2685  1.5659 -0.1899
 4845SOL    HW225998   2.926   1.110  17.257  0.2128  0.4659 -0.6968
 4846SOL     OW25999   0.528   2.417   5.352 -0.2851 -0.9695 -0.4252
 4846SOL    HW126000   0.442   2.411   5.392 -1.6543 -0.7759 -3.3301
 4846SOL    HW226001   0.582   2.434   5.430 -1.3135  2.2836 -0.4042
 4847SOL     OW26002   2.827   2.545  17.450  0.1964  0.2188 -0.2322
 4847SOL    HW126003   2.796   2.538  17.540  1.9383 -2.6200  0.1669
 4847SOL    HW226004   2.751   2.519  17.398  1.3827 -1.5431 -1.0743
 4848SOL     OW26005   1.263   0.359   4.735 -0.0469 -0.4281  0.0676
 4848SOL    HW126006   1.342   0.335   4.687  0.9826  2.2762  0.3889
 4848SOL    HW226007   1.297   0.402   4.813 -0.2987 -0.2933  0.1049
 4849SOL     OW26008   3.529   2.109  13.210  0.5363  0.0605 -0.5765
 4849SOL    HW126009   3.595   2.169  13.177  2.0642 -1.4140 -0.1596
 4849SOL    HW226010   3.553   2.029  13.163  0.0647 -0.9028  0.8203
 4850SOL     OW26011   3.628   2.093   2.554  0.3866  0.3298 -0.7877
 4850SOL    HW126012   3.651   2.003   2.577  2.0121  0.5428 -1.5720
 4850SOL    HW226013   3.595   2.069   2.467  1.6624  0.8637 -1.4114
 4851SOL     OW26014   0.658   0.507  13.070 -0.3542 -0.0651  0.1465
 4851SOL    HW126015   0.733   0.520  13.128 -0.7281  1.5277  0.2702
 4851SOL    HW226016   0.693   0.554  12.994  1.1543 -1.3091  0.0561
 4852SOL     OW26017   1.974   1.319   7.364  0.0442  0.0585 -0.1923
 4852SOL    HW126018   2.006   1.357   7.447 -0.8718 -1.7848  0.9926
 4852SOL    HW226019   1.912   1.259   7.404 -0.9844  0.1389 -1.7058
 4853SOL     OW26020   0.287   3.035   4.863 -0.0275 -0.1853  0.1755
 4853SOL    HW126021   0.354   3.051   4.797 -0.6760  1.3386 -0.1341
 4853SOL    HW226022   0.243   3.120   4.857 -2.0152 -1.3717 -1.8914
 4854SOL     OW26023   1.290   3.002   5.462  0.1275 -0.0808 -0.1972
 4854SOL    HW126024   1.275   2.927   5.405  0.2575  0.0271 -0.3721
 4854SOL    HW226025   1.221   3.062   5.431  0.4736  1.1182  1.3315
 4855SOL     OW26026   4.536   2.558   7.342 -0.2431 -0.3527 -0.3898
 4855SOL    HW126027   4.569   2.491   7.282 -0.2098  0.5122 -1.3408
 4855SOL    HW226028   4.483   2.503   7.400  0.5942  0.5962  1.2916
 4856SOL     OW26029   4.542   0.555  11.870  0.0134  0.3988 -0.5120
 4856SOL    HW126030   4.459   0.543  11.917  0.1461  1.7480  0.0800
 4856SOL    HW226031   4.565   0.463  11.858  1.1142  0.5974  0.0471
 4857SOL     OW26032   4.188   3.197  13.574 -0.5763  0.5532  0.3016
 4857SOL    HW126033   4.138   3.271  13.607  1.3500  2.3523 -0.7660
 4857SOL    HW226034   4.225   3.234  13.494  0.7530  1.5935  1.3925
 4858SOL     OW26035   2.004   1.349  13.363  0.4081  0.6445 -0.0602
 4858SOL    HW126036   1.973   1.370  13.275 -0.9587 -0.3993  0.1705
 4858SOL    HW226037   1.956   1.414  13.415  2.2707  1.8059  0.1813
 4859SOL     OW26038   1.229   1.533  10.582  0.0584 -0.1913 -0.0941
 4859SOL    HW126039   1.243   1.500  10.671  1.2088 -1.7589 -0.8637
 4859SOL    HW226040   1.137   1.515  10.564  0.2394 -0.4215 -0.8004
 4860SOL     OW26041   3.436   2.025   4.555  0.5948 -0.5251  0.1934
 4860SOL    HW126042   3.507   2.026   4.490 -1.0859  4.9423 -1.5347
 4860SOL    HW226043   3.392   1.943   4.535 -2.3052  1.2324 -0.5602
 4861SOL     OW26044   0.846   2.422   3.861 -0.2654 -0.2393 -0.5612
 4861SOL    HW126045   0.870   2.342   3.813  1.0481 -1.2512  1.7983
 4861SOL    HW226046   0.932   2.462   3.867  0.6806 -2.3536 -0.0607
 4862SOL     OW26047   2.677   1.370   8.516  1.1789  0.3850 -0.3570
 4862SOL    HW126048   2.649   1.312   8.446  0.3775 -0.9422  1.0630
 4862SOL    HW226049   2.709   1.314   8.587  0.4693 -1.3383 -1.3902
 4863SOL     OW26050   0.853   2.713   2.034 -0.2253  0.6140  0.0907
 4863SOL    HW126051   0.877   2.626   2.003 -0.6059  0.0489  1.3492
 4863SOL    HW226052   0.772   2.737   1.989 -0.9262  0.9435  1.5157
 4864SOL     OW26053   4.286   4.022  11.375 -0.8433  0.1575 -0.2300
 4864SOL    HW126054   4.357   3.958  11.378 -1.8852 -0.9248  0.9012
 4864SOL    HW226055   4.332   4.104  11.358  1.3029 -1.2131 -1.0018
 4865SOL     OW26056   2.202   1.293  16.607  0.0283 -0.1360  0.5051
 4865SOL    HW126057   2.134   1.227  16.617 -0.8877  0.3552 -2.6657
 4865SOL    HW226058   2.277   1.239  16.582 -0.9349 -1.5787  0.7567
 4866SOL     OW26059   1.790   2.286   8.464  0.4102  0.5637 -0.2280
 4866SOL    HW126060   1.818   2.202   8.501 -0.5158 -1.0451 -3.2188
 4866SOL    HW226061   1.697   2.297   8.484 -0.0261 -3.1689 -0.1441
 4867SOL     OW26062   0.354   0.760   5.609 -0.2502  0.2713 -0.0187
 4867SOL    HW126063   0.377   0.707   5.685 -2.7557  0.5562  0.9522
 4867SOL    HW226064   0.350   0.848   5.648  2.1505 -0.2068  1.2930
 4868SOL     OW26065   1.116   1.347   3.878  0.2380 -0.2798  0.1460
 4868SOL    HW126066   1.150   1.413   3.817  0.7966 -0.2380  0.5040
 4868SOL    HW226067   1.191   1.288   3.886  1.3600  1.0344 -0.7401
 4869SOL     OW26068   2.642   3.345  10.634  0.0367 -0.1202  0.3412
 4869SOL    HW126069   2.549   3.331  10.652  0.1816 -1.1598  0.2582
 4869SOL    HW226070   2.632   3.415  10.569 -2.4654  1.0884  2.0159
 4870SOL     OW26071   1.990   1.435   2.226  0.1188 -0.7603 -0.0184
 4870SOL    HW126072   2.026   1.517   2.191 -1.3629  0.2251  0.7495
 4870SOL    HW226073   2.059   1.408   2.286  0.7801  2.0445  0.4759
 4871SOL     OW26074   4.186   4.346   3.671 -0.2362 -0.0535  0.1586
 4871SOL    HW126075   4.216   4.347   3.762 -1.6164 -0.7083  0.6161
 4871SOL    HW226076   4.259   4.298   3.631 -0.7702 -1.4492  0.8490
 4872SOL     OW26077   3.056   1.355  15.229 -0.1909 -0.1450 -0.2807
 4872SOL    HW126078   2.998   1.283  15.203  2.4032 -1.8235 -1.3803
 4872SOL    HW226079   3.141   1.311  15.233  0.2311  0.8532  1.3718
 4873SOL     OW26080   2.620   3.437   7.810 -0.0313  0.5182 -0.1780
 4873SOL    HW126081   2.592   3.514   7.760 -0.9377  1.1773  1.3718
 4873SOL    HW226082   2.714   3.447   7.824 -0.4476  2.3471  1.2751
 4874SOL     OW26083   3.287   3.034  10.429 -0.0102  0.2754  0.3647
 4874SOL    HW126084   3.196   3.032  10.456  0.3842  1.0970  1.7655
 4874SOL    HW226085   3.333   3.055  10.510  0.7787  0.8791 -0.2384
 4875SOL     OW26086   1.099   3.397   7.434  0.3646  0.8260  0.4558
 4875SOL    HW126087   1.141   3.311   7.440 -2.2146 -0.6436 -2.5051
 4875SOL    HW226088   1.013   3.369   7.402 -0.1496  1.4437  1.3056
 4876SOL     OW26089   0.838   1.354   1.332 -0.1756 -0.1846 -0.0553
 4876SOL    HW126090   0.886   1.408   1.270  0.3362  1.0862  1.4226
 4876SOL    HW226091   0.801   1.282   1.281  0.8385  0.4457 -1.6711
 4877SOL     OW26092   0.190   3.998   9.654 -0.4000  0.5188 -0.0920
 4877SOL    HW126093   0.273   3.993   9.702  0.8272 -1.0304 -2.3703
 4877SOL    HW226094   0.122   3.984   9.720 -1.1100 -0.1467 -0.9682
 4878SOL     OW26095   4.570   3.422   2.518 -0.4391 -0.1645 -0.4188
 4878SOL    HW126096   4.620   3.346   2.487  2.0829  2.2631 -2.2138
 4878SOL    HW226097   4.616   3.493   2.474  2.7637  0.1736  3.4517
 4879SOL     OW26098   4.123   4.333   4.536  0.0394  0.2544 -0.3354
 4879SOL    HW126099   4.131   4.382   4.454 -2.2643  0.4372 -0.4464
 4879SOL    HW226100   4.123   4.244   4.500 -2.2479  0.0569  0.1933
 4880SOL     OW26101   2.587   4.426   9.827 -0.1368  0.4143  0.1748
 4880SOL    HW126102   2.659   4.363   9.835  1.7158  2.6245  0.9504
 4880SOL    HW226103   2.552   4.405   9.914  2.3718  0.1444  1.1516
 4881SOL     OW26104   1.750   4.660  16.003  0.9044 -0.3464 -0.1529
 4881SOL    HW126105   1.838   4.626  16.016 -0.7258 -3.3345  3.1152
 4881SOL    HW226106   1.698   4.580  15.998 -1.5505  1.1924  0.8097
 4882SOL     OW26107   4.533   3.048   4.801 -0.0818  0.5646  0.0374
 4882SOL    HW126108   4.598   3.042   4.731  0.3226 -2.1609  0.6707
 4882SOL    HW226109   4.573   3.000   4.874 -0.7150 -4.4065 -2.9116
 4883SOL     OW26110   3.821   0.152   5.275  0.1806  0.8192 -0.0653
 4883SOL    HW126111   3.734   0.143   5.314  0.1918 -0.1880 -0.3000
 4883SOL    HW226112   3.827   0.083   5.210  0.1406  1.3485 -0.6334
 4884SOL     OW26113   4.440   4.241  11.307 -0.1307 -0.6401  0.2012
 4884SOL    HW126114   4.502   4.217  11.376  0.4658 -1.6709 -0.6948
 4884SOL    HW226115   4.483   4.309  11.255  0.1061 -0.2000  0.9807
 4885SOL     OW26116   4.296   1.567  10.766 -0.0063 -0.2218 -0.0634
 4885SOL    HW126117   4.376   1.603  10.727  0.6486  0.2224  1.6683
 4885SOL    HW226118   4.232   1.585  10.698 -0.7411 -1.4299  0.3019
 4886SOL     OW26119   2.025   1.278   8.572  0.1070 -0.2152  0.1438
 4886SOL    HW126120   2.044   1.363   8.532 -0.3119  1.0470  2.6870
 4886SOL    HW226121   1.930   1.289   8.580  0.4420  5.5742 -3.3067
 4887SOL     OW26122   1.568   2.419   8.994  0.1748  0.2999  0.2951
 4887SOL    HW126123   1.652   2.443   9.034  0.8733  1.5109 -1.8948
 4887SOL    HW226124   1.521   2.393   9.073 -1.3455 -2.0762 -1.3952
 4888SOL     OW26125   0.183   3.820   1.395  0.2424 -0.0271  0.6453
 4888SOL    HW126126   0.256   3.760   1.381 -1.0729 -1.5958  0.5680
 4888SOL    HW226127   0.181   3.833   1.490 -0.5893 -0.4216  0.6768
 4889SOL     OW26128   3.357   3.873   2.401 -0.2683 -0.0701 -0.1828
 4889SOL    HW126129   3.278   3.843   2.447  0.2815  0.7138  1.2687
 4889SOL    HW226130   3.326   3.924   2.326 -0.7596  1.1134  0.8077
 4890SOL     OW26131   2.200   3.029   4.580 -0.0789  0.2897  0.0044
 4890SOL    HW126132   2.276   3.010   4.634 -1.5645  0.2897  2.1046
 4890SOL    HW226133   2.167   2.939   4.588  0.9231 -0.0392  0.3502
 4891SOL     OW26134   3.929   0.822   5.538  0.0811  0.0424  0.2297
 4891SOL    HW126135   3.845   0.788   5.569 -0.8874  2.2362  0.0507
 4891SOL    HW226136   3.949   0.776   5.457  1.4945  1.0786 -0.0142
 4892SOL     OW26137   3.336   0.792   0.533  0.2684  0.5048 -0.2274
 4892SOL    HW126138   3.380   0.763   0.613 -0.3605 -3.0032 -1.1483
 4892SOL    HW226139   3.315   0.712   0.485  2.1010  0.6909 -1.3314
 4893SOL     OW26140   3.199   1.491  16.383 -0.5507 -0.4218 -0.4983
 4893SOL    HW126141   3.283   1.454  16.357 -0.2172 -0.8288  1.1625
 4893SOL    HW226142   3.239   1.556  16.441 -2.7919  0.9053 -0.4247
 4894SOL     OW26143   2.894   2.625   2.489 -0.2184  0.2310  0.2251
 4894SOL    HW126144   2.908   2.712   2.452  3.1732 -0.4597 -0.1746
 4894SOL    HW226145   2.808   2.597   2.459 -0.3316  1.0135 -0.1822
 4895SOL     OW26146   0.642   3.323   9.605 -0.2045 -0.4553 -0.3825
 4895SOL    HW126147   0.679   3.297   9.690 -0.6683 -0.9223 -0.3239
 4895SOL    HW226148   0.727   3.356   9.574  0.1515 -2.0364 -1.0971
 4896SOL     OW26149   2.653   1.710   4.751  0.5993 -0.0426 -0.1738
 4896SOL    HW126150   2.626   1.690   4.841 -0.9998  0.6977 -0.5091
 4896SOL    HW226151   2.749   1.717   4.753  0.4512  1.0921  3.1251
 4897SOL     OW26152   2.917   1.504  14.484 -0.2597 -0.1665  0.5399
 4897SOL    HW126153   2.879   1.549  14.559 -0.3015 -1.0723  1.0633
 4897SOL    HW226154   2.841   1.457  14.451  1.5201 -1.7517 -1.3024
 4898SOL     OW26155   4.042   0.358   8.531  0.3950 -0.0353 -0.3579
 4898SOL    HW126156   4.072   0.441   8.492  1.2236 -2.1047 -4.0903
 4898SOL    HW226157   3.984   0.396   8.597 -0.1173 -1.6301  0.0935
 4899SOL     OW26158   1.332   1.237  14.361 -0.2570 -0.3107  0.2132
 4899SOL    HW126159   1.297   1.153  14.389 -1.9296  0.5275  0.6388
 4899SOL    HW226160   1.380   1.266  14.438 -1.1285 -1.1152  1.0527
 4900SOL     OW26161   0.620   0.210   9.547  0.6137  0.5470  0.2888
 4900SOL    HW126162   0.626   0.122   9.512 -1.0986  1.1636 -1.5579
 4900SOL    HW226163   0.617   0.203   9.643  0.1239  2.2793  0.4030
 4901SOL     OW26164   0.408   0.375  15.367 -0.4057  0.3221  0.2481
 4901SOL    HW126165   0.318   0.342  15.370 -0.6845  1.2184  2.1309
 4901SOL    HW226166   0.443   0.362  15.455  0.8496 -1.4054 -0.5066
 4902SOL     OW26167   1.027   0.145   8.339  0.3895  0.4294  0.0479
 4902SOL    HW126168   1.002   0.086   8.410  1.1840 -0.3177 -0.2934
 4902SOL    HW226169   1.001   0.227   8.380  0.1239 -0.3958  1.5256
 4903SOL     OW26170   0.013   2.616   2.806  0.1679  1.0349  0.3327
 4903SOL    HW126171   4.665   2.658   2.855 -0.5636  0.5416 -0.2900
 4903SOL    HW226172   4.705   2.620   2.716  0.6883  1.5220  0.1748
 4904SOL     OW26173   4.543   1.442   9.294  0.0271  0.1935  0.3689
 4904SOL    HW126174   4.587   1.383   9.233 -1.0256 -0.6859  0.4692
 4904SOL    HW226175   4.497   1.377   9.347 -0.8790  1.6644  1.3963
 4905SOL     OW26176   2.978   2.825   1.056  0.0499  0.4370 -0.3232
 4905SOL    HW126177   2.967   2.884   0.981  1.6854  0.1354 -0.7838
 4905SOL    HW226178   2.892   2.844   1.095 -0.4884  0.6000 -1.5812
 4906SOL     OW26179   2.636   2.327   5.940 -0.1546  0.0597  0.5512
 4906SOL    HW126180   2.634   2.396   5.873  0.5798  0.9002  1.3964
 4906SOL    HW226181   2.558   2.277   5.915  0.8236 -1.4707  0.5659
 4907SOL     OW26182   2.080   2.669   7.479  0.0512  0.5113  0.1342
 4907SOL    HW126183   2.112   2.734   7.542  1.7485  1.0989 -1.3587
 4907SOL    HW226184   2.154   2.660   7.420 -0.2020 -1.6476  0.1213
 4908SOL     OW26185   1.446   3.635   2.665  0.4306  0.4144 -0.6359
 4908SOL    HW126186   1.508   3.707   2.658 -0.8169  1.4553 -1.0620
 4908SOL    HW226187   1.439   3.610   2.573  0.2120  1.6433 -0.9553
 4909SOL     OW26188   0.577   4.650  15.210  0.0421  0.1856 -0.0723
 4909SOL    HW126189   0.661   4.640  15.164 -0.3658 -0.4565 -0.6656
 4909SOL    HW226190   0.557   0.020  15.202 -1.5346 -0.2297 -0.8795
 4910SOL     OW26191   4.376   2.513   4.866 -0.4997 -0.4336  0.4463
 4910SOL    HW126192   4.397   2.582   4.929  1.4987 -0.3139 -0.3401
 4910SOL    HW226193   4.443   2.520   4.798 -0.3161  0.9518  0.7729
 4911SOL     OW26194   1.121   1.734   5.201  0.1013 -0.0391  0.1177
 4911SOL    HW126195   1.027   1.738   5.186  0.0705  0.1822  0.3717
 4911SOL    HW226196   1.129   1.648   5.241 -2.9324  0.9251  2.7740
 4912SOL     OW26197   2.611   2.034  15.724  0.1007  0.4521 -0.4625
 4912SOL    HW126198   2.539   2.001  15.778 -0.4812 -0.5851 -1.8770
 4912SOL    HW226199   2.609   2.130  15.731  0.3376  0.5334 -1.5235
 4913SOL     OW26200   1.029   3.315   0.129 -0.7407  0.2289  0.6608
 4913SOL    HW126201   0.934   3.305   0.126 -0.6746 -0.5000  1.2377
 4913SOL    HW226202   1.039   3.387   0.066 -1.0058  0.6191  1.0658
 4914SOL     OW26203   2.286   2.367   1.503  0.0812  0.3350  0.0123
 4914SOL    HW126204   2.266   2.275   1.488 -1.4387  0.5400  0.7156
 4914SOL    HW226205   2.198   2.403   1.514  0.2322  1.7478 -3.7280
 4915SOL     OW26206   3.269   4.013   1.616 -1.0665 -0.7906  0.0276
 4915SOL    HW126207   3.363   4.007   1.598 -1.1656 -3.5382  0.4604
 4915SOL    HW226208   3.237   3.936   1.663 -3.2008  0.7001  1.0132
 4916SOL     OW26209   3.371   3.784   5.404  0.0361  0.3017  0.3468
 4916SOL    HW126210   3.371   3.827   5.318 -4.2212  0.0977  0.2432
 4916SOL    HW226211   3.429   3.839   5.456  1.5250 -0.6061 -0.3424
 4917SOL     OW26212   4.024   3.849   0.264  0.2085  0.3818 -0.0450
 4917SOL    HW126213   4.001   3.758   0.245  0.2568 -0.3950  3.5571
 4917SOL    HW226214   3.952   3.882   0.210 -0.9773 -0.8193  0.7729
 4918SOL     OW26215   2.567   2.985   1.813  0.1717 -0.5352  0.1703
 4918SOL    HW126216   2.612   2.963   1.895 -0.9508 -1.6148  0.5101
 4918SOL    HW226217   2.481   3.008   1.848 -0.1469  0.5793 -1.3564
 4919SOL     OW26218   2.925   2.099  10.005 -0.1180 -0.3441  0.8610
 4919SOL    HW126219   2.836   2.072  10.027  0.0634 -0.8603  0.9731
 4919SOL    HW226220   2.919   2.190   9.977 -1.5959 -0.5193  0.5953
 4920SOL     OW26221   1.032   4.248   5.570 -0.9229 -0.1294  0.2042
 4920SOL    HW126222   1.074   4.236   5.655  1.0868  0.6331 -0.6757
 4920SOL    HW226223   1.094   4.190   5.526 -1.4513 -0.3764 -0.2129
 4921SOL     OW26224   2.657   1.971   7.043  0.1916 -0.2941 -0.4613
 4921SOL    HW126225   2.635   2.005   6.957 -1.4263  2.3513  1.0237
 4921SOL    HW226226   2.570   1.976   7.083  0.8901  0.3660  0.9691
 4922SOL     OW26227   1.297   3.418   6.822 -0.6809  0.0939  0.0202
 4922SOL    HW126228   1.234   3.490   6.814 -2.5987 -1.3564  2.3841
 4922SOL    HW226229   1.282   3.400   6.914 -0.6283 -2.5156 -0.4766
 4923SOL     OW26230   1.540   0.469  12.668 -0.5775 -0.2832  0.0848
 4923SOL    HW126231   1.507   0.384  12.698  0.6809 -1.3088 -1.3840
 4923SOL    HW226232   1.466   0.495  12.614  0.1503 -2.9479 -2.1963
 4924SOL     OW26233   2.578   2.508  12.681  0.4231 -0.3859 -0.4428
 4924SOL    HW126234   2.499   2.477  12.725  1.2387 -1.5896  0.1595
 4924SOL    HW226235   2.612   2.428  12.640  0.9542 -0.3323 -0.1038
 4925SOL     OW26236   0.600   1.218  12.193  0.2084 -0.4582 -0.3717
 4925SOL    HW126237   0.640   1.216  12.280 -0.8079  0.8895  0.1200
 4925SOL    HW226238   0.552   1.300  12.201  2.4480  0.9264 -1.2519
 4926SOL     OW26239   2.568   1.439  17.010 -0.6763 -0.0953 -0.1697
 4926SOL    HW126240   2.550   1.531  17.027  2.3680  0.7765 -1.6834
 4926SOL    HW226241   2.503   1.414  16.943  0.4031 -2.4653 -0.3270
 4927SOL     OW26242   1.052   2.271   2.546  0.3197 -0.2669  0.3259
 4927SOL    HW126243   1.093   2.298   2.464  1.4256 -0.4830  0.8127
 4927SOL    HW226244   1.106   2.195   2.567  0.8919 -0.0468 -0.3790
 4928SOL     OW26245   2.685   0.223   6.397  0.0192  0.1135  0.2855
 4928SOL    HW126246   2.622   0.207   6.326 -1.0482  0.2620  1.1920
 4928SOL    HW226247   2.744   0.148   6.390 -0.6527 -0.6994  3.0410
 4929SOL     OW26248   4.440   4.001  15.198 -0.3445  0.1411 -0.2149
 4929SOL    HW126249   4.451   3.969  15.109  1.2530 -2.3365  0.8870
 4929SOL    HW226250   4.485   3.933  15.247  0.8021 -0.3779 -2.0267
 4930SOL     OW26251   1.441   3.734   4.300 -0.1372  0.1635  0.8152
 4930SOL    HW126252   1.415   3.653   4.255  0.1174 -0.9636  2.6817
 4930SOL    HW226253   1.529   3.706   4.325  0.2324  0.8057  0.2193
 4931SOL     OW26254   0.339   3.906   9.908  0.0701 -0.7232 -0.0499
 4931SOL    HW126255   0.273   3.950   9.962 -1.4287 -0.0864 -2.4149
 4931SOL    HW226256   0.393   3.882   9.983  2.5510 -1.4475 -2.0715
 4932SOL     OW26257   2.353   1.616   4.442 -0.0900  0.0844  0.2555
 4932SOL    HW126258   2.403   1.686   4.483  0.8551 -1.2933  1.4819
 4932SOL    HW226259   2.368   1.642   4.351  2.0354 -0.8735  0.3288
 4933SOL     OW26260   2.421   0.419  13.496  0.4790  0.3487  0.3134
 4933SOL    HW126261   2.458   0.373  13.571  0.8757 -0.9026 -0.6524
 4933SOL    HW226262   2.328   0.408  13.515  0.5057 -1.5860 -0.7218
 4934SOL     OW26263   3.067   1.596   8.046  0.2295  0.0685  0.3591
 4934SOL    HW126264   3.120   1.551   7.980  4.0919  1.4303  2.5194
 4934SOL    HW226265   3.096   1.549   8.124  0.3746 -1.3058 -0.5246
 4935SOL     OW26266   2.829   2.345  10.551  0.2181 -0.1575  0.6609
 4935SOL    HW126267   2.801   2.396  10.475 -0.2667 -1.0890  0.2056
 4935SOL    HW226268   2.750   2.366  10.601 -0.5248 -1.1193 -0.1025
 4936SOL     OW26269   1.609   4.647   5.701  0.1665 -0.6172  0.2379
 4936SOL    HW126270   1.569   4.633   5.615  1.2559 -0.0836 -0.3551
 4936SOL    HW226271   1.638   0.015   5.691 -1.4930 -0.3423 -2.1504
 4937SOL     OW26272   3.373   1.169   2.638 -0.2414 -0.2976 -0.3118
 4937SOL    HW126273   3.435   1.229   2.596 -0.4233  0.3710  0.3659
 4937SOL    HW226274   3.349   1.203   2.724  0.9772  0.3603 -0.2288
 4938SOL     OW26275   2.792   0.807   6.672  0.1625  0.2273  0.1100
 4938SOL    HW126276   2.841   0.732   6.637  0.0404 -0.5459  1.6018
 4938SOL    HW226277   2.703   0.782   6.646  0.5459 -2.6137  1.4594
 4939SOL     OW26278   3.207   1.752   1.688  0.0895 -0.2432 -0.0419
 4939SOL    HW126279   3.303   1.759   1.693 -0.1319  1.7106  1.6535
 4939SOL    HW226280   3.176   1.839   1.665  2.1178 -0.0815 -2.2231
 4940SOL     OW26281   3.618   0.531   4.116 -0.4139  0.2410  0.0842
 4940SOL    HW126282   3.664   0.458   4.159  0.9789  1.1435  0.1262
 4940SOL    HW226283   3.635   0.497   4.028 -4.2782  1.6692 -1.2259
 4941SOL     OW26284   0.682   0.246   2.348  0.1724  0.2175  0.1449
 4941SOL    HW126285   0.636   0.270   2.428  0.7873 -1.5754  1.0318
 4941SOL    HW226286   0.719   0.329   2.316  1.5212 -0.6053 -0.4497
 4942SOL     OW26287   3.036   4.316   4.091 -0.4234 -0.0173  1.0246
 4942SOL    HW126288   2.976   4.325   4.017  1.1322  1.5340 -0.0426
 4942SOL    HW226289   3.121   4.310   4.048 -0.9912  0.0618 -0.1081
 4943SOL     OW26290   3.557   1.814   7.449 -0.0192  0.3377 -0.1453
 4943SOL    HW126291   3.640   1.768   7.460  0.2773  0.4823 -1.7811
 4943SOL    HW226292   3.554   1.846   7.539 -2.4539 -2.6914  0.8667
 4944SOL     OW26293   2.126   4.233   2.339  0.3468  0.6377 -0.0366
 4944SOL    HW126294   2.098   4.171   2.407  0.2966  0.2913 -0.3766
 4944SOL    HW226295   2.127   4.178   2.261  1.9009  1.0850 -0.3373
 4945SOL     OW26296   4.048   1.435  14.531 -0.5994  0.1135  0.0233
 4945SOL    HW126297   4.087   1.352  14.504 -0.7753 -0.3446  1.1678
 4945SOL    HW226298   3.968   1.424  14.479  0.5557 -3.4601 -1.0077
 4946SOL     OW26299   2.450   0.009   5.314  0.9534  0.9642 -0.1237
 4946SOL    HW126300   2.380   4.669   5.333  1.1844  1.0501  1.0253
 4946SOL    HW226301   2.441   0.004   5.219  1.4081 -0.1918 -0.1012
 4947SOL     OW26302   2.809   4.396   8.935 -0.2381  0.2980  0.1924
 4947SOL    HW126303   2.787   4.328   8.999  1.3735 -1.5944 -1.2710
 4947SOL    HW226304   2.832   4.332   8.868  1.9680  0.7872  0.4532
 4948SOL     OW26305   4.504   2.384   2.630  0.0502  0.7780  0.5828
 4948SOL    HW126306   4.594   2.365   2.603 -0.0939  0.6439  0.2014
 4948SOL    HW226307   4.454   2.305   2.611 -0.5103  1.8145 -2.1526
 4949SOL     OW26308   3.958   0.104   2.507 -0.2027  0.1821  0.3300
 4949SOL    HW126309   3.931   0.191   2.536 -0.0551  0.5371 -0.5922
 4949SOL    HW226310   4.049   0.099   2.534 -0.2565  1.3804  0.7527
 4950SOL     OW26311   3.168   3.038   3.056  0.0429  0.2665 -0.3257
 4950SOL    HW126312   3.199   3.119   3.016 -1.8106  0.3789 -1.4965
 4950SOL    HW226313   3.228   3.035   3.131  2.1817  0.1842 -2.0636
 4951SOL     OW26314   1.864   3.755  11.712 -0.7937  0.2279 -0.1640
 4951SOL    HW126315   1.854   3.660  11.701 -1.3835  0.0341  2.1169
 4951SOL    HW226316   1.931   3.767  11.644 -1.0539  1.4803 -0.1966
 4952SOL     OW26317   3.356   3.584  10.909  0.4928  0.7882  0.0511
 4952SOL    HW126318   3.448   3.558  10.912  0.1296 -0.4776  0.2213
 4952SOL    HW226319   3.328   3.535  10.986  0.3895  0.1774 -0.3740
 4953SOL     OW26320   3.095   1.045   4.542  0.2368  0.0112 -0.3357
 4953SOL    HW126321   3.020   1.094   4.509  1.4283  2.5878  0.8142
 4953SOL    HW226322   3.065   0.955   4.558  2.7431 -0.7870 -0.0716
 4954SOL     OW26323   2.453   3.131   2.436  0.3165 -0.7306  0.2025
 4954SOL    HW126324   2.488   3.117   2.348 -0.3211 -2.0078  0.1630
 4954SOL    HW226325   2.367   3.171   2.424  0.2055 -1.9589 -2.9529
 4955SOL     OW26326   2.583   0.175   0.703  0.4506 -0.2602  0.5850
 4955SOL    HW126327   2.564   0.192   0.795  1.7429 -1.2296  1.0315
 4955SOL    HW226328   2.593   0.080   0.713 -0.9039 -0.4811 -0.1762
 4956SOL     OW26329   2.952   4.525   4.574 -0.0754  0.1818  0.0737
 4956SOL    HW126330   2.862   4.557   4.566 -0.3560 -0.6623 -0.0918
 4956SOL    HW226331   2.951   4.476   4.656 -1.4662 -0.5381 -0.3728
 4957SOL     OW26332   3.315   0.296   5.642 -0.1036  0.2013  0.6397
 4957SOL    HW126333   3.365   0.364   5.687 -2.0831  0.3537  2.5984
 4957SOL    HW226334   3.376   0.222   5.637 -0.2811  0.1615 -0.8673
 4958SOL     OW26335   2.623   0.902   4.990  0.2121  0.2066  0.1188
 4958SOL    HW126336   2.535   0.912   5.026 -0.6244 -1.4805 -1.4268
 4958SOL    HW226337   2.673   0.865   5.063  3.2672  2.4007 -0.8692
 4959SOL     OW26338   3.278   4.007   3.718 -0.1769 -0.4469 -0.1965
 4959SOL    HW126339   3.326   3.951   3.657 -0.6610 -2.3746  1.2060
 4959SOL    HW226340   3.210   4.044   3.662 -1.2126 -1.1666  0.5864
 4960SOL     OW26341   0.875   2.569   5.806 -0.4420 -0.2112  0.2146
 4960SOL    HW126342   0.836   2.494   5.851 -1.9765  0.4544  0.0118
 4960SOL    HW226343   0.932   2.536   5.737 -1.5223 -2.4880  0.4145
 4961SOL     OW26344   1.768   2.049  11.391 -0.3731  0.3327 -0.2174
 4961SOL    HW126345   1.726   1.963  11.398 -1.5434  0.8556 -0.7775
 4961SOL    HW226346   1.743   2.091  11.308  0.3604  0.7315 -0.2321
 4962SOL     OW26347   0.137   2.047   2.610 -0.2667  0.4653  0.0356
 4962SOL    HW126348   0.062   2.039   2.668 -0.7291 -0.5310 -0.7086
 4962SOL    HW226349   0.193   1.976   2.640 -0.3178  0.6841  0.6592
 4963SOL     OW26350   4.625   0.444  13.861  0.2583 -0.2166 -0.1825
 4963SOL    HW126351   4.684   0.487  13.923  0.3754 -1.8854  0.8814
 4963SOL    HW226352   4.589   0.370  13.911  0.2081 -0.3427 -0.4032
 4964SOL     OW26353   3.533   0.426   1.345  0.0758  0.0074  0.1568
 4964SOL    HW126354   3.577   0.429   1.430 -1.7659 -1.5951  1.1743
 4964SOL    HW226355   3.579   0.503   1.311  0.0255  0.3287  0.8160
 4965SOL     OW26356   0.565   1.743   1.002  0.1995  0.3989 -0.3507
 4965SOL    HW126357   0.484   1.767   0.957 -1.1592 -1.5572  1.0359
 4965SOL    HW226358   0.538   1.673   1.061  2.2500 -0.9810 -1.0688
 4966SOL     OW26359   3.259   0.310   1.826  0.1508 -0.3846  0.2969
 4966SOL    HW126360   3.338   0.262   1.850  1.3169  1.0228 -0.6984
 4966SOL    HW226361   3.299   0.397   1.836 -1.0279  0.1419  0.3485
 4967SOL     OW26362   1.311   3.558   0.105 -0.2171  0.5588  0.6763
 4967SOL    HW126363   1.287   3.538   0.014 -1.9333 -1.7614  1.6576
 4967SOL    HW226364   1.264   3.642   0.110  0.7100  1.1112  0.1135
 4968SOL     OW26365   2.748   4.035   7.447 -0.2023  0.0343 -0.4307
 4968SOL    HW126366   2.817   4.052   7.383 -0.5359 -0.3328 -0.8918
 4968SOL    HW226367   2.758   3.940   7.455 -1.5809  0.0681  1.8871
 4969SOL     OW26368   3.837   3.564   3.743 -0.7950 -0.1982 -0.8994
 4969SOL    HW126369   3.881   3.604   3.668  0.0464 -0.3937 -0.5096
 4969SOL    HW226370   3.893   3.487   3.742 -0.7064 -0.1985  2.8267
 4970SOL     OW26371   2.246   2.207   5.067 -0.1440  0.0273 -0.3661
 4970SOL    HW126372   2.156   2.177   5.058 -0.5377  0.9744  0.3097
 4970SOL    HW226373   2.264   2.208   4.973  2.1882 -2.5995  0.0711
 4971SOL     OW26374   3.993   4.188  14.116  0.2856 -0.1538  0.9847
 4971SOL    HW126375   3.899   4.199  14.131 -0.1616  0.3933 -2.1964
 4971SOL    HW226376   3.992   4.094  14.133  1.8600 -0.3029  0.2624
 4972SOL     OW26377   1.745   0.951   4.323  0.5496 -0.1477  0.1414
 4972SOL    HW126378   1.827   0.901   4.319  1.3081  0.9764  1.8427
 4972SOL    HW226379   1.730   0.973   4.231  0.6903 -1.1698 -0.1249
 4973SOL     OW26380   2.263   3.746  17.614 -0.4222  0.6354 -0.7719
 4973SOL    HW126381   2.202   3.681  17.650  1.4484 -1.2691 -1.0344
 4973SOL    HW226382   2.354   3.721  17.628 -0.3915  0.9694 -0.3615
 4974SOL     OW26383   2.927   0.855   3.116 -0.3954 -0.0746 -0.0715
 4974SOL    HW126384   3.019   0.872   3.137 -0.3396  0.8157 -1.0876
 4974SOL    HW226385   2.909   0.768   3.153 -0.1317  0.1232  0.5304
 4975SOL     OW26386   3.393   0.557  10.916  0.6041  0.2675  0.7423
 4975SOL    HW126387   3.347   0.493  10.971  0.9313 -0.5013  0.1328
 4975SOL    HW226388   3.455   0.598  10.975  0.4243  2.8383 -0.8407
 4976SOL     OW26389   0.819   3.154   5.228 -0.3136  0.0882  0.1743
 4976SOL    HW126390   0.900   3.204   5.230 -0.3988  0.1982  0.9310
 4976SOL    HW226391   0.779   3.203   5.157  0.1514 -0.9143 -0.7715
 4977SOL     OW26392   4.413   3.557  17.217 -0.5133 -0.2553 -0.2473
 4977SOL    HW126393   4.480   3.618  17.185 -1.0921  1.2935  1.5414
 4977SOL    HW226394   4.464   3.508  17.281 -2.0329  0.1016  1.2067
 4978SOL     OW26395   1.957   1.234   8.938 -0.3976 -0.3365  0.2761
 4978SOL    HW126396   1.900   1.162   8.913  0.9593 -1.4637  0.4414
 4978SOL    HW226397   1.906   1.313   8.920  1.0553  0.6961  0.6099
 4979SOL     OW26398   1.007   1.499   8.378 -0.2105 -0.1699  0.3440
 4979SOL    HW126399   0.939   1.493   8.311  0.7462 -1.3381 -0.5245
 4979SOL    HW226400   1.073   1.443   8.336 -1.2605 -3.0831  2.5674
 4980SOL     OW26401   1.287   0.109  14.850 -0.2876  0.3507  0.3037
 4980SOL    HW126402   1.369   0.098  14.898 -0.1949 -0.0184  0.0645
 4980SOL    HW226403   1.317   0.174  14.787 -2.5287  1.2081  0.1314
 4981SOL     OW26404   2.234   2.098  15.905  0.1786 -0.2873 -0.1276
 4981SOL    HW126405   2.189   2.129  15.827 -2.4221 -0.5667  1.2706
 4981SOL    HW226406   2.202   2.159  15.971  0.6038 -1.4092  1.1083
 4982SOL     OW26407   4.150   1.600   7.719  0.5877 -0.0404  0.4954
 4982SOL    HW126408   4.197   1.538   7.663 -0.7628  1.2028 -2.0489
 4982SOL    HW226409   4.105   1.663   7.663 -0.9798 -1.2763  0.3271
 4983SOL     OW26410   4.090   4.151   7.482  0.6464 -0.0151 -0.0594
 4983SOL    HW126411   4.116   4.240   7.506 -0.1894 -0.2671  1.7276
 4983SOL    HW226412   4.042   4.166   7.400 -2.3984 -2.7492  1.2798
 4984SOL     OW26413   4.062   3.200  14.885  0.3414 -0.0169 -0.0627
 4984SOL    HW126414   4.031   3.111  14.904  1.2141 -0.2059  0.4715
 4984SOL    HW226415   4.048   3.206  14.791 -1.0170  2.9177  0.3121
 4985SOL     OW26416   3.376   0.893   8.327 -0.6139 -0.2203  0.1634
 4985SOL    HW126417   3.306   0.829   8.316  1.7048 -2.5615 -0.8277
 4985SOL    HW226418   3.408   0.895   8.237  0.3341  3.2471  0.5469
 4986SOL     OW26419   0.082   0.108   7.265  0.3660 -0.6112  0.0000
 4986SOL    HW126420   0.080   0.013   7.262 -1.1987 -0.5280 -1.1896
 4986SOL    HW226421   0.076   0.123   7.360 -3.3924  1.0238 -0.5103
 4987SOL     OW26422   2.115   2.682   4.005 -0.1481  0.0883 -0.5732
 4987SOL    HW126423   2.076   2.596   3.995 -0.8783  0.2748  0.7136
 4987SOL    HW226424   2.047   2.741   3.973 -0.6986 -0.1895  0.0989
 4988SOL     OW26425   1.984   2.189   6.547  0.2007 -0.4923  0.5665
 4988SOL    HW126426   2.073   2.160   6.530  0.1676  1.1342 -2.3596
 4988SOL    HW226427   1.935   2.118   6.506  0.1930 -0.4039  0.4221
 4989SOL     OW26428   1.277   4.565   1.081 -0.1909 -0.5371 -0.4906
 4989SOL    HW126429   1.320   4.480   1.089  1.0967  0.0902 -0.7300
 4989SOL    HW226430   1.273   4.593   1.172  1.0177 -0.8246 -0.3461
 4990SOL     OW26431   3.555   1.319  14.955 -0.5186 -0.7007 -0.1518
 4990SOL    HW126432   3.465   1.316  14.923 -1.4011  1.1106  2.1319
 4990SOL    HW226433   3.594   1.361  14.878 -2.2371 -1.4768 -1.4629
 4991SOL     OW26434   4.211   4.313   0.327 -0.4342 -0.5219 -0.3885
 4991SOL    HW126435   4.170   4.238   0.370 -1.2428  0.7485  1.0354
 4991SOL    HW226436   4.185   4.387   0.381  0.3255  1.1858 -2.3488
 4992SOL     OW26437   0.672   3.316   3.517 -0.3269  0.4864 -0.3641
 4992SOL    HW126438   0.578   3.295   3.515 -0.2244 -0.1620  1.7497
 4992SOL    HW226439   0.698   3.241   3.570  0.3149 -0.0530 -1.4268
 4993SOL     OW26440   1.930   4.181   1.542  0.0479  0.1989 -0.5493
 4993SOL    HW126441   1.837   4.161   1.550  0.0317  1.3373  2.1989
 4993SOL    HW226442   1.926   4.276   1.554 -0.7228  0.3732 -2.1631
 4994SOL     OW26443   2.161   0.148   8.003 -0.4036  0.1243 -0.4591
 4994SOL    HW126444   2.196   0.236   8.017 -1.9501  0.8023 -0.8314
 4994SOL    HW226445   2.231   0.110   7.950 -1.0226  0.2712 -1.3931
 4995SOL     OW26446   2.134   3.380  16.353  0.3544  0.0365 -0.0879
 4995SOL    HW126447   2.187   3.341  16.423  1.8791  0.0221 -1.2606
 4995SOL    HW226448   2.044   3.395  16.382  0.9695 -2.4411  3.0938
 4996SOL     OW26449   0.611   4.397   4.525  0.2214  0.0419 -0.1886
 4996SOL    HW126450   0.550   4.469   4.543  3.1125  1.9254  2.0154
 4996SOL    HW226451   0.603   4.368   4.434  1.2396  0.9211 -0.5589
 4997SOL     OW26452   0.057   0.254   5.253 -0.5120 -0.4455 -0.0712
 4997SOL    HW126453   0.060   0.195   5.177 -1.0634 -0.1578 -0.3116
 4997SOL    HW226454   0.065   0.334   5.201  1.9350 -1.0984 -0.7222
 4998SOL     OW26455   4.511   3.564   6.162 -0.1381  0.2104 -0.1549
 4998SOL    HW126456   4.513   3.653   6.127 -1.5794 -0.4780 -1.9698
 4998SOL    HW226457   4.417   3.551   6.168 -0.3685  1.3535 -1.3706
 4999SOL     OW26458   4.684   2.013   6.402  0.1086 -0.2976  0.2795
 4999SOL    HW126459   4.613   2.013   6.467  0.2088  0.4823  0.3887
 4999SOL    HW226460   0.027   2.069   6.443  0.5906 -1.6577  1.4023
 5000SOL     OW26461   4.525   2.317   7.651  0.2908 -0.3275  0.4692
 5000SOL    HW126462   4.456   2.366   7.607  2.1981  2.1435  0.2161
 5000SOL    HW226463   4.502   2.224   7.650 -0.0714 -0.2302 -0.0287
 5001SOL     OW26464   0.441   2.170  17.353  0.1767  0.4359  0.2715
 5001SOL    HW126465   0.397   2.087  17.332 -2.4986  2.5998 -2.5637
 5001SOL    HW226466   0.519   2.139  17.400 -0.1371 -1.2053 -0.2800
 5002SOL     OW26467   1.388   0.298   3.388 -0.0837  0.1178 -0.4993
 5002SOL    HW126468   1.342   0.344   3.319 -0.8635  0.1000  0.0109
 5002SOL    HW226469   1.326   0.297   3.461  0.5402  3.9436  0.0640
 5003SOL     OW26470   2.031   0.334   3.163  0.0732 -0.4875 -0.0446
 5003SOL    HW126471   2.057   0.423   3.188  0.1262 -0.2585 -0.9262
 5003SOL    HW226472   1.999   0.302   3.248  1.4785  0.5500  0.8889
 5004SOL     OW26473   0.965   3.303   6.932  0.4764  0.3482  0.3945
 5004SOL    HW126474   1.002   3.389   6.913 -0.1617  0.6385  0.4779
 5004SOL    HW226475   1.042   3.246   6.932 -0.1841 -0.5416 -1.1090
 5005SOL     OW26476   4.112   1.255   2.786 -0.3962  0.8776  0.1666
 5005SOL    HW126477   4.023   1.269   2.755 -0.6263 -0.7577  0.0776
 5005SOL    HW226478   4.123   1.163   2.761  1.6820  0.8245  1.2822
 5006SOL     OW26479   1.833   0.920  10.432  0.6673  0.2409 -0.2052
 5006SOL    HW126480   1.746   0.895  10.463  1.3883 -0.9271  0.9004
 5006SOL    HW226481   1.824   0.886  10.343 -0.1214 -2.3871  0.8790
 5007SOL     OW26482   4.515   2.993   3.289  0.6903 -0.3572  0.1018
 5007SOL    HW126483   4.428   3.026   3.313  0.6933  0.0857 -0.4839
 5007SOL    HW226484   4.520   2.903   3.321  0.7684  0.4950  2.4638
 5008SOL     OW26485   1.131   1.004  13.689 -0.6000  0.4175  0.1497
 5008SOL    HW126486   1.181   1.025  13.769 -0.8593  1.7090 -0.0290
 5008SOL    HW226487   1.163   0.913  13.690 -0.6488  0.3981 -1.4400
 5009SOL     OW26488   2.386   4.224   2.769  0.3976  0.1258  0.6911
 5009SOL    HW126489   2.301   4.265   2.787  1.0577  1.5638  0.4849
 5009SOL    HW226490   2.434   4.301   2.738  0.5763 -0.2246  0.1085
 5010SOL     OW26491   0.579   2.469   9.117  1.3458 -0.1834  0.1057
 5010SOL    HW126492   0.629   2.496   9.040  0.3276 -0.8806 -0.8005
 5010SOL    HW226493   0.621   2.522   9.184 -0.5692  0.5315  0.7547
 5011SOL     OW26494   1.705   1.823   2.228  0.0030  0.5256 -0.8057
 5011SOL    HW126495   1.777   1.886   2.228 -0.1788  0.7472  0.8488
 5011SOL    HW226496   1.656   1.837   2.147  0.0130  0.5080 -0.8148
 5012SOL     OW26497   3.663   0.659   8.107  0.0509  0.3623  0.0394
 5012SOL    HW126498   3.599   0.680   8.039 -0.4411 -2.0950 -0.2491
 5012SOL    HW226499   3.719   0.737   8.104 -0.8254  0.9181 -1.9593
 5013SOL     OW26500   1.816   3.950   3.407  0.1453  0.1569 -0.0819
 5013SOL    HW126501   1.880   4.021   3.398  1.4563 -1.2108 -1.5543
 5013SOL    HW226502   1.733   3.990   3.384 -0.5752 -2.0163 -1.2765
 5014SOL     OW26503   0.398   1.096   5.301 -0.0213  0.3863  0.0708
 5014SOL    HW126504   0.349   1.022   5.337  1.4732 -1.0997 -0.9200
 5014SOL    HW226505   0.471   1.103   5.362  0.7424 -1.6409 -0.6069
 5015SOL     OW26506   0.779   1.455   3.792 -0.1886  0.5391  0.7195
 5015SOL    HW126507   0.691   1.466   3.828 -1.3757 -0.1321 -2.0008
 5015SOL    HW226508   0.825   1.470   3.875  1.6817 -2.6795  0.2865
 5016SOL     OW26509   1.366   1.935  17.573 -0.0828  0.2753 -0.1665
 5016SOL    HW126510   1.418   1.918  17.494 -0.8597 -2.5467 -0.0422
 5016SOL    HW226511   1.422   1.882  17.629  0.1211  0.0094 -0.6229
 5017SOL     OW26512   1.340   0.004   2.751  0.1853 -0.2059  0.3939
 5017SOL    HW126513   1.369   4.661   2.686 -0.7934  1.7131 -1.9837
 5017SOL    HW226514   1.419   4.719   2.805  0.2252  1.2488  0.5258
 5018SOL     OW26515   2.789   2.793   9.940 -0.0786 -0.2895  0.4347
 5018SOL    HW126516   2.838   2.875   9.948 -1.6228  0.8398 -1.7156
 5018SOL    HW226517   2.750   2.794   9.853 -0.4623  0.2984  0.6089
 5019SOL     OW26518   4.720   3.051   8.135  0.1793 -0.2258  0.1603
 5019SOL    HW126519   4.699   3.128   8.186  1.0204 -0.7320  1.2633
 5019SOL    HW226520   0.087   3.032   8.162  0.2415 -2.4754 -1.5351
 5020SOL     OW26521   4.388   1.139  11.403 -0.5075 -0.1665 -0.8077
 5020SOL    HW126522   4.432   1.055  11.393  2.1427  1.0605  0.3307
 5020SOL    HW226523   4.362   1.158  11.313 -1.0545  0.4534 -0.5168
 5021SOL     OW26524   0.830   2.080   2.150 -0.0838  0.2680  0.1471
 5021SOL    HW126525   0.819   2.175   2.155 -0.4116  0.2041  0.6546
 5021SOL    HW226526   0.744   2.041   2.132 -0.6874  2.4504 -1.7517
 5022SOL     OW26527   3.081   0.663   6.768 -0.6476  0.1475  0.3156
 5022SOL    HW126528   3.162   0.616   6.749 -0.5141  0.6039 -0.2818
 5022SOL    HW226529   3.030   0.645   6.689 -0.2903  2.0647 -0.3678
 5023SOL     OW26530   4.401   3.344  14.543  0.2267  0.2077  0.5463
 5023SOL    HW126531   4.363   3.320  14.627 -0.0682  0.3158  0.4428
 5023SOL    HW226532   4.462   3.410  14.578  1.3904 -1.1452  1.0662
 5024SOL     OW26533   3.054   2.734   5.580 -0.2853  0.1700 -0.0454
 5024SOL    HW126534   3.049   2.685   5.498 -0.9201 -0.5839  0.4419
 5024SOL    HW226535   3.141   2.724   5.620  0.2470  2.3005 -0.6915
 5025SOL     OW26536   2.106   3.276   2.020  0.2293  0.3221  0.0465
 5025SOL    HW126537   2.069   3.294   1.934  2.0122 -0.6893 -0.9201
 5025SOL    HW226538   2.030   3.242   2.069  0.2346  0.2544  0.0073
 5026SOL     OW26539   4.569   0.585   9.023  0.0519  0.2805  0.0729
 5026SOL    HW126540   4.478   0.557   9.030  0.3977 -0.5805  1.1361
 5026SOL    HW226541   4.611   0.532   9.091  1.5506  1.9846  0.4903
 5027SOL     OW26542   0.041   2.540   6.659  0.3226 -0.0742  0.2875
 5027SOL    HW126543   0.080   2.576   6.739 -0.5954 -1.5666  1.4183
 5027SOL    HW226544   4.681   2.507   6.694  0.3793  0.1158  0.6067
 5028SOL     OW26545   2.338   0.387  17.244  0.1163 -0.2093  0.5543
 5028SOL    HW126546   2.332   0.420  17.334  1.5703  1.0859  0.1768
 5028SOL    HW226547   2.259   0.334  17.254  1.4351 -2.2167  0.3268
 5029SOL     OW26548   4.497   2.815   6.518  0.2592 -0.0887 -0.1354
 5029SOL    HW126549   4.591   2.825   6.529  0.0580 -2.0498  3.2959
 5029SOL    HW226550   4.464   2.901   6.545 -0.1887 -1.0968  2.5440
 5030SOL     OW26551   1.111   4.632   7.478  0.5720 -0.3702 -0.1377
 5030SOL    HW126552   1.136   4.570   7.409  1.2188 -1.2132  0.8398
 5030SOL    HW226553   1.168   4.708   7.471  1.3701 -1.0861 -1.5616
 5031SOL     OW26554   1.085   0.788   8.125  0.4935  0.0874  0.0489
 5031SOL    HW126555   1.173   0.751   8.120  0.2213 -0.5943  0.3519
 5031SOL    HW226556   1.100   0.869   8.076  1.3435 -0.1169 -0.0193
 5032SOL     OW26557   2.272   4.464  10.644 -0.2233  0.3735  0.0546
 5032SOL    HW126558   2.241   4.501  10.562 -0.8089  2.1844  1.0867
 5032SOL    HW226559   2.365   4.451  10.626 -0.1251  0.6147  0.3826
 5033SOL     OW26560   3.057   1.869   7.144 -0.0585 -0.1233 -0.6769
 5033SOL    HW126561   3.032   1.783   7.111 -2.4068  0.9249 -1.6405
 5033SOL    HW226562   3.129   1.851   7.204  0.3403 -0.7821 -1.3526
 5034SOL     OW26563   1.425   4.091  11.697  0.2267 -0.1479  0.2733
 5034SOL    HW126564   1.460   4.013  11.654  3.2998  1.3403  0.0485
 5034SOL    HW226565   1.489   4.159  11.672 -0.1126 -0.0292 -0.2753
 5035SOL     OW26566   0.295   2.541   9.597 -0.2784  0.1801 -0.2286
 5035SOL    HW126567   0.283   2.554   9.691 -2.3711  0.4640 -0.5274
 5035SOL    HW226568   0.206   2.545   9.562 -0.7932  2.5435  1.3462
 5036SOL     OW26569   1.277   2.584   7.773 -0.1220  0.5974 -0.2815
 5036SOL    HW126570   1.253   2.492   7.786  0.9015  0.4297  0.4500
 5036SOL    HW226571   1.218   2.603   7.701  1.9826 -0.1860 -2.2273
 5037SOL     OW26572   3.037   3.341   5.556 -0.4105 -0.4851  0.8205
 5037SOL    HW126573   3.028   3.335   5.651 -1.0835  1.9664  0.9072
 5037SOL    HW226574   3.133   3.346   5.547 -0.6057  0.9277 -0.5024
 5038SOL     OW26575   4.351   1.221  11.158 -0.4728 -0.1014  0.4199
 5038SOL    HW126576   4.288   1.293  11.161 -0.2413  0.0881  0.7439
 5038SOL    HW226577   4.415   1.240  11.090 -1.5794 -0.7302 -0.7863
 5039SOL     OW26578   0.969   3.295  11.399  0.1033 -0.0225 -0.2784
 5039SOL    HW126579   1.007   3.221  11.352  2.4902  2.7277 -2.7048
 5039SOL    HW226580   0.962   3.255  11.485 -1.6222 -0.9453 -0.8565
 5040SOL     OW26581   0.707   2.578  12.458  0.1776 -0.6713  0.0569
 5040SOL    HW126582   0.706   2.489  12.423 -0.0455 -0.9298  0.7214
 5040SOL    HW226583   0.692   2.557  12.550  2.6549 -0.2909  0.5511
 5041SOL     OW26584   3.817   3.467  12.616 -0.0942 -0.5034 -0.5308
 5041SOL    HW126585   3.863   3.541  12.575  0.5684 -0.9279 -0.5459
 5041SOL    HW226586   3.789   3.519  12.691 -0.6519 -1.3836 -0.1288
 5042SOL     OW26587   2.545   0.072   4.409 -0.4993  0.5449 -0.2346
 5042SOL    HW126588   2.584   0.151   4.374  0.5515  0.2272  0.2314
 5042SOL    HW226589   2.525   0.015   4.334 -3.5526 -1.6691  2.2669
 5043SOL     OW26590   4.078   1.136   6.818 -0.1940 -0.5159 -1.2012
 5043SOL    HW126591   4.068   1.152   6.724 -0.2183 -0.6887 -1.2265
 5043SOL    HW226592   4.023   1.058   6.825  0.9718 -1.1834  0.4586
 5044SOL     OW26593   4.467   4.500   8.856 -0.6285 -0.1887 -0.1218
 5044SOL    HW126594   4.426   4.586   8.867  0.3452  0.3242 -0.5401
 5044SOL    HW226595   4.554   4.523   8.823  0.6655 -2.8319  1.4872
 5045SOL     OW26596   4.356   4.391  15.966  0.0905 -0.6399  0.1035
 5045SOL    HW126597   4.396   4.310  15.999  1.0642 -1.0263 -1.9802
 5045SOL    HW226598   4.431   4.442  15.937 -1.2187  0.2513 -1.6987
 5046SOL     OW26599   2.543   2.008   6.775  0.3144  0.2839  0.3533
 5046SOL    HW126600   2.535   1.914   6.787 -1.1773  0.4444  0.6590
 5046SOL    HW226601   2.457   2.021   6.733  1.1497 -0.7026 -1.6492
 5047SOL     OW26602   3.472   1.674   5.128 -0.4333 -0.3618 -0.7926
 5047SOL    HW126603   3.509   1.587   5.146  1.3985  0.2370 -1.6869
 5047SOL    HW226604   3.406   1.682   5.197  0.4674  0.1668  0.0139
 5048SOL     OW26605   1.740   4.507   7.418 -0.7945  0.9762 -0.1156
 5048SOL    HW126606   1.678   4.497   7.490  0.3238  0.2093  0.7463
 5048SOL    HW226607   1.672   4.528   7.353 -1.0698  0.8895  0.1469
 5049SOL     OW26608   4.619   1.981   8.395 -0.2594 -0.3302  0.1601
 5049SOL    HW126609   4.587   2.010   8.481 -1.6760  1.4140 -0.9556
 5049SOL    HW226610   4.643   2.071   8.373  1.6037 -1.0236 -0.6027
 5050SOL     OW26611   0.198   4.375  17.631  0.8738  0.8988  0.1976
 5050SOL    HW126612   0.267   4.345  17.690 -0.1090 -1.2784  0.2354
 5050SOL    HW226613   0.125   4.386  17.692 -0.1448 -0.3050 -0.8203
 5051SOL     OW26614   4.248   1.955   0.172 -0.4912  0.3986 -0.1189
 5051SOL    HW126615   4.246   2.000   0.257  2.9118 -1.0456  0.7089
 5051SOL    HW226616   4.285   2.025   0.118  1.3692  1.2964  2.3405
 5052SOL     OW26617   2.397   0.262   3.193  0.3632  0.3206 -0.2207
 5052SOL    HW126618   2.351   0.326   3.138 -1.3467 -0.7000  0.0244
 5052SOL    HW226619   2.330   0.203   3.227  0.2000  0.7172  0.1411
 5053SOL     OW26620   0.937   3.297  16.760 -0.5563  0.5325 -0.3205
 5053SOL    HW126621   0.850   3.267  16.786 -1.7117  1.3855 -3.1656
 5053SOL    HW226622   0.934   3.272  16.667  0.2011 -1.9341  0.3300
 5054SOL     OW26623   2.464   4.547  15.799 -0.3065 -0.5242 -0.0017
 5054SOL    HW126624   2.483   4.640  15.786 -0.3797 -0.7066 -1.4096
 5054SOL    HW226625   2.524   4.521  15.868 -0.6941  0.3567  0.6619
 5055SOL     OW26626   1.982   2.602   2.642  0.3719 -0.5017 -0.4243
 5055SOL    HW126627   1.984   2.524   2.586  2.4137  0.2386 -1.3895
 5055SOL    HW226628   1.889   2.623   2.642  0.2749 -0.9500  1.5101
 5056SOL     OW26629   0.403   4.253   3.766 -0.4202 -0.2416 -0.0732
 5056SOL    HW126630   0.492   4.283   3.785  0.5944 -2.5185 -1.3686
 5056SOL    HW226631   0.416   4.161   3.786  1.6210  0.2552  0.9041
 5057SOL     OW26632   2.178   3.009   1.301  0.1025 -0.1512 -0.6995
 5057SOL    HW126633   2.130   3.032   1.380  3.5864  1.7188  0.8611
 5057SOL    HW226634   2.237   3.083   1.292 -1.8817  1.6648  1.4184
 5058SOL     OW26635   1.795   4.410  14.681 -0.3536  0.2416  0.3570
 5058SOL    HW126636   1.773   4.346  14.748 -1.3618  0.4074  0.1792
 5058SOL    HW226637   1.731   4.479  14.699  0.5113  0.4927  2.4065
 5059SOL     OW26638   2.319   3.457   4.862  0.2551 -0.1781 -0.0394
 5059SOL    HW126639   2.313   3.380   4.806  0.0721  0.2774 -0.6498
 5059SOL    HW226640   2.403   3.435   4.903  0.2908 -0.6404 -0.3653
 5060SOL     OW26641   0.873   2.633  16.007 -0.1363 -0.2787 -0.5582
 5060SOL    HW126642   0.894   2.664  15.918  0.7407 -1.5266 -0.7875
 5060SOL    HW226643   0.917   2.549  15.998 -0.2472 -0.4727  0.7915
 5061SOL     OW26644   3.632   3.631  11.193 -0.1418 -0.1524 -0.4400
 5061SOL    HW126645   3.618   3.618  11.100  2.5180  0.5300 -0.9236
 5061SOL    HW226646   3.556   3.688  11.207  0.2008 -0.0124  0.8713
 5062SOL     OW26647   0.029   3.725   6.028  0.2671 -0.4650  0.4767
 5062SOL    HW126648   0.080   3.789   5.979 -1.3112 -0.5997 -1.3494
 5062SOL    HW226649   4.669   3.771   6.041  1.3506  1.4061  0.8157
 5063SOL     OW26650   1.788   4.419   3.274  0.4322  0.0905 -0.1207
 5063SOL    HW126651   1.792   4.514   3.284 -0.4546  0.1308 -0.2208
 5063SOL    HW226652   1.771   4.425   3.180 -1.0576  1.3381  0.2241
 5064SOL     OW26653   4.043   3.473   7.438 -0.6692 -0.6022 -0.6238
 5064SOL    HW126654   3.976   3.518   7.489  1.8381  0.3671  1.7761
 5064SOL    HW226655   4.078   3.534   7.373 -2.8690  0.7671 -0.5124
 5065SOL     OW26656   1.272   3.539   4.462 -0.3981  0.0023 -0.6671
 5065SOL    HW126657   1.309   3.618   4.504 -1.5208 -0.1061  0.5337
 5065SOL    HW226658   1.356   3.502   4.435  0.3585  1.0618  0.1963
 5066SOL     OW26659   3.688   4.262  16.961  0.3603  0.3588 -0.0480
 5066SOL    HW126660   3.682   4.357  16.966 -4.1173  0.1389 -0.6485
 5066SOL    HW226661   3.648   4.238  17.045 -0.6245 -0.0133 -0.6133
 5067SOL     OW26662   4.252   3.821  12.892 -0.9755  0.2638  0.6874
 5067SOL    HW126663   4.173   3.872  12.874  0.8259  1.2843 -4.5475
 5067SOL    HW226664   4.219   3.756  12.954  0.8899 -0.2454  1.1573
 5068SOL     OW26665   4.208   0.718   6.706 -0.0775  0.1464 -0.2304
 5068SOL    HW126666   4.142   0.767   6.656  1.1482  1.0603 -0.9405
 5068SOL    HW226667   4.289   0.753   6.670  0.4602 -1.8955 -0.9901
 5069SOL     OW26668   3.444   1.850   1.241 -0.2416 -0.0622  0.5802
 5069SOL    HW126669   3.511   1.808   1.187 -0.2004 -0.8416  1.2341
 5069SOL    HW226670   3.504   1.903   1.293 -0.0909 -0.3779  0.7285
 5070SOL     OW26671   2.147   2.220  11.760  0.4800 -0.0071  0.3458
 5070SOL    HW126672   2.190   2.279  11.698  0.5933 -1.4753 -0.9912
 5070SOL    HW226673   2.063   2.205  11.717  0.9826  0.6614 -0.8916
 5071SOL     OW26674   1.474   0.210   5.396  0.0692  0.1900 -0.1115
 5071SOL    HW126675   1.390   0.167   5.413 -0.3232  2.0444  2.6054
 5071SOL    HW226676   1.531   0.181   5.468 -0.9400 -0.7095  0.3325
 5072SOL     OW26677   2.828   4.601   2.786 -0.1351  0.0367  0.1892
 5072SOL    HW126678   2.811   4.512   2.756  3.4689 -0.2663 -1.0227
 5072SOL    HW226679   2.746   4.621   2.830 -0.7729 -1.6993 -0.2024
 5073SOL     OW26680   3.824   0.772   6.281  0.0799 -0.3765 -0.0569
 5073SOL    HW126681   3.804   0.866   6.287 -0.5987 -0.5980  1.3549
 5073SOL    HW226682   3.919   0.770   6.293 -0.0816 -2.3283  0.9678
 5074SOL     OW26683   0.630   1.733   9.470  0.3322  0.2123  0.2530
 5074SOL    HW126684   0.585   1.797   9.414 -2.0399 -1.1693  0.5668
 5074SOL    HW226685   0.584   1.744   9.554  0.3376 -2.7406  0.6456
 5075SOL     OW26686   2.212   0.306   2.964  0.8368  0.3294  0.5183
 5075SOL    HW126687   2.141   0.306   3.028  0.9834  1.2333  0.6811
 5075SOL    HW226688   2.181   0.376   2.907  2.0301 -0.6329 -1.3379
 5076SOL     OW26689   1.408   1.466   5.080 -0.1571  0.7408 -0.0308
 5076SOL    HW126690   1.387   1.452   4.988  2.4337 -0.6961 -0.4099
 5076SOL    HW226691   1.330   1.447   5.132 -1.4090 -1.2637 -2.6249
 5077SOL     OW26692   1.093   3.251   0.487  0.2481  0.4770 -0.0358
 5077SOL    HW126693   1.023   3.204   0.442  0.9608  0.1063 -0.7412
 5077SOL    HW226694   1.146   3.276   0.411  1.7200 -2.1859  0.1435
 5078SOL     OW26695   3.983   1.599  11.754  0.0559 -0.4412 -0.4791
 5078SOL    HW126696   3.916   1.537  11.726 -1.7943  0.0021  3.0234
 5078SOL    HW226697   4.055   1.541  11.780 -0.0469 -0.0834  0.6195
 5079SOL     OW26698   2.950   0.921  16.990  0.3470  0.1488  0.2371
 5079SOL    HW126699   2.940   0.934  16.895 -0.8095  1.5666  0.5561
 5079SOL    HW226700   2.870   0.873  17.011 -1.7490  2.9079 -1.4696
 5080SOL     OW26701   1.200   2.597   8.045  0.1542 -0.2429 -0.8513
 5080SOL    HW126702   1.227   2.595   7.953  1.5625 -0.8015 -0.4270
 5080SOL    HW226703   1.285   2.622   8.082 -1.0070  0.7252  1.1743
 5081SOL     OW26704   1.025   4.499   8.552  0.5694 -0.1687 -0.1775
 5081SOL    HW126705   1.025   4.470   8.461  2.1445 -1.8814  0.3552
 5081SOL    HW226706   1.040   4.414   8.594  3.4251  0.9102  1.0049
 5082SOL     OW26707   4.052   1.123  10.993 -0.5948 -0.0212  0.2206
 5082SOL    HW126708   4.098   1.196  10.953 -1.0615  0.6729  0.9629
 5082SOL    HW226709   4.102   1.057  10.945 -0.7080  0.1348 -0.1147
 5083SOL     OW26710   2.843   3.199   7.610  0.2013 -0.0971 -0.1408
 5083SOL    HW126711   2.862   3.144   7.534 -2.0538 -0.3512 -0.5290
 5083SOL    HW226712   2.801   3.144   7.676  1.0381 -1.9270 -1.1161
 5084SOL     OW26713   1.602   0.711  13.796  1.1829 -0.6518  0.0191
 5084SOL    HW126714   1.671   0.647  13.778  1.0460 -0.9985  0.7159
 5084SOL    HW226715   1.637   0.792  13.760  1.2008 -0.5992  0.1567
 5085SOL     OW26716   3.225   1.077   1.161 -0.4810 -0.1407  0.0773
 5085SOL    HW126717   3.246   1.082   1.254 -0.4375  0.0835  0.0575
 5085SOL    HW226718   3.307   1.110   1.124 -1.7081  1.3989 -1.2894
 5086SOL     OW26719   3.337   4.453  12.885 -0.6291 -0.5918  0.5612
 5086SOL    HW126720   3.368   4.486  12.801 -2.8034 -0.9145 -0.3671
 5086SOL    HW226721   3.417   4.404  12.904 -1.5020 -1.7422  1.2355
 5087SOL     OW26722   1.011   4.301   6.920 -0.3066  0.0548 -0.1470
 5087SOL    HW126723   0.979   4.350   6.996 -0.7078 -1.5853  0.7290
 5087SOL    HW226724   0.985   4.212   6.944  1.8085 -0.2845  0.8893
 5088SOL     OW26725   0.014   0.542   7.802 -0.5795  0.5596 -0.2787
 5088SOL    HW126726   4.679   0.616   7.781  0.7996  1.1708 -1.9650
 5088SOL    HW226727   0.004   0.544   7.897  1.5369 -2.4090 -0.0225
 5089SOL     OW26728   3.230   0.993  15.466 -0.2197 -0.1692 -0.3227
 5089SOL    HW126729   3.206   0.925  15.403 -1.6063 -0.0980  0.1166
 5089SOL    HW226730   3.148   1.039  15.485  0.7478  2.1640 -1.8413
 5090SOL     OW26731   1.876   1.074   3.625 -0.1391 -0.4337 -0.1412
 5090SOL    HW126732   1.819   1.142   3.589 -2.0185 -2.3306 -0.8287
 5090SOL    HW226733   1.959   1.116   3.644 -0.1849 -0.3024 -0.2330
 5091SOL     OW26734   4.052   2.820   5.340 -0.0171 -0.1545 -0.2483
 5091SOL    HW126735   4.030   2.728   5.332 -0.7312 -0.0938  1.0371
 5091SOL    HW226736   3.983   2.860   5.288  0.2875 -2.4744 -2.4397
 5092SOL     OW26737   4.109   2.854   6.035  0.3610  0.7737  0.2322
 5092SOL    HW126738   4.071   2.923   5.982  0.6810 -0.1935 -1.2578
 5092SOL    HW226739   4.162   2.900   6.101  1.8491  0.7680 -0.9570
 5093SOL     OW26740   0.062   1.083   5.675  0.1669  0.3123 -0.6380
 5093SOL    HW126741   0.012   1.003   5.689 -1.6951  1.2951 -1.6646
 5093SOL    HW226742   0.014   1.147   5.728  1.0803 -0.4565  1.1226
 5094SOL     OW26743   4.152   2.622  10.425 -0.1343  0.2163 -0.0454
 5094SOL    HW126744   4.179   2.710  10.454 -1.5382  0.7592 -0.4135
 5094SOL    HW226745   4.150   2.573  10.507  3.4042 -1.6069 -1.0485
 5095SOL     OW26746   2.693   0.621   7.182 -0.1805 -0.0362 -0.0946
 5095SOL    HW126747   2.789   0.622   7.178 -0.1389 -0.5529  0.8429
 5095SOL    HW226748   2.691   0.698   7.238 -1.0580  0.2149 -0.4733
 5096SOL     OW26749   3.103   0.732   5.631 -0.1822  0.4765  0.0554
 5096SOL    HW126750   3.038   0.669   5.661  0.8222 -0.5696  0.0483
 5096SOL    HW226751   3.144   0.683   5.559 -0.6936 -1.6969  1.2437
 5097SOL     OW26752   3.141   4.629  10.230 -0.6155  0.1133  0.1137
 5097SOL    HW126753   3.064   4.572  10.218 -1.8652  1.5090  1.4620
 5097SOL    HW226754   3.142   4.659  10.139  1.9901  0.0905  0.1361
 5098SOL     OW26755   4.176   1.520   7.990 -0.4334  0.4584  0.3019
 5098SOL    HW126756   4.252   1.462   7.983 -1.0047  0.0116 -2.2171
 5098SOL    HW226757   4.150   1.520   7.897 -1.7366  0.5092  0.6733
 5099SOL     OW26758   1.014   2.308   5.041 -0.1317  0.0265 -0.1649
 5099SOL    HW126759   0.922   2.304   5.016 -0.2404 -1.6569  0.5175
 5099SOL    HW226760   1.047   2.379   4.986 -1.9233  0.6697 -0.4026
 5100SOL     OW26761   4.445   0.647   4.700  0.1567  0.1014  0.5361
 5100SOL    HW126762   4.439   0.649   4.796  0.7686  5.0426  0.4763
 5100SOL    HW226763   4.494   0.727   4.681 -0.1086  0.7490  2.5410
 5101SOL     OW26764   4.343   4.593   6.451  0.1449 -0.6311  0.8491
 5101SOL    HW126765   4.261   4.581   6.499  0.1845 -0.4035  0.9726
 5101SOL    HW226766   4.356   4.510   6.405 -1.2267  0.7492 -2.0280
 5102SOL     OW26767   2.581   3.966   8.839 -0.5238  0.3857  0.4285
 5102SOL    HW126768   2.536   3.897   8.791 -0.6637  1.1786 -0.5602
 5102SOL    HW226769   2.668   3.957   8.799 -1.1227 -2.9506 -0.1294
 5103SOL     OW26770   1.563   4.098   5.274 -0.3587 -0.1961 -0.1008
 5103SOL    HW126771   1.644   4.085   5.323 -0.4523  0.0453  0.1197
 5103SOL    HW226772   1.505   4.095   5.351 -0.2928 -0.4366 -0.0584
 5104SOL     OW26773   0.022   3.988   8.111 -0.0110  0.1324 -0.3799
 5104SOL    HW126774   0.093   4.051   8.098 -1.9266  2.5383  0.8038
 5104SOL    HW226775   4.671   4.043   8.139 -1.5148 -1.9574 -0.2117
 5105SOL     OW26776   1.973   0.049   8.852  0.3586  0.7667  0.4921
 5105SOL    HW126777   2.048   0.101   8.824  0.5761  0.2384  0.0779
 5105SOL    HW226778   1.900   0.105   8.824  2.8007  3.4018 -0.4811
 5106SOL     OW26779   4.332   3.394   2.429 -0.1793 -0.3853 -0.3250
 5106SOL    HW126780   4.296   3.482   2.420  1.3679  0.4314  1.4199
 5106SOL    HW226781   4.407   3.409   2.487  0.4218  1.0926 -1.4910
 5107SOL     OW26782   3.298   1.699   7.496 -0.0149 -0.1014  0.3178
 5107SOL    HW126783   3.363   1.760   7.460  0.4364 -1.4378 -1.0965
 5107SOL    HW226784   3.309   1.626   7.435  0.1304 -1.1051  1.5371
 5108SOL     OW26785   3.161   2.689   2.258 -0.0989  0.4845 -0.1565
 5108SOL    HW126786   3.069   2.715   2.257  0.1468  1.3577 -0.4182
 5108SOL    HW226787   3.217   2.767   2.255  0.7958 -0.0864  1.5811
 5109SOL     OW26788   1.741   4.175   6.333  0.2957 -0.0212  0.3849
 5109SOL    HW126789   1.649   4.175   6.360 -0.2838  1.3514 -1.6178
 5109SOL    HW226790   1.784   4.183   6.418 -1.2431 -0.7106  1.2342
 5110SOL     OW26791   3.575   3.218   5.307  0.2295 -0.5546 -0.2519
 5110SOL    HW126792   3.564   3.169   5.226 -0.0654  0.1534 -0.6350
 5110SOL    HW226793   3.571   3.307   5.273  2.0625  0.5746  2.4587
 5111SOL     OW26794   2.163   3.797   8.751  0.7086  0.0003  0.0437
 5111SOL    HW126795   2.250   3.770   8.722  0.1141 -1.6859 -0.1649
 5111SOL    HW226796   2.148   3.717   8.802 -2.3900 -0.7132 -1.9690
 5112SOL     OW26797   2.159   4.002   4.419  0.6403  0.3370 -0.4757
 5112SOL    HW126798   2.230   4.061   4.394  0.4372  0.6387 -0.3449
 5112SOL    HW226799   2.202   3.921   4.445 -1.9868 -0.2544  2.0188
 5113SOL     OW26800   4.223   4.001   6.939  0.1601 -0.0492 -0.1124
 5113SOL    HW126801   4.168   3.982   7.015 -2.1021 -1.1103 -2.0419
 5113SOL    HW226802   4.165   3.974   6.868 -1.3067 -1.7869  1.7736
 5114SOL     OW26803   0.957   1.502   4.623  0.8490  0.3319  0.5201
 5114SOL    HW126804   0.976   1.527   4.532  0.9420  1.1385  0.7631
 5114SOL    HW226805   0.875   1.549   4.635  2.2099  2.1319  2.7777
 5115SOL     OW26806   3.748   1.367  13.215  0.3557 -0.3428 -0.0496
 5115SOL    HW126807   3.705   1.336  13.136 -1.1352  0.8391  0.2989
 5115SOL    HW226808   3.672   1.382  13.271 -0.0169 -0.5312 -0.5092
 5116SOL     OW26809   1.187   3.003   5.817 -0.8514  0.2122 -0.0434
 5116SOL    HW126810   1.189   3.007   5.913  0.4819  0.5482 -0.0797
 5116SOL    HW226811   1.192   3.097   5.799 -0.8735  0.0099 -1.0859
 5117SOL     OW26812   0.124   2.223   7.756 -0.2265  0.1271  0.6369
 5117SOL    HW126813   0.142   2.182   7.672 -0.9562  0.4983  0.2977
 5117SOL    HW226814   0.028   2.232   7.755 -0.0616  1.1700 -2.5418
 5118SOL     OW26815   2.625   3.409   4.435  0.0737 -0.4224 -0.2685
 5118SOL    HW126816   2.641   3.408   4.529  1.4980 -0.3989 -0.5040
 5118SOL    HW226817   2.686   3.473   4.400 -1.4096  1.8949  1.4426
 5119SOL     OW26818   3.102   1.362   0.425  0.2818  0.0259 -0.4294
 5119SOL    HW126819   3.037   1.406   0.371 -2.0472 -1.5489  1.1218
 5119SOL    HW226820   3.110   1.276   0.385  0.0032 -0.1355 -0.1397
 5120SOL     OW26821   0.689   2.903  15.508  0.1627 -0.0072 -0.6857
 5120SOL    HW126822   0.716   2.925  15.597  1.2453  1.6873 -1.4171
 5120SOL    HW226823   0.669   2.812  15.528  0.8085  0.4065  1.7726
 5121SOL     OW26824   3.055   0.522   8.884 -0.1326 -1.0013  0.4381
 5121SOL    HW126825   3.097   0.519   8.970 -0.2576  1.6705  0.5905
 5121SOL    HW226826   3.130   0.513   8.826 -0.1575  0.6275  0.1582
 5122SOL     OW26827   3.761   4.684   6.948 -0.8538 -0.2760 -0.1574
 5122SOL    HW126828   3.735   4.688   7.040 -0.8308  2.9177 -0.3094
 5122SOL    HW226829   3.764   0.056   6.936  2.9191 -0.1727  1.6050
 5123SOL     OW26830   3.936   3.133   4.707 -1.0819 -0.6106 -0.0153
 5123SOL    HW126831   4.021   3.107   4.744 -1.2926 -2.1204 -0.5802
 5123SOL    HW226832   3.869   3.087   4.758 -0.9579 -0.6702  0.0947
 5124SOL     OW26833   0.657   3.557  16.781 -0.2365 -0.6193 -0.2691
 5124SOL    HW126834   0.732   3.615  16.791 -0.1819 -0.4058 -1.9318
 5124SOL    HW226835   0.608   3.591  16.856 -0.3175  0.7986 -0.9687
 5125SOL     OW26836   3.232   1.360  17.204  0.4736 -0.1777 -0.4536
 5125SOL    HW126837   3.247   1.321  17.118 -2.0056  1.4731 -1.6612
 5125SOL    HW226838   3.185   1.287  17.246  0.2565 -0.7624 -1.6955
 5126SOL     OW26839   4.143   1.047   3.034  0.0819 -0.3206 -0.4189
 5126SOL    HW126840   4.218   0.992   3.058  1.0700  1.0250 -0.4003
 5126SOL    HW226841   4.181   1.091   2.958  3.3575 -0.4571  1.1309
 5127SOL     OW26842   3.289   1.465   8.530  0.1209 -0.2935 -0.1775
 5127SOL    HW126843   3.356   1.452   8.463 -1.1735 -0.0566 -1.5200
 5127SOL    HW226844   3.258   1.375   8.540 -2.3451  0.6138  0.3301
 5128SOL     OW26845   3.522   2.972   3.006 -0.0366  0.3422 -0.9530
 5128SOL    HW126846   3.450   2.988   3.067  0.6472 -1.8246  0.4262
 5128SOL    HW226847   3.524   2.877   2.999  0.0017  0.2296  0.6438
 5129SOL     OW26848   3.668   1.378   7.101 -0.1192 -0.1567 -0.4358
 5129SOL    HW126849   3.597   1.356   7.040 -0.3295 -3.0181  0.8652
 5129SOL    HW226850   3.720   1.448   7.060 -2.5518  1.3376 -1.0030
 5130SOL     OW26851   4.008   4.513   4.741  0.2408 -0.2890 -0.2706
 5130SOL    HW126852   3.915   4.521   4.718  0.6597  0.4059 -1.7315
 5130SOL    HW226853   4.053   4.466   4.671  4.5904 -0.0398  2.3641
 5131SOL     OW26854   0.078   0.940   4.562 -0.6027  1.2835  0.3549
 5131SOL    HW126855   0.083   0.864   4.619  1.0087  0.3523 -1.0446
 5131SOL    HW226856   4.706   0.956   4.553 -0.7117  1.7752  2.3650
 5132SOL     OW26857   0.555   1.009   2.461 -0.2432 -0.1116  0.1384
 5132SOL    HW126858   0.481   1.070   2.461  1.5659  2.0943  1.5405
 5132SOL    HW226859   0.519   0.921   2.450 -1.7435  0.4270  0.6213
 5133SOL     OW26860   4.458   3.651  15.214 -0.3841  0.2575 -0.2729
 5133SOL    HW126861   4.376   3.698  15.232 -0.7658 -0.2573 -0.6831
 5133SOL    HW226862   4.510   3.688  15.286  0.4468  0.6955 -1.1062
 5134SOL     OW26863   0.002   0.491   6.376  0.5834 -0.4613 -0.0084
 5134SOL    HW126864   0.035   0.543   6.449 -2.4099 -0.1806  1.1604
 5134SOL    HW226865   4.634   0.483   6.408  0.1463 -0.0605 -1.1473
 5135SOL     OW26866   3.395   0.346   6.478 -0.7188 -0.1269 -0.5609
 5135SOL    HW126867   3.356   0.261   6.459 -2.6650  0.4145  0.9931
 5135SOL    HW226868   3.485   0.331   6.450  0.3145  0.6346  2.2777
 5136SOL     OW26869   2.161   4.410   8.005 -0.0855  0.4048  0.4804
 5136SOL    HW126870   2.122   4.358   8.075 -2.4930 -0.5642 -1.6231
 5136SOL    HW226871   2.090   4.418   7.942 -0.0941  2.7846  0.7944
 5137SOL     OW26872   3.695   1.074   4.156 -0.2865 -0.0179 -0.2429
 5137SOL    HW126873   3.608   1.059   4.194  0.4330 -0.7160  1.1222
 5137SOL    HW226874   3.746   1.014   4.211  0.0449  0.6701  0.1921
 5138SOL     OW26875   2.273   1.698   6.144  0.2796  0.2990 -0.3378
 5138SOL    HW126876   2.310   1.709   6.057  1.8712 -0.5344  0.2408
 5138SOL    HW226877   2.213   1.627   6.122  2.4033 -1.1361 -1.4363
 5139SOL     OW26878   2.621   0.434   5.545  0.4217 -0.2369 -0.0309
 5139SOL    HW126879   2.704   0.388   5.532  0.2444 -0.7446  0.6132
 5139SOL    HW226880   2.557   0.391   5.487 -0.3469  1.7780 -0.6593
 5140SOL     OW26881   1.411   1.829   5.307  0.0613  0.5854 -0.6033
 5140SOL    HW126882   1.445   1.826   5.397  0.9098  0.7184 -0.9210
 5140SOL    HW226883   1.335   1.771   5.311 -0.2303  0.9234 -1.3835
 5141SOL     OW26884   3.948   2.802   4.917 -0.2326 -0.2376 -0.6000
 5141SOL    HW126885   4.027   2.844   4.885  1.4119 -2.7396  0.1144
 5141SOL    HW226886   3.879   2.853   4.875 -0.7687  0.2647  0.9012
 5142SOL     OW26887   4.450   3.784   7.754 -0.1336  0.4464 -0.2547
 5142SOL    HW126888   4.523   3.820   7.703  0.2946  0.0696  0.0799
 5142SOL    HW226889   4.385   3.854   7.745  1.4026  1.8091 -0.8210
 5143SOL     OW26890   3.981   3.881  14.090  0.2263  0.1694  0.3044
 5143SOL    HW126891   3.987   3.786  14.083 -0.8832 -0.0049  1.5929
 5143SOL    HW226892   4.058   3.889  14.147  0.5960 -0.1139 -0.1588
 5144SOL     OW26893   4.069   2.533  11.362  0.4588  0.1223 -0.0183
 5144SOL    HW126894   4.124   2.546  11.440  2.8644  0.6207 -1.8130
 5144SOL    HW226895   4.011   2.607  11.381 -1.7034 -1.7786  0.8831
 5145SOL     OW26896   2.821   3.940   4.275 -0.1734 -0.1745  0.2303
 5145SOL    HW126897   2.824   3.913   4.367 -0.6476  2.9559  1.1729
 5145SOL    HW226898   2.906   3.985   4.272 -0.6054  0.4193 -2.4857
 5146SOL     OW26899   3.178   1.051   6.566 -0.8249 -0.1097 -0.6225
 5146SOL    HW126900   3.099   1.027   6.614 -0.4841 -0.3081 -0.1691
 5146SOL    HW226901   3.245   1.002   6.613 -0.0712  0.7887 -0.7562
 5147SOL     OW26902   0.114   0.022   2.539  0.4284  0.0159  0.3863
 5147SOL    HW126903   0.063   0.009   2.459  0.3917 -0.8101  0.5404
 5147SOL    HW226904   0.199   0.007   2.497  1.3184 -1.2549  2.6552
 5148SOL     OW26905   4.054   3.384   3.831  0.0962  0.2538  0.0859
 5148SOL    HW126906   4.090   3.472   3.837 -0.4835  0.3133  2.6260
 5148SOL    HW226907   4.097   3.348   3.909 -1.5589  0.4064  1.0781
 5149SOL     OW26908   4.658   2.625  15.876 -0.6817 -0.1393  0.0926
 5149SOL    HW126909   4.674   2.549  15.932 -3.4095 -1.8918 -1.5120
 5149SOL    HW226910   4.669   2.699  15.936 -0.9699 -0.6250  0.7479
 5150SOL     OW26911   1.616   0.756   3.526 -0.0163 -0.2908 -0.3084
 5150SOL    HW126912   1.538   0.711   3.494  0.2847 -1.3192  0.3815
 5150SOL    HW226913   1.635   0.700   3.602 -0.5869 -1.8746 -1.3268
 5151SOL     OW26914   3.780   3.764   3.479  0.0621 -0.3519  0.3008
 5151SOL    HW126915   3.853   3.728   3.428  0.6883  0.9878  0.2631
 5151SOL    HW226916   3.735   3.804   3.405 -0.0061 -1.3667 -0.1988
 5152SOL     OW26917   0.684   4.025  13.093 -0.1523  0.3221 -0.4634
 5152SOL    HW126918   0.600   4.043  13.135 -0.6740 -2.0122 -0.4883
 5152SOL    HW226919   0.691   3.942  13.140  1.4248  0.5447 -0.3186
 5153SOL     OW26920   1.143   3.927   4.362 -0.0616  0.4221  0.2759
 5153SOL    HW126921   1.105   4.015   4.362  0.9066  0.8638 -2.8209
 5153SOL    HW226922   1.093   3.879   4.296 -1.5509  0.8315  1.1054
 5154SOL     OW26923   2.788   0.698   3.607 -0.6673 -0.4640 -0.2583
 5154SOL    HW126924   2.700   0.715   3.639 -0.4221  1.5747 -0.6152
 5154SOL    HW226925   2.801   0.606   3.629  2.9195 -0.2045 -1.1683
 5155SOL     OW26926   4.472   2.276   1.195  0.6054 -0.2468 -0.7009
 5155SOL    HW126927   4.435   2.232   1.271  2.2566 -0.1000  0.2051
 5155SOL    HW226928   4.390   2.319   1.169  1.1270  2.2070  1.6602
 5156SOL     OW26929   4.564   2.341  15.933  0.2752 -0.1813 -0.3672
 5156SOL    HW126930   4.477   2.305  15.917  0.1001  0.4057 -0.7612
 5156SOL    HW226931   4.587   2.303  16.018  1.8519 -0.6923 -1.0247
 5157SOL     OW26932   0.572   3.820  12.195 -0.2505 -0.0271  0.0598
 5157SOL    HW126933   0.625   3.861  12.263  0.0257  0.1366 -0.2572
 5157SOL    HW226934   0.610   3.842  12.110 -2.6586  1.2359 -0.6798
 5158SOL     OW26935   1.534   2.569   2.123 -0.1302 -0.3917 -0.2396
 5158SOL    HW126936   1.605   2.584   2.185 -0.5030  1.5807 -0.2780
 5158SOL    HW226937   1.581   2.557   2.041  0.1348 -0.0768 -0.1345
 5159SOL     OW26938   3.328   3.469   5.300  0.0242  0.3235 -0.2270
 5159SOL    HW126939   3.262   3.424   5.246 -0.7024 -0.4364  1.2974
 5159SOL    HW226940   3.295   3.558   5.315  0.0503  0.6413 -2.0481
 5160SOL     OW26941   3.305   1.966   3.015  0.3527 -0.4056  0.0599
 5160SOL    HW126942   3.235   2.021   3.051 -2.1909 -1.9600 -2.5148
 5160SOL    HW226943   3.299   1.986   2.922 -0.4613 -1.0567 -0.0273
 5161SOL     OW26944   0.144   3.780   5.184  0.2341  0.1651  0.2692
 5161SOL    HW126945   0.148   3.764   5.090  0.8947 -1.5956  0.5911
 5161SOL    HW226946   0.237   3.771   5.205  0.5087  2.6449  0.0696
 5162SOL     OW26947   3.304   0.120   3.834 -0.3452 -0.5792 -0.3004
 5162SOL    HW126948   3.277   0.086   3.919 -1.9979 -0.2612 -0.7015
 5162SOL    HW226949   3.396   0.142   3.850 -0.9764  1.7053  0.2211
 5163SOL     OW26950   2.865   2.577  10.855  0.3693 -0.0574  0.1968
 5163SOL    HW126951   2.805   2.510  10.888 -0.9781 -0.6793 -3.5008
 5163SOL    HW226952   2.929   2.579  10.927 -0.3829 -1.9824  0.9188
 5164SOL     OW26953   0.834   1.570   9.647  0.7449  0.3299 -0.0581
 5164SOL    HW126954   0.800   1.620   9.573 -0.7040 -0.9950 -0.2916
 5164SOL    HW226955   0.849   1.645   9.704 -1.9495  0.0198  1.0581
 5165SOL     OW26956   3.329   3.375   3.188  0.0033 -0.0648 -0.1237
 5165SOL    HW126957   3.405   3.421   3.152 -1.0095  0.1317 -2.0511
 5165SOL    HW226958   3.302   3.341   3.102  0.7107  0.8737 -0.7181
 5166SOL     OW26959   4.091   3.624   5.733  0.6196 -0.0106 -0.1045
 5166SOL    HW126960   4.137   3.708   5.735  0.0592  0.3233 -1.6454
 5166SOL    HW226961   4.057   3.609   5.645  2.3561 -0.4083 -0.6993
 5167SOL     OW26962   0.753   3.092  17.147 -0.0812 -0.5354  0.1924
 5167SOL    HW126963   0.840   3.100  17.188  0.7764  1.2405 -1.9409
 5167SOL    HW226964   0.742   3.175  17.100 -1.1794 -0.5067  0.5194
 5168SOL     OW26965   4.577   4.184   9.992  0.1408  0.1939 -1.0285
 5168SOL    HW126966   4.482   4.192   9.998  0.1401  0.3795 -1.2792
 5168SOL    HW226967   4.578   4.177   9.896 -0.2298  2.2570 -1.1741
 5169SOL     OW26968   3.778   1.731   5.191 -0.6364  0.4537 -0.1061
 5169SOL    HW126969   3.824   1.651   5.166 -1.1484 -0.0948  0.6937
 5169SOL    HW226970   3.732   1.693   5.266  0.3452  0.0958  0.3215
 5170SOL     OW26971   4.256   3.008   2.138 -0.0704 -0.2332 -0.7844
 5170SOL    HW126972   4.234   2.918   2.115 -0.0121 -0.8509  1.5557
 5170SOL    HW226973   4.309   2.995   2.217 -1.1959 -2.4719 -0.4195
 5171SOL     OW26974   0.300   2.907   5.103  0.2383  0.2061 -0.0281
 5171SOL    HW126975   0.309   2.973   5.034 -1.2046  0.0881 -0.3338
 5171SOL    HW226976   0.386   2.910   5.145  0.3566  0.3788 -0.2880
 5172SOL     OW26977   2.112   0.825   1.980 -0.2744 -0.2266 -0.0549
 5172SOL    HW126978   2.043   0.887   2.005  1.6230  1.3171  1.3727
 5172SOL    HW226979   2.133   0.860   1.893  0.9088 -0.7503  0.0208
 5173SOL     OW26980   0.979   1.402   6.812  0.1616 -0.6779 -0.3312
 5173SOL    HW126981   0.976   1.361   6.899 -0.5345  1.6425  0.7561
 5173SOL    HW226982   1.032   1.480   6.828  0.6812 -1.1368  0.2108
 5174SOL     OW26983   1.860   1.438   6.381 -0.5791 -0.1004  0.2976
 5174SOL    HW126984   1.873   1.520   6.333  0.5341  0.2504  1.1883
 5174SOL    HW226985   1.856   1.474   6.469  0.6505 -1.5608  0.9463
 5175SOL     OW26986   4.465   3.354   7.522  1.0100 -0.4580 -0.5256
 5175SOL    HW126987   4.435   3.445   7.519  1.9115 -0.1810 -0.9753
 5175SOL    HW226988   4.549   3.354   7.477  0.7683  0.0332 -0.9712
 5176SOL     OW26989   3.394   1.393   4.288  0.7776  0.5279  0.1892
 5176SOL    HW126990   3.349   1.313   4.314  0.5268  0.6017 -0.0147
 5176SOL    HW226991   3.485   1.376   4.313  1.0288  1.4769 -0.0747
 5177SOL     OW26992   3.546   1.897  12.216  0.3314 -0.4131 -0.2315
 5177SOL    HW126993   3.517   1.874  12.304 -0.5238  1.5835  0.0218
 5177SOL    HW226994   3.641   1.889  12.221  0.1993 -0.4239  2.4193
 5178SOL     OW26995   0.963   3.291   2.784  0.3007 -0.1426 -0.6115
 5178SOL    HW126996   0.950   3.217   2.725 -0.4524 -0.6081  0.1520
 5178SOL    HW226997   1.004   3.362   2.734  0.2180  1.1464  1.1796
 5179SOL     OW26998   4.495   2.612  15.658 -0.0324 -0.0099 -0.0867
 5179SOL    HW126999   4.554   2.611  15.734 -2.0741  0.8505  1.5211
 5179SOL    HW227000   4.468   2.521  15.667 -1.1060  0.3326  0.1356
 5180SOL     OW27001   2.497   3.472   6.921 -0.6783 -0.2925 -0.3314
 5180SOL    HW127002   2.520   3.412   6.992 -0.5238 -1.2295 -1.1783
 5180SOL    HW227003   2.418   3.515   6.954 -0.2394 -1.2623  2.0116
 5181SOL     OW27004   0.951   3.782  11.198 -0.0440  0.2485  0.0298
 5181SOL    HW127005   0.973   3.705  11.251  0.8898  0.3068 -0.2664
 5181SOL    HW227006   0.920   3.839  11.268  0.4211 -0.6178  0.9436
 5182SOL     OW27007   4.238   0.622   8.014 -0.0602 -0.1263 -0.2760
 5182SOL    HW127008   4.258   0.715   8.003 -0.0124 -0.3996 -2.4362
 5182SOL    HW227009   4.213   0.629   8.107 -2.5072 -2.3326 -0.7688
 5183SOL     OW27010   1.009   2.350  15.742  0.2451  0.0258 -0.8202
 5183SOL    HW127011   1.038   2.279  15.799  0.9796  0.5204 -0.5886
 5183SOL    HW227012   1.067   2.325  15.670 -0.4166  0.1382 -1.3978
 5184SOL     OW27013   3.566   4.538   7.453  0.3186  0.3187  0.0636
 5184SOL    HW127014   3.647   4.487   7.458 -0.6264 -1.3156 -1.7816
 5184SOL    HW227015   3.582   4.619   7.502  1.5881 -0.6705  1.2899
 5185SOL     OW27016   2.905   4.054   6.343 -0.2357  0.4098 -0.1800
 5185SOL    HW127017   2.935   4.028   6.256 -1.6213  0.4731 -0.6774
 5185SOL    HW227018   2.912   3.971   6.390 -0.1169  0.9955  0.8377
 5186SOL     OW27019   4.231   1.819   4.187  0.6538  0.3000  0.0830
 5186SOL    HW127020   4.218   1.898   4.238 -1.2123 -1.0035  1.6458
 5186SOL    HW227021   4.326   1.815   4.175  0.6483  2.2120 -0.4580
 5187SOL     OW27022   0.774   4.044   4.434 -0.4623 -0.0671 -0.7641
 5187SOL    HW127023   0.710   4.013   4.369  0.8853  0.0300 -2.1319
 5187SOL    HW227024   0.717   4.040   4.511  0.6700  1.6123  0.1602
 5188SOL     OW27025   0.761   1.487  11.404  0.4283 -0.1990 -0.1619
 5188SOL    HW127026   0.728   1.435  11.477  1.5195 -1.4821 -0.5864
 5188SOL    HW227027   0.851   1.506  11.430  0.8249  0.3789 -1.9089
 5189SOL     OW27028   2.139   4.330   2.811  0.3845  0.0431  0.3709
 5189SOL    HW127029   2.095   4.389   2.873  0.4130  0.5432 -0.0880
 5189SOL    HW227030   2.116   4.359   2.723 -0.1354  3.1729  1.5197
 5190SOL     OW27031   2.386   3.283   4.659 -0.1377 -0.2543 -0.4957
 5190SOL    HW127032   2.474   3.317   4.643  1.0199 -2.3285  1.4633
 5190SOL    HW227033   2.400   3.195   4.623  1.1604  0.8698 -2.6823
 5191SOL     OW27034   1.171   0.627   9.065  0.1561 -0.2911 -0.1333
 5191SOL    HW127035   1.215   0.604   9.147 -0.4118 -2.9097 -0.5373
 5191SOL    HW227036   1.084   0.589   9.081  0.1107 -0.0847  0.1047
 5192SOL     OW27037   4.448   4.611   1.848 -0.1634  0.0540  0.6275
 5192SOL    HW127038   4.415   4.666   1.777  4.1739  1.3813 -0.3972
 5192SOL    HW227039   4.376   4.623   1.908 -0.6297  0.0266  0.0736
 5193SOL     OW27040   4.669   4.646   7.975  0.2647  0.1353  0.1337
 5193SOL    HW127041   4.605   4.710   7.942  0.5711  0.9411  1.1259
 5193SOL    HW227042   4.620   4.598   8.042  0.0744  1.3309  0.8519
 5194SOL     OW27043   2.216   2.483   3.541 -0.5810 -0.0298  0.0735
 5194SOL    HW127044   2.204   2.428   3.618  1.0097 -0.1115  0.2697
 5194SOL    HW227045   2.185   2.425   3.472 -0.3809 -0.6607  0.5099
 5195SOL     OW27046   4.669   3.218   7.328  0.0517 -0.4416 -0.0910
 5195SOL    HW127047   4.716   3.150   7.375  0.3588  0.1989  0.5337
 5195SOL    HW227048   4.620   3.154   7.276 -0.9024 -0.1216  0.4143
 5196SOL     OW27049   2.565   0.006  17.200 -0.4736  0.0608 -0.7671
 5196SOL    HW127050   2.570   0.037  17.109  1.7097 -1.2994 -1.1127
 5196SOL    HW227051   2.576   0.091  17.243 -0.3111 -1.2282  1.7627
 5197SOL     OW27052   4.722   4.353  10.173  0.1201 -0.1604  0.2089
 5197SOL    HW127053   4.641   4.331  10.127 -1.2082  0.9468  1.9728
 5197SOL    HW227054   0.019   4.280  10.232 -1.6527 -1.3619 -0.6938
 5198SOL     OW27055   0.035   2.179   5.604 -0.2363 -0.4261 -0.1070
 5198SOL    HW127056   4.699   2.254   5.601  0.8246  0.3905 -0.3256
 5198SOL    HW227057   4.721   2.117   5.540 -2.2009  1.5929 -0.9293
 5199SOL     OW27058   1.152   4.044   8.216 -0.7185 -0.5581 -0.6125
 5199SOL    HW127059   1.103   4.100   8.156  0.1890  0.8505 -0.0207
 5199SOL    HW227060   1.220   4.002   8.163 -0.5710 -0.5649 -0.4193
 5200SOL     OW27061   0.734   1.185   0.761 -0.5839 -0.0791 -0.9229
 5200SOL    HW127062   0.744   1.136   0.842 -1.1500 -1.3888 -1.6543
 5200SOL    HW227063   0.819   1.187   0.718 -0.6767 -2.3616 -1.1680
 5201SOL     OW27064   0.177   3.355   3.791 -0.2244  0.1656 -0.4756
 5201SOL    HW127065   0.236   3.382   3.720 -1.0099 -0.9348 -1.5339
 5201SOL    HW227066   0.099   3.342   3.737 -1.4411 -0.0910  1.3733
 5202SOL     OW27067   1.588   1.375   6.347 -0.6160 -0.1789  0.0065
 5202SOL    HW127068   1.577   1.413   6.434 -0.7772 -2.0040  0.7951
 5202SOL    HW227069   1.682   1.358   6.348 -0.3038  1.4922 -1.1650
 5203SOL     OW27070   3.399   3.729  12.232 -0.3036  0.0844 -0.5329
 5203SOL    HW127071   3.341   3.658  12.206  0.6110 -0.3038 -1.5068
 5203SOL    HW227072   3.353   3.742  12.315  0.6788  0.3209 -0.0208
 5204SOL     OW27073   4.591   0.403   4.109 -0.2054 -0.1130  0.9817
 5204SOL    HW127074   4.589   0.382   4.202 -0.2478  0.8803  1.2076
 5204SOL    HW227075   4.508   0.365   4.083  0.5398 -0.7341 -0.4935
 5205SOL     OW27076   2.757   2.045   8.249 -0.4064  0.2681  0.4499
 5205SOL    HW127077   2.850   2.030   8.233 -0.9900 -1.6974 -1.1726
 5205SOL    HW227078   2.768   2.139   8.232 -3.8496  0.6551  0.4165
 5206SOL     OW27079   1.578   4.094   4.659  0.3083  0.0541  0.1349
 5206SOL    HW127080   1.506   4.150   4.688  2.5042  1.7202  2.3432
 5206SOL    HW227081   1.565   4.083   4.564 -2.3420 -1.7058  0.6744
 5207SOL     OW27082   3.811   3.917   0.116 -0.0617  0.7069  0.1448
 5207SOL    HW127083   3.725   3.891   0.146 -0.2871  0.6690 -0.5375
 5207SOL    HW227084   3.791   3.971   0.039  0.0494  0.4678 -0.0557
 5208SOL     OW27085   0.871   3.857   0.645 -0.7799 -0.0088  0.1114
 5208SOL    HW127086   0.905   3.862   0.556 -0.1932  0.2839  0.3508
 5208SOL    HW227087   0.952   3.836   0.692 -0.6736 -0.0371 -0.0868
 5209SOL     OW27088   3.148   2.164   2.137  0.9375  0.0328 -0.0395
 5209SOL    HW127089   3.075   2.106   2.118 -1.6016  2.5054  2.0344
 5209SOL    HW227090   3.099   2.245   2.155 -0.8085 -0.8844 -0.7674
 5210SOL     OW27091   3.421   1.591   3.011 -0.0915 -0.1189  0.3988
 5210SOL    HW127092   3.448   1.663   3.069 -1.0025 -0.8248  1.6843
 5210SOL    HW227093   3.329   1.596   3.037 -0.1969  0.8368 -0.1602
 5211SOL     OW27094   1.248   3.776   5.059  0.0548  0.5492 -0.1714
 5211SOL    HW127095   1.205   3.744   4.980  1.3223  2.3320 -1.5882
 5211SOL    HW227096   1.339   3.764   5.031  0.5901  0.2873  1.7122
 5212SOL     OW27097   4.330   2.409   6.369  0.4124 -0.2123  0.1209
 5212SOL    HW127098   4.308   2.501   6.357  2.9768  0.0265 -2.7348
 5212SOL    HW227099   4.421   2.420   6.396  0.5983 -0.9230 -0.1957
 5213SOL     OW27100   3.348   0.521   3.157  0.6788 -0.1166  0.0296
 5213SOL    HW127101   3.379   0.543   3.245  2.1790  3.6024 -1.4290
 5213SOL    HW227102   3.339   0.426   3.163 -5.2486  0.4083 -0.5749
 5214SOL     OW27103   1.888   2.730   8.588 -0.2907 -0.1092 -0.0841
 5214SOL    HW127104   1.953   2.799   8.577 -1.9850  1.4764 -0.1941
 5214SOL    HW227105   1.862   2.750   8.678 -1.2774  1.8410 -0.8249
 5215SOL     OW27106   2.878   1.920  11.065  0.6029  0.0575 -0.5715
 5215SOL    HW127107   2.885   1.918  11.161  0.1219 -0.1452 -0.5432
 5215SOL    HW227108   2.790   1.958  11.056  0.8402  0.2057 -2.1660
 5216SOL     OW27109   2.879   3.305   4.054  0.4362  0.3149 -0.3399
 5216SOL    HW127110   2.813   3.352   4.003  2.1228  0.5390 -2.3247
 5216SOL    HW227111   2.879   3.220   4.010 -1.1891 -0.2688  0.8223
 5217SOL     OW27112   4.458   4.711   4.065  0.1365  0.1990 -0.4489
 5217SOL    HW127113   4.510   4.641   4.025  0.7006  0.5144 -0.2730
 5217SOL    HW227114   4.471   0.060   4.003 -1.2662  0.2795 -0.6563
 5218SOL     OW27115   2.178   3.832  16.641  0.7715  0.3064 -0.4223
 5218SOL    HW127116   2.137   3.765  16.696  3.2686 -0.3076  0.7266
 5218SOL    HW227117   2.265   3.791  16.637  0.0246 -1.2917 -0.2734
 5219SOL     OW27118   1.155   2.395   7.426 -0.3350  0.3269  0.3967
 5219SOL    HW127119   1.123   2.451   7.355  1.2833 -0.0308 -0.5998
 5219SOL    HW227120   1.090   2.409   7.495 -0.4461  2.2032 -0.0760
 5220SOL     OW27121   3.199   1.607   4.324  0.4249  0.1122 -0.1853
 5220SOL    HW127122   3.139   1.602   4.249  0.3005  1.7818 -0.1796
 5220SOL    HW227123   3.264   1.540   4.300 -0.1724 -0.6601  0.3419
 5221SOL     OW27124   0.814   2.534   0.963  0.4235 -0.6747  0.3286
 5221SOL    HW127125   0.783   2.624   0.955  0.1674 -1.0121 -2.4115
 5221SOL    HW227126   0.733   2.487   0.940 -0.7520  0.6223  1.8405
 5222SOL     OW27127   0.019   3.628   5.383  0.7201  0.0420 -0.0504
 5222SOL    HW127128   0.040   3.708   5.336  2.6088 -0.9982 -0.9843
 5222SOL    HW227129   0.107   3.605   5.413  1.3481  3.6026  0.8214
 5223SOL     OW27130   3.171   2.194   3.155  0.1009  0.0611 -0.4116
 5223SOL    HW127131   3.121   2.276   3.155  0.8986  0.5429 -0.8854
 5223SOL    HW227132   3.220   2.190   3.237  0.4056 -3.3203 -0.7599
 5224SOL     OW27133   4.150   1.880   2.337 -0.4097 -0.0613 -0.0819
 5224SOL    HW127134   4.082   1.883   2.270 -0.7170  0.5931  0.2543
 5224SOL    HW227135   4.133   1.790   2.367  0.1794 -0.8223 -2.0068
 5225SOL     OW27136   3.751   3.507   0.782 -0.2709  0.2756 -0.2635
 5225SOL    HW127137   3.798   3.542   0.858 -0.4019  0.0585 -0.0826
 5225SOL    HW227138   3.786   3.563   0.712  0.4338  2.1693  1.5643
 5226SOL     OW27139   4.289   4.551   5.765 -0.3683  0.0751 -0.2402
 5226SOL    HW127140   4.281   4.627   5.822  1.1949  1.3845 -1.7619
 5226SOL    HW227141   4.343   4.600   5.703  0.1822 -1.0632 -0.6623
 5227SOL     OW27142   1.514   2.838   2.588  0.2109 -0.0212 -0.6944
 5227SOL    HW127143   1.577   2.894   2.544 -1.4563  1.4161 -1.2598
 5227SOL    HW227144   1.435   2.877   2.550 -0.7158 -0.9503  0.2472
 5228SOL     OW27145   0.085   0.377  16.067 -0.3033 -0.0743  0.0586
 5228SOL    HW127146   0.006   0.419  16.032  0.3715  0.3651 -0.9298
 5228SOL    HW227147   0.127   0.338  15.990 -0.1045 -1.8575  1.0861
 5229SOL     OW27148   2.060   0.906   8.170 -0.3619 -0.3471  0.2282
 5229SOL    HW127149   1.977   0.931   8.211 -0.4941  1.0446 -0.9187
 5229SOL    HW227150   2.119   0.978   8.192  0.9463 -1.1377 -0.7171
 5230SOL     OW27151   0.457   1.545   4.696  0.3089 -0.2704 -0.7587
 5230SOL    HW127152   0.419   1.469   4.740  0.8877 -0.0090  0.1874
 5230SOL    HW227153   0.394   1.565   4.626 -1.7528 -1.4299  0.7602
 5231SOL     OW27154   3.379   1.415   1.315  0.8070 -0.1636  0.2517
 5231SOL    HW127155   3.388   1.500   1.358 -2.5814  0.5929 -0.5252
 5231SOL    HW227156   3.466   1.404   1.278  0.5746 -0.6764 -0.1343
 5232SOL     OW27157   3.930   0.691  10.722  0.3923  0.3366 -0.1969
 5232SOL    HW127158   3.903   0.777  10.755 -1.3247  0.0380 -0.8031
 5232SOL    HW227159   3.908   0.707  10.630  0.4025 -0.3449 -0.3154
 5233SOL     OW27160   3.470   0.414   9.757  0.7207 -0.4315  0.0215
 5233SOL    HW127161   3.426   0.471   9.694  0.1710 -0.9348 -0.0454
 5233SOL    HW227162   3.504   0.347   9.699 -0.3235  0.0544 -1.1657
 5234SOL     OW27163   3.382   0.889   2.694  0.3691  0.3968 -0.2781
 5234SOL    HW127164   3.346   0.846   2.617 -0.1807 -0.5743  0.5135
 5234SOL    HW227165   3.380   0.983   2.673  1.7277  0.5566  0.3476
 5235SOL     OW27166   0.667   3.167   1.927 -0.5032 -0.8695 -0.9978
 5235SOL    HW127167   0.724   3.228   1.972 -1.7558 -1.3093  1.1851
 5235SOL    HW227168   0.626   3.220   1.858 -0.3899  0.5643  0.0543
 5236SOL     OW27169   1.579   1.665   5.017  0.7631 -0.0204  0.6391
 5236SOL    HW127170   1.639   1.601   4.980 -0.6956  0.2159 -2.1072
 5236SOL    HW227171   1.504   1.608   5.035  0.8486 -0.5413 -0.6959
 5237SOL     OW27172   0.302   0.504   0.655 -0.3959  0.4367 -0.1643
 5237SOL    HW127173   0.239   0.442   0.691 -0.4333 -0.6130 -2.0345
 5237SOL    HW227174   0.379   0.507   0.712 -1.4141  0.7473  1.1989
 5238SOL     OW27175   0.577   0.312   8.711  0.0911  0.5194  0.1616
 5238SOL    HW127176   0.669   0.327   8.731 -0.1928  0.4227  1.5153
 5238SOL    HW227177   0.575   0.247   8.640  1.2185 -0.5724  1.1211
 5239SOL     OW27178   2.609   2.051   2.932 -0.3144  0.3276 -0.0903
 5239SOL    HW127179   2.587   2.077   2.843  2.0632  0.3981 -0.6561
 5239SOL    HW227180   2.526   2.071   2.976 -0.7577 -1.2601 -0.1904
 5240SOL     OW27181   0.954   1.717  16.293 -0.3970  0.0553 -0.1844
 5240SOL    HW127182   0.917   1.784  16.235  0.2552 -0.6121 -1.3678
 5240SOL    HW227183   1.048   1.733  16.288 -0.4078  0.2644  0.3489
 5241SOL     OW27184   3.137   0.330   2.617  0.4905  0.6531 -0.1982
 5241SOL    HW127185   3.092   0.253   2.583 -0.4215  1.3602 -0.5797
 5241SOL    HW227186   3.068   0.373   2.668  0.2344 -0.5977  0.5154
 5242SOL     OW27187   1.329   1.597   7.547 -0.4037 -0.3103  0.3615
 5242SOL    HW127188   1.349   1.610   7.455 -2.1885 -0.1789 -0.0090
 5242SOL    HW227189   1.337   1.682   7.589 -0.2196 -0.4020  0.5163
 5243SOL     OW27190   3.516   0.412   8.572 -0.2106  0.5410 -0.3648
 5243SOL    HW127191   3.599   0.420   8.525 -0.3528  2.7174 -0.2349
 5243SOL    HW227192   3.540   0.442   8.660  0.0962  1.0793 -0.6303
 5244SOL     OW27193   2.814   0.036   4.175 -0.0302 -0.1817  0.0595
 5244SOL    HW127194   2.722   0.008   4.181 -0.5979  1.3826 -1.7189
 5244SOL    HW227195   2.810   0.119   4.129 -2.7019  0.0886  0.7792
 5245SOL     OW27196   3.933   1.096   2.388  0.0080  0.2529 -0.0256
 5245SOL    HW127197   3.983   1.015   2.397 -1.7458 -0.4659  3.0930
 5245SOL    HW227198   3.967   1.133   2.306  2.6164 -0.3972  0.7633
 5246SOL     OW27199   2.772   0.653   2.555 -0.1437 -0.1897  0.2560
 5246SOL    HW127200   2.817   0.646   2.471  0.9085 -1.3170  0.9187
 5246SOL    HW227201   2.704   0.588   2.535 -0.5385  0.1452  0.5321
 5247SOL     OW27202   4.130   4.644   6.825 -0.2741 -0.7248 -0.1760
 5247SOL    HW127203   4.209   4.696   6.818  0.4621 -2.1291 -2.3850
 5247SOL    HW227204   4.114   4.621   6.734 -1.2129 -1.0726  0.0742
 5248SOL     OW27205   0.968   2.416   8.116  0.1871 -0.1974  0.4796
 5248SOL    HW127206   1.044   2.472   8.105  0.8210 -1.1123  0.2156
 5248SOL    HW227207   1.013   2.350   8.169  0.2026  0.6340  1.5081
 5249SOL     OW27208   4.629   2.491   7.819  0.1863  0.1811  0.4221
 5249SOL    HW127209   4.546   2.483   7.867  0.2721  2.7031  1.0025
 5249SOL    HW227210   4.603   2.435   7.746  1.1449 -1.8869  1.6876
 5250SOL     OW27211   1.203   3.248   5.765 -0.2967  0.0623  0.0106
 5250SOL    HW127212   1.118   3.286   5.786 -2.0464 -2.3441 -2.7636
 5250SOL    HW227213   1.238   3.313   5.705  0.2446  0.4764  0.7806
 5251SOL     OW27214   0.087   3.572   7.163 -0.1988 -0.1122  0.2261
 5251SOL    HW127215   0.033   3.575   7.242 -0.7831  1.5846 -0.2415
 5251SOL    HW227216   0.120   3.482   7.166  0.3990 -0.0048 -2.7279
 5252SOL     OW27217   2.298   2.379  12.730 -0.3967  0.1921  0.1533
 5252SOL    HW127218   2.270   2.454  12.782 -1.2590 -1.3056  1.8692
 5252SOL    HW227219   2.262   2.303  12.776  0.5090 -0.6794 -0.5694
 5253SOL     OW27220   0.090   0.048   5.026  0.4908  0.1371  0.2880
 5253SOL    HW127221   0.103   0.073   4.934 -1.8542 -2.5639 -0.7720
 5253SOL    HW227222   0.001   0.014   5.032  1.0127 -1.0084  1.5066
 5254SOL     OW27223   1.176   2.489   4.881 -0.1838  0.3107 -0.2479
 5254SOL    HW127224   1.165   2.455   4.792 -1.4951  2.5215 -0.9165
 5254SOL    HW227225   1.116   2.563   4.876  0.4926  0.8618 -0.1526
 5255SOL     OW27226   2.867   2.131   5.157  0.1936 -0.7884  0.3636
 5255SOL    HW127227   2.942   2.112   5.100  0.2666  0.0337  0.1848
 5255SOL    HW227228   2.847   2.206   5.101  2.4267 -1.0338 -0.7982
 5256SOL     OW27229   1.807   3.989  16.144  0.1550 -0.3524 -0.2481
 5256SOL    HW127230   1.730   4.029  16.103  0.3138 -1.8572 -2.0505
 5256SOL    HW227231   1.870   3.969  16.074  0.8035 -1.9088  0.7913
 5257SOL     OW27232   3.149   3.918  14.433 -0.0030  0.2314  0.1712
 5257SOL    HW127233   3.060   3.884  14.441  0.1863  0.0040  1.2441
 5257SOL    HW227234   3.177   3.886  14.347  0.2422  2.3170 -0.5458
 5258SOL     OW27235   1.231   0.785  13.375  0.1036  0.4495  0.5170
 5258SOL    HW127236   1.273   0.713  13.327 -2.3087  0.9493 -2.3558
 5258SOL    HW227237   1.221   0.761  13.467  1.4116 -0.6931  0.3644
 5259SOL     OW27238   1.920   3.182  14.416 -0.6234  0.0705  0.7647
 5259SOL    HW127239   1.852   3.243  14.391 -1.5868 -0.7434  1.3790
 5259SOL    HW227240   1.879   3.099  14.389  1.5681 -0.7424 -0.0569
 5260SOL     OW27241   1.700   2.460   0.939 -0.3322  0.0800  0.5128
 5260SOL    HW127242   1.790   2.427   0.942  1.3844  4.7916  0.6613
 5260SOL    HW227243   1.706   2.544   0.985 -0.4325 -0.4670  1.5295
 5261SOL     OW27244   4.486   4.524   6.758 -0.0807 -0.0967 -0.1489
 5261SOL    HW127245   4.400   4.489   6.779 -0.4922 -0.2720 -2.1362
 5261SOL    HW227246   4.496   4.467   6.682 -2.8720 -0.8656  0.0835
 5262SOL     OW27247   2.178   2.546  15.527  0.8258 -0.0113 -0.3228
 5262SOL    HW127248   2.083   2.532  15.525  0.5748  1.5286  0.5229
 5262SOL    HW227249   2.193   2.629  15.573 -0.4138 -1.6596  3.0351
 5263SOL     OW27250   3.711   1.792  12.501  0.1631  0.4095  0.7249
 5263SOL    HW127251   3.677   1.874  12.537 -0.6243  0.0615  0.7673
 5263SOL    HW227252   3.798   1.790  12.542 -0.2957  3.0008  1.8152
 5264SOL     OW27253   4.436   3.728  10.964  0.4627 -0.3611 -0.1423
 5264SOL    HW127254   4.493   3.753  11.036  0.5605  0.1847 -0.4098
 5264SOL    HW227255   4.463   3.636  10.971 -1.7211 -0.9695  0.2312
 5265SOL     OW27256   4.197   2.773  11.933 -0.2880 -0.1212  0.0918
 5265SOL    HW127257   4.154   2.857  11.916 -0.4010  0.1197  1.5751
 5265SOL    HW227258   4.120   2.717  11.930  0.9508 -1.8079 -0.3268
 5266SOL     OW27259   3.913   3.019  12.329 -0.2642  0.0638  0.6172
 5266SOL    HW127260   3.968   3.079  12.379 -0.9331  1.9597 -0.9144
 5266SOL    HW227261   3.953   3.040  12.244 -1.0935  0.9947  0.4519
 5267SOL     OW27262   2.558   3.341   7.442  0.3358  0.2887 -0.1266
 5267SOL    HW127263   2.639   3.378   7.479  1.1909 -0.6573 -1.0656
 5267SOL    HW227264   2.583   3.260   7.397 -0.3925  0.2944 -0.5366
 5268SOL     OW27265   3.639   2.560   9.826  0.2055 -0.5550  0.4560
 5268SOL    HW127266   3.717   2.507   9.810  0.9554 -0.2590  3.1284
 5268SOL    HW227267   3.651   2.580   9.919 -1.4735  0.7466  0.3890
 5269SOL     OW27268   2.005   4.171   6.826 -0.2645  0.5949  0.2478
 5269SOL    HW127269   2.058   4.232   6.879  1.2494  1.6191 -2.4465
 5269SOL    HW227270   1.921   4.176   6.871  0.3547 -1.3216  1.6135
 5270SOL     OW27271   4.480   3.306  11.850  0.5230 -0.1817 -0.2869
 5270SOL    HW127272   4.563   3.336  11.887  1.3540 -1.6239 -0.9871
 5270SOL    HW227273   4.454   3.378  11.792  2.4993  0.0574 -0.8758
 5271SOL     OW27274   1.595   4.310  11.679 -0.8332  0.1903 -0.1124
 5271SOL    HW127275   1.683   4.283  11.651  0.2194  1.3165  2.0949
 5271SOL    HW227276   1.594   4.402  11.651 -2.8879  0.2980  0.3779
 5272SOL     OW27277   2.045   0.015   8.205 -0.1210  0.6184 -0.3931
 5272SOL    HW127278   1.969   0.071   8.191 -0.7868 -0.1711  0.0104
 5272SOL    HW227279   2.100   0.038   8.130 -0.3300 -0.9281 -1.0221
 5273SOL     OW27280   1.396   3.028   3.680  0.2862 -0.6989  0.0717
 5273SOL    HW127281   1.438   2.954   3.724 -0.5273 -1.4380 -0.3933
 5273SOL    HW227282   1.395   3.088   3.755  0.0963 -0.4185 -0.1577
 5274SOL     OW27283   2.016   0.978   5.519  0.0721 -0.4412 -0.0482
 5274SOL    HW127284   1.992   0.893   5.483 -0.6823  0.0570 -0.7366
 5274SOL    HW227285   2.109   0.969   5.539 -0.3439 -1.8356  1.2734
 5275SOL     OW27286   4.275   1.205  13.397  0.0930  0.3972  0.4520
 5275SOL    HW127287   4.364   1.183  13.372 -0.5627 -1.3230 -0.3741
 5275SOL    HW227288   4.295   1.296  13.418 -1.5191  0.8087  0.2554
 5276SOL     OW27289   1.707   2.681   1.507  0.0074  0.2194  0.5832
 5276SOL    HW127290   1.705   2.611   1.443  1.1674  1.5075 -0.8773
 5276SOL    HW227291   1.719   2.755   1.447  1.5445 -1.3989 -1.0993
 5277SOL     OW27292   1.050   0.787   0.592 -0.1685 -0.1520 -0.4371
 5277SOL    HW127293   1.119   0.822   0.536  0.2269  0.4457  0.4283
 5277SOL    HW227294   1.050   0.696   0.562  0.8170 -0.0212 -0.8515
 5278SOL     OW27295   2.960   3.218   5.076 -0.1897 -0.4595  0.4746
 5278SOL    HW127296   2.920   3.214   5.163 -0.5313  0.3372  0.3509
 5278SOL    HW227297   3.012   3.138   5.073 -0.7656 -0.7652 -1.1758
 5279SOL     OW27298   1.651   0.107   9.176  0.1675  0.6568 -0.3004
 5279SOL    HW127299   1.705   0.034   9.208 -0.6861 -0.0195 -0.3876
 5279SOL    HW227300   1.571   0.056   9.159  0.6860 -0.7857  1.5321
 5280SOL     OW27301   3.315   2.317   2.815  0.5068  0.1278 -0.4310
 5280SOL    HW127302   3.308   2.296   2.722  0.2731  3.4728 -1.1892
 5280SOL    HW227303   3.276   2.404   2.825 -0.1119 -0.1946 -0.0634
 5281SOL     OW27304   2.691   0.704  16.266 -0.0532  0.2106  0.3602
 5281SOL    HW127305   2.629   0.715  16.338 -1.1838  1.3335 -0.8024
 5281SOL    HW227306   2.652   0.634  16.213 -1.2639  1.0923  0.1028
 5282SOL     OW27307   1.843   0.607  17.688 -0.4116 -0.7440  0.3908
 5282SOL    HW127308   1.882   0.540   0.053  0.2528 -0.7978 -0.1329
 5282SOL    HW227309   1.752   0.591   0.021 -1.1128  0.1546 -1.5712
 5283SOL     OW27310   3.339   1.269   5.275 -0.4188 -0.0276 -0.5304
 5283SOL    HW127311   3.246   1.254   5.260 -0.4608 -0.3493  0.0643
 5283SOL    HW227312   3.357   1.345   5.219  0.5988 -0.6778 -1.0898
 5284SOL     OW27313   4.197   1.540   9.897  0.7010  0.6117  0.9940
 5284SOL    HW127314   4.187   1.527   9.991 -0.5745 -3.7030  0.2528
 5284SOL    HW227315   4.116   1.584   9.872  1.2013  0.8188 -0.2848
 5285SOL     OW27316   0.051   3.679   4.583 -0.4867  0.7965 -0.0620
 5285SOL    HW127317   4.687   3.715   4.604  0.0300  0.3710  2.8762
 5285SOL    HW227318   0.097   3.740   4.641  0.6331 -0.4090  0.3007
 5286SOL     OW27319   3.896   3.786   4.435  0.1789 -0.4185 -0.2280
 5286SOL    HW127320   3.817   3.732   4.423 -0.6685  0.4903  1.3465
 5286SOL    HW227321   3.883   3.849   4.506  2.5235  0.1686 -0.3250
 5287SOL     OW27322   2.531   2.759   7.470  0.4291  0.9608 -0.1765
 5287SOL    HW127323   2.528   2.664   7.475 -0.2615  0.9298 -1.2386
 5287SOL    HW227324   2.520   2.775   7.564  0.3441 -3.2674  0.5122
 5288SOL     OW27325   4.533   4.195  12.861  0.5197 -0.1748  0.1343
 5288SOL    HW127326   4.492   4.193  12.775  0.3876  1.7431  0.1471
 5288SOL    HW227327   4.504   4.111  12.895  0.0502  0.0111  0.1974
 5289SOL     OW27328   2.881   0.781  13.710 -0.0255 -0.0629 -0.2996
 5289SOL    HW127329   2.810   0.793  13.647 -0.2110  2.4473  0.3819
 5289SOL    HW227330   2.911   0.692  13.692  2.9715  1.1849 -1.5079
 5290SOL     OW27331   1.917   2.243   2.296  0.4515  0.3118  0.7077
 5290SOL    HW127332   1.825   2.270   2.296  0.1020 -0.8474  2.0677
 5290SOL    HW227333   1.902   2.181   2.224  1.7429 -0.4835  1.1351
 5291SOL     OW27334   0.369   3.034   9.107 -0.1263 -0.4825 -0.1675
 5291SOL    HW127335   0.374   3.076   9.193 -2.1000 -0.5146 -0.0234
 5291SOL    HW227336   0.277   3.035   9.080  0.7029 -0.2662 -2.8994
 5292SOL     OW27337   2.927   0.264   8.543  0.1704 -0.1817 -0.0897
 5292SOL    HW127338   2.868   0.235   8.473  1.8411 -1.8972 -0.7959
 5292SOL    HW227339   2.966   0.341   8.503  2.2561 -1.6699 -0.9331
 5293SOL     OW27340   4.468   0.172  12.076 -0.1327  0.7031  0.2585
 5293SOL    HW127341   4.382   0.129  12.077  0.6466 -0.7799  2.6507
 5293SOL    HW227342   4.502   0.143  12.161  1.5233  0.8203 -0.3789
 5294SOL     OW27343   2.560   4.525   3.920 -0.0228 -0.3434 -0.3738
 5294SOL    HW127344   2.615   4.478   3.858  2.1504  1.8523 -0.1337
 5294SOL    HW227345   2.495   4.460   3.943  0.7591 -0.1354  2.4897
 5295SOL     OW27346   0.272   1.827   2.696 -0.2724  0.0792  0.0080
 5295SOL    HW127347   0.236   1.769   2.763 -1.6259  0.5995 -0.2706
 5295SOL    HW227348   0.362   1.797   2.705 -0.1898  1.1510  2.6537
 5296SOL     OW27349   3.684   4.088   3.354 -0.4546 -0.2319  0.0541
 5296SOL    HW127350   3.778   4.080   3.336 -0.5491 -0.3344 -0.4105
 5296SOL    HW227351   3.651   3.999   3.356  1.6853 -0.9825  2.1258
 5297SOL     OW27352   3.468   3.158   6.558 -0.5492 -0.4878  0.2688
 5297SOL    HW127353   3.390   3.178   6.506  0.5896  1.0422 -0.8253
 5297SOL    HW227354   3.536   3.200   6.506  0.7702 -1.9668  0.7942
 5298SOL     OW27355   0.503   1.348   9.070 -0.5934  0.1798  0.6565
 5298SOL    HW127356   0.490   1.274   9.128 -0.0356  0.1728  0.7726
 5298SOL    HW227357   0.503   1.424   9.128 -0.1069 -0.8464  1.9879
 5299SOL     OW27358   4.127   3.614   2.671 -0.5159  0.5134  0.1138
 5299SOL    HW127359   4.102   3.522   2.668  1.1771  0.0891 -1.0174
 5299SOL    HW227360   4.188   3.608   2.745  0.7171 -0.6821 -1.0148
 5300SOL     OW27361   3.820   3.519   6.183 -0.1567  0.1222 -0.0490
 5300SOL    HW127362   3.768   3.468   6.122  0.7647  1.6588 -2.1134
 5300SOL    HW227363   3.833   3.450   6.249  3.5477 -0.2920 -1.1674
 5301SOL     OW27364   3.289   0.118   6.056  0.0644 -0.4386 -0.0001
 5301SOL    HW127365   3.263   0.094   6.145  0.5363 -2.3396 -0.3798
 5301SOL    HW227366   3.252   0.206   6.047 -0.6952 -0.6286  1.1274
 5302SOL     OW27367   3.847   3.835   5.628 -0.0503 -0.3906  0.2947
 5302SOL    HW127368   3.911   3.785   5.679 -0.4129 -1.4729 -0.3079
 5302SOL    HW227369   3.856   3.924   5.662 -0.8656  0.8085 -2.6245
 5303SOL     OW27370   2.132   2.922   3.343 -0.6657  0.2360 -0.2279
 5303SOL    HW127371   2.062   2.868   3.305 -0.5312 -0.3898  0.4335
 5303SOL    HW227372   2.097   2.932   3.431 -2.4587 -0.7221 -0.8190
 5304SOL     OW27373   0.067   4.541   3.275 -0.7827  0.0430  0.1063
 5304SOL    HW127374   4.719   4.592   3.235 -3.6503 -2.8816  1.4066
 5304SOL    HW227375   0.024   4.457   3.289 -0.3426 -0.4234 -1.2985
 5305SOL     OW27376   4.306   0.420   4.061  0.3618  0.1396 -0.0717
 5305SOL    HW127377   4.294   0.341   4.007 -0.5480  0.3953 -0.2382
 5305SOL    HW227378   4.230   0.466   4.026 -0.7872 -0.7021  1.3067
 5306SOL     OW27379   1.155   2.220   6.227  0.5976 -0.1343  0.0643
 5306SOL    HW127380   1.246   2.199   6.246  0.5143  0.0580  0.7005
 5306SOL    HW227381   1.119   2.132   6.215 -1.0512  0.8393 -2.1782
 5307SOL     OW27382   4.706   1.348   0.483  0.1950 -0.6147 -0.0007
 5307SOL    HW127383   0.009   1.360   0.574 -0.6638  0.8591  0.0370
 5307SOL    HW227384   0.032   1.417   0.437  2.2189 -1.9615  0.1004
 5308SOL     OW27385   1.106   1.233   7.446  0.1646 -0.4350 -0.0323
 5308SOL    HW127386   1.067   1.151   7.416  1.0647 -1.5275  1.7618
 5308SOL    HW227387   1.035   1.296   7.435  1.1272  0.2671 -2.0052
 5309SOL     OW27388   2.179   0.483   0.104  0.2532 -0.2735 -0.3983
 5309SOL    HW127389   2.265   0.499   0.065  0.0213  2.2449  0.1353
 5309SOL    HW227390   2.139   0.490   0.018 -0.7520 -0.9028  0.0168
 5310SOL     OW27391   0.976   0.822  12.909 -0.1852  0.5110 -0.4814
 5310SOL    HW127392   1.013   0.803  12.995  1.2306 -0.4532 -1.2981
 5310SOL    HW227393   1.053   0.852  12.860  0.5264 -1.6812 -0.7000
 5311SOL     OW27394   0.816   0.643  16.208 -0.3909 -0.4083 -0.0631
 5311SOL    HW127395   0.794   0.664  16.117  1.3652 -0.5546 -0.5098
 5311SOL    HW227396   0.762   0.706  16.256  0.8943 -0.9143  1.9864
 5312SOL     OW27397   0.498   1.987   8.315  0.1119 -0.1764 -0.7850
 5312SOL    HW127398   0.526   1.978   8.406 -1.4711 -1.4782 -0.4412
 5312SOL    HW227399   0.538   1.909   8.278  2.0194  0.0811  0.6580
 5313SOL     OW27400   4.482   1.023   5.940 -0.4821  0.1061 -0.1909
 5313SOL    HW127401   4.387   1.034   5.940 -0.5746 -0.7586 -0.2322
 5313SOL    HW227402   4.494   0.958   5.871  1.9788  0.5846 -0.2170
 5314SOL     OW27403   1.373   4.221  16.629 -0.7042  0.2966  0.0621
 5314SOL    HW127404   1.319   4.261  16.698  0.4980 -1.1734  1.8532
 5314SOL    HW227405   1.463   4.216  16.661 -0.5344 -0.2153 -0.4987
 5315SOL     OW27406   2.815   0.876   1.238  0.0308 -0.0437 -0.0426
 5315SOL    HW127407   2.774   0.915   1.315 -2.4809  0.2011 -1.5035
 5315SOL    HW227408   2.745   0.813   1.218  0.7604 -0.8017 -0.2108
 5316SOL     OW27409   0.410   0.578  12.991  0.2546 -0.2832  0.5034
 5316SOL    HW127410   0.372   0.491  12.983 -1.1194  0.3094  0.4848
 5316SOL    HW227411   0.501   0.560  13.015 -0.2622  0.3262  2.9237
 5317SOL     OW27412   0.534   2.769   3.881 -0.3703  0.2831  0.7579
 5317SOL    HW127413   0.506   2.709   3.949 -0.8740 -1.9165 -1.3835
 5317SOL    HW227414   0.572   2.843   3.929  0.4379  1.3134 -1.4622
 5318SOL     OW27415   4.648   3.783   1.264 -0.3637 -0.4517  0.5479
 5318SOL    HW127416   4.608   3.706   1.304  1.0667 -0.6885  1.5512
 5318SOL    HW227417   0.019   3.775   1.282 -0.4164  0.0443  1.0173
 5319SOL     OW27418   3.905   3.597   0.255 -0.8168 -0.0850 -0.2309
 5319SOL    HW127419   3.971   3.532   0.278 -0.4223  0.1846 -0.5828
 5319SOL    HW227420   3.861   3.539   0.193  3.6047 -0.0603 -3.3749
 5320SOL     OW27421   2.189   2.176   8.521  0.3247  0.3136  0.0983
 5320SOL    HW127422   2.131   2.150   8.449 -1.1865 -0.5995  1.6214
 5320SOL    HW227423   2.178   2.271   8.520 -0.4057  0.2658  2.1710
 5321SOL     OW27424   1.416   3.107   4.727  0.1732 -0.2005  0.3357
 5321SOL    HW127425   1.464   3.174   4.678  1.6175  0.0455  2.1112
 5321SOL    HW227426   1.488   3.075   4.781 -3.1054 -1.6949  3.8282
 5322SOL     OW27427   0.963   3.988   2.797 -0.3146 -0.4802 -0.4471
 5322SOL    HW127428   0.998   4.065   2.751 -0.7851  0.4059  0.6660
 5322SOL    HW227429   0.870   4.007   2.801 -0.9365 -3.9440  0.7818
 5323SOL     OW27430   3.168   2.945   3.710  0.5859 -0.5541 -0.2050
 5323SOL    HW127431   3.234   3.011   3.690 -1.5716  1.7653  0.3171
 5323SOL    HW227432   3.135   2.925   3.623  1.9004  0.6479 -0.9680
 5324SOL     OW27433   4.378   4.182   9.767 -0.2010  0.2764  0.3812
 5324SOL    HW127434   4.331   4.130   9.831 -2.3912  0.3306 -1.1823
 5324SOL    HW227435   4.318   4.194   9.693 -0.2861  1.5760  0.6480
 5325SOL     OW27436   3.129   3.937   3.243  0.4374 -0.1160 -0.0453
 5325SOL    HW127437   3.138   3.878   3.317 -0.6868 -2.5251 -1.8144
 5325SOL    HW227438   3.038   3.918   3.219  0.6587 -1.6186  0.3223
 5326SOL     OW27439   0.715   3.271   4.277  0.2209  0.2575 -0.2636
 5326SOL    HW127440   0.756   3.215   4.211 -1.4150 -0.5500 -0.5996
 5326SOL    HW227441   0.671   3.337   4.222  1.1845  0.5886 -0.6290
 5327SOL     OW27442   2.209   4.309   5.553 -0.5196 -0.2872  0.1538
 5327SOL    HW127443   2.286   4.295   5.608 -0.7663  1.2886  0.9058
 5327SOL    HW227444   2.154   4.347   5.622  0.3652 -1.0833  1.3128
 5328SOL     OW27445   3.396   2.627   1.341  0.4965  0.1127 -0.2601
 5328SOL    HW127446   3.340   2.697   1.373  0.3072 -0.3008  0.3234
 5328SOL    HW227447   3.337   2.587   1.277 -1.0740  0.3343  1.0260
 5329SOL     OW27448   0.978   1.479  15.761 -0.6129  0.1577  0.4242
 5329SOL    HW127449   0.995   1.531  15.840  0.2806 -0.1056  0.4073
 5329SOL    HW227450   1.007   1.537  15.691  2.7771 -2.5815 -0.4181
 5330SOL     OW27451   2.447   1.529   1.957 -0.2930 -0.1219  0.2414
 5330SOL    HW127452   2.389   1.606   1.951 -0.7312 -0.4506  0.2280
 5330SOL    HW227453   2.388   1.454   1.960  1.4159 -1.4219  0.9610
 5331SOL     OW27454   4.056   4.027   5.435 -0.2304  0.5896  0.2164
 5331SOL    HW127455   4.002   4.105   5.444  0.3128  0.7404  2.2768
 5331SOL    HW227456   4.148   4.049   5.454 -0.0336  1.1470 -1.3866
 5332SOL     OW27457   0.058   0.653   4.989 -0.5309 -0.1103 -0.5087
 5332SOL    HW127458   0.089   0.569   5.022  1.3392  0.4568 -0.7871
 5332SOL    HW227459   4.701   0.664   5.042 -0.7171  2.4996 -1.2872
 5333SOL     OW27460   2.937   3.602   8.222  0.1072  0.0861  0.0146
 5333SOL    HW127461   2.991   3.671   8.261  2.6416 -1.2939 -1.0293
 5333SOL    HW227462   2.848   3.638   8.224  0.3422  0.7051 -0.8945
 5334SOL     OW27463   1.587   0.839   4.552  0.1174 -0.2545  0.0822
 5334SOL    HW127464   1.508   0.805   4.510  0.3082 -1.2200  0.5215
 5334SOL    HW227465   1.623   0.875   4.471  1.8768 -0.0513  0.9619
 5335SOL     OW27466   0.953   0.273   6.804  0.4179  0.0827 -0.4958
 5335SOL    HW127467   0.860   0.254   6.792  0.8396 -2.0322 -0.4954
 5335SOL    HW227468   0.955   0.367   6.823  0.4878  0.5919 -3.1438
 5336SOL     OW27469   0.369   2.001  14.200 -0.1607  0.1592  0.1449
 5336SOL    HW127470   0.376   1.929  14.261  1.1891 -0.4753 -0.7608
 5336SOL    HW227471   0.303   2.058  14.240 -0.2353 -0.8606  1.4461
 5337SOL     OW27472   2.815   0.860   2.213 -0.3625 -0.0613 -0.4334
 5337SOL    HW127473   2.734   0.816   2.188 -2.5789  2.1148  3.0292
 5337SOL    HW227474   2.812   0.924   2.142  0.5403  1.3922  0.8343
 5338SOL     OW27475   0.209   2.538  12.810 -0.1836 -1.1084  0.3568
 5338SOL    HW127476   0.130   2.517  12.860 -0.5215 -1.0968 -0.1754
 5338SOL    HW227477   0.268   2.545  12.885  0.4679 -0.2775 -0.2228
 5339SOL     OW27478   0.210   4.630   5.475  0.1934  0.3138 -0.1967
 5339SOL    HW127479   0.282   4.606   5.533  0.6060  0.1927 -0.7561
 5339SOL    HW227480   0.249   4.631   5.387  1.7193 -0.4964  0.4646
 5340SOL     OW27481   0.857   2.369   7.555 -0.2344 -0.3315 -0.4146
 5340SOL    HW127482   0.772   2.390   7.516  1.2435  0.1235 -3.3566
 5340SOL    HW227483   0.850   2.275   7.571 -0.4106 -0.3102 -0.3580
 5341SOL     OW27484   0.580   3.995  14.823  0.3317 -0.3429 -0.2456
 5341SOL    HW127485   0.575   4.090  14.832  2.8836 -0.5754  3.7455
 5341SOL    HW227486   0.673   3.973  14.811  0.8046  1.8063 -0.5712
 5342SOL     OW27487   1.208   1.072   8.710 -0.0715 -0.3449  0.0038
 5342SOL    HW127488   1.113   1.067   8.721  0.0656  0.2099  1.4789
 5342SOL    HW227489   1.223   1.165   8.694  1.1610 -1.0309 -2.6942
 5343SOL     OW27490   0.294   0.344   2.416 -0.0447  0.4206 -0.2822
 5343SOL    HW127491   0.291   0.438   2.399  0.5293  0.0457 -2.5097
 5343SOL    HW227492   0.373   0.333   2.469  1.3210  0.5323 -2.2795
 5344SOL     OW27493   3.220   0.412   3.602 -0.2638  0.0926  0.4159
 5344SOL    HW127494   3.176   0.328   3.585 -3.2444  1.9548 -1.1141
 5344SOL    HW227495   3.267   0.401   3.685  0.0850 -1.3749  0.0220
 5345SOL     OW27496   3.450   0.225  10.704 -0.2126  0.6555  0.0799
 5345SOL    HW127497   3.451   0.289  10.633  0.2938  1.2083  0.5752
 5345SOL    HW227498   3.372   0.244  10.756 -0.0357 -1.6863  1.2338
 5346SOL     OW27499   2.504   2.155   4.781 -0.3336  0.2438  0.3271
 5346SOL    HW127500   2.595   2.126   4.785  0.1411  2.0541  2.7604
 5346SOL    HW227501   2.463   2.114   4.857  0.1782 -1.0696 -0.1014
 5347SOL     OW27502   1.936   4.074   9.438  0.5460 -0.0059  0.2168
 5347SOL    HW127503   2.011   4.126   9.410  0.5439  0.4889  1.1240
 5347SOL    HW227504   1.869   4.098   9.374  1.4319  0.0849 -0.6829
 5348SOL     OW27505   4.008   4.297   5.484 -0.2933  0.0686 -0.2337
 5348SOL    HW127506   3.949   4.356   5.436  0.4803  0.2036 -1.0284
 5348SOL    HW227507   4.033   4.353   5.558 -0.1024  0.8354 -0.8821
 5349SOL     OW27508   3.551   4.637   2.271  0.6295  0.6470  0.4596
 5349SOL    HW127509   3.578   4.679   2.353 -0.2366  2.2294 -0.0673
 5349SOL    HW227510   3.574   4.547   2.295 -1.1295  0.4967  1.5541
 5350SOL     OW27511   3.274   3.414  11.108 -0.0216 -0.0392  0.1527
 5350SOL    HW127512   3.193   3.380  11.147 -0.4664 -0.4102 -1.0886
 5350SOL    HW227513   3.305   3.481  11.169  0.8725  0.8488 -1.2805
 5351SOL     OW27514   2.486   0.663   4.740  0.1024 -0.1566  0.4723
 5351SOL    HW127515   2.456   0.754   4.729 -0.1067 -0.4231 -1.1669
 5351SOL    HW227516   2.567   0.664   4.690 -1.7621  0.1523 -2.5657
 5352SOL     OW27517   3.514   3.245  11.110  0.3742 -0.8700  0.3480
 5352SOL    HW127518   3.595   3.295  11.105  0.1340 -0.4382  0.7593
 5352SOL    HW227519   3.452   3.317  11.124  0.3305 -0.8450  0.0072
 5353SOL     OW27520   2.503   1.918   2.657  0.6367 -0.4093  0.3104
 5353SOL    HW127521   2.423   1.866   2.652 -0.4435  1.4584 -2.1045
 5353SOL    HW227522   2.467   1.983   2.596  0.8865 -0.7673 -0.2292
 5354SOL     OW27523   1.913   2.937   0.303 -0.1066 -0.2401 -0.0209
 5354SOL    HW127524   1.836   2.885   0.278 -0.9106  0.6991  0.5381
 5354SOL    HW227525   1.982   2.905   0.244 -0.4408 -2.2087  0.6732
 5355SOL     OW27526   0.335   4.217   8.862  0.3175  0.1585 -0.2016
 5355SOL    HW127527   0.242   4.210   8.840  1.2045 -1.7618 -3.4256
 5355SOL    HW227528   0.364   4.126   8.868 -3.9885 -1.3453 -1.5346
 5356SOL     OW27529   4.001   3.379  14.669 -0.4857 -0.0663  0.1724
 5356SOL    HW127530   4.017   3.413  14.581  0.8071 -2.7919 -0.6345
 5356SOL    HW227531   3.995   3.455  14.726 -2.4391 -0.1596  0.0976
 5357SOL     OW27532   0.051   4.205   8.936  0.0927  0.6073  0.1780
 5357SOL    HW127533   4.718   4.157   8.874  0.9934 -0.4718  0.2161
 5357SOL    HW227534   0.021   4.161   9.015  1.5842 -1.1800 -0.2709
 5358SOL     OW27535   1.594   2.691   5.197 -0.5884  0.2360  0.2626
 5358SOL    HW127536   1.579   2.603   5.162  2.3968  0.7700 -2.3285
 5358SOL    HW227537   1.687   2.695   5.219 -0.3080 -4.2480 -0.1849
 5359SOL     OW27538   3.412   2.293   8.005  0.6094 -0.3752 -0.1237
 5359SOL    HW127539   3.384   2.315   8.094  3.3263 -2.7306  1.2994
 5359SOL    HW227540   3.390   2.379   7.968 -0.5442 -0.5735  0.0997
 5360SOL     OW27541   2.577   3.544  10.448  0.3049  0.2178  0.4379
 5360SOL    HW127542   2.522   3.537  10.369  0.7370  0.0269  0.1542
 5360SOL    HW227543   2.524   3.605  10.500 -0.5966  0.1806 -0.4367
 5361SOL     OW27544   1.751   0.123  15.799  0.8945 -0.5527  0.9927
 5361SOL    HW127545   1.750   0.087  15.887 -1.2037  0.5763  1.4453
 5361SOL    HW227546   1.845   0.130  15.781  0.5622 -1.8690 -1.2983
 5362SOL     OW27547   0.948   0.966   4.687  1.1699  0.3009 -0.0433
 5362SOL    HW127548   0.880   0.970   4.754  2.1465  3.1806  0.7679
 5362SOL    HW227549   0.934   1.040   4.628  0.8718  0.1123 -0.2086
 5363SOL     OW27550   2.389   3.155   5.110 -0.1627 -0.1508  0.2095
 5363SOL    HW127551   2.340   3.075   5.132 -0.7243  0.4878  1.2796
 5363SOL    HW227552   2.375   3.192   5.197  0.1812 -3.1229  1.5349
 5364SOL     OW27553   4.468   0.481   6.458  0.0041 -0.4017 -0.2592
 5364SOL    HW127554   4.415   0.494   6.536 -1.7306  0.6798 -1.6133
 5364SOL    HW227555   4.433   0.547   6.398 -0.0740 -1.2418 -1.1327
 5365SOL     OW27556   2.336   2.240   5.340 -0.1699  0.0940  1.2032
 5365SOL    HW127557   2.426   2.208   5.343  0.5136  1.6227 -2.3662
 5365SOL    HW227558   2.320   2.267   5.249  1.4523 -1.3037  0.5151
 5366SOL     OW27559   0.884   3.450   9.552  0.2742 -0.7557  1.1409
 5366SOL    HW127560   0.917   3.531   9.591  0.6919 -0.8687  1.0158
 5366SOL    HW227561   0.968   3.407   9.546  1.3311  1.3506  0.7006
 5367SOL     OW27562   3.253   2.904   8.043 -0.2123 -0.4389 -0.0242
 5367SOL    HW127563   3.348   2.903   8.051 -0.2034  0.5835 -0.0478
 5367SOL    HW227564   3.237   2.943   7.957  2.2619  0.1845 -0.1851
 5368SOL     OW27565   1.702   2.975  16.204 -0.1613 -0.1121  0.2903
 5368SOL    HW127566   1.780   2.920  16.214  0.7650  1.4642  1.9271
 5368SOL    HW227567   1.667   2.930  16.128  1.0646  0.2895 -0.5263
 5369SOL     OW27568   1.832   4.241   7.606 -0.0683 -0.2583  0.1235
 5369SOL    HW127569   1.850   4.326   7.647 -0.6011 -0.4328  0.7220
 5369SOL    HW227570   1.920   4.210   7.583  0.6109  0.9416  1.0628
 5370SOL     OW27571   0.418   3.456   0.545  0.0459  0.0216  0.1310
 5370SOL    HW127572   0.402   3.371   0.503 -2.9750  0.8097 -0.2784
 5370SOL    HW227573   0.369   3.441   0.625 -0.6089 -2.3070 -0.7070
 5371SOL     OW27574   4.240   0.803   5.366  0.2497  0.3656  0.0234
 5371SOL    HW127575   4.291   0.855   5.427 -0.4896 -1.2801  2.0387
 5371SOL    HW227576   4.253   0.863   5.292  0.8566  2.1289  1.5741
 5372SOL     OW27577   1.540   2.364   6.837 -0.1545 -0.0667  0.2688
 5372SOL    HW127578   1.491   2.422   6.780 -0.2329 -0.3132  0.0845
 5372SOL    HW227579   1.556   2.434   6.900  0.8003 -0.8470  0.9020
 5373SOL     OW27580   3.991   3.759  10.188  0.4628  0.6340  0.1881
 5373SOL    HW127581   3.940   3.721  10.259  1.7764 -4.0075 -1.3931
 5373SOL    HW227582   3.961   3.850  10.194 -1.0505  0.1396  0.1090
 5374SOL     OW27583   2.611   4.060   3.394  0.0244 -0.4024  0.3024
 5374SOL    HW127584   2.612   4.026   3.305  0.8910 -0.4286  0.3233
 5374SOL    HW227585   2.600   4.154   3.385  2.8344 -0.0528  0.6477
 5375SOL     OW27586   3.076   3.800   8.351 -0.0839  0.2778  0.0489
 5375SOL    HW127587   3.166   3.794   8.384  0.6791 -0.0319 -2.0550
 5375SOL    HW227588   3.089   3.874   8.291 -0.6704 -0.3883 -0.9118
 5376SOL     OW27589   3.750   0.197   8.585  0.3235 -0.2034 -0.1444
 5376SOL    HW127590   3.729   0.276   8.634 -2.3118 -0.4642 -0.8321
 5376SOL    HW227591   3.751   0.132   8.655 -2.2837  0.4959  0.5740
 5377SOL     OW27592   1.695   4.159  10.160 -0.4035  0.0617  0.6885
 5377SOL    HW127593   1.711   4.253  10.164  0.9933 -0.2211  2.0196
 5377SOL    HW227594   1.744   4.138  10.080 -1.1677 -3.2354  1.0644
 5378SOL     OW27595   1.513   0.628  15.560  0.5201 -0.6793 -0.0713
 5378SOL    HW127596   1.572   0.652  15.631 -0.8032  0.9306  0.4842
 5378SOL    HW227597   1.555   0.544  15.543  1.5273 -0.4947  1.5139
 5379SOL     OW27598   1.203   0.819   0.055  0.0176  0.6418  0.1068
 5379SOL    HW127599   1.121   0.824   0.005 -0.5874  1.2408  1.1680
 5379SOL    HW227600   1.200   0.731   0.094  1.2643  0.1273 -0.9407
 5380SOL     OW27601   0.181   1.111   4.801  0.5118 -0.0756  0.2668
 5380SOL    HW127602   0.208   1.026   4.836  1.5326 -0.0408 -0.4325
 5380SOL    HW227603   0.178   1.090   4.708 -1.9934 -2.1276  0.7987
 5381SOL     OW27604   1.281   1.416   3.031 -0.0386  0.1170 -0.5278
 5381SOL    HW127605   1.250   1.362   3.104 -0.6209 -1.9418 -2.3197
 5381SOL    HW227606   1.203   1.405   2.977 -0.3712  0.7981 -0.1957
 5382SOL     OW27607   4.579   0.432   7.216  0.5002  0.2294  0.0241
 5382SOL    HW127608   4.546   0.344   7.234  4.2654 -1.2557 -0.3347
 5382SOL    HW227609   4.536   0.481   7.286  0.2971 -0.1011  0.1288
 5383SOL     OW27610   4.079   2.250   3.375 -0.2638  0.6813  0.1587
 5383SOL    HW127611   4.029   2.331   3.388 -0.3937  0.5471  0.4811
 5383SOL    HW227612   4.018   2.186   3.338  1.2146  1.0092 -2.7827
 5384SOL     OW27613   2.454   3.090   9.335  0.4323 -0.0720  0.0336
 5384SOL    HW127614   2.369   3.048   9.341  0.1195  0.4523 -0.7721
 5384SOL    HW227615   2.502   3.061   9.413  0.3834  0.3138  0.2078
 5385SOL     OW27616   3.417   0.345   2.194 -0.3048 -0.7537 -0.1082
 5385SOL    HW127617   3.385   0.256   2.176 -1.9549 -0.4070  1.0705
 5385SOL    HW227618   3.348   0.408   2.174  1.5899  0.9406 -1.1818
 5386SOL     OW27619   1.180   3.492   3.416  0.5146  0.5853 -0.0023
 5386SOL    HW127620   1.090   3.460   3.405  1.3765 -2.1069  0.7587
 5386SOL    HW227621   1.234   3.463   3.343 -0.1064  2.2687 -1.1093
 5387SOL     OW27622   2.018   0.874  12.229  0.1260 -0.5778 -0.6364
 5387SOL    HW127623   2.100   0.895  12.184 -0.3200  0.8441 -0.8092
 5387SOL    HW227624   2.051   0.883  12.318 -2.8333 -1.7934  0.5722
 5388SOL     OW27625   2.076   1.730   0.823 -0.0729 -0.3141  0.4106
 5388SOL    HW127626   2.153   1.777   0.792 -0.2102 -1.5529 -1.7908
 5388SOL    HW227627   2.076   1.639   0.796 -0.1070  0.0540 -0.8371
 5389SOL     OW27628   2.955   3.900   7.239 -0.1093 -0.5048  0.4055
 5389SOL    HW127629   2.933   3.968   7.175 -0.7484  1.7542  3.0386
 5389SOL    HW227630   2.878   3.845   7.229  1.5605 -2.5057 -1.5500
 5390SOL     OW27631   4.122   2.554   0.673 -0.5344 -0.4234  0.1150
 5390SOL    HW127632   4.043   2.576   0.722 -1.4527  0.1268 -1.6082
 5390SOL    HW227633   4.150   2.479   0.727  2.0529  1.1932  0.9863
 5391SOL     OW27634   1.596   3.371   2.827 -0.2029 -0.1419  0.4800
 5391SOL    HW127635   1.510   3.402   2.856  1.0109  2.6187  1.0943
 5391SOL    HW227636   1.579   3.369   2.733  2.1891 -3.9058  0.1547
 5392SOL     OW27637   3.910   3.637   8.492  0.5307 -0.0683  0.4129
 5392SOL    HW127638   3.827   3.631   8.540 -0.0669 -2.7804 -0.9490
 5392SOL    HW227639   3.880   3.641   8.401 -0.9049 -1.4036  0.8338
 5393SOL     OW27640   3.105   3.733   8.691  0.0372 -0.4894 -0.1674
 5393SOL    HW127641   3.033   3.794   8.708  2.0736  1.4370  1.7403
 5393SOL    HW227642   3.065   3.647   8.701 -1.1569  0.2281  1.2620
 5394SOL     OW27643   0.440   2.456  12.414 -0.2856 -0.2726 -0.2287
 5394SOL    HW127644   0.520   2.410  12.388  0.1156 -0.5770  1.5274
 5394SOL    HW227645   0.395   2.464  12.330  0.7361  0.7389 -0.6676
 5395SOL     OW27646   2.641   1.218   4.912 -0.1417  0.3026 -0.0970
 5395SOL    HW127647   2.722   1.268   4.925 -0.4712  0.9820 -0.6839
 5395SOL    HW227648   2.650   1.142   4.969  0.2448 -0.0253 -0.5946
 5396SOL     OW27649   1.498   0.511   6.036 -0.2118 -0.0394 -0.0166
 5396SOL    HW127650   1.481   0.486   6.126  0.8380 -0.3689  0.0815
 5396SOL    HW227651   1.433   0.582   6.026 -1.4446 -1.2422 -0.5581
 5397SOL     OW27652   1.385   1.006   8.519  0.0685 -0.4681 -0.3080
 5397SOL    HW127653   1.320   1.021   8.451  0.2060  0.5821 -0.2137
 5397SOL    HW227654   1.338   1.028   8.599  0.4793  2.2581 -0.7958
 5398SOL     OW27655   0.129   4.552   7.336  0.7551 -0.1740  0.2553
 5398SOL    HW127656   0.083   4.474   7.366 -1.2904  0.6363 -0.7576
 5398SOL    HW227657   0.200   4.533   7.274  1.6424  0.6995  1.0064
 5399SOL     OW27658   2.558   1.241   7.598  0.1707  0.2477  0.4671
 5399SOL    HW127659   2.530   1.165   7.649 -1.4171  1.5550  1.5629
 5399SOL    HW227660   2.633   1.261   7.654  2.8151 -2.3075 -2.1566
 5400SOL     OW27661   3.720   4.079   2.994  0.1831  0.3751  0.2335
 5400SOL    HW127662   3.810   4.056   3.015  1.3144  1.7902 -3.0806
 5400SOL    HW227663   3.715   4.064   2.899 -2.4706 -0.8293  0.5384
 5401SOL     OW27664   2.282   0.373   1.509 -0.0432 -0.9902 -0.2813
 5401SOL    HW127665   2.252   0.299   1.458  0.6639 -1.6837  0.3128
 5401SOL    HW227666   2.355   0.400   1.454  1.3871 -0.8048  1.7131
 5402SOL     OW27667   1.101   2.366   8.856  0.2412  0.2259 -0.1900
 5402SOL    HW127668   1.071   2.441   8.805  0.0850  0.5357  0.3559
 5402SOL    HW227669   1.071   2.390   8.944  1.5549  1.3110 -0.0380
 5403SOL     OW27670   2.562   2.882   3.101 -0.0752  0.2904  0.4621
 5403SOL    HW127671   2.493   2.922   3.047 -2.5560 -2.0680  1.9137
 5403SOL    HW227672   2.615   2.961   3.107 -0.0700  0.1066  2.5401
 5404SOL     OW27673   4.046   1.840  13.356 -0.1325  0.1753 -0.1172
 5404SOL    HW127674   3.982   1.909  13.336 -0.0794 -0.3085 -1.9464
 5404SOL    HW227675   4.094   1.831  13.273  1.4775  0.8735  0.7501
 5405SOL     OW27676   2.871   4.428   1.739  0.3966  0.0765 -0.2716
 5405SOL    HW127677   2.897   4.366   1.807  0.1723  1.0272  0.6761
 5405SOL    HW227678   2.919   4.501   1.778 -0.3717 -0.5071  1.7524
 5406SOL     OW27679   4.184   1.067   8.234  0.8255  0.2283  0.7494
 5406SOL    HW127680   4.203   1.160   8.223  2.4573 -0.1341  0.6201
 5406SOL    HW227681   4.269   1.025   8.238  1.6102  1.4659 -2.5931
 5407SOL     OW27682   2.158   1.729   9.306 -0.7875  0.0553 -0.9409
 5407SOL    HW127683   2.127   1.809   9.265  1.5813  1.2530 -0.3889
 5407SOL    HW227684   2.184   1.766   9.391 -0.6798 -2.4039  0.1196
 5408SOL     OW27685   1.239   0.484   6.628  0.3076  0.0329 -0.1775
 5408SOL    HW127686   1.270   0.554   6.684 -0.4980 -0.2338  0.6012
 5408SOL    HW227687   1.315   0.427   6.618 -1.2270 -1.8010 -1.3723
 5409SOL     OW27688   0.618   2.502   6.642  0.2094 -0.2697  0.4282
 5409SOL    HW127689   0.710   2.493   6.618  0.2483  0.6962  0.2298
 5409SOL    HW227690   0.610   2.597   6.641 -1.8571 -0.4427 -0.8881
 5410SOL     OW27691   3.122   1.065   6.281 -0.1898 -0.8919  0.4142
 5410SOL    HW127692   3.171   1.097   6.356 -2.3102  3.7035 -0.2021
 5410SOL    HW227693   3.105   0.974   6.307 -1.1935 -0.1678  2.2794
 5411SOL     OW27694   2.087   2.741  15.072 -0.3051  0.6836 -0.8955
 5411SOL    HW127695   2.113   2.733  15.163 -0.4469 -2.7769 -1.1535
 5411SOL    HW227696   2.173   2.762  15.036  1.2458 -1.2567  1.7330
 5412SOL     OW27697   0.574   3.872   7.225 -0.4259 -0.1128 -0.2549
 5412SOL    HW127698   0.526   3.889   7.144  0.8564  0.6564 -0.8679
 5412SOL    HW227699   0.515   3.836   7.291 -3.0924 -0.2291 -2.7372
 5413SOL     OW27700   1.050   0.033   7.787  0.5222  0.1290 -0.5517
 5413SOL    HW127701   1.118   0.101   7.793 -1.8464  2.4115  0.3944
 5413SOL    HW227702   1.102   4.676   7.782  2.0965  1.1236 -0.2359
 5414SOL     OW27703   4.071   4.548   8.373  0.0173  0.1444 -0.1165
 5414SOL    HW127704   4.002   4.577   8.314  0.8829 -1.2898 -1.8591
 5414SOL    HW227705   4.101   4.626   8.419 -1.0688 -0.1569  1.0990
 5415SOL     OW27706   4.136   3.834  10.714 -0.4982  0.2455  0.2485
 5415SOL    HW127707   4.142   3.913  10.768  1.0764  0.2089  0.1480
 5415SOL    HW227708   4.047   3.804  10.730  0.4119 -2.0147  1.0814
 5416SOL     OW27709   2.659   0.556  16.610 -0.2857 -0.4812  0.0595
 5416SOL    HW127710   2.621   0.618  16.548  3.1702  0.7942 -0.7696
 5416SOL    HW227711   2.581   0.542  16.665 -1.0046 -0.8225 -1.0392
 5417SOL     OW27712   4.010   3.105  10.018 -0.2648  0.0699 -0.1221
 5417SOL    HW127713   3.957   3.157  10.078 -0.1079  0.7285 -0.5492
 5417SOL    HW227714   4.036   3.165   9.948  0.1760 -0.3567 -0.3252
 5418SOL     OW27715   3.576   1.952  12.908  0.0444  0.0857 -0.5237
 5418SOL    HW127716   3.623   1.940  12.990 -0.4534  1.2286 -0.0714
 5418SOL    HW227717   3.514   1.878  12.904 -2.3561  2.0728  0.0278
 5419SOL     OW27718   0.869   0.775   0.370 -0.1645 -1.0151  0.3352
 5419SOL    HW127719   0.854   0.686   0.338 -2.3800 -0.6372  0.3313
 5419SOL    HW227720   0.921   0.764   0.450 -0.2490  0.9019  0.6456
 5420SOL     OW27721   0.850   0.971   0.628 -0.5852  0.3225  0.0621
 5420SOL    HW127722   0.927   0.915   0.630  1.1384  2.7130 -0.2300
 5420SOL    HW227723   0.876   1.056   0.594 -1.0740  0.3893 -0.1377
 5421SOL     OW27724   4.439   3.356  13.696 -0.2600  0.6927  0.3013
 5421SOL    HW127725   4.487   3.431  13.731  2.0885 -0.3948 -0.5722
 5421SOL    HW227726   4.384   3.394  13.627  0.1421 -2.5360 -1.7957
 5422SOL     OW27727   3.930   2.925   3.460  0.1326 -0.0383  0.1345
 5422SOL    HW127728   3.846   2.963   3.435  1.8965  3.5525 -0.2845
 5422SOL    HW227729   3.947   2.870   3.383 -0.0695 -1.5455  1.1463
 5423SOL     OW27730   3.675   2.997  10.318  0.3143  0.4813  0.1886
 5423SOL    HW127731   3.737   3.017  10.389 -0.2526 -1.5614  1.2650
 5423SOL    HW227732   3.646   2.909  10.340  0.0342  0.6589  0.5440
 5424SOL     OW27733   4.660   3.955   5.282 -0.3805 -0.3321  0.0184
 5424SOL    HW127734   0.014   3.934   5.228 -0.7790 -1.3804 -0.1407
 5424SOL    HW227735   4.696   3.972   5.369  1.3265 -2.2266 -0.2989
 5425SOL     OW27736   2.870   2.038  16.356 -0.0489  0.5552  0.8029
 5425SOL    HW127737   2.929   2.112  16.345  1.5872 -1.1623 -2.0704
 5425SOL    HW227738   2.932   1.970  16.382  0.3745  1.1647  1.3741
 5426SOL     OW27739   0.227   4.550  10.477  0.1475  0.1833 -0.2140
 5426SOL    HW127740   0.317   4.569  10.502  0.5487 -1.2667 -0.6046
 5426SOL    HW227741   0.216   4.475  10.535  2.3080  0.5326  0.6346
 5427SOL     OW27742   0.721   4.287  15.893  0.6202 -0.3184  0.5339
 5427SOL    HW127743   0.788   4.285  15.824  0.5929 -1.2506  0.5418
 5427SOL    HW227744   0.690   4.197  15.902 -2.0927  0.6676  0.8468
 5428SOL     OW27745   2.504   4.169  10.982 -0.2191  0.5916  0.4700
 5428SOL    HW127746   2.582   4.218  10.957  0.1605 -0.1897  0.1225
 5428SOL    HW227747   2.536   4.081  11.003 -1.4446  0.3409  1.2941
 5429SOL     OW27748   1.785   1.210   4.416 -0.2878  0.2989 -0.3827
 5429SOL    HW127749   1.749   1.122   4.405 -0.4272  0.1748  1.0086
 5429SOL    HW227750   1.703   1.252   4.443 -0.7178  0.3404 -1.7268
 5430SOL     OW27751   1.047   3.778   8.251 -0.0544 -0.2315 -0.2243
 5430SOL    HW127752   1.080   3.866   8.238 -1.1024  0.4383  1.6190
 5430SOL    HW227753   1.101   3.732   8.186  3.7741  2.3949  1.0969
 5431SOL     OW27754   3.654   0.806   9.400 -0.0321  0.9807 -0.2587
 5431SOL    HW127755   3.659   0.747   9.324 -1.3540  0.1770  0.2702
 5431SOL    HW227756   3.642   0.887   9.351  1.1505 -0.8824 -3.6546
 5432SOL     OW27757   0.940   0.751   4.416  0.3542  0.4172  0.2902
 5432SOL    HW127758   0.912   0.662   4.435 -0.9547  0.6322 -0.6041
 5432SOL    HW227759   0.854   0.793   4.407 -0.8551 -2.5843 -2.0302
 5433SOL     OW27760   2.567   1.999   8.057  0.3336  0.1080 -0.5642
 5433SOL    HW127761   2.607   2.013   8.143 -3.2876  2.8440  0.6928
 5433SOL    HW227762   2.619   1.927   8.022 -0.7123 -1.3118  0.8005
 5434SOL     OW27763   2.814   2.598   1.658 -0.0286  0.0621 -0.4461
 5434SOL    HW127764   2.816   2.541   1.582 -0.3277 -2.4719  1.4394
 5434SOL    HW227765   2.876   2.669   1.639 -0.7350  0.9784  0.6884
 5435SOL     OW27766   4.546   3.271   4.247 -0.2503 -0.3084  0.4553
 5435SOL    HW127767   4.567   3.278   4.154 -1.1675 -0.9109  0.2021
 5435SOL    HW227768   4.456   3.239   4.242 -0.5541  0.7687 -0.7336
 5436SOL     OW27769   0.714   0.634   6.551  0.3949 -0.1553 -0.0078
 5436SOL    HW127770   0.660   0.563   6.517  0.4204 -0.4557  0.5942
 5436SOL    HW227771   0.795   0.584   6.564 -0.8326 -1.6859  1.6763
 5437SOL     OW27772   0.146   0.793   0.420  0.3547 -0.4137 -0.3315
 5437SOL    HW127773   0.235   0.794   0.386  0.8485  1.4121  1.0552
 5437SOL    HW227774   0.114   0.862   0.362  0.0569 -1.0956 -0.9969
 5438SOL     OW27775   0.975   0.888  11.805  0.2593  0.1414 -0.3830
 5438SOL    HW127776   0.931   0.972  11.815  2.3352  0.9725  1.7583
 5438SOL    HW227777   1.025   0.896  11.724  1.7798 -1.1641  0.4193
 5439SOL     OW27778   4.228   3.981   7.336  0.2046  0.2342 -0.3236
 5439SOL    HW127779   4.201   4.049   7.397 -2.8414 -0.5098 -0.8554
 5439SOL    HW227780   4.217   3.906   7.394  0.6880  1.1398  0.9356
 5440SOL     OW27781   0.872   2.725   9.988 -0.1276 -0.3295  0.1961
 5440SOL    HW127782   0.841   2.701   9.901  1.1934 -2.0014  0.1996
 5440SOL    HW227783   0.960   2.688   9.993  1.1351  2.0996 -4.2864
 5441SOL     OW27784   3.985   3.736  11.660  0.1151 -0.4247  0.8694
 5441SOL    HW127785   4.005   3.709  11.750 -0.8356  0.4872  1.3685
 5441SOL    HW227786   3.905   3.788  11.672  1.6483  1.4131  3.2327
 5442SOL     OW27787   3.363   2.197   8.289 -0.2115  0.7535 -0.1021
 5442SOL    HW127788   3.429   2.128   8.285 -1.9604 -0.8269 -1.1831
 5442SOL    HW227789   3.348   2.205   8.383 -0.9766 -1.8068 -0.0034
 5443SOL     OW27790   1.981   1.712   0.213 -0.3404 -0.2018  0.2407
 5443SOL    HW127791   2.051   1.680   0.270 -1.9133  0.8336  2.7316
 5443SOL    HW227792   2.031   1.731   0.133 -0.2855 -0.3418  0.2427
 5444SOL     OW27793   4.027   4.067  11.923 -0.0893  0.0392  0.3931
 5444SOL    HW127794   4.015   3.997  11.987 -1.8585  0.7303  0.8372
 5444SOL    HW227795   4.121   4.074  11.908 -0.3344  2.6903  0.1335
 5445SOL     OW27796   2.799   3.076  16.879  0.2976  0.9508 -0.3771
 5445SOL    HW127797   2.779   3.159  16.923 -0.8901 -1.0996  2.9763
 5445SOL    HW227798   2.835   3.018  16.946 -1.0238 -0.5223 -0.9508
 5446SOL     OW27799   2.159   0.221   5.808  0.0827  0.4649 -1.0051
 5446SOL    HW127800   2.252   0.229   5.828  0.1537 -1.2750 -0.6546
 5446SOL    HW227801   2.151   0.244   5.716  1.9366  4.1036 -0.2489
 5447SOL     OW27802   0.432   3.167   3.442 -0.0322  0.0504 -0.4630
 5447SOL    HW127803   0.431   3.140   3.534 -0.9581  0.0950 -0.4625
 5447SOL    HW227804   0.358   3.117   3.408  0.1158  1.0475 -2.2392
 5448SOL     OW27805   0.370   0.587   6.324  0.2811  0.4702 -0.1496
 5448SOL    HW127806   0.333   0.542   6.248 -0.0926 -1.4682  1.2044
 5448SOL    HW227807   0.404   0.668   6.286 -0.5328  0.8685 -0.0248
 5449SOL     OW27808   1.721   2.927   3.456 -1.1163  0.0271  0.1229
 5449SOL    HW127809   1.747   2.845   3.497  1.4895  2.1987  2.7911
 5449SOL    HW227810   1.633   2.902   3.428 -1.7097  1.5758  0.6182
 5450SOL     OW27811   2.950   4.141   2.587  0.3195 -1.2647 -0.1145
 5450SOL    HW127812   3.036   4.178   2.567  0.2108 -0.7270  0.4268
 5450SOL    HW227813   2.919   4.145   2.497 -0.2300  0.8214  0.1746
 5451SOL     OW27814   0.913   2.460   6.242 -0.6315  0.1165  0.1799
 5451SOL    HW127815   0.960   2.536   6.206  0.2085 -1.1016 -1.2974
 5451SOL    HW227816   0.823   2.467   6.210 -0.2457  3.6878 -0.1294
 5452SOL     OW27817   1.633   1.978   0.574 -0.0460  0.0647 -0.1918
 5452SOL    HW127818   1.657   1.886   0.578  0.8152  0.2898 -0.1912
 5452SOL    HW227819   1.605   2.012   0.659 -0.5294 -1.1640  0.1407
 5453SOL     OW27820   3.215   3.038   1.572 -0.3139 -0.4902  0.0865
 5453SOL    HW127821   3.223   3.115   1.516  0.4044 -0.3351  0.3993
 5453SOL    HW227822   3.120   3.037   1.577 -0.2459  2.5077  1.9645
 5454SOL     OW27823   0.502   0.070   2.697 -0.4599  0.7830 -0.1569
 5454SOL    HW127824   0.480   0.059   2.790  1.3347 -0.5247  0.1305
 5454SOL    HW227825   0.448   4.720   2.667 -1.3610  2.3655 -2.3678
 5455SOL     OW27826   0.088   0.087   8.662  0.5264 -0.1748  0.0755
 5455SOL    HW127827   0.180   0.072   8.685  0.3441 -0.6483  0.5124
 5455SOL    HW227828   0.107   0.120   8.574  0.0846 -0.3024 -0.0669
 5456SOL     OW27829   0.651   4.331   4.254 -0.3170 -0.1360 -0.1539
 5456SOL    HW127830   0.560   4.314   4.228 -0.1263 -0.1322 -0.8252
 5456SOL    HW227831   0.685   4.243   4.236 -0.5451 -0.1986 -0.2803
 5457SOL     OW27832   2.482   4.332  11.247 -0.4936 -0.2324 -0.0385
 5457SOL    HW127833   2.474   4.296  11.159 -1.6425 -0.2227  0.0620
 5457SOL    HW227834   2.572   4.364  11.256 -0.7724  0.7221 -0.6829
 5458SOL     OW27835   0.704   2.243  15.117  0.5467  0.1634 -0.3127
 5458SOL    HW127836   0.777   2.219  15.059  0.7306  3.0515 -1.2718
 5458SOL    HW227837   0.643   2.254  15.044 -0.7834  0.0252  0.7870
 5459SOL     OW27838   1.535   4.231   9.480 -0.0220 -0.0541  0.7805
 5459SOL    HW127839   1.559   4.235   9.388  0.4265 -0.5375  0.8808
 5459SOL    HW227840   1.543   4.321   9.513 -0.2871  0.2652 -0.0256
 5460SOL     OW27841   2.633   4.309   1.694 -0.5286  0.3064  0.3486
 5460SOL    HW127842   2.717   4.352   1.712  0.3854 -0.7845 -1.2467
 5460SOL    HW227843   2.607   4.352   1.613 -0.2890 -1.4270 -0.6673
 5461SOL     OW27844   3.840   0.141   4.540 -0.3724 -0.3811 -0.3107
 5461SOL    HW127845   3.796   0.212   4.493  0.0494 -0.5446 -0.9598
 5461SOL    HW227846   3.803   0.058   4.511 -0.6096 -1.1056  2.0748
 5462SOL     OW27847   0.204   2.519   6.904 -0.1307  0.4599 -0.0373
 5462SOL    HW127848   0.213   2.596   6.960  2.6425 -1.3197  1.9410
 5462SOL    HW227849   0.295   2.507   6.876 -0.2500 -0.6753  0.0417
 5463SOL     OW27850   3.326   2.167   3.424  0.3268  0.3171  0.5698
 5463SOL    HW127851   3.267   2.109   3.471  0.8071 -0.6438 -0.0129
 5463SOL    HW227852   3.355   2.230   3.491 -2.0099  0.3193  1.5644
 5464SOL     OW27853   0.085   0.929   3.753  0.3733 -0.3967 -0.0073
 5464SOL    HW127854   0.149   0.914   3.684  2.7720  1.3544  1.8466
 5464SOL    HW227855   0.019   0.865   3.724  0.6802 -0.1559 -1.2292
 5465SOL     OW27856   2.351   3.318   5.654 -0.2323 -0.3870 -0.3745
 5465SOL    HW127857   2.262   3.294   5.630 -1.0105  2.0112  0.0995
 5465SOL    HW227858   2.363   3.377   5.579 -0.3918  0.2085  0.0683
 5466SOL     OW27859   2.680   3.724   5.400 -0.1620 -0.1098 -0.0423
 5466SOL    HW127860   2.605   3.692   5.349  0.0802  0.2322 -0.6159
 5466SOL    HW227861   2.752   3.690   5.348  0.3278  0.6915  0.1071
 5467SOL     OW27862   2.416   4.099   2.081 -0.1001 -0.3232  0.5976
 5467SOL    HW127863   2.333   4.058   2.103 -1.0417  1.9336  1.1713
 5467SOL    HW227864   2.397   4.143   1.998 -1.1718  1.7317  1.9485
 5468SOL     OW27865   0.596   2.656   7.947 -0.1071  0.0033 -0.1252
 5468SOL    HW127866   0.574   2.570   7.910 -0.3271  1.2425 -2.9010
 5468SOL    HW227867   0.684   2.651   7.986  0.4219  1.0652 -1.1771
 5469SOL     OW27868   0.477   0.755   2.699 -0.7343  0.6465  0.5714
 5469SOL    HW127869   0.492   0.754   2.604 -0.9997 -1.0840  0.5345
 5469SOL    HW227870   0.414   0.825   2.711 -1.7274 -0.3111  0.9657
 5470SOL     OW27871   1.835   4.540   6.045  0.1045 -0.1405  0.2869
 5470SOL    HW127872   1.889   4.478   5.997 -1.5976 -1.1800 -0.2841
 5470SOL    HW227873   1.769   4.475   6.070  0.0641  0.8637  2.7952
 5471SOL     OW27874   3.310   2.895   2.504  0.2561 -0.1653  0.2689
 5471SOL    HW127875   3.400   2.901   2.537  1.9299 -0.9706 -4.2005
 5471SOL    HW227876   3.332   2.886   2.412 -1.5208 -0.0509 -0.1731
 5472SOL     OW27877   0.785   4.039   7.795 -0.3806 -0.3692 -0.4361
 5472SOL    HW127878   0.821   4.117   7.838 -0.7678  0.0734 -0.9147
 5472SOL    HW227879   0.718   4.015   7.859  0.0844  2.5629  1.1655
 5473SOL     OW27880   4.178   1.527   3.400 -0.1262  0.4449  0.2144
 5473SOL    HW127881   4.110   1.492   3.342  0.2578  2.6530 -1.5452
 5473SOL    HW227882   4.115   1.586   3.442 -1.3254 -1.3894  0.9914
 5474SOL     OW27883   1.939   2.716   3.243 -0.3478  0.0332 -0.0563
 5474SOL    HW127884   1.844   2.712   3.259 -0.2492 -0.0118  0.5240
 5474SOL    HW227885   1.941   2.757   3.157  1.6706  0.8082  0.3606
 5475SOL     OW27886   0.383   3.369   9.504 -0.2905  0.3451  0.4220
 5475SOL    HW127887   0.347   3.337   9.586 -0.5427  0.8688  0.5142
 5475SOL    HW227888   0.471   3.373   9.540 -0.5557  0.6223  1.0248
 5476SOL     OW27889   1.933   3.294  10.355  0.6633 -0.3955  0.3723
 5476SOL    HW127890   1.857   3.330  10.309  2.0310 -0.2335 -1.7638
 5476SOL    HW227891   1.896   3.290  10.444 -2.3698 -2.8106 -1.0136
 5477SOL     OW27892   0.986   2.097  15.183  0.1195 -0.2806  0.3828
 5477SOL    HW127893   0.944   2.067  15.102  0.1133  0.4553  0.1084
 5477SOL    HW227894   0.919   2.076  15.248 -1.1197 -0.7583 -1.0386
 5478SOL     OW27895   1.777   0.294   9.028 -0.8829 -0.7450 -0.1476
 5478SOL    HW127896   1.752   0.247   9.108 -0.5389  0.6155  0.7459
 5478SOL    HW227897   1.761   0.229   8.959 -0.2279  2.0126 -2.8813
 5479SOL     OW27898   3.926   1.430   4.334  0.0221 -0.3612 -0.2012
 5479SOL    HW127899   3.975   1.498   4.381 -1.4580  0.0706  0.7031
 5479SOL    HW227900   3.985   1.355   4.325  2.0776  1.2090  0.2109
 5480SOL     OW27901   4.207   1.370   7.269  0.0565 -0.3972 -0.6102
 5480SOL    HW127902   4.285   1.419   7.241  0.7399  0.5928  3.0419
 5480SOL    HW227903   4.242   1.302   7.327 -1.6781 -2.0562 -1.5160
 5481SOL     OW27904   3.069   2.210   5.640  0.2316 -0.5688  0.3554
 5481SOL    HW127905   3.009   2.168   5.702  0.8989 -2.2726 -0.1387
 5481SOL    HW227906   3.044   2.175   5.554 -1.0446 -2.7023  1.5950
 5482SOL     OW27907   3.255   1.641  12.698  0.0598  0.0801 -0.6456
 5482SOL    HW127908   3.223   1.571  12.641  1.0320 -0.0238 -1.0698
 5482SOL    HW227909   3.177   1.695  12.714  0.7068  0.4879  1.1265
 5483SOL     OW27910   4.176   3.997   8.846 -0.3849 -0.1653 -0.0697
 5483SOL    HW127911   4.226   4.030   8.772 -2.0025  0.6457 -0.8011
 5483SOL    HW227912   4.172   4.079   8.895 -0.1427  1.0704 -2.1192
 5484SOL     OW27913   2.027   4.080   2.722 -0.4515  0.0748 -0.1532
 5484SOL    HW127914   1.940   4.114   2.701 -2.1036 -2.3520  2.6963
 5484SOL    HW227915   2.080   4.159   2.731  0.8549 -0.7155 -0.9977
 5485SOL     OW27916   3.616   1.798   4.280  0.7255 -0.2580  0.7006
 5485SOL    HW127917   3.611   1.706   4.255 -2.9123 -0.1277  0.9093
 5485SOL    HW227918   3.660   1.796   4.365 -1.7149  0.4136  1.9625
 5486SOL     OW27919   4.635   4.294   9.696 -0.2993  0.6521  0.3185
 5486SOL    HW127920   4.641   4.266   9.605 -1.0607  2.0419 -0.1533
 5486SOL    HW227921   4.542   4.278   9.712 -0.9080  0.3792 -3.4436
 5487SOL     OW27922   1.524   2.185   8.084 -0.4590  0.4369  0.2201
 5487SOL    HW127923   1.565   2.101   8.106 -1.6091 -0.5254 -1.2595
 5487SOL    HW227924   1.582   2.248   8.127  1.0129  0.0257 -1.1321
 5488SOL     OW27925   4.082   4.049  10.876  0.4169  0.2678  0.2716
 5488SOL    HW127926   4.094   4.144  10.873  2.2975  0.0350  0.3616
 5488SOL    HW227927   4.101   4.038  10.969  1.1942 -1.7137 -0.1288
 5489SOL     OW27928   0.171   0.630   9.161  0.6550  0.0538 -0.2494
 5489SOL    HW127929   0.171   0.578   9.241  2.2260  0.0235 -0.2556
 5489SOL    HW227930   0.234   0.695   9.193  1.5426 -1.5210  1.2277
 5490SOL     OW27931   0.900   0.274  12.650  0.4311  0.6477 -0.9297
 5490SOL    HW127932   0.980   0.224  12.661  1.7813  2.8216 -0.8710
 5490SOL    HW227933   0.851   0.212  12.597  0.4546  0.1589 -0.3835
 5491SOL     OW27934   2.414   0.592  11.472  0.1894  0.0053  0.2069
 5491SOL    HW127935   2.327   0.574  11.437 -0.3285  0.3116  1.3374
 5491SOL    HW227936   2.437   0.661  11.409 -0.2168 -0.8535 -0.8973
 5492SOL     OW27937   2.503   1.976   0.873 -0.3621 -0.1629 -0.2775
 5492SOL    HW127938   2.561   2.045   0.903 -1.0110  1.4090 -2.6213
 5492SOL    HW227939   2.499   1.988   0.778 -1.9775 -2.0168 -0.4524
 5493SOL     OW27940   4.553   0.149   4.319 -0.1669  0.3886 -0.1392
 5493SOL    HW127941   4.634   0.101   4.338 -0.1646  0.6751  0.5557
 5493SOL    HW227942   4.533   0.125   4.228 -0.9393 -1.2635  0.4688
 5494SOL     OW27943   2.552   4.167  16.424  0.2543 -0.1528  0.2025
 5494SOL    HW127944   2.540   4.213  16.507 -0.3876  0.8507 -0.4485
 5494SOL    HW227945   2.506   4.223  16.362  1.5301 -1.6671 -2.1190
 5495SOL     OW27946   4.694   4.536   5.490 -0.1967  0.5114  0.4740
 5495SOL    HW127947   0.057   4.577   5.485  0.5325 -0.9078  1.3572
 5495SOL    HW227948   4.663   4.568   5.575 -0.2719 -3.5002  1.9627
 5496SOL     OW27949   4.629   1.571   5.126  0.3460  0.3312 -0.0233
 5496SOL    HW127950   4.703   1.560   5.066  0.4583 -1.3588  0.4239
 5496SOL    HW227951   4.604   1.483   5.153  0.3910 -0.0765 -1.2747
 5497SOL     OW27952   1.419   2.510   8.768  0.2178  0.0860 -0.2226
 5497SOL    HW127953   1.490   2.506   8.703  0.3851 -0.4288 -0.0059
 5497SOL    HW227954   1.476   2.461   8.827  2.0485  4.0724  1.3625
 5498SOL     OW27955   0.618   3.841  16.629  0.3387 -1.0539 -0.1666
 5498SOL    HW127956   0.638   3.772  16.692 -1.5011 -0.2248  1.3243
 5498SOL    HW227957   0.523   3.838  16.619  0.0774  1.2980  1.8484
 5499SOL     OW27958   0.481   1.809   9.052 -0.4962  0.0554  0.0904
 5499SOL    HW127959   0.564   1.831   9.008 -0.7053  2.8234  1.0456
 5499SOL    HW227960   0.425   1.871   9.005  1.1073  2.2731  1.0659
 5500SOL     OW27961   1.548   3.962  16.521 -0.3947 -0.8454  0.1618
 5500SOL    HW127962   1.509   3.982  16.436  1.0742 -0.2543 -0.3898
 5500SOL    HW227963   1.507   4.035  16.568 -2.7306 -1.4412 -0.9654
 5501SOL     OW27964   3.289   2.700   3.348  0.6820  0.3723 -0.4542
 5501SOL    HW127965   3.356   2.638   3.319  0.3670 -0.7514  1.2446
 5501SOL    HW227966   3.244   2.700   3.264  0.3078  0.0492 -0.2563
 5502SOL     OW27967   1.159   4.453   7.287 -0.0407  0.7006 -0.3460
 5502SOL    HW127968   1.074   4.424   7.254  0.7166 -0.6192 -1.0967
 5502SOL    HW227969   1.190   4.514   7.220 -1.0686  1.2096 -0.3540
 5503SOL     OW27970   3.966   2.418   0.239 -0.0971  0.2760 -0.1271
 5503SOL    HW127971   3.929   2.333   0.217  0.8901 -0.0381 -0.5493
 5503SOL    HW227972   4.029   2.402   0.309 -1.3260 -0.3022  0.8587
 5504SOL     OW27973   4.547   3.460   7.240 -0.3092  0.6595  0.3661
 5504SOL    HW127974   4.562   3.453   7.146  1.7270  1.1817  0.6489
 5504SOL    HW227975   4.592   3.379   7.264 -1.2621 -0.6522 -2.2492
 5505SOL     OW27976   1.557   1.495   0.511  0.6257  0.5291  0.0840
 5505SOL    HW127977   1.502   1.495   0.433  0.3829 -0.8662  0.2553
 5505SOL    HW227978   1.574   1.401   0.509  0.1406  0.4266  0.7660
 5506SOL     OW27979   3.015   0.670   3.975 -0.2936 -0.1138 -0.0672
 5506SOL    HW127980   2.929   0.686   4.015  0.0977 -3.6537  2.1357
 5506SOL    HW227981   3.065   0.742   4.014 -2.2093  1.3002 -0.2262
 5507SOL     OW27982   4.393   2.290  17.311  0.1625 -0.7792 -0.3230
 5507SOL    HW127983   4.318   2.249  17.268 -1.0918  0.4327  0.7163
 5507SOL    HW227984   4.442   2.217  17.348  0.3139 -2.0154 -2.9357
 5508SOL     OW27985   4.485   1.037   4.926  0.1128 -0.4921  0.4318
 5508SOL    HW127986   4.523   1.033   5.014 -2.2861  1.2732  1.5558
 5508SOL    HW227987   4.465   1.129   4.904  0.9149 -0.5154 -0.3768
 5509SOL     OW27988   1.197   3.101   8.988 -0.0795  0.1880  0.0768
 5509SOL    HW127989   1.119   3.155   8.998 -0.4791 -0.4295  0.3238
 5509SOL    HW227990   1.174   3.050   8.910 -0.5079  1.6293 -0.7465
 5510SOL     OW27991   3.196   0.596   7.599 -0.1266 -0.3611 -0.3588
 5510SOL    HW127992   3.260   0.527   7.618 -0.2798 -0.4753 -0.2556
 5510SOL    HW227993   3.113   0.552   7.617 -0.5569  0.2757 -0.7844
 5511SOL     OW27994   4.664   0.020   2.318 -0.6410 -0.3859  0.1230
 5511SOL    HW127995   0.001   0.095   2.313 -0.8768 -0.1208  1.3026
 5511SOL    HW227996   4.643   0.021   2.225  1.2389 -1.4662 -0.3075
 5512SOL     OW27997   0.070   0.318   4.591 -0.0977  0.0688  0.4987
 5512SOL    HW127998   0.159   0.326   4.556  0.3190 -1.2425  1.2400
 5512SOL    HW227999   0.025   0.396   4.561 -1.8682 -1.7114 -1.4566
 5513SOL     OW28000   3.514   0.083   7.152 -0.2539 -0.1348 -0.0482
 5513SOL    HW128001   3.479   0.171   7.166  1.1409  0.6193 -1.2665
 5513SOL    HW228002   3.489   0.084   7.060 -2.8108 -1.2773  0.6292
 5514SOL     OW28003   4.490   4.243  17.251  0.4851 -0.5516 -0.1150
 5514SOL    HW128004   4.440   4.240  17.170  1.6295 -1.0226 -0.8138
 5514SOL    HW228005   4.443   4.295  17.317  0.9732  0.1479 -0.3147
 5515SOL     OW28006   0.408   0.485  10.845 -0.6146  0.5698 -0.5041
 5515SOL    HW128007   0.441   0.568  10.877 -1.7997  1.4164 -1.4895
 5515SOL    HW228008   0.442   0.481  10.756 -2.4015  1.7865 -1.2350
 5516SOL     OW28009   1.115   0.025   6.115 -0.1909 -0.0098 -0.1826
 5516SOL    HW128010   1.159   4.663   6.115  1.4664  0.8468 -0.5972
 5516SOL    HW228011   1.193   0.080   6.114 -0.1009 -0.1299  0.5968
 5517SOL     OW28012   0.208   0.929  14.194 -0.9745 -0.7156 -0.3370
 5517SOL    HW128013   0.259   0.912  14.273 -0.3564  0.1001 -0.5672
 5517SOL    HW228014   0.215   0.843  14.151 -0.9998 -1.0537  0.3414
 5518SOL     OW28015   3.437   1.618  13.162  0.0046 -0.5620 -0.1326
 5518SOL    HW128016   3.365   1.663  13.207  0.5574  0.3921 -0.2123
 5518SOL    HW228017   3.446   1.647  13.071  1.1046 -3.4261 -0.9238
 5519SOL     OW28018   2.329   3.285   6.133 -0.1669 -0.2491 -0.1744
 5519SOL    HW128019   2.381   3.205   6.127  1.1569  0.5968  0.0414
 5519SOL    HW228020   2.251   3.255   6.085 -0.6142 -1.2375  1.1640
 5520SOL     OW28021   2.694   1.651   3.153  0.0124  0.0221  0.2212
 5520SOL    HW128022   2.747   1.619   3.225 -1.8803 -0.9565  1.1598
 5520SOL    HW228023   2.614   1.672   3.201  1.1706 -0.3598  2.2702
 5521SOL     OW28024   4.005   0.816   3.913  0.5208 -0.1038  0.0289
 5521SOL    HW128025   3.936   0.785   3.972 -1.3892  2.4608 -0.9081
 5521SOL    HW228026   3.951   0.848   3.842 -0.6310 -2.4289 -0.1367
 5522SOL     OW28027   3.133   2.655   7.828 -0.3622  0.6963  0.3173
 5522SOL    HW128028   3.118   2.562   7.811 -3.4171  1.1571  0.4188
 5522SOL    HW228029   3.147   2.697   7.743  0.9671 -1.0300 -0.3165
 5523SOL     OW28030   2.464   3.267   3.280  0.0109 -0.0968 -0.2163
 5523SOL    HW128031   2.452   3.178   3.312  0.3662  0.3365  1.0985
 5523SOL    HW228032   2.557   3.272   3.258 -0.2227  0.2165 -1.1720
 5524SOL     OW28033   2.607   2.732   4.570 -0.3213  0.4446 -0.0129
 5524SOL    HW128034   2.680   2.753   4.513 -0.3881 -0.6870 -0.5085
 5524SOL    HW228035   2.611   2.637   4.565 -2.3472  0.3046  0.8947
 5525SOL     OW28036   3.351   1.237   6.452 -0.4123 -0.5322  0.5418
 5525SOL    HW128037   3.403   1.187   6.389  0.6503  1.3397 -0.0559
 5525SOL    HW228038   3.298   1.166   6.490  1.1823 -1.5737  0.8198
 5526SOL     OW28039   3.149   0.822  15.236  0.3930  0.2373 -0.3639
 5526SOL    HW128040   3.080   0.780  15.184  0.9428 -0.4350 -0.5404
 5526SOL    HW228041   3.188   0.885  15.176  4.1704 -0.1662  1.6483
 5527SOL     OW28042   0.952   4.369   8.281  0.6558  0.0584  0.2913
 5527SOL    HW128043   0.916   4.299   8.336 -0.0489  0.2716  0.0918
 5527SOL    HW228044   0.874   4.402   8.236  0.8125  2.8203  2.0244
 5528SOL     OW28045   0.097   0.392   5.696  0.7152  0.2947 -0.2036
 5528SOL    HW128046   0.057   0.316   5.654  0.8255 -0.4728  1.0587
 5528SOL    HW228047   0.184   0.361   5.722 -0.4962 -2.7501  0.1635
 5529SOL     OW28048   0.335   1.330   4.847  0.3918 -0.1318 -0.3080
 5529SOL    HW128049   0.387   1.301   4.922 -0.8665  0.4722  0.8091
 5529SOL    HW228050   0.270   1.259   4.844  0.9595 -0.6628 -0.0832
 5530SOL     OW28051   3.193   0.781  16.981 -0.4347 -0.0309  0.0903
 5530SOL    HW128052   3.174   0.687  16.978 -2.1599  0.2209  2.2851
 5530SOL    HW228053   3.105   0.820  16.978 -0.3540  0.1465  0.0729
 5531SOL     OW28054   3.941   0.032   1.733  1.0190  0.1362  0.4289
 5531SOL    HW128055   3.990   0.114   1.726  1.1981 -0.0836 -0.8604
 5531SOL    HW228056   3.855   0.074   1.728  1.1848  0.2715 -1.0595
 5532SOL     OW28057   3.153   0.136   3.589  0.1556 -0.3835 -0.3098
 5532SOL    HW128058   3.078   0.087   3.621 -1.3033 -0.5970 -4.0223
 5532SOL    HW228059   3.218   0.127   3.658 -0.0791  1.5154  0.1530
 5533SOL     OW28060   0.179   2.199  16.201  0.2796 -0.7068 -0.4678
 5533SOL    HW128061   0.231   2.248  16.138  0.8138 -0.3826  0.2268
 5533SOL    HW228062   0.243   2.200  16.272  0.9345  0.9823 -1.1022
 5534SOL     OW28063   0.965   0.948   3.596  0.2602 -0.4128 -0.3021
 5534SOL    HW128064   1.033   1.012   3.575  0.4954 -0.7899 -0.6882
 5534SOL    HW228065   0.943   0.979   3.684 -2.0221  0.1898 -1.0841
 5535SOL     OW28066   3.253   0.410   8.264 -0.4978 -0.2908 -0.9486
 5535SOL    HW128067   3.227   0.408   8.356  0.1514  1.0491 -0.7269
 5535SOL    HW228068   3.344   0.439   8.258 -0.0710 -0.8232  2.7791
 5536SOL     OW28069   2.102   0.599   6.760  0.1890 -0.3529  0.4814
 5536SOL    HW128070   2.026   0.565   6.807  0.7308 -0.3043  1.3780
 5536SOL    HW228071   2.048   0.670   6.725 -1.7902 -1.4394  1.3442
 5537SOL     OW28072   4.031   0.810  11.675 -0.3651  0.1936  0.1568
 5537SOL    HW128073   4.109   0.866  11.682  1.7194 -2.5605 -1.2872
 5537SOL    HW228074   3.969   0.880  11.653 -0.2757 -0.0815 -0.9923
 5538SOL     OW28075   3.936   0.467   1.712 -0.2586 -0.1152  0.0863
 5538SOL    HW128076   3.879   0.535   1.749  0.9140  1.1295 -0.3934
 5538SOL    HW228077   3.991   0.524   1.658  0.2629 -1.4675 -0.7905
 5539SOL     OW28078   1.268   2.303   5.767 -0.5426 -0.1700  0.5945
 5539SOL    HW128079   1.204   2.309   5.837 -1.3855  2.8228 -0.4364
 5539SOL    HW228080   1.232   2.370   5.709 -0.1616  0.9365  1.6272
 5540SOL     OW28081   2.478   0.959  15.346  0.4996  0.1170  0.2956
 5540SOL    HW128082   2.397   0.976  15.394 -0.3548  2.1074 -1.8109
 5540SOL    HW228083   2.529   1.038  15.365  2.1065 -0.9225  0.3413
 5541SOL     OW28084   0.125   2.993   3.812  0.1425 -0.0582  0.0985
 5541SOL    HW128085   0.099   2.948   3.893 -3.5427 -0.3076 -1.2382
 5541SOL    HW228086   0.091   2.928   3.751  0.2415 -0.4969  0.5116
 5542SOL     OW28087   0.244   4.283   7.197 -0.2390 -0.3314 -0.7059
 5542SOL    HW128088   0.169   4.245   7.151 -1.3493  1.0748 -0.0669
 5542SOL    HW228089   0.286   4.330   7.126 -2.9812 -0.4971 -2.4586
 5543SOL     OW28090   1.911   3.612   4.259 -0.6170  0.0711  0.2186
 5543SOL    HW128091   1.983   3.672   4.239 -0.4023  0.1041  1.0974
 5543SOL    HW228092   1.905   3.570   4.173 -0.5477  0.9769 -0.2328
 5544SOL     OW28093   0.694   2.975   7.812 -0.1588 -0.4380  0.1428
 5544SOL    HW128094   0.685   3.070   7.805 -1.3399 -0.3525  2.6441
 5544SOL    HW228095   0.771   2.975   7.870 -0.6828 -0.4656  0.8374
 5545SOL     OW28096   2.699   3.996   7.075  0.3744  0.1494 -0.0678
 5545SOL    HW128097   2.720   3.917   7.026  0.7229  0.3676 -0.2710
 5545SOL    HW228098   2.610   4.014   7.046 -0.3917  1.8457  3.3304
 5546SOL     OW28099   2.996   4.100  15.328 -0.5094  0.0504  0.0241
 5546SOL    HW128100   2.966   4.039  15.395  1.1116  0.1263  0.8179
 5546SOL    HW228101   2.914   4.115  15.280 -0.2880 -0.8359 -0.6328
 5547SOL     OW28102   2.483   2.302   9.733  0.2681  0.3316 -0.6389
 5547SOL    HW128103   2.492   2.389   9.695  0.9796 -0.9363 -3.4402
 5547SOL    HW228104   2.487   2.308   9.828  1.8099 -2.3899 -0.5098
 5548SOL     OW28105   2.656   1.778   7.480  0.4516  0.4786 -0.7925
 5548SOL    HW128106   2.742   1.810   7.508  0.1094 -0.6787  1.6101
 5548SOL    HW228107   2.673   1.689   7.448 -0.2570 -0.7593  2.2127
 5549SOL     OW28108   1.846   1.872   5.963  0.6120  0.5578 -0.1268
 5549SOL    HW128109   1.785   1.802   5.938 -0.2437  1.5027 -0.6704
 5549SOL    HW228110   1.797   1.923   6.027 -0.6719 -0.7741 -0.0306
 5550SOL     OW28111   1.782   0.235   8.747  0.8781  0.2712  0.1147
 5550SOL    HW128112   1.805   0.328   8.740 -1.4629  0.9071  0.7724
 5550SOL    HW228113   1.802   0.217   8.655 -0.1482 -1.9465  0.3246
 5551SOL     OW28114   2.527   3.966   2.484  0.1784 -0.3377 -0.2436
 5551SOL    HW128115   2.468   3.920   2.425  3.9818 -3.7722 -1.3355
 5551SOL    HW228116   2.555   4.036   2.425 -0.0231  0.7238  0.8905
 5552SOL     OW28117   1.999   2.916   5.346  0.4183  0.1638 -0.1342
 5552SOL    HW128118   2.004   2.977   5.273 -1.0062 -2.2228 -2.2529
 5552SOL    HW228119   1.952   2.966   5.413 -0.5482 -1.0027  0.0484
 5553SOL     OW28120   4.716   1.133  15.488 -0.2877 -0.4201 -0.1086
 5553SOL    HW128121   0.047   1.209  15.511 -0.1448 -0.6216  0.2281
 5553SOL    HW228122   4.715   1.077  15.566 -1.9185  0.7382  0.7047
 5554SOL     OW28123   1.996   1.304  11.447  0.6239 -0.0190  0.3811
 5554SOL    HW128124   1.931   1.373  11.454 -2.4951 -2.8544 -0.5652
 5554SOL    HW228125   2.076   1.355  11.434 -1.2945  1.7853 -4.2210
 5555SOL     OW28126   2.415   1.923   1.387  0.0368 -0.8401 -0.9449
 5555SOL    HW128127   2.381   1.900   1.300  1.6140 -0.9932 -1.5202
 5555SOL    HW228128   2.474   1.853   1.415  1.9317  1.2976  0.4719
 5556SOL     OW28129   0.696   1.966   1.153 -0.6646 -0.2042 -0.0263
 5556SOL    HW128130   0.672   1.878   1.125 -0.3339 -1.1029  2.4734
 5556SOL    HW228131   0.611   2.000   1.182  0.6130  1.8276  1.3689
 5557SOL     OW28132   1.474   3.488   7.689  0.5047  0.5537 -0.3756
 5557SOL    HW128133   1.456   3.578   7.662 -0.6953  0.0816 -1.1764
 5557SOL    HW228134   1.569   3.498   7.688  0.5964 -0.3812 -0.8999
 5558SOL     OW28135   3.955   4.178  16.446  0.1105  0.0983  0.1901
 5558SOL    HW128136   3.990   4.099  16.487  1.3824  1.5193  1.8784
 5558SOL    HW228137   3.894   4.213  16.511 -0.8769 -2.1543  0.4771
 5559SOL     OW28138   2.574   0.656  11.684 -0.5979 -0.4700  0.4193
 5559SOL    HW128139   2.566   0.563  11.706 -1.2643 -0.5134 -0.0021
 5559SOL    HW228140   2.503   0.651  11.619 -1.4326 -2.0749  1.4378
 5560SOL     OW28141   2.003   2.908   8.792  0.0974 -0.1891 -0.0343
 5560SOL    HW128142   1.996   2.989   8.842  1.6838  1.1285 -1.9579
 5560SOL    HW228143   2.020   2.838   8.855 -1.3346  0.3734  0.9862
 5561SOL     OW28144   1.793   3.076   8.920 -0.3018 -0.0661 -0.6657
 5561SOL    HW128145   1.789   3.163   8.878  0.7402 -0.0552 -0.7352
 5561SOL    HW228146   1.798   3.103   9.012  0.0720 -0.4054 -0.5917
 5562SOL     OW28147   1.777   2.371   0.386 -0.0223  0.3087  0.4729
 5562SOL    HW128148   1.764   2.435   0.316 -1.9130 -0.4475  0.1132
 5562SOL    HW228149   1.717   2.298   0.368 -1.5891  1.0658  2.5080
 5563SOL     OW28150   2.050   3.086   3.943 -0.1293  0.0404 -0.3469
 5563SOL    HW128151   1.985   3.082   4.013 -1.8032  0.7270 -1.8820
 5563SOL    HW228152   2.029   3.006   3.895 -0.6501  0.2934 -0.5335
 5564SOL     OW28153   3.877   2.655   2.836  0.7432 -0.1740 -0.4533
 5564SOL    HW128154   3.934   2.613   2.771 -0.2743  1.0656 -2.1486
 5564SOL    HW228155   3.871   2.588   2.904 -1.6145  0.3209 -0.1925
 5565SOL     OW28156   0.148   1.191   6.128 -0.0097  0.1570 -0.5934
 5565SOL    HW128157   0.149   1.101   6.094 -1.9772 -0.1729  0.2054
 5565SOL    HW228158   0.150   1.177   6.223 -0.8984  1.0883 -0.4369
 5566SOL     OW28159   3.680   3.401   8.396 -0.0809 -0.0072  0.9293
 5566SOL    HW128160   3.591   3.429   8.378  0.6033 -0.1498 -2.5622
 5566SOL    HW228161   3.733   3.461   8.343  0.3311 -1.1797  0.0234
 5567SOL     OW28162   0.288   4.255   8.342  0.1374 -0.3157  0.0355
 5567SOL    HW128163   0.255   4.202   8.414  2.5394 -0.7478  0.8133
 5567SOL    HW228164   0.207   4.284   8.300  1.3396  0.9798 -1.4046
 5568SOL     OW28165   4.628   1.024   9.390 -0.0719  0.5255 -0.3860
 5568SOL    HW128166   4.622   0.966   9.465  2.6551  0.8995  0.1262
 5568SOL    HW228167   4.592   1.103   9.430  0.3921  0.3572  0.3629
 5569SOL     OW28168   4.647   2.085   2.810  0.2751 -0.8244 -0.4601
 5569SOL    HW128169   4.595   2.129   2.877  1.0865 -0.4713 -0.0684
 5569SOL    HW228170   4.598   2.110   2.731  0.1231  0.3083 -0.0002
 5570SOL     OW28171   0.924   2.148   0.029  0.8377 -0.3507  0.0022
 5570SOL    HW128172   0.969   2.125   0.111 -1.9931 -1.1133  1.3205
 5570SOL    HW228173   0.993   2.133  17.657  1.4212  2.2591  0.0360
 5571SOL     OW28174   1.064   4.382   6.668  0.2249  0.3287  0.0731
 5571SOL    HW128175   1.055   4.340   6.754  3.1480  0.8322  0.6286
 5571SOL    HW228176   1.125   4.324   6.623  1.1619  2.0700 -0.8963
 5572SOL     OW28177   3.066   4.381   9.318  0.7463  0.3090 -0.3387
 5572SOL    HW128178   3.087   4.455   9.374 -0.2395 -0.6093  1.2578
 5572SOL    HW228179   2.982   4.349   9.354  0.0153  0.0017 -2.2968
 5573SOL     OW28180   1.850   4.583  14.396  0.5066  0.4939  0.1557
 5573SOL    HW128181   1.832   4.640  14.321 -1.1335 -0.2525 -0.0249
 5573SOL    HW228182   1.765   4.546  14.421  0.5170  0.3128 -0.0730
 5574SOL     OW28183   4.284   0.084   0.776 -0.2093  0.3201 -0.5614
 5574SOL    HW128184   4.210   0.117   0.827 -1.2545  0.0216 -1.8571
 5574SOL    HW228185   4.247   0.075   0.688 -1.4920  2.1685 -0.1975
 5575SOL     OW28186   2.639   3.857   4.746 -0.3164 -0.3823  0.6588
 5575SOL    HW128187   2.592   3.777   4.769 -1.3336 -0.9072 -3.3707
 5575SOL    HW228188   2.576   3.889   4.681 -0.6261  0.7055  1.4981
 5576SOL     OW28189   2.993   4.558   5.787 -0.1279  0.3237 -0.5186
 5576SOL    HW128190   3.082   4.582   5.813  0.4676 -4.1326  1.6146
 5576SOL    HW228191   2.950   4.633   5.826  2.0010  0.5278  1.4560
 5577SOL     OW28192   4.078   1.434   0.685 -0.1732  0.2411  0.0288
 5577SOL    HW128193   4.071   1.485   0.605 -0.9373  0.6702  0.3742
 5577SOL    HW228194   4.170   1.411   0.697 -0.1019 -0.0914 -1.2409
 5578SOL     OW28195   4.330   3.164   8.510  0.3096  0.2397  0.5365
 5578SOL    HW128196   4.381   3.093   8.548 -0.5716 -0.5478  0.2380
 5578SOL    HW228197   4.372   3.233   8.561 -2.3340  0.8915  1.8121
 5579SOL     OW28198   3.041   3.685  16.752  0.3732 -0.3431  0.2882
 5579SOL    HW128199   3.074   3.628  16.822  0.0111  0.9837  1.5502
 5579SOL    HW228200   3.090   3.765  16.768  0.3892 -0.5640  1.3585
 5580SOL     OW28201   3.939   1.466   3.943  0.0726  0.2845 -0.0871
 5580SOL    HW128202   3.911   1.387   3.990  0.1227 -0.9665 -2.1678
 5580SOL    HW228203   4.024   1.473   3.987 -0.1230  0.0958  0.3119
 5581SOL     OW28204   2.619   0.255   1.850  0.5203 -0.1399  0.4169
 5581SOL    HW128205   2.618   0.201   1.771  1.5909 -1.1773  1.1073
 5581SOL    HW228206   2.536   0.299   1.832  0.6714  0.2159  0.5871
 5582SOL     OW28207   2.918   0.613  16.684 -0.2329 -0.1543 -0.8031
 5582SOL    HW128208   2.931   0.707  16.671  1.8825 -0.4318 -0.6079
 5582SOL    HW228209   2.857   0.597  16.612 -0.9350 -0.4263 -0.1595
 5583SOL     OW28210   1.097   2.664   0.966  0.1184 -0.2533  0.6238
 5583SOL    HW128211   1.079   2.571   0.982  0.2909 -0.3417  0.2956
 5583SOL    HW228212   1.188   2.661   0.996 -0.0773 -0.9079  1.1698
 5584SOL     OW28213   4.702   4.706   6.484 -0.2024  0.8567 -0.2715
 5584SOL    HW128214   4.629   4.693   6.423 -0.4285  0.4818  0.0774
 5584SOL    HW228215   0.029   4.625   6.493 -1.6880 -0.0969 -0.7337
 5585SOL     OW28216   2.507   4.661  11.325  0.2781 -0.2727  0.7965
 5585SOL    HW128217   2.532   4.646  11.417 -0.0269  0.9564  1.0700
 5585SOL    HW228218   2.586   4.628  11.282  1.9121  1.2868  2.5807
 5586SOL     OW28219   4.410   1.790   3.700  0.6854  0.0919  0.3502
 5586SOL    HW128220   4.506   1.784   3.705  0.6128  0.1099  1.8753
 5586SOL    HW228221   4.395   1.730   3.628 -0.6014  0.5359  0.2481
 5587SOL     OW28222   2.179   1.249   8.791 -0.1309 -0.1410  0.3096
 5587SOL    HW128223   2.134   1.261   8.707  2.9397  2.0918 -1.0083
 5587SOL    HW228224   2.100   1.236   8.844  0.3284  1.0081  1.2939
 5588SOL     OW28225   3.251   0.259  13.930 -0.3417  0.0081 -0.2110
 5588SOL    HW128226   3.248   0.355  13.931  2.7021  0.1045 -0.9280
 5588SOL    HW228227   3.344   0.246  13.947  0.3132  1.9299 -2.3311
 5589SOL     OW28228   1.743   0.485   4.542  0.2784  0.0912 -0.2621
 5589SOL    HW128229   1.805   0.552   4.568  0.9612 -0.7962  0.4093
 5589SOL    HW228230   1.700   0.539   4.476 -0.8424  0.0308  0.4066
 5590SOL     OW28231   2.316   1.698   9.084  0.0692  0.0343 -0.0655
 5590SOL    HW128232   2.263   1.629   9.044  0.5549 -2.5795  3.7213
 5590SOL    HW228233   2.265   1.717   9.163 -0.1580 -0.9461  0.0262
 5591SOL     OW28234   1.247   4.360   2.791  0.3099  0.4143  0.0228
 5591SOL    HW128235   1.224   4.270   2.772 -2.2617  1.2573 -0.8836
 5591SOL    HW228236   1.206   4.416   2.725 -0.6545  0.1790  0.4087
 5592SOL     OW28237   1.248   3.495   3.952 -0.0546  0.2157  0.6378
 5592SOL    HW128238   1.166   3.469   3.910  1.2636  1.3143 -2.6106
 5592SOL    HW228239   1.288   3.552   3.887  1.0327 -0.3378  0.8149
 5593SOL     OW28240   3.933   1.471   6.495  0.3508  0.5499 -0.4148
 5593SOL    HW128241   3.945   1.559   6.532  0.3424  0.3708  0.0212
 5593SOL    HW228242   3.931   1.489   6.401 -0.8126  0.7643 -0.3438
 5594SOL     OW28243   1.205   0.764   5.735  0.8312 -0.0647  0.0142
 5594SOL    HW128244   1.176   0.841   5.687  0.1219 -0.7432 -0.6640
 5594SOL    HW228245   1.281   0.740   5.682  0.8491 -3.4272  1.5308
 5595SOL     OW28246   1.129   2.832  12.741 -0.7902  0.1045  0.1521
 5595SOL    HW128247   1.091   2.920  12.740 -0.3070  0.3107 -0.1681
 5595SOL    HW228248   1.125   2.809  12.648  2.8164 -1.5275  0.4043
 5596SOL     OW28249   0.185   0.412  17.220  0.3257  0.1582  0.0008
 5596SOL    HW128250   0.159   0.430  17.130 -1.4186  1.6651  0.7887
 5596SOL    HW228251   0.102   0.370  17.244  0.9264 -0.6685  0.6126
 5597SOL     OW28252   4.285   1.746   4.635  0.2783 -0.1889  0.3815
 5597SOL    HW128253   4.278   1.839   4.656 -1.8275  0.5122 -3.4093
 5597SOL    HW228254   4.369   1.727   4.677  0.8328 -0.5108 -0.8864
 5598SOL     OW28255   0.972   3.219  16.489 -0.1929 -0.0035  0.0559
 5598SOL    HW128256   0.921   3.140  16.477 -0.8323  0.2183  1.3143
 5598SOL    HW228257   1.057   3.195  16.452 -0.1113  1.1294 -0.5038
 5599SOL     OW28258   1.175   3.811   2.839 -0.3381 -0.2567 -0.2572
 5599SOL    HW128259   1.100   3.862   2.808  0.1076 -0.0831 -1.0366
 5599SOL    HW228260   1.236   3.883   2.854  0.2455 -0.5086 -1.4848
 5600SOL     OW28261   3.574   1.173   1.344 -0.0095 -0.2634 -0.6533
 5600SOL    HW128262   3.642   1.227   1.385 -2.1112 -0.9762  3.7617
 5600SOL    HW228263   3.590   1.094   1.397  0.4786  1.1089  1.2340
 5601SOL     OW28264   2.396   2.210   8.313 -0.3069 -0.1210  0.1873
 5601SOL    HW128265   2.320   2.197   8.370 -1.3773  1.0659 -0.9573
 5601SOL    HW228266   2.451   2.138   8.342  2.9777  1.3862 -2.3897
 5602SOL     OW28267   2.524   3.181  17.016 -0.1903 -0.5499 -0.4093
 5602SOL    HW128268   2.506   3.228  17.098  0.2904  0.8816 -1.1393
 5602SOL    HW228269   2.558   3.097  17.048 -0.9175 -0.6167  0.1864
 5603SOL     OW28270   4.019   3.900   5.188  0.1735 -0.2461  0.0239
 5603SOL    HW128271   3.959   3.836   5.227 -2.5762  2.0172 -0.4187
 5603SOL    HW228272   4.065   3.939   5.262 -1.5970 -0.1349  1.0657
 5604SOL     OW28273   0.935   2.422   6.836  0.0648  0.6690  0.1291
 5604SOL    HW128274   1.017   2.380   6.863 -0.5939 -1.9883 -2.0226
 5604SOL    HW228275   0.933   2.435   6.741  0.6223 -1.3695 -0.1677
 5605SOL     OW28276   3.130   1.979   3.541 -0.2221  0.0467 -0.3841
 5605SOL    HW128277   3.066   2.045   3.518 -0.0904  1.4178  3.1814
 5605SOL    HW228278   3.132   1.977   3.637  1.0172  1.9966 -0.3818
 5606SOL     OW28279   2.561   3.783  12.548 -0.3371  0.3343 -0.7284
 5606SOL    HW128280   2.614   3.861  12.531  1.5889 -0.8890 -0.3181
 5606SOL    HW228281   2.628   3.717  12.532 -1.5646 -0.8845 -0.8869
 5607SOL     OW28282   0.235   0.922  15.669 -0.3426 -0.0132  0.5924
 5607SOL    HW128283   0.317   0.872  15.667 -0.5211 -0.4010  2.8567
 5607SOL    HW228284   0.269   0.982  15.602 -2.4191  0.2402 -0.2290
 5608SOL     OW28285   2.096   1.895  16.142 -0.1062 -0.0961 -0.3214
 5608SOL    HW128286   2.103   1.868  16.234 -0.4688  2.2264  0.3833
 5608SOL    HW228287   2.071   1.984  16.167 -0.3536 -0.1581 -0.3479
 5609SOL     OW28288   2.506   0.166   5.716 -0.0208 -0.4068 -0.4479
 5609SOL    HW128289   2.562   0.231   5.674  0.6928 -0.2958  0.6635
 5609SOL    HW228290   2.566   0.153   5.790  1.1283  1.4130 -1.0949
 5610SOL     OW28291   2.795   2.169   6.731  0.1329 -0.1199  0.3351
 5610SOL    HW128292   2.749   2.253   6.731 -2.2127 -1.4010  3.0564
 5610SOL    HW228293   2.717   2.114   6.727  1.2573 -1.8460  2.1936
 5611SOL     OW28294   4.654   1.904   5.735  0.2215  0.6228 -0.1576
 5611SOL    HW128295   4.689   1.961   5.803  1.9293  1.3499 -1.6156
 5611SOL    HW228296   4.658   1.814   5.767 -1.7830  0.4040 -0.5228
 5612SOL     OW28297   3.939   0.027   7.297 -0.1978 -0.0428 -0.3867
 5612SOL    HW128298   4.013   0.029   7.357 -2.2697 -0.8365  2.2049
 5612SOL    HW228299   3.888   0.105   7.320  2.4903  1.5692  0.1145
 5613SOL     OW28300   3.472   1.385  13.336  0.1408  0.1578 -0.1710
 5613SOL    HW128301   3.378   1.364  13.333  0.6529 -1.8778 -1.3465
 5613SOL    HW228302   3.467   1.465  13.283 -0.1755  0.2026 -0.0793
 5614SOL     OW28303   2.662   4.265   1.033  0.8771 -0.5120 -0.5086
 5614SOL    HW128304   2.754   4.250   1.013  0.7126 -1.6623 -0.4186
 5614SOL    HW228305   2.667   4.289   1.125  4.2192  0.2927 -0.8920
 5615SOL     OW28306   2.452   1.125   6.643  0.0404 -0.0402 -0.2825
 5615SOL    HW128307   2.434   1.217   6.625 -0.8796 -0.4801 -1.6124
 5615SOL    HW228308   2.482   1.104   6.554 -1.8843 -1.1711 -0.6711
 5616SOL     OW28309   0.340   2.154   4.527  0.0492  0.0987 -0.0945
 5616SOL    HW128310   0.264   2.202   4.494  0.7854  0.3140 -1.5138
 5616SOL    HW228311   0.322   2.140   4.619  1.9211 -0.2500  0.2221
 5617SOL     OW28312   2.483   2.234  16.630 -0.6155  0.3210 -0.1440
 5617SOL    HW128313   2.579   2.230  16.635 -0.5251 -0.2194 -2.4838
 5617SOL    HW228314   2.464   2.287  16.707 -0.8253  0.5766 -0.3741
 5618SOL     OW28315   3.423   1.121  12.659 -0.0619 -0.4794  0.0797
 5618SOL    HW128316   3.419   1.216  12.671 -1.3717 -0.0328 -3.8246
 5618SOL    HW228317   3.334   1.089  12.675 -0.9294  2.8007  2.0293
 5619SOL     OW28318   0.886   3.206   7.497 -0.6169  0.1195 -0.1288
 5619SOL    HW128319   0.841   3.127   7.527 -0.1825 -0.2502 -0.4486
 5619SOL    HW228320   0.946   3.225   7.569  0.9378  2.3080 -1.9825
 5620SOL     OW28321   4.507   1.269   6.668 -0.1258  0.6291  0.2212
 5620SOL    HW128322   4.434   1.299   6.614  0.3858  0.5719 -0.4986
 5620SOL    HW228323   4.568   1.343   6.660  0.0140  0.2433 -2.0216
 5621SOL     OW28324   2.612   3.648  15.829 -0.1534  0.1247 -0.3335
 5621SOL    HW128325   2.659   3.660  15.747  0.7720  2.3928  0.5358
 5621SOL    HW228326   2.569   3.733  15.838  0.3720  0.6998 -3.1732
 5622SOL     OW28327   1.676   1.787  15.757  0.2991  0.1043  0.3219
 5622SOL    HW128328   1.744   1.757  15.696 -0.2545  0.9428 -0.7129
 5622SOL    HW228329   1.731   1.825  15.826  1.1430  0.5385 -0.5815
 5623SOL     OW28330   1.030   2.863   2.538  0.1403  0.0694  0.4069
 5623SOL    HW128331   0.979   2.796   2.584  0.7850  0.2836  1.4245
 5623SOL    HW228332   1.006   2.851   2.446 -0.0904  0.9551  0.3489
 5624SOL     OW28333   2.283   1.049   9.024  0.0567  0.0591 -0.1665
 5624SOL    HW128334   2.352   1.086   8.969  0.3263  0.0017  0.1327
 5624SOL    HW228335   2.280   0.961   8.986 -1.4856 -0.0669  0.2748
 5625SOL     OW28336   1.588   3.815   4.748  0.6505 -1.1174  0.0996
 5625SOL    HW128337   1.546   3.823   4.663  0.7459 -1.1171  0.0532
 5625SOL    HW228338   1.636   3.897   4.754 -0.0355 -0.6263 -1.2848
 5626SOL     OW28339   1.662   4.454  14.224 -0.0851  0.0591  0.4399
 5626SOL    HW128340   1.674   4.536  14.177 -0.9122 -2.2916 -3.8434
 5626SOL    HW228341   1.599   4.477  14.292 -1.1203 -1.2647 -0.0789
 5627SOL     OW28342   1.918   4.090   8.088 -0.5328 -0.9066 -0.1268
 5627SOL    HW128343   1.853   4.154   8.117  1.4689  0.0207  2.2262
 5627SOL    HW228344   1.983   4.116   8.153  0.4023 -1.2959 -0.9048
 5628SOL     OW28345   1.524   0.317   0.891 -0.2562 -0.5247 -0.0276
 5628SOL    HW128346   1.490   0.229   0.878 -2.8378  0.6411 -1.2934
 5628SOL    HW228347   1.546   0.308   0.983 -0.0223 -0.5439 -0.0858
 5629SOL     OW28348   1.347   4.027   8.015 -0.1313  0.0023  0.4279
 5629SOL    HW128349   1.437   4.036   7.984 -0.0715 -0.3002  0.5126
 5629SOL    HW228350   1.305   3.968   7.952 -0.6538  1.1034 -0.2668
 5630SOL     OW28351   3.262   3.363   4.430  0.1229 -0.2381  0.4013
 5630SOL    HW128352   3.191   3.415   4.393 -0.1267 -1.3032 -0.6157
 5630SOL    HW228353   3.340   3.414   4.406  0.9295 -0.5156  2.3963
 5631SOL     OW28354   0.278   3.604   5.500 -0.4537 -0.1319  0.6235
 5631SOL    HW128355   0.363   3.569   5.526  1.1284  2.5061 -0.9176
 5631SOL    HW228356   0.234   3.622   5.583  0.1416  2.3366  0.4249
 5632SOL     OW28357   0.129   2.142   4.249  0.3293  0.5832 -0.0458
 5632SOL    HW128358   0.136   2.112   4.159 -2.5798 -1.5876  0.4405
 5632SOL    HW228359   0.222   2.148   4.273  0.4519  1.6367 -0.7882
 5633SOL     OW28360   1.541   3.681   0.859 -0.5525 -0.1440  0.7053
 5633SOL    HW128361   1.625   3.722   0.838 -1.0506  1.5518  2.0150
 5633SOL    HW228362   1.552   3.648   0.948  1.5127  0.1833  0.5882
 5634SOL     OW28363   4.297   3.893   2.444  0.6439 -0.0282  0.2040
 5634SOL    HW128364   4.233   3.952   2.485 -0.0194 -1.8632  1.7726
 5634SOL    HW228365   4.376   3.910   2.497 -0.1787 -0.1719  1.4661
 5635SOL     OW28366   0.702   0.136   5.778 -0.1659 -0.2382 -0.5017
 5635SOL    HW128367   0.783   0.178   5.752  0.5828 -0.1908  1.8532
 5635SOL    HW228368   0.743   0.058   5.817  0.3919  0.5489  0.4859
 5636SOL     OW28369   4.204   3.706  11.077  0.4792 -0.3401  0.0029
 5636SOL    HW128370   4.188   3.621  11.037  1.1382 -1.3529  1.9131
 5636SOL    HW228371   4.282   3.740  11.033 -0.2345  0.5924 -0.5345
 5637SOL     OW28372   4.033   4.234   7.760 -0.4508  0.3445  0.3243
 5637SOL    HW128373   4.100   4.222   7.693  0.5015  0.8436  1.1904
 5637SOL    HW228374   4.073   4.179   7.828 -0.5852 -1.1945 -0.8308
 5638SOL     OW28375   0.593   4.405   0.797 -0.2236 -0.3105 -0.1189
 5638SOL    HW128376   0.512   4.356   0.811 -0.4457 -0.2993 -1.4024
 5638SOL    HW228377   0.644   4.379   0.874  0.2785  0.1272 -0.3075
 5639SOL     OW28378   1.391   0.693   6.763 -0.6073 -0.3353  0.4472
 5639SOL    HW128379   1.402   0.665   6.854  1.7044 -1.9886 -0.3539
 5639SOL    HW228380   1.423   0.784   6.763  1.1962 -0.9808  0.1155
 5640SOL     OW28381   3.047   0.589   9.659  0.0546 -0.3195 -0.0843
 5640SOL    HW128382   2.989   0.664   9.645  0.5720 -0.7487 -4.5131
 5640SOL    HW228383   2.994   0.551   9.730  0.6288 -0.9030  0.0343
 5641SOL     OW28384   1.784   3.632  13.528  0.5534 -0.2920  0.9169
 5641SOL    HW128385   1.802   3.683  13.607 -2.3919  0.2937  1.2117
 5641SOL    HW228386   1.771   3.542  13.558  0.2334 -1.0581 -1.5356
 5642SOL     OW28387   0.090   4.480   5.876  0.1903  0.4045  0.0092
 5642SOL    HW128388   0.005   4.448   5.903  1.1758 -1.8623  0.4288
 5642SOL    HW228389   0.067   4.554   5.818  0.5935 -0.4339 -1.2261
 5643SOL     OW28390   0.950   0.618   4.905  0.5185 -0.2285 -0.0625
 5643SOL    HW128391   1.009   0.614   4.829 -2.1593  0.8688 -2.1731
 5643SOL    HW228392   0.882   0.667   4.860  1.2223  1.6548  0.9617
 5644SOL     OW28393   3.102   1.908   9.949 -0.1081  0.0092 -0.6196
 5644SOL    HW128394   3.177   1.940   9.900 -0.2012 -1.0466 -1.4623
 5644SOL    HW228395   3.051   1.986   9.970  2.1442  1.1218  0.7646
 5645SOL     OW28396   0.492   0.085   7.930 -0.3907 -0.2502 -0.4056
 5645SOL    HW128397   0.455   0.004   7.965  0.0218  0.1017  0.8196
 5645SOL    HW228398   0.538   0.041   7.858 -1.8877 -1.9754 -0.2965
 5646SOL     OW28399   3.734   0.696   6.032 -0.6463  0.2163  0.0495
 5646SOL    HW128400   3.766   0.728   6.117 -1.3416 -0.3897  0.5496
 5646SOL    HW228401   3.784   0.614   6.029 -0.5456  0.2446  0.7977
 5647SOL     OW28402   0.585   1.213   5.747  0.3874 -0.4708 -0.0177
 5647SOL    HW128403   0.634   1.137   5.779 -0.7663 -0.2942  2.1732
 5647SOL    HW228404   0.602   1.275   5.819  0.3872 -1.7873  1.1241
 5648SOL     OW28405   4.276   3.520   7.195  0.3273 -0.2660 -0.1267
 5648SOL    HW128406   4.302   3.612   7.187 -1.5581  0.2715 -0.1806
 5648SOL    HW228407   4.352   3.490   7.244 -0.2100  0.9878  1.4787
 5649SOL     OW28408   4.505   3.781   9.525 -0.0809 -0.5588  0.0720
 5649SOL    HW128409   4.458   3.700   9.546 -0.5666  0.1892  1.9217
 5649SOL    HW228410   4.536   3.816   9.609 -1.2900  2.3966 -0.7233
 5650SOL     OW28411   4.315   2.261  11.689 -0.0094  0.4390 -0.2407
 5650SOL    HW128412   4.409   2.267  11.705 -0.4035  3.5708  0.9908
 5650SOL    HW228413   4.300   2.195  11.757 -0.0873  1.3717  0.6485
 5651SOL     OW28414   3.629   1.780  11.433  0.2299 -0.4327 -1.1720
 5651SOL    HW128415   3.617   1.874  11.452 -0.9529 -0.7635 -0.2861
 5651SOL    HW228416   3.557   1.742  11.483 -0.9613  1.9459 -1.0784
 5652SOL     OW28417   4.693   3.568   7.585  0.1245  0.7203  0.2632
 5652SOL    HW128418   0.047   3.602   7.631  0.3136 -0.8554  1.1185
 5652SOL    HW228419   4.722   3.477   7.593 -0.8513  0.2831 -1.0947
 5653SOL     OW28420   1.960   2.505   7.869  0.8348  0.0693 -0.2227
 5653SOL    HW128421   1.914   2.497   7.953  1.1204  2.9920  0.2096
 5653SOL    HW228422   1.915   2.585   7.843 -1.4209 -1.5386 -1.2666
 5654SOL     OW28423   1.233   2.884   3.018 -0.5146 -0.1014  0.3206
 5654SOL    HW128424   1.178   2.962   3.011  1.5030  1.1417 -1.6239
 5654SOL    HW228425   1.174   2.816   2.986 -0.4236  0.1554 -0.3981
 5655SOL     OW28426   0.824   3.669   7.431 -0.7499 -0.4941 -0.1087
 5655SOL    HW128427   0.728   3.662   7.427 -0.7488 -0.8693  0.6209
 5655SOL    HW228428   0.852   3.606   7.365 -1.4391  1.6601 -2.4525
 5656SOL     OW28429   2.821   3.167   8.885  0.2305  0.2352 -0.3112
 5656SOL    HW128430   2.858   3.118   8.959  0.2687  0.8691  0.0871
 5656SOL    HW228431   2.872   3.129   8.813 -4.2046 -0.6840 -2.9458
 5657SOL     OW28432   0.168   3.480   6.154 -0.3885  0.8114 -0.5166
 5657SOL    HW128433   0.138   3.567   6.128 -5.3906 -0.3292  1.3306
 5657SOL    HW228434   0.092   3.421   6.146  1.4890 -1.6407 -0.1638
 5658SOL     OW28435   4.059   2.308  10.177  0.2387  0.3847 -0.1366
 5658SOL    HW128436   4.015   2.347  10.253  1.3524 -0.7612  1.0962
 5658SOL    HW228437   4.095   2.237  10.229 -0.2761 -0.0007 -0.3102
 5659SOL     OW28438   2.543   3.032  12.538  0.0474  0.6752  0.4363
 5659SOL    HW128439   2.600   2.955  12.531 -1.5105 -0.5060  0.7540
 5659SOL    HW228440   2.506   3.015  12.625 -0.5853 -2.2285 -0.4077
 5660SOL     OW28441   0.152   2.854   0.479  0.1624  0.4223 -0.5368
 5660SOL    HW128442   0.065   2.869   0.442 -0.9788 -1.0852  1.5418
 5660SOL    HW228443   0.213   2.871   0.407  0.0334 -0.5285 -0.8631
 5661SOL     OW28444   3.098   4.355   0.797 -0.2499  0.1973  0.1912
 5661SOL    HW128445   3.156   4.432   0.798 -0.1760  0.0740  3.7402
 5661SOL    HW228446   3.029   4.389   0.740 -0.0439  0.4211  0.0729
 5662SOL     OW28447   4.648   0.296  10.464  0.2107 -0.4819  0.1108
 5662SOL    HW128448   4.570   0.248  10.493 -0.4225  1.5039  1.6450
 5662SOL    HW228449   4.677   0.343  10.542  0.9730  1.8035 -1.5685
 5663SOL     OW28450   1.275   0.107   3.001  0.9077 -0.0779  0.3216
 5663SOL    HW128451   1.261   0.089   2.908  3.4713  1.6537 -0.4064
 5663SOL    HW228452   1.275   0.017   3.032  0.5632  0.3662  1.6150
 5664SOL     OW28453   0.177   0.573   2.859  0.0759  0.3489  0.1078
 5664SOL    HW128454   0.092   0.617   2.854 -0.1062 -0.0519 -0.2940
 5664SOL    HW228455   0.204   0.588   2.768 -0.8007  0.6908 -0.0967
 5665SOL     OW28456   2.460   2.078  14.712 -0.0678 -0.0571 -0.4344
 5665SOL    HW128457   2.410   2.137  14.656 -0.1213  0.0328 -0.2904
 5665SOL    HW228458   2.401   2.003  14.719 -0.0456  0.0397  0.6679
 5666SOL     OW28459   3.348   3.584  11.292  0.2765  0.2379  0.6073
 5666SOL    HW128460   3.324   3.676  11.281  2.5487  0.8430  0.5383
 5666SOL    HW228461   3.361   3.586  11.387  1.2849  1.9586  0.4346
 5667SOL     OW28462   4.168   0.809  15.102 -0.2221 -0.1630  0.1095
 5667SOL    HW128463   4.166   0.902  15.078  2.8329  0.1090  0.9319
 5667SOL    HW228464   4.209   0.812  15.188 -1.1547  0.1896  0.5377
 5668SOL     OW28465   1.703   1.594   2.477  0.8250  0.7563 -0.0417
 5668SOL    HW128466   1.790   1.590   2.516  0.3039 -2.1256  0.7972
 5668SOL    HW228467   1.691   1.501   2.495  0.8956  0.4422 -1.6172
 5669SOL     OW28468   4.025   0.264   8.825  0.2593 -0.2620 -0.1278
 5669SOL    HW128469   4.089   0.282   8.757  0.9282 -3.6244 -0.4193
 5669SOL    HW228470   3.948   0.253   8.769  1.4815 -3.7970 -1.1049
 5670SOL     OW28471   2.736   3.954   0.680 -0.0701 -0.1293 -0.2634
 5670SOL    HW128472   2.740   3.859   0.678  1.1296 -0.0848 -0.0899
 5670SOL    HW228473   2.747   3.973   0.774  0.4336  0.8189 -0.5158
 5671SOL     OW28474   3.235   2.176   5.076  0.0605  0.0241 -0.7299
 5671SOL    HW128475   3.254   2.159   4.984  1.3723 -2.9620  0.1097
 5671SOL    HW228476   3.214   2.087   5.105  0.6755  0.1894  0.1885
 5672SOL     OW28477   0.955   3.779   1.638  0.1054 -0.2757 -0.1457
 5672SOL    HW128478   0.907   3.843   1.585  1.4980  0.7630 -0.1860
 5672SOL    HW228479   0.905   3.780   1.719 -0.6170 -3.1181 -0.5639
 5673SOL     OW28480   1.173   0.551  11.925 -0.5236 -0.1028  0.2344
 5673SOL    HW128481   1.160   0.475  11.982  0.5134 -0.2522  0.2797
 5673SOL    HW228482   1.114   0.613  11.968 -0.2823  0.1286  0.2323
 5674SOL     OW28483   1.867   3.149   2.096 -0.6565  0.0718  0.1566
 5674SOL    HW128484   1.924   3.107   2.160  0.1480  0.2881 -0.4214
 5674SOL    HW228485   1.837   3.077   2.041 -0.3241  0.3570 -0.4024
 5675SOL     OW28486   3.330   2.609   8.005  0.0740 -0.1408 -0.2559
 5675SOL    HW128487   3.283   2.587   8.086  1.7528  1.1742  1.0670
 5675SOL    HW228488   3.262   2.651   7.953  1.1534  0.4404 -1.1984
 5676SOL     OW28489   4.664   1.836   2.944  0.0060 -0.5067 -0.1245
 5676SOL    HW128490   4.689   1.874   3.028 -2.7217 -0.4992  0.6655
 5676SOL    HW228491   4.666   1.910   2.885 -0.9702  1.3963  2.2352
 5677SOL     OW28492   4.165   4.184   2.879 -0.0734  0.0279 -0.0168
 5677SOL    HW128493   4.234   4.247   2.897  3.0874 -3.7057  0.8534
 5677SOL    HW228494   4.196   4.148   2.796 -0.1468  0.7307 -0.3492
 5678SOL     OW28495   4.032   2.148  11.620  0.4949 -0.1430 -0.1701
 5678SOL    HW128496   4.115   2.125  11.660  0.7312 -1.1066 -1.2133
 5678SOL    HW228497   4.063   2.187  11.538 -1.1050 -1.4500 -1.3898
 5679SOL     OW28498   1.813   4.489   6.550  0.4409  0.2359 -0.8528
 5679SOL    HW128499   1.900   4.468   6.515  0.2080 -0.5720 -0.9301
 5679SOL    HW228500   1.841   4.524   6.634 -0.9891  0.6631 -0.5659
 5680SOL     OW28501   4.646   1.567   5.581 -0.0807 -0.0950  0.1516
 5680SOL    HW128502   4.637   1.478   5.615  2.4717 -0.3680  0.1027
 5680SOL    HW228503   4.672   1.617   5.658 -0.1593 -1.0074  0.7734
 5681SOL     OW28504   0.915   1.029   0.981  0.6433 -0.2689  0.5669
 5681SOL    HW128505   0.983   1.005   0.918  0.3067 -1.9757  0.8403
 5681SOL    HW228506   0.867   0.945   0.983 -0.1450  0.1518 -0.5685
 5682SOL     OW28507   2.430   3.733   7.018 -0.4482  0.1557  0.3476
 5682SOL    HW128508   2.407   3.826   7.030 -1.9786  0.1254 -2.3310
 5682SOL    HW228509   2.485   3.734   6.940  0.8394  0.9364  1.2573
 5683SOL     OW28510   2.206   3.366   0.218 -0.6393 -1.3787 -0.1027
 5683SOL    HW128511   2.130   3.325   0.177 -1.4253  0.0297 -0.0815
 5683SOL    HW228512   2.155   3.414   0.284  1.2344 -1.9918  1.7706
 5684SOL     OW28513   0.752   2.183   5.484 -0.4690  0.2477  0.3220
 5684SOL    HW128514   0.706   2.257   5.523 -2.0725 -0.0056 -1.0597
 5684SOL    HW228515   0.805   2.212   5.409 -1.5402 -0.5777 -0.7632
 5685SOL     OW28516   1.596   2.444   7.453  0.0025  0.4640 -0.4541
 5685SOL    HW128517   1.642   2.524   7.429  0.6337  0.2052 -0.0959
 5685SOL    HW228518   1.641   2.403   7.527  1.8398  0.3423 -1.6575
 5686SOL     OW28519   0.809   0.941  17.384  0.0381  0.0726 -0.3908
 5686SOL    HW128520   0.789   1.034  17.396  0.7468  0.3317 -1.2380
 5686SOL    HW228521   0.724   0.919  17.347  1.0272 -1.6124 -1.6306
 5687SOL     OW28522   2.350   1.279   0.286 -0.3765 -0.0734  0.0556
 5687SOL    HW128523   2.290   1.319   0.223 -0.5387  0.9504  0.8501
 5687SOL    HW228524   2.308   1.196   0.305 -0.2600 -0.0210  0.5615
 5688SOL     OW28525   0.351   2.980   7.584 -0.2080  0.1615  0.0562
 5688SOL    HW128526   0.354   2.888   7.559  1.7001 -0.3419  2.1520
 5688SOL    HW228527   0.380   2.970   7.675  0.0047 -1.3507 -0.1864
 5689SOL     OW28528   2.688   3.308   5.277 -0.1508  0.2664  0.6452
 5689SOL    HW128529   2.772   3.269   5.301  0.1143  0.3556 -0.1451
 5689SOL    HW228530   2.684   3.371   5.349 -1.8564  0.6611  0.2023
 5690SOL     OW28531   2.713   3.690   0.793  0.1189  0.0716 -0.3380
 5690SOL    HW128532   2.657   3.619   0.826  1.2124 -0.0722  1.1848
 5690SOL    HW228533   2.708   3.750   0.866  1.7015 -1.9209  1.4060
 5691SOL     OW28534   3.468   3.919   4.805  0.5078  0.1333  0.0976
 5691SOL    HW128535   3.528   3.986   4.836  4.2730 -2.0275 -2.4950
 5691SOL    HW228536   3.537   3.877   4.754  0.8252 -0.5108  1.0755
 5692SOL     OW28537   2.570   4.073   5.618  0.2013 -0.3516  0.0284
 5692SOL    HW128538   2.517   4.147   5.646  3.1694  1.3348  1.1891
 5692SOL    HW228539   2.651   4.117   5.592  1.7183 -3.2623 -0.2586
 5693SOL     OW28540   1.648   4.255   2.318  0.0368  0.4151 -0.0792
 5693SOL    HW128541   1.603   4.184   2.365  0.2027  1.3990  1.5784
 5693SOL    HW228542   1.639   4.217   2.230  1.2892 -0.7459  0.2882
 5694SOL     OW28543   1.232   1.550   4.344  0.3122  0.0740  0.0397
 5694SOL    HW128544   1.141   1.536   4.373  0.4639 -0.9306  0.0298
 5694SOL    HW228545   1.265   1.460   4.343 -2.7420 -1.0540 -1.4145
 5695SOL     OW28546   3.086   1.138   0.798  0.3435  0.4915  0.0236
 5695SOL    HW128547   3.161   1.178   0.754 -1.0991 -0.9062 -3.6913
 5695SOL    HW228548   3.085   1.052   0.757 -2.2029 -0.2522  1.6414
 5696SOL     OW28549   2.833   1.889   5.670 -0.5444 -0.4747  1.0377
 5696SOL    HW128550   2.894   1.957   5.702 -1.1623  0.6108 -0.1082
 5696SOL    HW228551   2.786   1.950   5.613  0.2792 -1.2894 -0.5082
 5697SOL     OW28552   1.682   0.710  12.749 -0.0615  0.2927  0.0961
 5697SOL    HW128553   1.602   0.690  12.700 -0.9586  0.6558  1.4272
 5697SOL    HW228554   1.687   0.619  12.780  1.1037  0.4749  0.4276
 5698SOL     OW28555   2.824   0.560   8.714 -0.1717 -0.2771 -0.0062
 5698SOL    HW128556   2.896   0.525   8.766  0.7655 -2.3616 -2.7415
 5698SOL    HW228557   2.856   0.538   8.627 -1.2184 -1.9653  0.0482
 5699SOL     OW28558   2.206   0.993   7.367  0.1136 -0.7102 -0.1070
 5699SOL    HW128559   2.293   1.029   7.386  0.8018 -1.3049 -2.1758
 5699SOL    HW228560   2.171   1.047   7.297  1.3544 -1.2187 -1.1047
 5700SOL     OW28561   2.144   2.977   7.027  0.4698 -0.1317  0.0138
 5700SOL    HW128562   2.187   2.911   6.974 -0.0340  0.3967 -1.0743
 5700SOL    HW228563   2.169   3.056   6.979 -1.3926  0.9574  0.8025
 5701SOL     OW28564   1.238   4.566   7.771  0.2881  0.2509  0.1442
 5701SOL    HW128565   1.280   4.625   7.708  4.6049 -2.6476  0.3457
 5701SOL    HW228566   1.308   4.529   7.824 -0.4546 -0.4362  0.6421
 5702SOL     OW28567   1.508   0.802  14.265 -0.3799  0.2092  0.0147
 5702SOL    HW128568   1.544   0.874  14.318  1.7655  0.4788 -1.8172
 5702SOL    HW228569   1.563   0.730  14.295 -1.6984 -1.1879 -0.8986
 5703SOL     OW28570   3.810   2.826  17.628  0.2264  0.3447 -0.1543
 5703SOL    HW128571   3.780   2.770  17.557 -1.0570  0.6358  0.1559
 5703SOL    HW228572   3.867   2.772  17.683 -0.8547 -2.3927 -1.7313
 5704SOL     OW28573   2.035   0.659   7.220  0.0623  0.3936  0.4190
 5704SOL    HW128574   2.049   0.572   7.257 -1.3142 -0.7494 -1.7563
 5704SOL    HW228575   2.126   0.686   7.205  0.2538  1.1700  3.0440
 5705SOL     OW28576   3.582   2.743  10.385 -0.3860  0.0694  0.5196
 5705SOL    HW128577   3.644   2.682  10.346 -0.3941  0.6177 -0.3525
 5705SOL    HW228578   3.578   2.702  10.471 -0.6310  1.9784  1.4241
 5706SOL     OW28579   3.278   3.855   8.095  0.4662  0.4792  0.0279
 5706SOL    HW128580   3.327   3.936   8.100  1.4021  0.0037 -1.5293
 5706SOL    HW228581   3.200   3.877   8.044  0.5245  0.8794  0.1111
 5707SOL     OW28582   3.750   0.061   6.410  0.6096 -0.0288 -0.1400
 5707SOL    HW128583   3.765   4.708   6.467  0.9136 -0.5818 -0.9416
 5707SOL    HW228584   3.745   0.020   6.324 -0.0513 -1.4725  0.5989
 5708SOL     OW28585   4.527   4.401   4.878 -0.0827 -0.3554 -0.3389
 5708SOL    HW128586   4.438   4.432   4.863  0.8694  1.9196 -1.4272
 5708SOL    HW228587   4.513   4.317   4.920  0.7227 -0.1993  0.2517
 5709SOL     OW28588   4.074   1.008   2.671  0.1943 -0.3570  0.9660
 5709SOL    HW128589   4.030   0.957   2.739 -0.2708 -0.5399  0.5354
 5709SOL    HW228590   4.077   0.952   2.593  0.8125 -1.1405  1.5633
 5710SOL     OW28591   0.644   3.237   7.781  0.3972 -0.0103  0.0761
 5710SOL    HW128592   0.609   3.272   7.863  0.0523  0.8618 -0.4487
 5710SOL    HW228593   0.598   3.287   7.714 -1.0852  0.4159  1.4288
 5711SOL     OW28594   4.626   2.023   3.805  0.3686 -0.3715  0.2753
 5711SOL    HW128595   4.639   1.932   3.830  0.8222 -0.3787  0.0081
 5711SOL    HW228596   4.707   2.063   3.837 -0.1153  0.8066  0.0119
 5712SOL     OW28597   1.599   3.712   4.010 -0.5071  0.1199 -0.5841
 5712SOL    HW128598   1.584   3.782   4.074 -2.3659  0.3123 -1.2323
 5712SOL    HW228599   1.548   3.640   4.047 -0.2355  0.2269 -0.0175
 5713SOL     OW28600   0.591   3.362  10.005 -0.4873  0.3810 -0.0635
 5713SOL    HW128601   0.531   3.428   9.971 -1.6038 -0.2186  0.7455
 5713SOL    HW228602   0.669   3.417  10.008 -0.0484 -0.3423  1.5914
 5714SOL     OW28603   1.504   1.328  13.905  0.3404  0.6054 -0.4874
 5714SOL    HW128604   1.549   1.295  13.983  0.7074 -2.3694 -1.9621
 5714SOL    HW228605   1.436   1.379  13.950 -0.8727 -0.7417 -0.8088
 5715SOL     OW28606   2.767   1.439   3.919 -0.8128 -0.5000  0.0143
 5715SOL    HW128607   2.678   1.453   3.951 -0.6111  0.9212 -0.0479
 5715SOL    HW228608   2.750   1.454   3.826 -0.4152 -1.7726 -0.2592
 5716SOL     OW28609   3.192   2.780   1.459  0.4933 -0.0595 -0.4311
 5716SOL    HW128610   3.199   2.869   1.494 -2.0676 -0.1666  0.3770
 5716SOL    HW228611   3.103   2.763   1.491  0.6638  0.6292  0.4236
 5717SOL     OW28612   0.620   2.970   8.361 -0.3134  0.2125  0.1598
 5717SOL    HW128613   0.562   2.910   8.408 -0.5372  2.4786  2.8025
 5717SOL    HW228614   0.655   2.915   8.292  0.1343  0.2053  0.3884
 5718SOL     OW28615   1.887   1.677   3.434  0.1541 -0.7727  0.8294
 5718SOL    HW128616   1.844   1.644   3.355 -1.9920 -1.9009  2.4565
 5718SOL    HW228617   1.951   1.605   3.444 -0.7949 -1.4623  1.9992
 5719SOL     OW28618   2.420   0.769   5.488 -0.5391 -0.2883  0.2924
 5719SOL    HW128619   2.469   0.804   5.413  1.7374 -1.7210  1.1243
 5719SOL    HW228620   2.483   0.788   5.557 -1.1864 -2.2625  1.4349
 5720SOL     OW28621   2.832   1.515   2.374 -0.0320  0.5156 -0.1773
 5720SOL    HW128622   2.861   1.578   2.440 -0.2730  0.4207  0.0183
 5720SOL    HW228623   2.887   1.438   2.382  1.4612  1.3921 -1.9291
 5721SOL     OW28624   1.795   1.090   1.437 -0.0860 -0.1294  0.5305
 5721SOL    HW128625   1.809   1.021   1.373 -0.7497  0.5809 -0.3673
 5721SOL    HW228626   1.837   1.049   1.513  1.5298  3.1413  1.4360
 5722SOL     OW28627   4.107   0.642   8.963 -0.1576 -0.1116 -0.3330
 5722SOL    HW128628   4.115   0.553   8.998 -1.3058  0.3583  1.1516
 5722SOL    HW228629   4.185   0.662   8.912 -0.5513  0.9231 -0.5280
 5723SOL     OW28630   2.418   0.244  16.045 -0.0269  0.6717  0.1385
 5723SOL    HW128631   2.339   0.291  16.072 -0.4221  0.1070 -0.0282
 5723SOL    HW228632   2.413   0.172  16.107 -0.8372  1.2662  0.7577
 5724SOL     OW28633   0.457   3.578   9.921 -0.2688  0.3712  0.3369
 5724SOL    HW128634   0.533   3.619   9.878 -0.0991  2.7847  2.9817
 5724SOL    HW228635   0.383   3.581   9.860  1.7865  0.1202 -2.1893
 5725SOL     OW28636   1.671   3.437   5.753 -0.3806  0.0442 -0.1505
 5725SOL    HW128637   1.721   3.400   5.680 -1.6788  1.6697 -1.8802
 5725SOL    HW228638   1.595   3.378   5.758  0.0699 -0.4059  1.4953
 5726SOL     OW28639   4.420   4.138  16.070  0.7685  0.7707  0.0592
 5726SOL    HW128640   4.500   4.102  16.109  1.1976  1.7718  0.1184
 5726SOL    HW228641   4.382   4.069  16.016 -0.6863  0.5892  1.3347
 5727SOL     OW28642   2.809   2.468   8.653  0.4594  0.2364 -0.2533
 5727SOL    HW128643   2.762   2.448   8.735  0.5840 -2.2060 -0.7729
 5727SOL    HW228644   2.752   2.436   8.583  0.4314  0.3838 -0.2974
 5728SOL     OW28645   3.769   0.056   2.894 -0.4165 -0.9136 -0.3247
 5728SOL    HW128646   3.785   0.133   2.839 -3.4806 -0.5935 -0.7679
 5728SOL    HW228647   3.680   0.071   2.925  0.1410  0.1095  0.7954
 5729SOL     OW28648   0.397   0.684   7.927 -0.3320  0.2693 -0.4236
 5729SOL    HW128649   0.345   0.605   7.947  0.4824 -0.3808 -0.8697
 5729SOL    HW228650   0.416   0.671   7.834 -2.0101  0.2231 -0.7757
 5730SOL     OW28651   2.522   3.293   5.847 -0.0111 -0.0703 -0.2847
 5730SOL    HW128652   2.460   3.330   5.911  2.6980  3.9013  0.0332
 5730SOL    HW228653   2.467   3.302   5.769 -0.6879 -1.6550  0.0125
 5731SOL     OW28654   1.515   1.217   5.214 -0.0942 -0.2459 -0.4679
 5731SOL    HW128655   1.468   1.155   5.158 -1.1672  0.2241 -0.0682
 5731SOL    HW228656   1.450   1.286   5.210  0.4828  0.3034 -0.3888
 5732SOL     OW28657   0.970   1.195   0.525 -0.1851  0.0980  0.1231
 5732SOL    HW128658   0.928   1.267   0.478 -2.1942 -0.5185  0.9647
 5732SOL    HW228659   1.062   1.220   0.530 -1.0655  3.1481  1.1357
 5733SOL     OW28660   2.805   1.072   9.298  0.4929 -0.5425  0.1313
 5733SOL    HW128661   2.773   1.070   9.388 -0.1778  2.0885 -0.0438
 5733SOL    HW228662   2.773   1.153   9.257  3.5926  1.6485  2.0262
 5734SOL     OW28663   1.164   0.025  12.352 -0.1830  0.3961 -0.0513
 5734SOL    HW128664   1.187   0.101  12.298  0.4010 -0.5085 -1.0776
 5734SOL    HW228665   1.233   4.686  12.327 -0.4807  0.7069 -1.6627
 5735SOL     OW28666   2.702   2.616  10.416 -0.0523  0.2285  0.3793
 5735SOL    HW128667   2.661   2.695  10.381 -0.6603 -1.1758 -2.0530
 5735SOL    HW228668   2.731   2.645  10.503 -2.1696 -0.1169  1.2078
 5736SOL     OW28669   3.342   2.181   1.953 -0.0626 -0.1064  0.7419
 5736SOL    HW128670   3.284   2.206   2.025 -0.9657  0.5275 -0.2065
 5736SOL    HW228671   3.304   2.224   1.876  1.9612  1.8287  0.7941
 5737SOL     OW28672   1.372   0.328  14.729 -0.0721  0.0353  0.0803
 5737SOL    HW128673   1.362   0.351  14.636 -0.5933 -0.5053  0.0034
 5737SOL    HW228674   1.457   0.369  14.746 -0.4064  0.5391  0.5279
 5738SOL     OW28675   0.048   1.439   6.106 -0.0563  0.6042 -0.6966
 5738SOL    HW128676   0.076   1.471   6.191 -0.9851 -3.3485  1.1115
 5738SOL    HW228677   0.049   1.344   6.120 -3.3641  0.3033 -2.4806
 5739SOL     OW28678   1.966   0.472   6.141  0.0384 -0.1906 -0.1037
 5739SOL    HW128679   1.975   0.463   6.046  0.4719  3.1156 -0.3727
 5739SOL    HW228680   1.877   0.506   6.145  1.7775  4.0964  1.2334
 5740SOL     OW28681   1.817   3.857  13.357 -0.7847  0.1044 -0.0671
 5740SOL    HW128682   1.881   3.797  13.318 -1.2590  1.2289 -2.6206
 5740SOL    HW228683   1.779   3.808  13.429  1.1174  0.6979  1.3289
 5741SOL     OW28684   0.845   1.576   3.277  0.5419 -0.0319  0.2260
 5741SOL    HW128685   0.799   1.592   3.194  2.3839 -1.4416 -1.0712
 5741SOL    HW228686   0.792   1.621   3.342 -1.3558  0.2923 -1.5603
 5742SOL     OW28687   3.575   2.632   5.968  0.1648  0.3524 -0.0291
 5742SOL    HW128688   3.627   2.712   5.975 -0.3129  0.6075  0.6854
 5742SOL    HW228689   3.621   2.588   5.896 -0.6123 -1.8707  0.8188
 5743SOL     OW28690   3.858   4.509   7.194  0.2047  0.3540  0.0289
 5743SOL    HW128691   3.891   4.594   7.222 -1.8439  0.1007  3.1870
 5743SOL    HW228692   3.765   4.532   7.184  0.6065  1.3428 -1.4798
 5744SOL     OW28693   1.635   2.923   5.390  0.1922  0.3773 -0.2486
 5744SOL    HW128694   1.582   2.859   5.438  0.2274 -1.0198 -2.0344
 5744SOL    HW228695   1.618   2.897   5.299  0.7508 -0.0578 -0.2261
 5745SOL     OW28696   1.399   0.181  10.808  0.3317 -0.4196  0.1041
 5745SOL    HW128697   1.418   0.142  10.894  0.4471 -0.6681 -0.0339
 5745SOL    HW228698   1.472   0.146  10.758  1.3683  0.7871  0.7690
 5746SOL     OW28699   4.425   3.058  13.404  0.1935  0.2767 -0.4775
 5746SOL    HW128700   4.433   3.096  13.492 -0.5526  0.5179 -0.5088
 5746SOL    HW228701   4.356   2.992  13.413  0.6663 -0.0625  0.6585
 5747SOL     OW28702   2.573   2.676   8.406  0.1042 -0.3364  0.2956
 5747SOL    HW128703   2.552   2.733   8.480  1.8997  0.4906  0.1537
 5747SOL    HW228704   2.662   2.702   8.384 -0.6913  1.3718 -0.9209
 5748SOL     OW28705   2.747   2.323   8.250 -0.0699  0.2540  0.1326
 5748SOL    HW128706   2.725   2.395   8.191  0.0993 -0.0127 -0.2581
 5748SOL    HW228707   2.725   2.372   8.330  0.0636  2.4960 -1.1972
 5749SOL     OW28708   3.180   3.584   6.431 -0.7533  0.5904  0.2626
 5749SOL    HW128709   3.126   3.507   6.411 -1.2619  2.3081 -4.9699
 5749SOL    HW228710   3.134   3.653   6.385  2.2563  1.8677 -0.8562
 5750SOL     OW28711   4.017   0.827   4.451 -0.2425  0.5095  0.3013
 5750SOL    HW128712   4.062   0.750   4.418 -0.2203  1.1630 -1.1977
 5750SOL    HW228713   4.056   0.844   4.537 -1.5519  1.6959  0.6670
 5751SOL     OW28714   1.334   0.748   2.287  0.0622  0.0893 -0.0888
 5751SOL    HW128715   1.369   0.824   2.334  3.1279  0.4981 -2.9829
 5751SOL    HW228716   1.241   0.761   2.302 -0.1691 -0.2837 -1.2333
 5752SOL     OW28717   4.347   4.409   3.897  0.0546 -0.5866 -0.0062
 5752SOL    HW128718   4.387   4.475   3.840 -1.8562  0.5141 -0.0889
 5752SOL    HW228719   4.422   4.378   3.947 -0.6733 -0.9729  0.8432
 5753SOL     OW28720   1.386   2.721   4.357 -0.3839  0.4027  0.0777
 5753SOL    HW128721   1.449   2.709   4.286 -2.7875 -1.5270 -1.7456
 5753SOL    HW228722   1.307   2.674   4.333 -0.2287 -0.0142  0.3803
 5754SOL     OW28723   0.931   3.365   4.890  0.2446  0.7024 -0.1188
 5754SOL    HW128724   0.924   3.460   4.888 -1.0268  0.5944 -0.3869
 5754SOL    HW228725   1.026   3.364   4.873  0.0964  0.6599 -0.9453
 5755SOL     OW28726   2.281   1.207   2.506  0.4114 -0.1367  0.1958
 5755SOL    HW128727   2.330   1.262   2.445  0.5931 -0.4471  0.0618
 5755SOL    HW228728   2.341   1.215   2.580  0.0257 -2.5346  0.7688
 5756SOL     OW28729   1.224   1.661   4.802  0.4379  0.0561 -0.3524
 5756SOL    HW128730   1.272   1.713   4.867 -0.1681  0.9668 -0.6453
 5756SOL    HW228731   1.139   1.703   4.796  0.8306  0.9607  0.4469
 5757SOL     OW28732   3.383   1.732  12.925  0.1798 -0.0671 -0.2725
 5757SOL    HW128733   3.353   1.683  12.848  0.4809  1.0231 -1.0881
 5757SOL    HW228734   3.331   1.812  12.929  0.2649 -0.0412  0.3239
 5758SOL     OW28735   4.010   0.998  15.476  0.3144  0.0313 -0.2140
 5758SOL    HW128736   3.939   1.050  15.439 -0.9412 -2.4689 -1.3247
 5758SOL    HW228737   4.078   1.000  15.409  0.0022  2.0468 -0.4772
 5759SOL     OW28738   2.188   0.597   9.125  0.1146 -0.4893  0.3435
 5759SOL    HW128739   2.125   0.529   9.101  0.1968  0.4310 -2.5401
 5759SOL    HW228740   2.170   0.664   9.059 -2.4759 -0.1470  1.4372
 5760SOL     OW28741   2.254   0.295   5.194 -0.1557  0.4487  0.2497
 5760SOL    HW128742   2.260   0.321   5.102 -0.7027  2.0123  0.6514
 5760SOL    HW228743   2.170   0.250   5.200  0.3535 -0.8544 -2.3721
 5761SOL     OW28744   0.154   4.375  16.387  0.0315  0.2907  0.1500
 5761SOL    HW128745   0.241   4.361  16.348 -1.3733  0.3090 -2.9962
 5761SOL    HW228746   0.169   4.390  16.480  1.9364 -0.0893 -0.0924
 5762SOL     OW28747   1.904   1.799  16.917 -0.2429  0.4541 -0.1535
 5762SOL    HW128748   1.899   1.706  16.938  1.8800  0.3789 -0.0088
 5762SOL    HW228749   1.881   1.800  16.824  0.6912 -2.6186 -0.4180
 5763SOL     OW28750   2.336   2.012   6.602  0.0686  0.4505 -0.4083
 5763SOL    HW128751   2.296   2.081   6.655  1.1586  0.6234  0.2044
 5763SOL    HW228752   2.322   2.052   6.516 -0.1377  0.5423 -0.3298
 5764SOL     OW28753   4.596   0.111  16.038  0.2526  0.5214 -0.3982
 5764SOL    HW128754   4.645   0.069  15.968  3.0136 -0.3828  2.0759
 5764SOL    HW228755   4.542   0.040  16.073  2.0295  1.3811  4.0632
 5765SOL     OW28756   3.029   2.101   2.934 -0.6895 -0.0202 -0.2336
 5765SOL    HW128757   2.977   2.022   2.942 -0.4309  0.0624  2.3587
 5765SOL    HW228758   3.063   2.118   3.022 -4.6622 -0.3885  1.3830
 5766SOL     OW28759   1.986   0.085   6.562  0.1530 -0.1455 -0.3232
 5766SOL    HW128760   2.051   0.026   6.523 -0.1599  2.1477 -4.2601
 5766SOL    HW228761   2.017   0.172   6.537 -1.1730 -0.1273 -1.9209
 5767SOL     OW28762   4.360   2.195  15.848  0.1811  0.6148  0.4082
 5767SOL    HW128763   4.308   2.115  15.840  0.1148  0.4547  2.4041
 5767SOL    HW228764   4.352   2.235  15.761  2.5547  2.5272  1.0927
 5768SOL     OW28765   0.916   0.763   7.521 -0.0006  0.0246 -0.1060
 5768SOL    HW128766   0.824   0.736   7.513  0.2167 -0.9698  0.8295
 5768SOL    HW228767   0.912   0.819   7.600 -2.2174  2.0284 -1.6273
 5769SOL     OW28768   4.061   4.576  14.016  0.0320  0.8415  0.0566
 5769SOL    HW128769   4.055   4.535  13.929 -2.1774  1.0184  0.1346
 5769SOL    HW228770   3.969   4.597  14.028 -0.2828 -1.1852  1.1774
 5770SOL     OW28771   0.760   0.854   6.173  0.0766 -0.6772 -0.2769
 5770SOL    HW128772   0.821   0.837   6.245  1.6101 -1.1573 -1.6886
 5770SOL    HW228773   0.718   0.770   6.159  0.1390 -0.5522 -1.2532
 5771SOL     OW28774   1.093   3.767   0.766 -0.3716 -0.1160  0.5124
 5771SOL    HW128775   1.073   3.773   0.859 -1.7761 -0.4248  0.2326
 5771SOL    HW228776   1.145   3.688   0.752 -0.3321  0.1960 -1.1182
 5772SOL     OW28777   1.781   3.663   8.496 -0.0519 -0.0597 -0.6824
 5772SOL    HW128778   1.832   3.741   8.518 -0.8705 -0.3906  2.2952
 5772SOL    HW228779   1.711   3.658   8.561 -1.3392 -0.2399 -2.0917
 5773SOL     OW28780   4.035   2.528   1.244  0.1860  0.2985  0.5514
 5773SOL    HW128781   4.075   2.540   1.330  0.3162  0.1130  0.5161
 5773SOL    HW228782   3.999   2.616   1.230  0.6577  0.5367  0.8202
 5774SOL     OW28783   4.436   3.092   9.785 -0.0571 -0.0859 -0.4262
 5774SOL    HW128784   4.475   3.096   9.698  1.7955 -0.5377  0.3884
 5774SOL    HW228785   4.357   3.042   9.762  0.8632 -1.6068 -0.3167
 5775SOL     OW28786   4.085   0.258   1.688 -0.3558  0.5817 -0.3777
 5775SOL    HW128787   4.031   0.335   1.706 -1.0826 -0.4522  1.8176
 5775SOL    HW228788   4.098   0.274   1.594  1.9882  0.8251 -0.0150
 5776SOL     OW28789   4.290   1.428   7.567  0.2262  0.1926  0.3879
 5776SOL    HW128790   4.365   1.481   7.540  0.2922  1.0538  2.2734
 5776SOL    HW228791   4.314   1.339   7.541  2.8776  0.7199  1.0249
 5777SOL     OW28792   1.209   3.619   5.267  0.4269  0.3728  0.4173
 5777SOL    HW128793   1.219   3.673   5.189 -1.5191 -1.1978 -0.9202
 5777SOL    HW228794   1.288   3.649   5.312  0.0405 -0.5725  1.7343
 5778SOL     OW28795   0.720   2.221  13.711  0.4449  0.1413 -0.0874
 5778SOL    HW128796   0.781   2.284  13.671  0.0683  0.4553 -0.1666
 5778SOL    HW228797   0.758   2.141  13.676  0.9932  0.7936 -0.9983
 5779SOL     OW28798   3.907   4.000   4.209  0.3196  0.7793 -0.0693
 5779SOL    HW128799   3.898   3.926   4.268  0.2466  0.7011 -0.1780
 5779SOL    HW228800   3.889   3.961   4.123 -0.5720  1.1842 -0.0684
 5780SOL     OW28801   2.861   0.838   5.120  0.1895  0.3138 -0.0133
 5780SOL    HW128802   2.931   0.903   5.108  0.8595 -0.3084  0.4978
 5780SOL    HW228803   2.866   0.825   5.215  0.7032  0.9458  0.0483
 5781SOL     OW28804   3.576   1.323   7.346 -0.4725  0.2222 -0.1118
 5781SOL    HW128805   3.653   1.272   7.371 -1.2139 -0.7799  0.1420
 5781SOL    HW228806   3.592   1.364   7.261  0.6187 -0.7925 -0.4012
 5782SOL     OW28807   2.340   3.054   4.100 -0.1288  0.0779 -0.6106
 5782SOL    HW128808   2.279   2.997   4.148  1.6988 -0.7074  0.7349
 5782SOL    HW228809   2.289   3.128   4.065  0.1240 -0.1153 -1.3958
 5783SOL     OW28810   2.006   1.222   2.525  0.4451  0.6860 -0.0676
 5783SOL    HW128811   1.998   1.149   2.586 -1.8690  0.4539 -0.6753
 5783SOL    HW228812   2.094   1.223   2.486  1.3793  1.7316  2.0258
 5784SOL     OW28813   3.040   2.294   9.069  1.2795  0.4527 -0.3509
 5784SOL    HW128814   3.048   2.275   8.976 -1.9154 -2.1247 -0.1440
 5784SOL    HW228815   3.040   2.389   9.082  0.8354  0.2775  0.9358
 5785SOL     OW28816   2.255   2.798   6.479  0.2669  0.3195 -0.5963
 5785SOL    HW128817   2.342   2.781   6.441 -0.0123 -0.8562 -0.7000
 5785SOL    HW228818   2.236   2.882   6.437  0.3196  1.3681  1.4997
 5786SOL     OW28819   0.402   0.156   1.606  0.0964  0.0435 -0.2612
 5786SOL    HW128820   0.343   0.209   1.659 -0.1653 -1.2113  0.6904
 5786SOL    HW228821   0.417   0.074   1.652 -2.8324 -0.6893 -0.6684
 5787SOL     OW28822   3.367   2.017   4.813  0.4351  0.3019  0.2208
 5787SOL    HW128823   3.273   2.014   4.795  0.3645  0.9514  0.4979
 5787SOL    HW228824   3.397   2.004   4.724  0.8644  1.1989  0.2343
 5788SOL     OW28825   0.089   3.241  14.011  0.3600  0.6160  0.7593
 5788SOL    HW128826   0.082   3.212  14.102  1.9643 -0.9400  0.3699
 5788SOL    HW228827   0.004   3.286  14.014  0.8588  1.5202  1.4359
 5789SOL     OW28828   0.186   4.631   9.260 -0.6244  0.0026  0.0874
 5789SOL    HW128829   0.182   4.544   9.220 -0.6187 -0.0640  0.2304
 5789SOL    HW228830   0.096   4.660   9.275 -0.3993  0.3592  0.7416
 5790SOL     OW28831   1.609   4.227  14.063  0.4837  0.0881  0.0073
 5790SOL    HW128832   1.611   4.306  14.117  0.6667  0.6720 -0.8509
 5790SOL    HW228833   1.640   4.269  13.983  0.0895 -0.2663 -0.3304
 5791SOL     OW28834   0.171   2.428  14.392 -0.2733  0.2744 -0.5137
 5791SOL    HW128835   0.101   2.491  14.376 -0.4144 -0.1043 -1.4025
 5791SOL    HW228836   0.212   2.462  14.472  0.1720  0.9712 -1.0403
 5792SOL     OW28837   3.307   1.521   6.713  0.2934 -0.2984  0.2479
 5792SOL    HW128838   3.279   1.437   6.748  2.6374 -0.2171  2.3601
 5792SOL    HW228839   3.269   1.510   6.626  0.3734 -0.1339  0.1910
 5793SOL     OW28840   4.531   4.542  17.650 -0.9441 -0.1488 -0.0750
 5793SOL    HW128841   4.610   4.534   0.011 -0.3499  0.3084 -0.8892
 5793SOL    HW228842   4.533   4.460  17.601  0.1906 -0.1005 -0.1070
 5794SOL     OW28843   1.444   4.073   1.808  0.1541 -0.1084 -0.0551
 5794SOL    HW128844   1.422   4.019   1.884  0.5014  1.1118  0.9319
 5794SOL    HW228845   1.364   4.074   1.756  1.8068 -0.7163 -2.5728
 5795SOL     OW28846   0.691   2.102   8.952 -0.0409  0.1194  0.0020
 5795SOL    HW128847   0.675   2.173   8.890  0.5202  1.3591  1.2757
 5795SOL    HW228848   0.682   2.143   9.038 -0.2229  0.7447 -0.3176
 5796SOL     OW28849   2.680   3.515  14.878  0.5088  0.5780  0.0913
 5796SOL    HW128850   2.737   3.463  14.936 -2.7603 -0.7053  2.1282
 5796SOL    HW228851   2.742   3.570  14.830  1.2976 -0.6907 -0.3521
 5797SOL     OW28852   2.165   2.905  10.220  0.0755  0.5976 -0.4298
 5797SOL    HW128853   2.230   2.838  10.244  0.0164  0.9951  0.8732
 5797SOL    HW228854   2.194   2.979  10.274  2.0350  0.8524 -1.8276
 5798SOL     OW28855   4.083   4.380  16.323  0.1878 -0.3522 -0.0180
 5798SOL    HW128856   4.018   4.323  16.364  0.0569  0.1584  0.4885
 5798SOL    HW228857   4.165   4.331  16.335 -0.9548 -2.4764 -0.9705
 5799SOL     OW28858   2.606   0.425  12.260 -0.2178 -0.1984  0.1266
 5799SOL    HW128859   2.549   0.501  12.249  1.3086  1.1570  1.5148
 5799SOL    HW228860   2.542   0.372  12.307 -0.0402  2.3738  3.2948
 5800SOL     OW28861   0.038   1.057  14.395 -0.3369 -0.1236  0.2044
 5800SOL    HW128862   4.702   0.981  14.404 -1.9180  1.1329  0.4586
 5800SOL    HW228863   0.086   1.034  14.316  0.5323  0.6421  0.5139
 5801SOL     OW28864   4.270   3.784   5.482  0.1326 -0.3910 -0.1033
 5801SOL    HW128865   4.333   3.722   5.520 -0.9812 -1.4147  0.1010
 5801SOL    HW228866   4.319   3.823   5.410 -0.4134  0.6450  0.0892
 5802SOL     OW28867   0.530   1.094   7.170 -0.6047 -0.4509  0.2334
 5802SOL    HW128868   0.444   1.056   7.150 -0.8908 -0.5328  1.6023
 5802SOL    HW228869   0.572   1.058   7.092  1.8627 -0.4242  1.5358
 5803SOL     OW28870   3.955   2.111  14.613  0.1964  0.6041  0.2078
 5803SOL    HW128871   3.907   2.099  14.531 -0.5096  1.2544  0.5267
 5803SOL    HW228872   4.037   2.103  14.563  1.9813 -3.1267  3.7048
 5804SOL     OW28873   4.311   4.694  14.042 -0.3010 -0.1458  0.2260
 5804SOL    HW128874   4.329   4.713  13.950  1.9209 -0.8642  0.5194
 5804SOL    HW228875   4.218   4.672  14.031 -0.6376  2.1524 -1.3764
 5805SOL     OW28876   4.502   3.285   6.635 -0.5690  0.4740  0.6571
 5805SOL    HW128877   4.517   3.313   6.544  0.0615 -2.4773 -0.1557
 5805SOL    HW228878   4.573   3.326   6.684  0.9378  0.1498 -1.2085
 5806SOL     OW28879   2.627   1.659  10.677 -0.3956 -0.0800  0.5309
 5806SOL    HW128880   2.595   1.749  10.679  0.2640  0.2038 -1.2915
 5806SOL    HW228881   2.698   1.655  10.742  1.4642 -0.7269 -1.5117
 5807SOL     OW28882   1.260   4.623  12.777  0.1063 -0.2897  0.1652
 5807SOL    HW128883   1.191   4.676  12.736  1.3364  0.7541 -0.5523
 5807SOL    HW228884   1.323   4.694  12.787 -1.8105  1.5553 -0.8462
 5808SOL     OW28885   0.649   2.709   5.326 -0.4583  0.8658  0.4102
 5808SOL    HW128886   0.624   2.794   5.291  0.5983 -0.2560 -3.0477
 5808SOL    HW228887   0.575   2.655   5.298  0.6370  0.7700 -2.2912
 5809SOL     OW28888   1.165   0.228  10.572 -0.0437  0.0191 -0.5799
 5809SOL    HW128889   1.218   0.307  10.563  1.7216 -1.0520  0.5117
 5809SOL    HW228890   1.188   0.210  10.663  0.6459 -0.8047 -0.9087
 5810SOL     OW28891   4.656   3.438   1.584 -0.1946  0.8196  0.1834
 5810SOL    HW128892   4.571   3.444   1.628 -0.9644  0.8301 -1.2984
 5810SOL    HW228893   4.710   3.452   1.662 -1.5487 -0.8078  1.3962
 5811SOL     OW28894   2.513   4.551   6.261  0.4420  0.2849  0.1167
 5811SOL    HW128895   2.458   4.487   6.217  1.6364 -0.3145 -0.5028
 5811SOL    HW228896   2.509   4.516   6.350  3.9803 -0.8034 -0.1632
 5812SOL     OW28897   2.478   1.188   3.585  0.0911 -0.1875 -0.3073
 5812SOL    HW128898   2.486   1.276   3.549  1.1726 -0.1333  0.0605
 5812SOL    HW228899   2.471   1.141   3.502  2.1264  1.1893 -1.2603
 5813SOL     OW28900   1.665   2.061   7.133  0.1915  0.1363 -0.3057
 5813SOL    HW128901   1.696   2.048   7.043 -1.8419 -0.0887 -0.9667
 5813SOL    HW228902   1.749   2.054   7.178  0.5688  0.8869 -0.8872
 5814SOL     OW28903   0.641   2.412  16.169 -0.4606 -0.4648 -0.1196
 5814SOL    HW128904   0.602   2.431  16.254  2.8770  1.2726  1.0590
 5814SOL    HW228905   0.590   2.474  16.116  0.2799  0.7759  0.5983
 5815SOL     OW28906   0.311   0.697  12.432  0.1368  0.2381 -0.3011
 5815SOL    HW128907   0.242   0.720  12.370 -0.5376  0.9327  0.7162
 5815SOL    HW228908   0.370   0.768  12.408  0.8650  0.1811  1.3339
 5816SOL     OW28909   0.234   1.877   7.784  0.6338  0.0429 -0.3670
 5816SOL    HW128910   0.257   1.954   7.835  0.5623 -0.0348 -0.2175
 5816SOL    HW228911   0.186   1.825   7.848  0.5104 -0.4682 -0.8721
 5817SOL     OW28912   1.250   2.613   3.603 -0.4532 -0.1981  0.1775
 5817SOL    HW128913   1.274   2.609   3.511  0.1477  2.0747  0.2506
 5817SOL    HW228914   1.175   2.671   3.607  0.3913  0.8735  0.4711
 5818SOL     OW28915   2.683   3.859   6.190 -0.5440 -0.2529 -0.4639
 5818SOL    HW128916   2.656   3.870   6.099  2.3807  4.8342 -0.7100
 5818SOL    HW228917   2.600   3.902   6.210  0.1891  1.6573 -1.4683
 5819SOL     OW28918   2.424   3.722   4.831  0.8478  0.3444  0.0712
 5819SOL    HW128919   2.386   3.635   4.817  0.0459  0.4626  1.5099
 5819SOL    HW228920   2.380   3.751   4.912  1.0090 -1.0078  0.6414
 5820SOL     OW28921   0.278   3.074   6.306  0.0380  0.0186 -0.8007
 5820SOL    HW128922   0.353   3.015   6.315  0.4078  0.6839  0.5698
 5820SOL    HW228923   0.314   3.162   6.307  1.0063 -0.3815 -0.2169
 5821SOL     OW28924   3.965   1.928   3.711  0.5070 -0.0705  0.0734
 5821SOL    HW128925   3.985   2.021   3.718 -1.2456  0.0865  3.0476
 5821SOL    HW228926   4.008   1.893   3.789  0.4629  1.1496  0.6474
 5822SOL     OW28927   0.221   1.934  12.998  0.2098  0.0725  0.3923
 5822SOL    HW128928   0.229   2.029  13.005  2.6063 -0.0816 -0.2766
 5822SOL    HW228929   0.159   1.920  12.927  0.3996  1.3945 -0.0357
 5823SOL     OW28930   3.893   2.399   3.535  0.5517 -0.1372 -0.7409
 5823SOL    HW128931   3.972   2.374   3.583  0.0904 -0.2903 -0.0681
 5823SOL    HW228932   3.826   2.407   3.602  1.3247  2.0568 -0.2413
 5824SOL     OW28933   0.626   1.336  11.631 -0.5900 -0.0049  0.3565
 5824SOL    HW128934   0.664   1.392  11.698 -2.1615  0.2266  1.0475
 5824SOL    HW228935   0.604   1.256  11.679 -0.2630  0.5207  1.3844
 5825SOL     OW28936   3.280   0.405  11.159  0.2155  0.0870  0.3484
 5825SOL    HW128937   3.203   0.386  11.105 -0.4986  0.8046  1.1067
 5825SOL    HW228938   3.318   0.318  11.168  1.3506  0.6879  1.3884
 5826SOL     OW28939   2.175   4.020   7.025 -0.0926 -0.4023 -0.0506
 5826SOL    HW128940   2.117   4.050   6.955  0.5628  1.3562  0.1472
 5826SOL    HW228941   2.130   4.041   7.108 -0.7704  0.7692 -0.7103
 5827SOL     OW28942   4.668   4.620   7.553 -0.3480  0.3909 -0.0068
 5827SOL    HW128943   4.666   4.715   7.566  0.2815  0.4861 -0.5834
 5827SOL    HW228944   0.014   4.614   7.487 -1.4696 -2.0312 -0.9395
 5828SOL     OW28945   2.676   1.348  13.156 -0.0316 -1.0710 -0.4302
 5828SOL    HW128946   2.683   1.261  13.194 -4.0377  0.7900  4.5864
 5828SOL    HW228947   2.740   1.398  13.206 -0.3595 -0.7727 -0.3070
 5829SOL     OW28948   0.179   1.848   5.635 -0.1165  0.6226 -0.3180
 5829SOL    HW128949   0.246   1.898   5.589  0.1546  0.3190 -0.2527
 5829SOL    HW228950   0.103   1.905   5.629 -0.2359  0.5119  0.1352
 5830SOL     OW28951   2.484   2.789   4.896 -0.2780 -0.1538 -0.0415
 5830SOL    HW128952   2.399   2.827   4.876  0.5437  2.0334  0.6374
 5830SOL    HW228953   2.491   2.762   4.988 -0.7616  2.7221  0.8344
 5831SOL     OW28954   3.318   2.725   3.776  0.1666  0.1179  0.4220
 5831SOL    HW128955   3.265   2.676   3.713 -0.2939  1.4899 -0.2654
 5831SOL    HW228956   3.259   2.799   3.794 -1.3242 -1.3537  1.6544
 5832SOL     OW28957   4.684   0.780   1.719  0.2765  0.4938 -0.2459
 5832SOL    HW128958   4.663   0.860   1.768 -0.4340 -0.5801  1.2284
 5832SOL    HW228959   0.057   0.779   1.721  0.2450  2.4769  2.1008
 5833SOL     OW28960   3.208   4.291   0.415 -0.3363  0.4586 -0.3944
 5833SOL    HW128961   3.226   4.219   0.475  0.4821 -0.7297 -2.0786
 5833SOL    HW228962   3.115   4.269   0.408 -0.5708  0.1794  3.6797
 5834SOL     OW28963   0.556   4.450   2.346 -0.2200 -0.1346 -0.5259
 5834SOL    HW128964   0.591   4.539   2.346 -1.4375  0.3434  2.1768
 5834SOL    HW228965   0.616   4.417   2.279  1.8858  1.6178  0.5085
 5835SOL     OW28966   4.150   1.892   0.589  0.3221 -0.2521 -0.2618
 5835SOL    HW128967   4.135   1.948   0.512 -2.0891 -1.6596 -0.8155
 5835SOL    HW228968   4.118   1.946   0.661 -2.3210 -2.2706  0.0678
 5836SOL     OW28969   3.519   3.188   4.223  0.2554  0.1174 -0.5879
 5836SOL    HW128970   3.507   3.251   4.152  2.9355 -0.5297 -1.6282
 5836SOL    HW228971   3.576   3.240   4.280  2.8041  0.3507 -3.3836
 5837SOL     OW28972   0.598   4.654   9.405  0.1399  0.5352  0.4088
 5837SOL    HW128973   0.607   4.562   9.378  2.3497  1.0485 -0.5693
 5837SOL    HW228974   0.511   4.656   9.445  0.0930 -0.8409  0.3913
 5838SOL     OW28975   4.005   4.509   1.598 -0.0963 -0.1695  0.3158
 5838SOL    HW128976   4.100   4.513   1.609  0.0195 -0.9306 -0.3644
 5838SOL    HW228977   3.973   4.599   1.593  2.5278  0.7022 -1.0475
 5839SOL     OW28978   3.751   1.777  11.687 -0.3175 -0.5030 -0.2912
 5839SOL    HW128979   3.742   1.773  11.592 -2.4854 -0.1681 -0.1018
 5839SOL    HW228980   3.816   1.708  11.703 -1.0459 -0.8784  1.0198
 5840SOL     OW28981   2.869   3.964   8.097  0.5893 -0.6551 -0.6898
 5840SOL    HW128982   2.815   4.031   8.054 -0.5480 -2.8551 -2.7154
 5840SOL    HW228983   2.806   3.931   8.162  0.1255 -0.1928 -0.8987
 5841SOL     OW28984   3.988   1.084  14.302 -0.1976  0.3571  0.4706
 5841SOL    HW128985   4.026   1.080  14.389  1.0837  1.0596 -0.0549
 5841SOL    HW228986   4.060   1.096  14.240  0.4960 -2.3048  0.7928
 5842SOL     OW28987   1.510   1.337  10.487  0.3783 -0.3150 -0.3874
 5842SOL    HW128988   1.596   1.334  10.445  0.0182  0.6595 -1.1781
 5842SOL    HW228989   1.507   1.410  10.549 -0.0844 -0.7232  0.0673
 5843SOL     OW28990   2.893   1.534   1.342 -0.1187  0.0985 -0.1619
 5843SOL    HW128991   2.946   1.455   1.334 -1.3953 -0.8015  0.2697
 5843SOL    HW228992   2.936   1.581   1.415  1.2800  0.2987 -1.1160
 5844SOL     OW28993   4.049   3.898  12.161 -0.1747 -0.1014  0.2360
 5844SOL    HW128994   4.040   3.856  12.246  0.9181  0.4625  0.6277
 5844SOL    HW228995   4.067   3.828  12.099  0.2758 -0.6815  1.0213
 5845SOL     OW28996   2.435   2.291   3.697  0.1900  0.0931 -0.0992
 5845SOL    HW128997   2.524   2.259   3.712  0.7147  1.0843 -1.1728
 5845SOL    HW228998   2.397   2.294   3.785 -0.0664 -2.7296 -0.1116
 5846SOL     OW28999   0.348   0.893   4.648  0.0984  0.2287 -0.1511
 5846SOL    HW129000   0.414   0.963   4.643 -1.6509  1.9300  0.5378
 5846SOL    HW229001   0.278   0.925   4.592  0.0819  1.9236  0.8487
 5847SOL     OW29002   1.005   1.498   8.666 -0.3679 -0.1414 -0.1504
 5847SOL    HW129003   0.986   1.533   8.578 -1.7297 -0.0428  0.1865
 5847SOL    HW229004   1.091   1.465   8.641 -1.6183 -2.6012 -1.1771
 5848SOL     OW29005   1.493   3.188   5.549  0.5567  0.1306 -0.4316
 5848SOL    HW129006   1.400   3.176   5.569  0.2960  0.3323 -1.4946
 5848SOL    HW229007   1.506   3.110   5.494  0.4962  1.4322 -2.3045
 5849SOL     OW29008   0.628   1.146   3.638 -0.4441 -0.1849  0.9187
 5849SOL    HW129009   0.643   1.197   3.558 -0.2867  0.1137  1.1393
 5849SOL    HW229010   0.717   1.150   3.673  0.1584  3.0866 -0.9388
 5850SOL     OW29011   3.913   3.935  11.266 -0.2691 -0.3918 -0.3304
 5850SOL    HW129012   3.949   3.998  11.328  0.3310 -1.0015 -0.0579
 5850SOL    HW229013   3.976   3.943  11.194 -1.0271  0.7570 -0.8714
 5851SOL     OW29014   1.806   2.598   6.778 -0.0572  0.0085  0.0750
 5851SOL    HW129015   1.811   2.685   6.818  2.8521  1.1433 -2.7625
 5851SOL    HW229016   1.786   2.619   6.687 -3.1143  0.5766  0.8632
 5852SOL     OW29017   3.543   3.476  10.033 -0.0235  0.4305  0.0858
 5852SOL    HW129018   3.634   3.452  10.016  0.5402  0.2042  3.4744
 5852SOL    HW229019   3.507   3.423   9.961  3.2706 -1.7082  0.0300
 5853SOL     OW29020   0.817   0.326  14.006  0.2158 -0.0464  0.6650
 5853SOL    HW129021   0.875   0.319  13.931  1.0239 -2.2132  1.4922
 5853SOL    HW229022   0.866   0.388  14.061 -1.7867  1.9132  0.2494
 5854SOL     OW29023   3.246   3.031   5.562 -0.1251 -0.4945  0.0730
 5854SOL    HW129024   3.156   3.051   5.538  0.3226 -1.7860 -2.7026
 5854SOL    HW229025   3.282   3.017   5.475  1.6912 -1.5341  0.9795
 5855SOL     OW29026   3.432   2.547   5.628 -0.3540 -0.5736  0.3198
 5855SOL    HW129027   3.376   2.624   5.643  1.0374  0.4378  0.2524
 5855SOL    HW229028   3.389   2.485   5.688 -0.5907  0.2211  0.9679
 5856SOL     OW29029   3.866   3.265   0.728  0.1099 -0.7298  0.0034
 5856SOL    HW129030   3.845   3.340   0.784  1.0708 -0.1887 -0.3572
 5856SOL    HW229031   3.926   3.297   0.661  1.1094  1.0272  1.7121
 5857SOL     OW29032   4.131   3.184   2.422  0.1332  0.6592 -0.0409
 5857SOL    HW129033   4.151   3.126   2.496  0.7498  0.1726 -0.5895
 5857SOL    HW229034   4.193   3.256   2.432  0.3151  0.1203  2.7588
 5858SOL     OW29035   4.710   3.063  15.837  0.4740  0.3081 -0.2915
 5858SOL    HW129036   4.710   2.984  15.891 -1.0813  1.0168  0.7420
 5858SOL    HW229037   4.687   3.026  15.752 -2.1556 -1.5750  1.2262
 5859SOL     OW29038   1.192   1.646  13.059  0.5357 -0.2338 -0.0892
 5859SOL    HW129039   1.177   1.717  13.121  2.1577 -0.2926  0.3594
 5859SOL    HW229040   1.109   1.643  13.012 -0.0792  1.1459  0.9151
 5860SOL     OW29041   2.791   2.735  12.210 -0.2427  0.1295 -0.0838
 5860SOL    HW129042   2.784   2.643  12.236 -1.0048 -0.7158 -3.3031
 5860SOL    HW229043   2.702   2.769  12.220 -1.3268 -2.4865 -0.9036
 5861SOL     OW29044   1.759   2.652   3.823 -0.5378 -0.4000  0.1486
 5861SOL    HW129045   1.782   2.632   3.732 -0.8554  1.4197 -0.3284
 5861SOL    HW229046   1.733   2.563   3.847  0.2005 -1.4377 -2.7722
 5862SOL     OW29047   4.313   3.585   1.870  0.1905 -0.8376 -0.3047
 5862SOL    HW129048   4.342   3.560   1.957 -1.6527 -0.1761  0.5009
 5862SOL    HW229049   4.295   3.499   1.832 -2.1747 -0.1631 -0.7323
 5863SOL     OW29050   1.542   4.636   3.051 -0.2842  0.6600  0.2139
 5863SOL    HW129051   1.462   4.584   3.044 -0.5971  1.0200  1.1509
 5863SOL    HW229052   1.606   4.589   2.997 -1.8525 -0.5336 -0.6292
 5864SOL     OW29053   3.012   0.700   1.948 -0.0130  0.0790 -0.1617
 5864SOL    HW129054   2.951   0.773   1.942 -0.3020 -0.3259 -2.2945
 5864SOL    HW229055   2.955   0.627   1.924  2.5029 -2.2953  0.9509
 5865SOL     OW29056   3.394   1.769   4.094 -0.8076 -0.4902  0.1845
 5865SOL    HW129057   3.442   1.848   4.116 -0.9518 -0.2239 -0.4760
 5865SOL    HW229058   3.353   1.784   4.009 -2.6660 -1.7733  0.8527
 5866SOL     OW29059   1.416   1.972   4.789 -0.3206 -0.2956  0.1845
 5866SOL    HW129060   1.445   1.904   4.728  1.0156 -0.7781  1.3674
 5866SOL    HW229061   1.397   1.913   4.862  1.4713 -2.7893 -1.3705
 5867SOL     OW29062   3.665   3.840   7.404  0.2875 -0.3596 -0.0974
 5867SOL    HW129063   3.613   3.819   7.481 -0.6369  1.2995 -0.2832
 5867SOL    HW229064   3.627   3.786   7.335  1.4812  0.7905 -1.6458
 5868SOL     OW29065   3.703   4.456  14.402 -0.0192 -0.6129 -0.6823
 5868SOL    HW129066   3.688   4.399  14.478 -1.3916 -3.4037 -3.0490
 5868SOL    HW229067   3.694   4.543  14.440  0.7578 -0.0190 -1.8773
 5869SOL     OW29068   3.741   0.353   4.930  0.1978  0.3017  1.0231
 5869SOL    HW129069   3.683   0.278   4.942  0.8525 -0.1604  1.3286
 5869SOL    HW229070   3.809   0.314   4.875 -1.0302 -0.4754  0.0593
 5870SOL     OW29071   4.327   2.680   6.336  0.0827  0.0866 -0.4995
 5870SOL    HW129072   4.408   2.711   6.377 -1.4716  0.4252  2.3529
 5870SOL    HW229073   4.345   2.711   6.248 -0.3003 -0.7987 -0.8904
 5871SOL     OW29074   1.751   2.517   0.667 -0.1101 -0.4854  0.3322
 5871SOL    HW129075   1.699   2.450   0.622  0.8493 -0.7447 -0.3813
 5871SOL    HW229076   1.718   2.504   0.757 -2.3393 -1.9357 -0.6786
 5872SOL     OW29077   3.027   3.834   7.935  0.1019 -0.0437  0.2341
 5872SOL    HW129078   3.003   3.871   7.850 -1.1616  1.4761  1.2632
 5872SOL    HW229079   2.981   3.892   7.995 -0.7512  1.6369 -2.0544
 5873SOL     OW29080   4.323   4.128  13.956  0.0932  0.3059  0.0407
 5873SOL    HW129081   4.274   4.047  13.942 -1.6092  1.4505 -0.5363
 5873SOL    HW229082   4.375   4.105  14.033 -2.5282 -1.6445  1.2149
 5874SOL     OW29083   2.479   0.089   1.481 -0.7816  0.5304  0.1035
 5874SOL    HW129084   2.557   0.117   1.529 -2.9633  2.4290  2.5211
 5874SOL    HW229085   2.418   0.075   1.553 -0.1512 -3.4221 -0.0909
 5875SOL     OW29086   0.162   2.681  14.191 -0.0199  0.2261 -0.0261
 5875SOL    HW129087   0.214   2.622  14.137  0.4555  1.1564 -0.5904
 5875SOL    HW229088   0.098   2.709  14.125 -0.3375 -1.1748 -0.3035
 5876SOL     OW29089   3.865   4.697   2.091  0.4630 -0.0203 -0.5367
 5876SOL    HW129090   3.892   4.652   2.172 -0.6444  2.1586  1.0437
 5876SOL    HW229091   3.770   4.689   2.097  0.4737 -0.4750 -0.9777
 5877SOL     OW29092   1.161   4.374  16.305 -0.2937  0.0653 -0.6822
 5877SOL    HW129093   1.226   4.304  16.311  2.5408  2.6150 -1.4474
 5877SOL    HW229094   1.197   4.433  16.371 -2.5609 -0.0222  0.6070
 5878SOL     OW29095   4.669   2.845  12.993 -0.3370 -0.3876 -0.5885
 5878SOL    HW129096   4.589   2.817  12.948  1.0500 -1.3019 -2.4934
 5878SOL    HW229097   4.710   2.898  12.924  2.3990 -3.3877 -1.2576
 5879SOL     OW29098   2.389   3.849   5.108  0.5474 -0.1887 -0.3263
 5879SOL    HW129099   2.461   3.906   5.136  0.9126 -0.1665 -1.3116
 5879SOL    HW229100   2.317   3.911   5.094  0.8994  0.1337 -0.7004
 5880SOL     OW29101   2.461   3.705   9.364 -0.1443  0.8743 -0.1388
 5880SOL    HW129102   2.532   3.641   9.360 -0.3352  0.9605 -4.9920
 5880SOL    HW229103   2.410   3.691   9.284 -0.4373  0.4776  0.1228
 5881SOL     OW29104   1.747   2.356   3.827  0.2655 -0.4696  0.4071
 5881SOL    HW129105   1.743   2.286   3.762  0.4138  0.7811 -0.9665
 5881SOL    HW229106   1.748   2.307   3.909  1.3760  0.5260  0.9777
 5882SOL     OW29107   2.566   4.393   9.343 -0.0210  0.4245 -0.4618
 5882SOL    HW129108   2.587   4.453   9.415 -1.5727 -0.1400  0.4667
 5882SOL    HW229109   2.645   4.338   9.341  1.1337  2.1496 -1.5043
 5883SOL     OW29110   3.170   1.818   9.654 -0.2952 -0.1581  0.3104
 5883SOL    HW129111   3.074   1.817   9.656 -0.3243 -0.9462 -1.7199
 5883SOL    HW229112   3.188   1.789   9.744 -1.8331  1.3469  1.1157
 5884SOL     OW29113   0.601   0.016   2.285 -0.6994 -0.1544  0.6768
 5884SOL    HW129114   0.650   0.096   2.302 -0.3169 -0.1078 -0.6447
 5884SOL    HW229115   0.639   0.003   2.198  0.3278  0.2920  1.0498
 5885SOL     OW29116   0.964   2.487   4.340 -0.4550  0.3794 -0.2887
 5885SOL    HW129117   0.883   2.469   4.292 -0.2167 -0.1900 -0.4834
 5885SOL    HW229118   1.005   2.401   4.329 -1.6080 -0.0031 -1.6618
 5886SOL     OW29119   0.047   2.829   6.509  0.5488 -0.0076  0.0915
 5886SOL    HW129120   0.106   2.779   6.452  1.3893 -0.1086  1.0400
 5886SOL    HW229121   0.055   2.787   6.595  1.6372 -0.6966 -0.3575
 5887SOL     OW29122   3.048   2.893   5.878  0.0301 -0.0308  0.0369
 5887SOL    HW129123   3.098   2.851   5.809 -0.0349 -0.5844  0.3240
 5887SOL    HW229124   2.973   2.933   5.833 -1.1943 -1.4466  0.8008
 5888SOL     OW29125   3.489   2.023   1.500  0.1178  0.6016 -0.4703
 5888SOL    HW129126   3.567   2.025   1.446  0.5370  0.0698  0.1054
 5888SOL    HW229127   3.525   1.997   1.585 -0.1902  0.0942 -0.4902
 5889SOL     OW29128   4.597   0.845   5.711  0.3967 -0.9005 -0.0210
 5889SOL    HW129129   4.537   0.776   5.736  0.3248 -0.4935  0.9333
 5889SOL    HW229130   4.683   0.806   5.729  1.1417  0.7296  0.0099
 5890SOL     OW29131   2.882   0.305  11.788  0.2362 -0.1227  0.3582
 5890SOL    HW129132   2.933   0.285  11.710 -0.6813 -1.3350  0.0650
 5890SOL    HW229133   2.800   0.340  11.751  0.6504 -0.1638 -0.5844
 5891SOL     OW29134   2.854   2.755   7.546 -0.0185  0.1262  0.5200
 5891SOL    HW129135   2.933   2.786   7.502  0.0173  0.3430  0.7413
 5891SOL    HW229136   2.833   2.669   7.510 -0.3434 -0.1354  1.3207
 5892SOL     OW29137   4.662   1.687   1.685 -0.1070  0.2849 -0.2699
 5892SOL    HW129138   0.019   1.647   1.720 -0.2880  1.1281  1.1158
 5892SOL    HW229139   4.672   1.671   1.592 -1.3074 -0.8867 -0.1836
 5893SOL     OW29140   0.527   0.103   7.080  0.1077 -0.0154  0.0897
 5893SOL    HW129141   0.517   0.009   7.064 -0.6972 -0.0073  0.5156
 5893SOL    HW229142   0.479   0.142   7.008  3.4220  1.2025 -1.4652
 5894SOL     OW29143   4.238   2.165  13.778 -0.2334 -0.2355 -0.3132
 5894SOL    HW129144   4.203   2.079  13.802  0.2797 -0.5063 -0.5338
 5894SOL    HW229145   4.323   2.161  13.822 -0.4357  1.8106  0.2926
 5895SOL     OW29146   2.511   3.477  16.452 -0.1130  0.7233 -0.2330
 5895SOL    HW129147   2.505   3.455  16.359  0.1739  0.4104 -0.1777
 5895SOL    HW229148   2.576   3.547  16.447  0.9536 -0.3026 -0.8091
 5896SOL     OW29149   3.090   1.096  17.193 -0.4395  0.3943  0.3967
 5896SOL    HW129150   3.184   1.089  17.208 -0.0286  4.5220 -0.4314
 5896SOL    HW229151   3.067   1.034  17.124  0.1705  0.4476  0.1514
 5897SOL     OW29152   2.598   0.038  11.684 -0.5099  0.2441 -0.4257
 5897SOL    HW129153   2.582   4.668  11.669 -1.3944 -0.4038  4.6654
 5897SOL    HW229154   2.671   0.042  11.745  0.2057  0.2277 -1.2954
 5898SOL     OW29155   3.346   2.070   6.035  0.4326  0.2417  0.6100
 5898SOL    HW129156   3.418   2.108   6.084  1.3072 -1.6717  0.8252
 5898SOL    HW229157   3.343   2.134   5.964 -1.4204 -1.2510 -0.6735
 5899SOL     OW29158   3.616   1.982   1.757 -0.4074 -0.1134  0.3841
 5899SOL    HW129159   3.649   2.072   1.749  1.8222 -0.9169  0.5357
 5899SOL    HW229160   3.635   1.963   1.849 -1.1294  3.8840  1.3645
 5900SOL     OW29161   2.301   4.721  10.272  0.3699  0.1697 -0.2936
 5900SOL    HW129162   2.277   0.022  10.182 -0.9414 -1.5414 -0.3906
 5900SOL    HW229163   2.393   4.700  10.261  0.6875  1.7067 -0.5625
 5901SOL     OW29164   1.223   2.201   6.559 -0.4262 -1.0508 -0.5150
 5901SOL    HW129165   1.191   2.147   6.486 -0.5805  1.4075 -2.2743
 5901SOL    HW229166   1.249   2.284   6.519 -0.4766 -0.8907 -0.2136
 5902SOL     OW29167   3.481   1.161   7.684 -0.6562 -0.4922  0.1981
 5902SOL    HW129168   3.458   1.151   7.776  0.6339 -2.1397  0.3543
 5902SOL    HW229169   3.466   1.255   7.674  0.2382 -0.4477 -0.7344
 5903SOL     OW29170   0.140   1.097   5.150  0.0680  0.0694  0.1459
 5903SOL    HW129171   0.192   1.117   5.228 -0.6467 -0.4563  0.7536
 5903SOL    HW229172   0.188   1.148   5.084 -0.3797 -0.5416 -0.6475
 5904SOL     OW29173   2.009   0.777  14.912 -0.0720  0.3578  0.3614
 5904SOL    HW129174   2.098   0.811  14.916  0.0402  0.2342 -0.8862
 5904SOL    HW229175   2.019   0.728  14.830  1.5626  0.8345  0.2811
 5905SOL     OW29176   0.837   2.957   9.413  0.1144  0.6127 -0.1791
 5905SOL    HW129177   0.745   2.935   9.398  0.4462 -0.6054 -0.4434
 5905SOL    HW229178   0.875   2.873   9.386  1.4231  1.6492 -1.5311
 5906SOL     OW29179   4.135   3.944   1.164  0.0572 -0.6428 -0.3615
 5906SOL    HW129180   4.168   3.941   1.075 -0.1685 -2.3184 -0.3783
 5906SOL    HW229181   4.053   3.994   1.155  1.1303  1.1454 -0.2082
 5907SOL     OW29182   2.796   1.701   2.157  0.8596 -0.4011  0.6102
 5907SOL    HW129183   2.858   1.714   2.085  0.6357  2.1085  0.8868
 5907SOL    HW229184   2.840   1.630   2.204  1.8054 -1.0245 -1.2183
 5908SOL     OW29185   4.099   3.868   6.729 -0.2813  0.4997 -0.2289
 5908SOL    HW129186   4.015   3.910   6.713 -1.7550 -1.8127  1.5285
 5908SOL    HW229187   4.075   3.778   6.752 -0.2014  0.9374  1.5600
 5909SOL     OW29188   0.905   1.380  17.542 -0.1635  0.3434  0.2207
 5909SOL    HW129189   0.955   1.300  17.526  0.2452  0.5313  0.5628
 5909SOL    HW229190   0.939   1.435  17.471 -0.3426 -0.3292 -0.3803
 5910SOL     OW29191   3.841   1.205  12.108  0.2107  0.4639  0.1940
 5910SOL    HW129192   3.907   1.184  12.042 -2.4139 -2.3702 -1.5740
 5910SOL    HW229193   3.818   1.117  12.140  0.9048 -0.2022 -1.1237
 5911SOL     OW29194   4.466   0.669   4.002  0.1066 -0.2978 -0.0565
 5911SOL    HW129195   4.438   0.688   4.091 -0.8444 -0.0327 -0.4174
 5911SOL    HW229196   4.489   0.578   4.022  0.1929 -0.3137 -0.2276
 5912SOL     OW29197   1.961   2.518   0.981 -1.0183 -1.0385 -0.0588
 5912SOL    HW129198   1.999   2.443   1.026  1.5375 -0.2829 -1.0012
 5912SOL    HW229199   2.036   2.574   0.967 -0.4539 -1.0283  3.1003
 5913SOL     OW29200   2.196   3.493   2.138  0.3209 -0.0068  0.2616
 5913SOL    HW129201   2.143   3.469   2.214 -2.0694 -1.1043 -1.7809
 5913SOL    HW229202   2.154   3.437   2.074  0.2997  2.1342 -1.5873
 5914SOL     OW29203   0.516   4.565   7.365  0.7267 -0.2406 -0.5315
 5914SOL    HW129204   0.490   4.474   7.378 -5.1901  1.4284 -0.6525
 5914SOL    HW229205   0.457   4.591   7.294 -0.2012  1.1392  0.7686
 5915SOL     OW29206   0.716   1.326   7.045 -0.1047  0.2093  0.0488
 5915SOL    HW129207   0.682   1.289   6.964 -3.7546  0.6108  1.3556
 5915SOL    HW229208   0.666   1.275   7.109 -0.9105 -0.4570 -1.1147
 5916SOL     OW29209   2.085   0.141   7.629  0.0832  0.3390 -0.0439
 5916SOL    HW129210   2.027   0.136   7.553 -1.0685  2.7101  0.6813
 5916SOL    HW229211   2.031   0.193   7.689  0.3761 -1.0442  1.4257
 5917SOL     OW29212   3.268   4.157   2.834 -0.0835 -0.0232  0.5593
 5917SOL    HW129213   3.198   4.101   2.800 -0.6695 -0.6648  2.8017
 5917SOL    HW229214   3.245   4.167   2.927 -1.6269 -1.3647  0.3208
 5918SOL     OW29215   4.081   4.415   3.422  0.5148  0.0665 -0.7817
 5918SOL    HW129216   4.111   4.379   3.505  0.3035 -0.8944 -1.1222
 5918SOL    HW229217   3.986   4.415   3.430  0.5750 -2.4903  0.0730
 5919SOL     OW29218   0.168   2.655  16.110 -0.2203  0.6267 -0.1036
 5919SOL    HW129219   0.209   2.608  16.037  0.1469  2.1591 -0.8845
 5919SOL    HW229220   0.157   2.746  16.081 -0.6363  0.5807 -0.0872
 5920SOL     OW29221   3.830   3.011   7.255 -0.0531 -0.3111  0.1588
 5920SOL    HW129222   3.767   3.060   7.201 -0.3793 -1.8921 -0.8883
 5920SOL    HW229223   3.857   3.085   7.310  0.8291  0.6600 -1.5490
 5921SOL     OW29224   1.392   0.980   8.161  0.2411 -0.4909  0.1362
 5921SOL    HW129225   1.437   0.901   8.191 -0.4946 -0.1916  2.0220
 5921SOL    HW229226   1.408   0.967   8.067 -0.0744  0.9761 -0.1172
 5922SOL     OW29227   2.140   4.585  10.445 -0.0555  0.5818  0.0280
 5922SOL    HW129228   2.059   4.562  10.399 -0.8334  1.0606  1.1429
 5922SOL    HW229229   2.185   4.629  10.373 -2.3467 -0.3933 -1.9800
 5923SOL     OW29230   3.131   1.007   3.773 -0.1722 -0.1904 -0.0972
 5923SOL    HW129231   3.082   0.937   3.730  0.3346 -1.2751  1.1173
 5923SOL    HW229232   3.149   0.968   3.858 -0.8198 -1.0062 -0.3339
 5924SOL     OW29233   3.529   2.888  17.687 -1.0350  0.0518 -0.0251
 5924SOL    HW129234   3.621   2.861  17.687 -0.7496  1.0355  0.4610
 5924SOL    HW229235   3.522   2.933  17.603 -2.4916 -0.5582 -0.2222
 5925SOL     OW29236   0.430   2.248   5.917  0.0153  0.5063  0.5308
 5925SOL    HW129237   0.413   2.290   6.002 -0.0950  0.4923  0.5163
 5925SOL    HW229238   0.351   2.201   5.890 -0.8182 -0.1573  4.0954
 5926SOL     OW29239   3.884   3.893   3.728  0.0203  0.2815 -0.5883
 5926SOL    HW129240   3.951   3.895   3.660 -0.2668 -1.0824 -0.9077
 5926SOL    HW229241   3.822   3.825   3.701  2.4584 -1.2170 -2.3828
 5927SOL     OW29242   0.866   2.654   8.037  0.3029  0.1167 -0.2884
 5927SOL    HW129243   0.879   2.567   8.075 -0.3579 -0.5863 -1.6704
 5927SOL    HW229244   0.931   2.653   7.967 -0.1390  1.6035 -0.7192
 5928SOL     OW29245   3.952   2.654  15.089  0.4001 -0.3658  0.1157
 5928SOL    HW129246   3.907   2.571  15.103  1.2813 -0.9803 -0.6885
 5928SOL    HW229247   3.947   2.664  14.994  0.6890  2.4589  0.4017
 5929SOL     OW29248   0.060   0.776  17.363  0.2329  0.1096 -0.6336
 5929SOL    HW129249   4.717   0.707  17.369  0.4169  0.1533  1.8284
 5929SOL    HW229250   0.004   0.841  17.405  0.9886 -0.1764  0.8250
 5930SOL     OW29251   0.754   0.199  15.329 -0.6932 -0.3494 -0.3112
 5930SOL    HW129252   0.838   0.232  15.360 -0.7251 -1.4126  0.9268
 5930SOL    HW229253   0.714   0.182  15.415 -1.6282  0.7208 -0.5308
 5931SOL     OW29254   2.699   2.893  16.395 -0.4761  0.6897 -0.1291
 5931SOL    HW129255   2.690   2.984  16.422 -0.6581  0.7962 -0.5562
 5931SOL    HW229256   2.787   2.871  16.364 -0.9145 -0.7603 -0.3553
 5932SOL     OW29257   1.562   3.685   7.995  0.5283  0.0930  0.1877
 5932SOL    HW129258   1.594   3.654   8.080 -0.6963 -0.3185  0.4973
 5932SOL    HW229259   1.499   3.617   7.971  0.9088  0.9011 -3.1269
 5933SOL     OW29260   1.871   1.418   4.586 -0.3139  0.8513 -0.1988
 5933SOL    HW129261   1.875   1.373   4.671 -0.6966 -0.0670 -0.6691
 5933SOL    HW229262   1.851   1.345   4.528 -1.8419  0.9971  0.1555
 5934SOL     OW29263   4.269   4.657   2.816  0.6589 -0.1309  0.4166
 5934SOL    HW129264   4.353   4.676   2.858  1.4069 -0.2622 -1.0131
 5934SOL    HW229265   4.231   4.604   2.885 -3.3567  1.9110 -0.1994
 5935SOL     OW29266   0.827   4.652  15.106  0.1728 -0.3810 -0.1047
 5935SOL    HW129267   0.836   4.665  15.012  0.2373 -0.0344 -0.0530
 5935SOL    HW229268   0.912   4.642  15.148  0.1480 -0.9069 -0.1844
 5936SOL     OW29269   1.525   1.772   6.865  0.5408 -0.1062  0.3703
 5936SOL    HW129270   1.582   1.804   6.795 -2.0843  1.5033 -1.0562
 5936SOL    HW229271   1.586   1.765   6.938  1.7796 -2.2909 -0.8788
 5937SOL     OW29272   2.732   0.252  12.094 -0.3828  0.5058  0.3324
 5937SOL    HW129273   2.654   0.238  12.041  1.9415 -3.4425 -2.0323
 5937SOL    HW229274   2.691   0.300  12.166 -0.8127  0.0153  0.4091
 5938SOL     OW29275   1.886   0.247   8.414 -0.1512  0.6234  0.0303
 5938SOL    HW129276   1.843   0.227   8.331 -0.5449  2.3478 -0.1684
 5938SOL    HW229277   1.902   0.340   8.398 -1.7762  0.4073 -2.9691
 5939SOL     OW29278   1.329   1.511  13.998 -0.1645  0.1036  0.1262
 5939SOL    HW129279   1.327   1.597  13.958  0.5277 -0.3765 -0.9303
 5939SOL    HW229280   1.300   1.543  14.083  1.1959  0.1480  0.5755
 5940SOL     OW29281   2.459   0.714  10.764  0.0470  0.1679 -0.7807
 5940SOL    HW129282   2.374   0.743  10.731 -1.3237 -1.9513  0.9208
 5940SOL    HW229283   2.429   0.715  10.855 -0.1542 -0.2794 -0.8430
 5941SOL     OW29284   2.049   1.932   2.309  0.2696  0.2730 -0.2711
 5941SOL    HW129285   2.093   1.851   2.286  0.3721  0.8448 -2.0589
 5941SOL    HW229286   2.103   1.997   2.264 -0.1574  0.1600 -0.9403
 5942SOL     OW29287   2.027   4.712  17.131  0.3906  0.1393 -0.0849
 5942SOL    HW129288   1.990   4.670  17.053  0.6418 -1.5411  0.7063
 5942SOL    HW229289   1.951   4.721  17.189  1.4847 -0.3153  1.3861
 5943SOL     OW29290   1.381   1.730   8.553 -0.6782 -0.1172  0.4361
 5943SOL    HW129291   1.344   1.712   8.639  0.1075 -0.3467  0.7238
 5943SOL    HW229292   1.439   1.805   8.567 -1.6506  0.9711 -1.2149
 5944SOL     OW29293   3.125   4.279   5.047 -0.5464  0.5763  0.0342
 5944SOL    HW129294   3.065   4.268   5.121  0.3889  3.1407  1.1570
 5944SOL    HW229295   3.090   4.228   4.973  2.9965  0.6929 -1.7061
 5945SOL     OW29296   2.537   2.587  13.232  0.3995 -0.5147 -0.3172
 5945SOL    HW129297   2.575   2.673  13.252 -1.2421  0.2126 -0.3579
 5945SOL    HW229298   2.545   2.587  13.137 -0.3390 -0.6021 -0.3744
 5946SOL     OW29299   4.148   3.966  11.137 -0.2862 -0.2454  0.4545
 5946SOL    HW129300   4.190   4.009  11.212  1.0392 -1.2465  0.2849
 5946SOL    HW229301   4.192   3.881  11.133 -0.8702 -0.5374  0.2622
 5947SOL     OW29302   4.277   4.360   6.781 -0.2158  0.1610  0.0600
 5947SOL    HW129303   4.249   4.352   6.872 -0.3590  0.0192  0.0045
 5947SOL    HW229304   4.205   4.315   6.737  0.7163 -0.8502 -0.4513
 5948SOL     OW29305   1.432   1.132   2.954  0.2975 -0.5220 -0.4847
 5948SOL    HW129306   1.379   1.205   2.988  1.0746 -0.3807  0.4269
 5948SOL    HW229307   1.419   1.062   3.018  0.2644  0.6187  0.7731
 5949SOL     OW29308   0.884   4.480  13.810 -0.1894 -0.2947 -0.1969
 5949SOL    HW129309   0.892   4.430  13.729 -0.4756  0.1796 -0.5226
 5949SOL    HW229310   0.968   4.525  13.804  0.4956 -1.4867  0.3944
 5950SOL     OW29311   1.220   3.355   8.537 -0.1099  0.1483  0.0217
 5950SOL    HW129312   1.184   3.421   8.477  0.8540  0.7133  0.0696
 5950SOL    HW229313   1.286   3.410   8.580 -0.3037  1.2936 -1.1623
 5951SOL     OW29314   0.534   3.482   5.551 -0.0699  0.0675  0.2047
 5951SOL    HW129315   0.615   3.523   5.581 -0.0789  0.7926 -0.7597
 5951SOL    HW229316   0.541   3.410   5.614  0.6750 -0.8166 -0.8987
 5952SOL     OW29317   2.965   0.358   7.299 -0.1434 -0.2664 -0.5303
 5952SOL    HW129318   2.981   0.279   7.350  0.1529  2.1032  3.0667
 5952SOL    HW229319   2.878   0.381   7.331 -0.4871  0.8999 -2.2560
 5953SOL     OW29320   4.285   1.130  14.802 -0.9484  0.1386  0.2594
 5953SOL    HW129321   4.248   1.104  14.717  0.7460 -0.0205 -0.4437
 5953SOL    HW229322   4.228   1.089  14.867  1.8287 -4.7058 -0.3585
 5954SOL     OW29323   4.213   2.337   1.130 -0.1055  0.3881 -0.2578
 5954SOL    HW129324   4.199   2.251   1.171 -2.0477  0.8597  0.0684
 5954SOL    HW229325   4.142   2.384   1.175  0.5685 -0.5381  1.7955
 5955SOL     OW29326   0.402   4.448  12.627 -0.0767  1.0142  0.2328
 5955SOL    HW129327   0.436   4.519  12.573 -0.5782  1.2617  0.2390
 5955SOL    HW229328   0.402   4.382  12.558  1.4321 -1.8530  2.9633
 5956SOL     OW29329   3.070   1.889   2.242  0.3983 -0.1741 -0.0016
 5956SOL    HW129330   2.978   1.888   2.268  0.2228  2.8118 -0.4578
 5956SOL    HW229331   3.071   1.809   2.190  1.5955 -1.4146  1.9228
 5957SOL     OW29332   2.358   1.685  16.117 -0.4664 -0.8331 -0.4846
 5957SOL    HW129333   2.379   1.595  16.095 -0.3916 -0.0832 -3.4782
 5957SOL    HW229334   2.399   1.706  16.201 -2.4428 -1.0667  0.5466
 5958SOL     OW29335   1.363   0.285   2.514  0.4328  0.2782  0.1262
 5958SOL    HW129336   1.425   0.350   2.547  0.5218 -0.0124  0.5309
 5958SOL    HW229337   1.353   0.231   2.592  0.2651  0.8383  0.4886
 5959SOL     OW29338   0.425   2.097   7.080  0.4253 -0.0752  0.3267
 5959SOL    HW129339   0.506   2.046   7.088  0.2254  0.1392  3.7523
 5959SOL    HW229340   0.452   2.171   7.134  1.4766  0.3743 -0.8246
 5960SOL     OW29341   3.487   1.950   5.060  0.2208 -0.1881 -0.0107
 5960SOL    HW129342   3.497   1.856   5.076  0.0019 -0.3727 -1.0048
 5960SOL    HW229343   3.429   1.941   4.985  1.2105  0.4283 -0.8455
 5961SOL     OW29344   1.056   2.852   1.969  0.1817  0.4591  0.1899
 5961SOL    HW129345   1.083   2.807   1.889 -0.3217 -1.8944  1.3430
 5961SOL    HW229346   0.988   2.797   2.007  0.0912  0.5559  0.1679
 5962SOL     OW29347   3.645   4.006  16.851 -0.3118  0.2901 -0.0656
 5962SOL    HW129348   3.688   4.082  16.891 -0.5513 -0.2728  1.2598
 5962SOL    HW229349   3.724   3.981  16.803 -0.5420  1.5904 -1.1197
 5963SOL     OW29350   0.550   3.633   7.446  0.3360 -0.3244  0.2211
 5963SOL    HW129351   0.513   3.709   7.493  1.2704 -0.0918  0.5767
 5963SOL    HW229352   0.495   3.633   7.368  1.5960  0.8945 -0.6560
 5964SOL     OW29353   1.856   1.454  13.152  0.4239 -0.1308  0.6223
 5964SOL    HW129354   1.855   1.459  13.057 -0.3610 -3.5847  0.4372
 5964SOL    HW229355   1.763   1.432  13.164  0.4521 -0.6013 -0.0847
 5965SOL     OW29356   0.569   1.410   0.959  0.1354  0.4197  0.0555
 5965SOL    HW129357   0.643   1.369   1.004  0.2385  2.0564  1.3994
 5965SOL    HW229358   0.521   1.453   1.030  0.3279  2.2246 -0.8883
 5966SOL     OW29359   2.199   1.577   0.283  0.0167  1.0127  0.2248
 5966SOL    HW129360   2.289   1.601   0.261  1.1428 -2.5124  0.9703
 5966SOL    HW229361   2.190   1.488   0.250  1.8568  0.6501  0.7315
 5967SOL     OW29362   2.130   4.700  14.463 -0.6043 -0.1460 -0.2494
 5967SOL    HW129363   2.053   4.647  14.441  0.4952 -1.6873 -0.3434
 5967SOL    HW229364   2.189   4.636  14.501 -0.1607  0.2999 -0.1869
 5968SOL     OW29365   1.539   4.251   9.196  0.2231 -0.2846 -0.3525
 5968SOL    HW129366   1.543   4.198   9.116  1.8093 -0.0807 -0.3910
 5968SOL    HW229367   1.495   4.331   9.168 -2.2227 -1.3780  0.3356
 5969SOL     OW29368   2.686   2.734  11.028  0.1880  0.3210 -0.0285
 5969SOL    HW129369   2.669   2.816  10.981 -0.8363  1.4949  2.4201
 5969SOL    HW229370   2.650   2.667  10.970  2.7967 -0.0612 -1.2097
 5970SOL     OW29371   4.361   0.132  14.555 -0.1229 -0.4417 -0.4466
 5970SOL    HW129372   4.276   0.123  14.511  0.6768 -0.4566 -1.9754
 5970SOL    HW229373   4.406   0.056  14.519 -1.4107 -0.8192 -1.2781
 5971SOL     OW29374   0.118   2.823   7.941  0.1581 -0.5216 -0.1441
 5971SOL    HW129375   0.041   2.863   7.982 -0.1011 -2.4768  1.3021
 5971SOL    HW229376   0.187   2.888   7.952 -0.2583 -0.1616  0.3588
 5972SOL     OW29377   1.545   1.832   4.588  0.1206  0.2875  0.1767
 5972SOL    HW129378   1.491   1.775   4.534 -0.6460  0.4670  0.7525
 5972SOL    HW229379   1.630   1.790   4.577 -0.0337  0.5500 -2.0033
 5973SOL     OW29380   0.274   2.625   5.131 -0.0472 -0.4118  0.0909
 5973SOL    HW129381   0.271   2.716   5.101 -1.9196 -0.6791 -0.5199
 5973SOL    HW229382   0.261   2.580   5.047  0.3953 -4.0141  1.9713
 5974SOL     OW29383   4.661   3.029   6.851  0.2796 -0.3056 -0.3463
 5974SOL    HW129384   4.572   3.001   6.831 -0.4766  0.3818  1.9855
 5974SOL    HW229385   4.632   3.079   6.928  1.0612  1.2496 -1.0607
 5975SOL     OW29386   2.305   4.209   3.200  0.4524  0.1835  0.0190
 5975SOL    HW129387   2.331   4.292   3.240  1.6240 -1.1934  2.0995
 5975SOL    HW229388   2.370   4.197   3.130  0.5475  2.9949 -0.3769
 5976SOL     OW29389   3.515   3.062   9.794 -0.5169  0.0914 -0.0208
 5976SOL    HW129390   3.546   2.978   9.762  2.0373  0.6469  0.9914
 5976SOL    HW229391   3.519   3.046   9.888  1.0107  0.0440 -0.0896
 5977SOL     OW29392   3.472   2.666   4.364 -0.0554  0.4761 -0.0028
 5977SOL    HW129393   3.465   2.759   4.382  0.2397  0.4384  0.3005
 5977SOL    HW229394   3.472   2.659   4.269  0.3217 -2.8350  0.2204
 5978SOL     OW29395   4.206   1.481  17.373  0.3330 -0.4524  0.4811
 5978SOL    HW129396   4.276   1.418  17.391  0.8797  1.0630  3.6373
 5978SOL    HW229397   4.191   1.455  17.282  0.1191  0.4469  0.2584
 5979SOL     OW29398   4.399   2.367   3.836 -0.4657  0.0862  0.3961
 5979SOL    HW129399   4.338   2.303   3.875 -0.7429  1.2804  1.9296
 5979SOL    HW229400   4.470   2.309   3.809  0.9384  1.6744  0.6964
 5980SOL     OW29401   4.570   3.371  13.383  0.0965 -0.6020 -0.4734
 5980SOL    HW129402   4.617   3.341  13.460  0.8885  1.9229  0.0375
 5980SOL    HW229403   4.605   3.316  13.313 -2.9714 -1.2404 -1.4717
 5981SOL     OW29404   1.362   2.798   7.301 -0.1944 -0.0674 -0.0311
 5981SOL    HW129405   1.450   2.834   7.312  1.1122 -3.1435 -0.1565
 5981SOL    HW229406   1.322   2.829   7.382  1.3938  0.1777  0.6640
 5982SOL     OW29407   0.718   1.903   4.957  0.2473 -0.3554  0.4560
 5982SOL    HW129408   0.669   1.915   5.038  1.9170 -0.4643  1.4790
 5982SOL    HW229409   0.757   1.991   4.956  0.5937 -0.5133  0.0748
 5983SOL     OW29410   4.701   1.715  16.690  0.0726  0.3213 -0.1152
 5983SOL    HW129411   0.064   1.736  16.653  1.0055 -1.7173  0.8727
 5983SOL    HW229412   4.712   1.759  16.775 -2.8592  1.9444 -0.5728
 5984SOL     OW29413   1.204   3.289   6.578 -0.5060  0.1573  0.0517
 5984SOL    HW129414   1.252   3.282   6.661  1.5557  2.5068 -0.9348
 5984SOL    HW229415   1.239   3.215   6.529 -1.2292 -1.1462  1.5072
 5985SOL     OW29416   3.760   3.218   3.761 -0.3011  0.2724 -0.1911
 5985SOL    HW129417   3.845   3.249   3.791  0.3273 -0.8365 -0.8084
 5985SOL    HW229418   3.776   3.124   3.751 -0.5733  0.4299 -2.1525
 5986SOL     OW29419   0.043   0.487   3.248  0.3181  0.5219  0.1144
 5986SOL    HW129420   0.040   0.567   3.195 -1.3572  0.2438 -0.2156
 5986SOL    HW229421   4.681   0.483   3.293  0.5854  0.4410  0.6182
 5987SOL     OW29422   3.252   3.500   4.903 -0.5518 -0.2139  0.2091
 5987SOL    HW129423   3.231   3.591   4.878  1.2184  0.2908  0.6059
 5987SOL    HW229424   3.211   3.453   4.831 -3.5751  0.6169  1.3423
 5988SOL     OW29425   4.414   4.053   3.170  0.0114 -0.2460  0.3214
 5988SOL    HW129426   4.418   4.126   3.109 -0.2311  0.2229  0.8684
 5988SOL    HW229427   4.366   4.097   3.240 -2.5184 -1.5331 -0.6188
 5989SOL     OW29428   0.619   3.206   7.377 -0.3023  0.0186 -0.5192
 5989SOL    HW129429   0.702   3.222   7.422 -0.0813  1.9344 -1.6334
 5989SOL    HW229430   0.604   3.278   7.317 -1.7086 -1.3498 -1.8125
 5990SOL     OW29431   2.955   0.065  11.592 -0.3846  0.1990 -0.1306
 5990SOL    HW129432   2.885   0.040  11.532  0.8701 -0.8493 -1.1525
 5990SOL    HW229433   2.962   4.702  11.635 -0.4323  0.6838  0.8603
 5991SOL     OW29434   2.629   1.676   6.993 -0.4890 -0.7944  0.1434
 5991SOL    HW129435   2.541   1.712   6.987 -0.5703 -1.1177 -0.6346
 5991SOL    HW229436   2.644   1.686   6.899  0.2213  1.2268  0.4805
 5992SOL     OW29437   2.813   1.755   3.594 -0.5500  0.1496  0.2136
 5992SOL    HW129438   2.752   1.824   3.622 -0.3092  0.8322 -0.9328
 5992SOL    HW229439   2.886   1.757   3.656 -0.1136 -0.4172 -0.2859
 5993SOL     OW29440   1.500   0.058   5.926  0.3105  0.1687  0.0848
 5993SOL    HW129441   1.546   0.136   5.894  1.1093 -0.4577 -0.2762
 5993SOL    HW229442   1.496   0.013   5.841 -0.5862  2.0083 -0.8689
 5994SOL     OW29443   3.779   0.403   0.098  0.1649 -0.3687  0.2990
 5994SOL    HW129444   3.864   0.362   0.116  0.1213 -0.5170  0.1568
 5994SOL    HW229445   3.760   0.387   0.006 -0.8867  0.1197  0.4329
 5995SOL     OW29446   4.465   1.055   2.070  0.2969  0.1731 -0.6247
 5995SOL    HW129447   4.504   0.990   2.128 -0.2568 -1.4566 -2.0925
 5995SOL    HW229448   4.408   1.000   2.016  3.2392  0.2183 -3.7534
 5996SOL     OW29449   1.162   4.154   7.276 -0.0257 -0.0222  0.3703
 5996SOL    HW129450   1.241   4.208   7.283  0.1737 -0.0339 -1.8246
 5996SOL    HW229451   1.112   4.177   7.354 -0.2803  2.2550 -0.4639
 5997SOL     OW29452   2.696   3.078  13.139  0.0111 -0.1533  0.0409
 5997SOL    HW129453   2.734   2.991  13.149 -0.4357 -0.1546  1.8296
 5997SOL    HW229454   2.752   3.113  13.069  1.4502 -0.4478  1.0278
 5998SOL     OW29455   4.476   3.944  10.284  0.4826 -0.1005  0.2761
 5998SOL    HW129456   4.436   3.995  10.214  3.8451 -0.1623 -1.6888
 5998SOL    HW229457   4.448   3.991  10.362 -0.0857  1.3076 -0.7671
 5999SOL     OW29458   1.613   1.080   2.170  0.1056  0.4716 -0.9390
 5999SOL    HW129459   1.581   1.170   2.162  0.4580  0.5504 -1.4497
 5999SOL    HW229460   1.690   1.098   2.224 -0.8735 -0.0843  0.6487
 6000SOL     OW29461   3.669   1.137   2.778 -0.2926 -0.5523 -0.2098
 6000SOL    HW129462   3.592   1.140   2.834 -0.4184  0.4573 -0.4418
 6000SOL    HW229463   3.646   1.210   2.721  1.4416  1.8676  2.1743
 6001SOL     OW29464   1.639   1.197   8.021 -0.4032  0.4775  0.2946
 6001SOL    HW129465   1.594   1.272   8.060 -0.0839  1.8505 -1.9867
 6001SOL    HW229466   1.725   1.236   8.034 -0.1302 -0.2558  0.7407
 6002SOL     OW29467   3.647   0.266   7.735 -0.2100 -0.4852 -0.6382
 6002SOL    HW129468   3.734   0.306   7.736 -0.7497  0.6329  2.1108
 6002SOL    HW229469   3.608   0.307   7.812 -1.0969 -0.7987 -0.9223
 6003SOL     OW29470   4.237   1.524  11.871  0.2552  0.6450 -0.3370
 6003SOL    HW129471   4.310   1.541  11.812 -0.9518  0.7187 -1.8030
 6003SOL    HW229472   4.284   1.561  11.945 -0.7505  0.4119  0.4184
 6004SOL     OW29473   0.870   4.419   6.062  0.6167  0.0494  0.1389
 6004SOL    HW129474   0.847   4.467   6.141 -0.2734 -0.8444  0.4155
 6004SOL    HW229475   0.854   4.332   6.100 -2.9159  0.9464  0.7154
 6005SOL     OW29476   0.196   4.670   2.787 -0.5253  0.3740  0.3857
 6005SOL    HW129477   0.162   4.695   2.701 -1.4463 -2.2654 -0.0423
 6005SOL    HW229478   0.132   4.722   2.835  0.3396  1.0910  0.7506
 6006SOL     OW29479   4.395   0.881   2.930  0.1857 -0.5429 -0.3955
 6006SOL    HW129480   4.417   0.821   2.859  0.9733 -1.6622  0.8060
 6006SOL    HW229481   4.359   0.828   3.001  0.4486  1.2268  1.0578
 6007SOL     OW29482   0.075   0.119   5.523 -0.4800 -0.1541 -0.9969
 6007SOL    HW129483   0.139   0.054   5.494  1.3826  0.7023  1.2311
 6007SOL    HW229484   0.063   0.154   5.435  1.0022  2.7323 -0.0328
 6008SOL     OW29485   3.898   0.688   7.332  0.4035 -0.3788  0.2455
 6008SOL    HW129486   3.835   0.750   7.370  0.1825  0.5984 -1.7416
 6008SOL    HW229487   3.881   0.700   7.239  0.5866 -0.6606  0.1757
 6009SOL     OW29488   2.324   1.273   4.012 -0.0171 -0.0042 -0.3011
 6009SOL    HW129489   2.268   1.209   3.966 -0.7634  0.0300  0.5658
 6009SOL    HW229490   2.264   1.343   4.038 -3.5216 -2.6214 -1.2686
 6010SOL     OW29491   4.066   3.588  12.893 -0.2030 -0.3602 -0.2307
 6010SOL    HW129492   4.123   3.528  12.942 -0.1739 -1.1228 -1.2137
 6010SOL    HW229493   3.982   3.576  12.937  0.9307 -0.1793  1.9819
 6011SOL     OW29494   2.302   2.138  11.515  0.0848 -1.0091 -0.1800
 6011SOL    HW129495   2.371   2.120  11.578  0.8700  1.5249 -0.2986
 6011SOL    HW229496   2.302   2.233  11.500  1.1291 -1.1599 -1.1874
 6012SOL     OW29497   1.351   2.642   1.023 -0.5024  0.4242  0.2791
 6012SOL    HW129498   1.380   2.628   1.113  1.7374 -0.1494 -0.5240
 6012SOL    HW229499   1.439   2.658   0.988 -0.3981 -1.4685 -0.3278
 6013SOL     OW29500   2.889   2.191   2.469  0.5490 -0.4765  0.3509
 6013SOL    HW129501   2.806   2.227   2.438 -0.3579 -1.2545  1.8473
 6013SOL    HW229502   2.876   2.205   2.563  0.2723  0.3054  0.1947
 6014SOL     OW29503   2.562   2.732   3.441 -0.1272  0.0044 -0.3531
 6014SOL    HW129504   2.541   2.651   3.489  0.0014  0.5901  0.7044
 6014SOL    HW229505   2.569   2.785   3.521  0.4132 -0.6947  0.0658
 6015SOL     OW29506   1.756   4.375   1.273  0.2832  0.2646  0.3613
 6015SOL    HW129507   1.703   4.454   1.281 -0.2173 -0.2086  1.6860
 6015SOL    HW229508   1.728   4.324   1.349 -1.6334  0.1560 -0.4154
 6016SOL     OW29509   2.198   2.287   9.694  0.1612 -0.1311 -0.0753
 6016SOL    HW129510   2.187   2.351   9.765  1.1201  0.4891 -0.4882
 6016SOL    HW229511   2.293   2.287   9.683  0.4044 -2.7144  1.9197
 6017SOL     OW29512   1.370   2.947   0.786 -0.6505  0.6872 -0.2885
 6017SOL    HW129513   1.314   3.013   0.746 -0.4952  0.1115 -1.4647
 6017SOL    HW229514   1.340   2.942   0.877 -3.2731  1.3799 -1.1352
 6018SOL     OW29515   1.248   2.143   7.446 -0.2392  0.0885 -0.1305
 6018SOL    HW129516   1.343   2.150   7.446 -0.1637 -0.8796  1.3154
 6018SOL    HW229517   1.224   2.234   7.429 -0.8866  0.0894  0.7527
 6019SOL     OW29518   2.376   1.734  10.193 -0.3393 -0.2980 -0.1326
 6019SOL    HW129519   2.380   1.750  10.287 -1.5985 -1.3925  0.1012
 6019SOL    HW229520   2.468   1.719  10.173 -0.5935 -0.3641 -1.2368
 6020SOL     OW29521   2.627   1.562   7.303 -0.2913 -0.1902  0.2059
 6020SOL    HW129522   2.539   1.550   7.268 -1.3324  2.1110  1.9881
 6020SOL    HW229523   2.656   1.613   7.228  0.5462 -2.0596 -0.7368
 6021SOL     OW29524   1.570   1.462   6.632  0.0581 -0.0933  0.0282
 6021SOL    HW129525   1.493   1.503   6.672 -1.4670 -1.4143 -1.5947
 6021SOL    HW229526   1.637   1.453   6.700 -1.9838 -0.0572  2.0722
 6022SOL     OW29527   4.303   4.124  10.151  0.1818  0.1379 -1.2583
 6022SOL    HW129528   4.234   4.121  10.217  2.4417 -0.0841  1.1459
 6022SOL    HW229529   4.256   4.094  10.074 -0.5592  1.4055 -1.3074
 6023SOL     OW29530   4.038   0.694  17.004 -0.1840 -0.7868 -0.5042
 6023SOL    HW129531   4.068   0.627  17.065 -2.3208  0.7974  2.3063
 6023SOL    HW229532   4.111   0.741  16.963 -0.1158 -2.2115 -2.0029
 6024SOL     OW29533   1.530   4.006   5.557  0.1033 -0.0059 -0.4471
 6024SOL    HW129534   1.507   4.097   5.574  1.0389  0.2315 -0.4070
 6024SOL    HW229535   1.533   3.970   5.645 -1.7521  0.3322 -0.2597
 6025SOL     OW29536   2.415   2.549   2.602  0.3091  0.1501  0.3819
 6025SOL    HW129537   2.328   2.514   2.584 -0.2293  1.9194 -0.4475
 6025SOL    HW229538   2.410   2.552   2.698  2.3348  0.4872  0.4809
 6026SOL     OW29539   0.635   2.264   0.643 -0.6383 -0.4325 -0.1714
 6026SOL    HW129540   0.643   2.172   0.615  1.5074 -0.3948  0.3371
 6026SOL    HW229541   0.688   2.247   0.721 -0.5130 -0.4990 -0.2708
 6027SOL     OW29542   4.397   1.500   0.463 -0.4294 -0.0650  0.0939
 6027SOL    HW129543   4.380   1.485   0.556  1.0910 -3.2152 -0.1252
 6027SOL    HW229544   4.397   1.411   0.428  1.0344 -0.4714  1.1425
 6028SOL     OW29545   4.181   4.242   1.791 -0.2678  0.0537 -0.2856
 6028SOL    HW129546   4.194   4.293   1.711  2.7174 -1.0758 -0.5170
 6028SOL    HW229547   4.244   4.172   1.774 -2.0910 -1.9258  0.9837
 6029SOL     OW29548   0.947   0.050   2.438  0.3573  0.0467 -0.6909
 6029SOL    HW129549   1.041   0.049   2.422  0.4554  0.5888 -0.1806
 6029SOL    HW229550   0.930   0.123   2.378 -0.5029 -0.8609 -1.5527
 6030SOL     OW29551   4.641   0.669   6.879  0.5591 -0.2029  0.6502
 6030SOL    HW129552   4.644   0.602   6.947  0.3692  0.9306  1.7635
 6030SOL    HW229553   4.640   0.741   6.942  0.3707 -0.9525  1.5039
 6031SOL     OW29554   1.695   0.405   3.505  0.2882  0.1296 -0.1977
 6031SOL    HW129555   1.654   0.322   3.527  0.2432  0.2702  0.2388
 6031SOL    HW229556   1.714   0.392   3.412  1.4515 -1.3604  0.2405
 6032SOL     OW29557   3.823   4.255  14.948 -0.1505  0.1354 -0.4160
 6032SOL    HW129558   3.824   4.195  14.873  0.9891 -0.0140 -0.2867
 6032SOL    HW229559   3.774   4.208  15.015  0.8384  2.0273  1.5921
 6033SOL     OW29560   1.075   1.496   5.747  0.1524 -0.2141  0.3522
 6033SOL    HW129561   1.162   1.537   5.748 -0.5230  1.1736  1.9265
 6033SOL    HW229562   1.075   1.458   5.659  3.2373  2.6803 -0.9267
 6034SOL     OW29563   1.518   2.127   2.125  0.4266 -0.1514 -0.0582
 6034SOL    HW129564   1.562   2.125   2.209  1.8379  1.3154 -0.7556
 6034SOL    HW229565   1.459   2.202   2.132  2.4705  1.3785  0.7722
 6035SOL     OW29566   3.149   1.813   8.261 -0.7047 -0.0645  0.6651
 6035SOL    HW129567   3.223   1.766   8.224 -1.6799 -1.4386  0.4432
 6035SOL    HW229568   3.135   1.891   8.206  2.3235 -0.8565 -1.2040
 6036SOL     OW29569   0.813   3.758   9.416  0.0449  0.4406  0.1793
 6036SOL    HW129570   0.880   3.767   9.484  1.6929  0.6982 -1.4783
 6036SOL    HW229571   0.733   3.798   9.450  0.6201  0.4155  1.5904
 6037SOL     OW29572   1.007   3.149   2.535 -0.0175  0.2880 -0.2231
 6037SOL    HW129573   0.960   3.138   2.452 -1.2939 -1.7290  0.7799
 6037SOL    HW229574   1.033   3.058   2.549  0.5357  0.7152  1.5301
 6038SOL     OW29575   2.641   0.894  14.046 -0.3035 -0.5515  0.6569
 6038SOL    HW129576   2.653   0.962  14.112 -0.2839 -1.0760  1.2015
 6038SOL    HW229577   2.722   0.845  14.062  0.2967 -0.0366 -0.7921
 6039SOL     OW29578   1.652   2.376   4.518 -0.7202 -0.3372 -0.3685
 6039SOL    HW129579   1.623   2.417   4.436 -2.0698 -1.5832 -0.5267
 6039SOL    HW229580   1.716   2.317   4.478 -1.9452 -1.6566 -0.3747
 6040SOL     OW29581   2.566   1.441   2.315  0.0461  0.3184 -0.1782
 6040SOL    HW129582   2.590   1.351   2.292  1.0052  0.5312 -0.0458
 6040SOL    HW229583   2.654   1.473   2.336  0.4556 -2.1316  1.9153
 6041SOL     OW29584   3.630   4.107   6.525 -0.5015  0.3855 -0.1667
 6041SOL    HW129585   3.574   4.112   6.448 -0.9710  4.4232  0.4122
 6041SOL    HW229586   3.580   4.157   6.590  0.8939 -1.2147  2.1339
 6042SOL     OW29587   0.835   0.407  10.239 -0.0225 -0.7188  0.0275
 6042SOL    HW129588   0.752   0.390  10.283 -0.4539  0.6818 -0.2283
 6042SOL    HW229589   0.892   0.397  10.315  0.3539  0.4640 -0.1055
 6043SOL     OW29590   2.058   0.648  10.017 -0.3311 -0.0369  0.1480
 6043SOL    HW129591   2.010   0.591  10.077  2.1092 -0.6973  1.4321
 6043SOL    HW229592   2.116   0.699  10.072  0.4974 -0.9469  0.1178
 6044SOL     OW29593   1.437   0.303   6.610  0.0549 -0.7610  0.7747
 6044SOL    HW129594   1.385   0.236   6.656  1.3626 -1.3938  1.3174
 6044SOL    HW229595   1.486   0.258   6.542  2.5689  2.1101  0.7096
 6045SOL     OW29596   2.737   3.033   2.868 -0.2909 -0.4828 -0.4905
 6045SOL    HW129597   2.670   3.060   2.805 -1.7570  1.8665  2.0406
 6045SOL    HW229598   2.731   2.938   2.867 -1.6544 -0.3991 -1.0997
 6046SOL     OW29599   0.533   2.298   8.492  0.0893  0.2947 -0.0185
 6046SOL    HW129600   0.549   2.379   8.442  2.0860 -0.4689 -0.6055
 6046SOL    HW229601   0.622   2.293   8.526  0.2617 -2.2928 -0.8480
 6047SOL     OW29602   3.637   3.813   6.254 -0.0210 -0.4317 -0.1616
 6047SOL    HW129603   3.610   3.730   6.215  0.2883 -0.9811  0.7874
 6047SOL    HW229604   3.681   3.793   6.337 -1.2922  1.1544  0.8881
 6048SOL     OW29605   0.836   0.473   2.320  0.6670 -0.1083 -0.0539
 6048SOL    HW129606   0.924   0.439   2.333  1.3884  2.4620  1.8722
 6048SOL    HW229607   0.829   0.539   2.389 -0.9430 -1.2080  0.8251
 6049SOL     OW29608   2.208   0.942   3.099  0.1518 -0.0588  0.5302
 6049SOL    HW129609   2.202   0.847   3.088 -1.7727  0.1700 -0.4613
 6049SOL    HW229610   2.301   0.960   3.085 -0.6186  1.7458 -2.3479
 6050SOL     OW29611   4.549   2.719   5.883  0.4620  0.8215 -0.5152
 6050SOL    HW129612   4.525   2.648   5.824 -0.5788  0.0182  0.8739
 6050SOL    HW229613   4.641   2.696   5.889  0.2093  0.5850  2.8700
 6051SOL     OW29614   4.448   1.569  14.035  0.1978 -0.3408  0.2569
 6051SOL    HW129615   4.370   1.548  13.983 -0.3708  1.5553  0.3457
 6051SOL    HW229616   4.495   1.488  14.017 -0.8496 -1.0460  0.6818
 6052SOL     OW29617   3.272   1.718   5.810  0.7202 -0.1924  0.1025
 6052SOL    HW129618   3.195   1.695   5.757  0.6908 -0.4803  0.2713
 6052SOL    HW229619   3.295   1.802   5.771 -0.7168  0.6407  1.0160
 6053SOL     OW29620   4.153   2.915  12.729  0.1713  0.5699  0.3783
 6053SOL    HW129621   4.114   2.956  12.807 -0.3008  1.5486 -0.3778
 6053SOL    HW229622   4.242   2.907  12.764  0.4638  2.1090 -0.0449
 6054SOL     OW29623   4.720   1.350   4.583  0.1183 -0.1185 -0.2234
 6054SOL    HW129624   4.713   1.320   4.492  0.9877 -0.0828 -0.3020
 6054SOL    HW229625   4.630   1.359   4.614  0.2653  0.1970  0.1076
 6055SOL     OW29626   2.579   1.761   9.152  0.1031  0.0439  0.2878
 6055SOL    HW129627   2.529   1.804   9.221 -0.1665 -0.3095  0.3166
 6055SOL    HW229628   2.502   1.738   9.100 -0.1130  0.5887  0.3770
 6056SOL     OW29629   2.205   0.042   3.275  0.3448 -0.0590 -0.2961
 6056SOL    HW129630   2.129   0.041   3.216  1.1293  1.7810 -1.3170
 6056SOL    HW229631   2.222   4.670   3.280  0.4206 -0.0642 -0.6717
 6057SOL     OW29632   2.603   4.648   2.917  0.5816 -0.6487 -0.0289
 6057SOL    HW129633   2.603   4.670   3.011 -0.4005 -1.5249  0.1716
 6057SOL    HW229634   2.511   4.658   2.893  0.3745 -0.1553  0.9452
 6058SOL     OW29635   1.065   0.426   7.720 -0.6125 -0.2437 -0.0906
 6058SOL    HW129636   1.076   0.425   7.625 -1.1583  2.0303 -0.1780
 6058SOL    HW229637   1.037   0.516   7.737 -1.1375 -1.1413  3.8792
 6059SOL     OW29638   3.350   4.480   1.668  0.2296 -0.4897  1.1320
 6059SOL    HW129639   3.430   4.428   1.660  0.6427  0.5463 -1.5813
 6059SOL    HW229640   3.372   4.546   1.602  0.5856 -0.1060  1.6358
 6060SOL     OW29641   0.539   1.327   8.190  0.0768 -0.0285  0.1001
 6060SOL    HW129642   0.502   1.291   8.270  0.5775  0.2777  0.4693
 6060SOL    HW229643   0.526   1.261   8.122 -0.3959 -2.5264  2.6636
 6061SOL     OW29644   1.946   0.126   3.395 -0.5427  0.3731  0.0108
 6061SOL    HW129645   1.929   0.166   3.480  0.0694 -0.3627  0.4756
 6061SOL    HW229646   1.956   0.035   3.422 -0.5037  0.3888  0.0490
 6062SOL     OW29647   4.217   1.484   6.224  0.1165  0.0696 -0.7864
 6062SOL    HW129648   4.301   1.447   6.197 -0.2662  0.1697 -2.0931
 6062SOL    HW229649   4.239   1.514   6.312  2.1584 -1.0691 -0.9197
 6063SOL     OW29650   4.339   1.180   7.450  0.0730  0.4128 -0.3119
 6063SOL    HW129651   4.340   1.086   7.433 -0.3166 -0.2646  3.5806
 6063SOL    HW229652   4.429   1.181   7.416  0.5911 -2.3299  0.9990
 6064SOL     OW29653   4.314   2.091   3.502 -0.3651 -0.6067  0.1176
 6064SOL    HW129654   4.391   2.144   3.525 -1.0685  0.3533  0.2600
 6064SOL    HW229655   4.259   2.151   3.451  0.9158  0.8368  0.4107
 6065SOL     OW29656   4.542   4.689  14.458  0.2237 -0.0951  0.4228
 6065SOL    HW129657   4.595   0.028  14.406  0.9708 -1.6090 -0.6101
 6065SOL    HW229658   4.532   4.632  14.381 -2.9484  1.4021 -0.3009
 6066SOL     OW29659   1.317   0.629   6.283  0.7072 -0.1074  0.0287
 6066SOL    HW129660   1.312   0.665   6.195  0.7421  0.4481  0.2500
 6066SOL    HW229661   1.305   0.714   6.326 -0.9466  0.1018 -0.8595
 6067SOL     OW29662   0.173   4.327   3.646 -0.1362 -0.1015 -0.7291
 6067SOL    HW129663   0.169   4.422   3.642  2.5535  0.0089 -0.9083
 6067SOL    HW229664   0.266   4.316   3.667  0.3230 -1.2684 -3.3564
 6068SOL     OW29665   3.586   3.607   6.698 -0.3711 -0.3584  0.4954
 6068SOL    HW129666   3.666   3.655   6.680 -1.9956  3.0164  2.2383
 6068SOL    HW229667   3.539   3.600   6.615 -0.3667  0.7193  0.4075
 6069SOL     OW29668   0.138   3.059   9.489 -0.3415  0.3845 -0.1050
 6069SOL    HW129669   0.111   3.128   9.550  3.7289  0.3104  1.7619
 6069SOL    HW229670   0.112   2.980   9.535  2.8646 -1.4296 -1.4068
 6070SOL     OW29671   3.880   4.203   1.332  0.1008 -0.3743 -0.0779
 6070SOL    HW129672   3.806   4.145   1.314  0.3290 -0.8232  0.4327
 6070SOL    HW229673   3.841   4.277   1.378  0.7508  0.5490 -1.0048
 6071SOL     OW29674   3.352   0.483   5.452  0.6248  1.1024 -0.0888
 6071SOL    HW129675   3.289   0.550   5.425 -0.1830  0.4109  0.1176
 6071SOL    HW229676   3.311   0.420   5.511  0.3998  2.2384  0.9744
 6072SOL     OW29677   0.789   1.519  11.753 -0.2241  0.1438 -0.0494
 6072SOL    HW129678   0.834   1.442  11.786 -2.8925 -1.1511  0.5410
 6072SOL    HW229679   0.764   1.556  11.838 -0.8950 -0.1685 -0.1141
 6073SOL     OW29680   0.604   3.924  17.580 -0.5359  0.9325  0.2307
 6073SOL    HW129681   0.618   4.015  17.555  2.6298  0.4697  0.2782
 6073SOL    HW229682   0.509   3.927  17.579 -0.6031 -1.1706  0.1566
 6074SOL     OW29683   3.334   3.494   7.272 -0.0704 -0.5209 -0.0696
 6074SOL    HW129684   3.413   3.546   7.266 -0.0489 -0.4939  0.4333
 6074SOL    HW229685   3.273   3.545   7.219  0.6121  0.7394  0.3722
 6075SOL     OW29686   0.853   1.712   6.904 -0.2267  0.2508  0.0989
 6075SOL    HW129687   0.879   1.700   6.996 -2.0344 -0.5184  0.5114
 6075SOL    HW229688   0.783   1.774   6.925  0.4593  1.4684 -1.2071
 6076SOL     OW29689   1.774   0.704   2.886 -0.0064  0.0542  0.0517
 6076SOL    HW129690   1.771   0.799   2.872  1.5347  0.2789  1.2508
 6076SOL    HW229691   1.701   0.684   2.828  0.8529 -0.1602 -0.9555
 6077SOL     OW29692   0.074   3.863   2.118  0.5021 -0.4660 -0.7182
 6077SOL    HW129693   0.056   3.770   2.129  0.2636 -0.3479 -0.0929
 6077SOL    HW229694   0.151   3.884   2.172 -0.8351  0.3380  0.8741
 6078SOL     OW29695   0.886   1.633  10.080  0.0822  0.6482 -0.6501
 6078SOL    HW129696   0.832   1.554  10.082 -1.8181  2.0159  2.4142
 6078SOL    HW229697   0.967   1.595  10.116  0.8838  0.1550 -3.0186
 6079SOL     OW29698   0.511   0.596   5.457 -0.4402  0.0606 -0.4257
 6079SOL    HW129699   0.578   0.651   5.416 -1.0740  0.1141 -1.3782
 6079SOL    HW229700   0.481   0.659   5.523  0.8389 -1.1078  1.3033
 6080SOL     OW29701   2.689   1.219   2.679  0.1194  0.0760  0.3777
 6080SOL    HW129702   2.782   1.244   2.685  0.1814 -0.1372  0.3101
 6080SOL    HW229703   2.699   1.128   2.651 -4.0696 -0.3604  0.3620
 6081SOL     OW29704   1.839   2.829   0.921  0.2561  0.0744 -0.2677
 6081SOL    HW129705   1.896   2.808   0.846  1.2684  0.9480  0.2636
 6081SOL    HW229706   1.904   2.873   0.975  1.2956 -0.6013 -0.9549
 6082SOL     OW29707   4.463   1.482   3.322 -0.5001  0.3442 -0.0237
 6082SOL    HW129708   4.371   1.498   3.343 -0.1057  2.2544  0.2434
 6082SOL    HW229709   4.467   1.531   3.240 -0.2742  1.5446  0.7063
 6083SOL     OW29710   3.085   4.456  13.024  0.0394  0.0545  0.5688
 6083SOL    HW129711   3.170   4.438  12.983 -0.2978  1.7232 -0.8323
 6083SOL    HW229712   3.031   4.384  12.992 -2.2572  0.6822  2.9824
 6084SOL     OW29713   0.355   3.911   6.238  0.4173  0.5856 -0.4330
 6084SOL    HW129714   0.439   3.941   6.202  0.6499 -1.3400 -1.4947
 6084SOL    HW229715   0.343   3.832   6.185 -0.6901 -0.0975  0.8256
 6085SOL     OW29716   2.281   0.947   5.666  0.1951  0.1963 -0.1126
 6085SOL    HW129717   2.359   0.957   5.721 -1.0133 -1.3780  1.9253
 6085SOL    HW229718   2.214   0.928   5.732 -0.1084 -0.7254 -0.6891
 6086SOL     OW29719   0.240   1.875   7.005  0.0171 -0.2080 -0.1394
 6086SOL    HW129720   0.297   1.951   7.012 -2.7887  2.0076 -1.0499
 6086SOL    HW229721   0.304   1.806   6.988  1.6378  1.7408 -1.7763
 6087SOL     OW29722   3.107   4.663   5.510 -0.4381  0.4012  0.2947
 6087SOL    HW129723   3.176   4.606   5.545 -0.1311  0.5725 -0.0388
 6087SOL    HW229724   3.096   0.003   5.582 -0.4814  0.0434  0.6039
 6088SOL     OW29725   0.456   3.899   4.856 -0.2178  0.3267  0.5295
 6088SOL    HW129726   0.423   3.936   4.774 -2.8647  0.1115  1.5140
 6088SOL    HW229727   0.407   3.940   4.927 -1.0530 -2.1622  1.3895
 6089SOL     OW29728   0.291   3.202  10.847 -0.6725 -0.1016 -0.1467
 6089SOL    HW129729   0.382   3.202  10.873 -1.3255  0.8049  2.0717
 6089SOL    HW229730   0.265   3.113  10.873  1.2542 -0.7655 -0.5273
 6090SOL     OW29731   3.726   3.203  17.247 -0.1956  0.3869  0.1540
 6090SOL    HW129732   3.710   3.297  17.246 -2.0570  0.0720  0.4322
 6090SOL    HW229733   3.689   3.183  17.333 -1.3505  0.4146 -0.3433
 6091SOL     OW29734   4.289   0.780  16.641 -0.1555 -0.2123 -0.2137
 6091SOL    HW129735   4.232   0.779  16.717 -0.5145 -0.6984 -0.4880
 6091SOL    HW229736   4.248   0.722  16.576 -0.6299  1.0806 -1.0835
 6092SOL     OW29737   3.186   1.711   4.932  0.3034  0.3614  0.5618
 6092SOL    HW129738   3.179   1.616   4.942  0.7543  0.1834 -0.8385
 6092SOL    HW229739   3.251   1.714   4.863 -1.0277  2.3743 -0.5898
 6093SOL     OW29740   0.883   3.551   1.872  0.2190 -0.3415 -0.0190
 6093SOL    HW129741   0.858   3.481   1.932  1.0221 -0.7473 -0.1703
 6093SOL    HW229742   0.814   3.549   1.805 -1.5583  3.6062  1.6427
 6094SOL     OW29743   4.167   4.717   7.477  0.1502 -0.1702  0.1703
 6094SOL    HW129744   4.206   4.682   7.397 -3.5796 -1.5691 -1.0499
 6094SOL    HW229745   4.225   0.069   7.493  0.2670 -0.1767 -0.2274
 6095SOL     OW29746   4.080   3.158   6.745 -0.3522  0.0030 -0.1852
 6095SOL    HW129747   4.095   3.071   6.783 -1.3465 -0.6932 -1.4123
 6095SOL    HW229748   4.141   3.208   6.800  1.5102 -3.2326  0.6964
 6096SOL     OW29749   2.641   3.735   1.794  0.0901 -0.4211  0.1324
 6096SOL    HW129750   2.614   3.703   1.709 -2.2815 -0.5559  0.9510
 6096SOL    HW229751   2.561   3.774   1.829 -0.7058 -0.3495 -1.7658
 6097SOL     OW29752   4.339   0.463   0.888 -0.4311 -0.4404 -0.0630
 6097SOL    HW129753   4.383   0.393   0.938 -1.3006  0.5624  2.0833
 6097SOL    HW229754   4.351   0.436   0.797  0.6004 -1.5473  0.3922
 6098SOL     OW29755   0.220   3.437   4.633 -0.2556  0.1917  0.1473
 6098SOL    HW129756   0.289   3.455   4.569 -0.1569  0.3800  0.3041
 6098SOL    HW229757   0.162   3.513   4.621  1.7594  1.8092  0.6572
 6099SOL     OW29758   4.422   4.210   3.559  0.2921 -0.1944 -0.0438
 6099SOL    HW129759   4.483   4.281   3.535 -0.0662  0.9961  2.6429
 6099SOL    HW229760   4.474   4.161   3.622 -1.0802 -0.6855  0.6863
 6100SOL     OW29761   1.795   0.308  13.863 -0.2998 -0.4432  0.1957
 6100SOL    HW129762   1.797   0.382  13.802 -1.1709 -0.6139 -0.0359
 6100SOL    HW229763   1.870   0.330  13.918 -0.0815 -0.9069  0.0814
 6101SOL     OW29764   4.445   0.880  13.551 -0.1385  0.1618 -0.0139
 6101SOL    HW129765   4.354   0.876  13.577  0.6832 -2.0341  2.4837
 6101SOL    HW229766   4.448   0.950  13.485  3.6569  0.5278  0.5249
 6102SOL     OW29767   2.907   0.327   5.754  0.7087 -0.6210  0.1544
 6102SOL    HW129768   2.932   0.351   5.843 -3.1299  2.9275  0.2852
 6102SOL    HW229769   2.895   0.412   5.712 -0.4975 -1.2660 -0.8223
 6103SOL     OW29770   3.548   2.767   7.286 -0.4048 -0.1726 -0.0286
 6103SOL    HW129771   3.590   2.776   7.200  1.1046  0.0323  0.7405
 6103SOL    HW229772   3.462   2.802   7.261 -0.0738  0.9284  0.3625
 6104SOL     OW29773   1.491   2.791   3.795 -0.1626 -0.1818  0.0015
 6104SOL    HW129774   1.474   2.758   3.707  2.9812  0.4324 -0.8176
 6104SOL    HW229775   1.559   2.734   3.831  0.4401  0.8993  0.5795
 6105SOL     OW29776   4.616   0.692   3.769 -0.1967  0.3901  0.2373
 6105SOL    HW129777   4.629   0.598   3.760 -1.7062  0.2975 -0.9852
 6105SOL    HW229778   4.569   0.701   3.852  0.6548  0.2470  0.7232
 6106SOL     OW29779   1.577   0.875  14.017 -0.5494  0.1871 -0.0188
 6106SOL    HW129780   1.566   0.798  13.962 -0.3061  0.0789  0.0866
 6106SOL    HW229781   1.555   0.852  14.107  0.2179 -0.7879 -0.0811
 6107SOL     OW29782   0.616   4.382   8.277  0.3613 -0.3865 -0.1649
 6107SOL    HW129783   0.643   4.455   8.222  1.0030  1.0620  2.0941
 6107SOL    HW229784   0.552   4.422   8.335  1.4035 -1.3667  1.6641
 6108SOL     OW29785   1.098   0.365   4.479  0.4266 -0.3725  0.0103
 6108SOL    HW129786   1.169   0.314   4.440 -0.6724 -1.4546 -0.5888
 6108SOL    HW229787   1.109   0.338   4.570 -1.8257 -1.6810 -0.1139
 6109SOL     OW29788   0.941   1.850   4.806  0.0001 -0.1841  0.2165
 6109SOL    HW129789   0.927   1.944   4.796  0.4573 -0.1675 -0.2900
 6109SOL    HW229790   0.922   1.841   4.899 -1.3505  0.1809 -0.0205
 6110SOL     OW29791   0.747   1.485   2.514  0.2706 -0.1590 -0.2114
 6110SOL    HW129792   0.769   1.547   2.444 -1.0474  1.0345  0.4270
 6110SOL    HW229793   0.826   1.436   2.536  1.0907  0.6575 -1.3498
 6111SOL     OW29794   2.259   0.811   8.916 -0.3967 -0.2672 -0.0859
 6111SOL    HW129795   2.285   0.812   8.824  1.6510 -0.8385  0.4881
 6111SOL    HW229796   2.164   0.802   8.907 -0.3320  0.3057 -1.3579
 6112SOL     OW29797   2.667   2.344  13.021 -0.5697 -0.0491  0.3050
 6112SOL    HW129798   2.609   2.420  13.016 -0.9533 -0.3582 -0.0007
 6112SOL    HW229799   2.755   2.380  13.010 -0.4158  0.0615  1.8754
 6113SOL     OW29800   1.689   3.657   8.238  0.0935 -0.1266 -0.3396
 6113SOL    HW129801   1.748   3.721   8.197  0.5580 -0.0513  0.4469
 6113SOL    HW229802   1.718   3.655   8.330 -1.2756 -3.0342  0.0057
 6114SOL     OW29803   0.387   4.149   5.048  0.4996  0.0505  0.4153
 6114SOL    HW129804   0.383   4.244   5.053  0.0702  0.1009 -0.6990
 6114SOL    HW229805   0.306   4.144   4.996  1.2238 -0.6448 -0.6481
 6115SOL     OW29806   3.467   1.298   7.940 -0.0148  0.1973 -0.5125
 6115SOL    HW129807   3.531   1.358   7.900  0.8121 -0.2936  0.0720
 6115SOL    HW229808   3.530   1.256   7.998  0.0981 -0.3660 -1.0437
 6116SOL     OW29809   2.794   1.885   4.517 -0.0684  0.0969 -0.4559
 6116SOL    HW129810   2.869   1.833   4.546 -2.2671 -2.1961  1.0633
 6116SOL    HW229811   2.836   1.901   4.432 -2.4228  0.1295 -1.6304
 6117SOL     OW29812   1.929   4.429  16.390 -0.1562 -0.3077  0.0990
 6117SOL    HW129813   2.003   4.374  16.365 -1.4891 -2.8562  1.7916
 6117SOL    HW229814   1.878   4.354  16.421  1.0773 -1.1942 -0.0161
 6118SOL     OW29815   2.367   4.485   3.304  0.3864 -0.3218  0.0201
 6118SOL    HW129816   2.314   4.491   3.384 -1.0571 -1.2462 -0.8724
 6118SOL    HW229817   2.426   4.556   3.327 -0.3209  0.2175  0.1605
 6119SOL     OW29818   3.563   2.709   2.993  0.1274  0.4030 -0.3061
 6119SOL    HW129819   3.551   2.660   2.911 -0.7526  1.2101 -0.6548
 6119SOL    HW229820   3.578   2.639   3.056  1.9546  0.9397 -0.1498
 6120SOL     OW29821   2.433   1.521   3.723 -0.1204  0.4217 -0.3699
 6120SOL    HW129822   2.443   1.520   3.819 -2.1099  3.2211 -0.1243
 6120SOL    HW229823   2.527   1.521   3.702  0.4779  0.0518  2.2665
 6121SOL     OW29824   0.886   3.890   3.710 -0.7348 -0.7005  0.2116
 6121SOL    HW129825   0.854   3.855   3.627  0.2411  0.9347 -0.8502
 6121SOL    HW229826   0.819   3.864   3.774  0.3652 -3.4976  0.2377
 6122SOL     OW29827   0.492   4.669  14.246 -0.4041  0.6328  0.6470
 6122SOL    HW129828   0.576   4.707  14.222  0.3334 -0.5967  1.2630
 6122SOL    HW229829   0.455   0.013  14.305 -3.6702 -0.8651  0.3113
 6123SOL     OW29830   3.807   0.217   8.028  0.1417 -0.1916  0.2062
 6123SOL    HW129831   3.881   0.193   7.972  0.2326  1.4751 -0.3794
 6123SOL    HW229832   3.816   0.312   8.020  1.5812 -0.4105 -0.6824
 6124SOL     OW29833   3.634   3.361   6.057 -0.8116  0.7085 -0.6260
 6124SOL    HW129834   3.704   3.302   6.028 -1.1533  0.3279 -0.6689
 6124SOL    HW229835   3.564   3.307   6.021  1.3425 -0.1292 -3.5381
 6125SOL     OW29836   0.381   4.066   7.792  0.8095  0.4994 -0.0987
 6125SOL    HW129837   0.425   3.984   7.813 -1.0113 -0.4095  0.1246
 6125SOL    HW229838   0.441   4.102   7.726 -0.3683  1.0788 -0.8581
 6126SOL     OW29839   4.195   0.480  13.670 -0.4325 -0.1560  0.0960
 6126SOL    HW129840   4.278   0.490  13.623 -0.2112 -1.1842  0.2743
 6126SOL    HW229841   4.157   0.398  13.639 -1.2156 -0.0925  0.8818
 6127SOL     OW29842   3.914   4.350  15.200 -0.0094  0.2121 -0.0350
 6127SOL    HW129843   3.908   4.363  15.106  0.3606 -1.7672 -0.3391
 6127SOL    HW229844   3.830   4.378  15.235  0.1863  2.2097 -1.2185
 6128SOL     OW29845   1.952   2.628  13.130  0.0154 -0.2833  0.0297
 6128SOL    HW129846   1.860   2.602  13.125 -1.0219  3.2807  0.6068
 6128SOL    HW229847   1.953   2.723  13.117  1.3539 -0.5346 -1.7867
 6129SOL     OW29848   1.001   1.353   6.221 -0.7669 -0.1404  0.0921
 6129SOL    HW129849   1.013   1.272   6.270  0.8833  0.3161  0.4218
 6129SOL    HW229850   0.995   1.401   6.304  4.2603 -0.2289  0.4909
 6130SOL     OW29851   4.209   3.264   4.029  0.7760  0.5611 -0.0560
 6130SOL    HW129852   4.217   3.169   4.032 -1.4864  0.3654 -0.3388
 6130SOL    HW229853   4.146   3.289   4.096 -1.0587 -2.1293 -0.7700
 6131SOL     OW29854   3.246   1.300   7.141  0.1326  0.3604 -0.0369
 6131SOL    HW129855   3.157   1.305   7.107  0.0960  2.3720  0.3600
 6131SOL    HW229856   3.284   1.219   7.106  1.5269  0.8848  0.2389
 6132SOL     OW29857   3.583   3.343   4.721  0.0665 -0.0656 -0.8299
 6132SOL    HW129858   3.495   3.317   4.693 -1.0384  1.3010  1.3386
 6132SOL    HW229859   3.574   3.438   4.728  0.4404 -0.1202  0.3211
 6133SOL     OW29860   2.578   3.896   3.606 -0.3039  0.6161  0.1281
 6133SOL    HW129861   2.524   3.829   3.565  0.7816  0.5769 -1.2577
 6133SOL    HW229862   2.592   3.955   3.531  0.0118 -0.2649 -0.5132
 6134SOL     OW29863   2.567   1.360   1.413 -0.1298 -0.6952  0.3363
 6134SOL    HW129864   2.627   1.370   1.339  1.3981  0.8274  1.7954
 6134SOL    HW229865   2.481   1.359   1.371 -0.7416 -2.0648  1.6345
 6135SOL     OW29866   1.677   3.902   9.064  0.1987 -0.5472 -0.8563
 6135SOL    HW129867   1.667   3.916   9.158 -1.7443 -2.3919 -0.7892
 6135SOL    HW229868   1.585   3.892   9.038  0.8714 -2.2972 -2.5073
 6136SOL     OW29869   2.669   2.501  13.929  0.0670 -0.0054  0.6922
 6136SOL    HW129870   2.613   2.469  14.000 -0.1798  2.4043  1.5691
 6136SOL    HW229871   2.724   2.569  13.967 -1.0813  1.1056  0.3438
 6137SOL     OW29872   2.306   0.812   7.687 -0.1549 -0.8103  0.1202
 6137SOL    HW129873   2.344   0.806   7.775  0.8439  0.8431 -0.2043
 6137SOL    HW229874   2.294   0.907   7.678 -0.4263 -0.7239  1.3370
 6138SOL     OW29875   2.251   4.133   9.541 -0.3262  0.2379  0.0930
 6138SOL    HW129876   2.214   4.045   9.535 -2.5994  1.2348 -0.4846
 6138SOL    HW229877   2.282   4.144   9.451 -0.0858 -0.2270  0.1201
 6139SOL     OW29878   0.637   1.281  13.581  0.0521 -0.6065  0.8901
 6139SOL    HW129879   0.725   1.245  13.591  0.2004 -0.3836  0.4010
 6139SOL    HW229880   0.584   1.206  13.552 -1.2342  0.7917 -0.3983
 6140SOL     OW29881   0.806   1.850  10.782  0.2411  0.2860  0.1571
 6140SOL    HW129882   0.813   1.773  10.726 -1.3631  1.4901 -1.6833
 6140SOL    HW229883   0.761   1.920  10.735  1.5237  1.4910  0.6917
 6141SOL     OW29884   4.009   1.371   5.628 -0.0011  0.1520 -0.1956
 6141SOL    HW129885   4.013   1.417   5.544 -0.0470 -0.2052 -0.3916
 6141SOL    HW229886   3.922   1.333   5.630  0.9252 -2.0922 -2.2212
 6142SOL     OW29887   2.949   1.332   6.618  0.6298 -0.4244 -0.0634
 6142SOL    HW129888   2.979   1.332   6.527  1.8225  0.8023  0.3445
 6142SOL    HW229889   2.958   1.239   6.640 -4.0975 -0.3299  2.3978
 6143SOL     OW29890   1.906   3.471   5.343 -0.0643  0.3528 -0.0753
 6143SOL    HW129891   1.886   3.378   5.345 -1.3986  0.6774  1.4869
 6143SOL    HW229892   1.884   3.497   5.253  1.7100  0.1325 -0.5774
 6144SOL     OW29893   3.827   0.401   1.229 -0.1505 -0.5894 -0.1802
 6144SOL    HW129894   3.784   0.484   1.208 -0.1057 -0.7081 -0.7266
 6144SOL    HW229895   3.770   0.331   1.196  0.1790 -1.2716  0.7075
 6145SOL     OW29896   3.838   3.757  16.409 -0.4629  0.3783  0.0886
 6145SOL    HW129897   3.755   3.760  16.362  0.2532  1.1578 -1.1153
 6145SOL    HW229898   3.892   3.718  16.341 -1.9203 -3.0478  0.9208
 6146SOL     OW29899   2.186   0.652   4.808  0.4727 -0.4117 -0.1449
 6146SOL    HW129900   2.224   0.592   4.872  1.4822 -1.6172 -1.8826
 6146SOL    HW229901   2.107   0.601   4.794 -1.3828  1.9456  1.5747
 6147SOL     OW29902   0.168   2.805   8.990 -0.0092 -0.4329 -0.5507
 6147SOL    HW129903   0.194   2.789   9.081  2.7208  2.9028 -0.7133
 6147SOL    HW229904   0.080   2.842   8.998 -0.0090 -0.2121 -1.6224
 6148SOL     OW29905   2.635   3.908   2.182 -0.0341 -0.2021 -0.3659
 6148SOL    HW129906   2.712   3.949   2.143 -0.1512  0.0918 -0.2888
 6148SOL    HW229907   2.561   3.960   2.151 -1.5787 -2.2714 -0.2011
 6149SOL     OW29908   4.667   4.005   9.138  0.0895  0.4993 -0.0426
 6149SOL    HW129909   4.590   3.963   9.176  0.2968 -0.1600 -0.3426
 6149SOL    HW229910   4.717   4.022   9.218  2.1479 -1.8802 -0.8350
 6150SOL     OW29911   1.568   3.201   0.910  0.0537 -0.4122 -0.0888
 6150SOL    HW129912   1.653   3.182   0.948  0.2661  1.2268  0.2566
 6150SOL    HW229913   1.503   3.139   0.943 -0.3886 -1.1703 -2.3334
 6151SOL     OW29914   1.052   4.672  14.091  0.2263  0.1272 -0.1084
 6151SOL    HW129915   1.096   4.694  14.173  4.3786 -0.7652 -2.1241
 6151SOL    HW229916   1.121   4.622  14.048  1.5745  0.3505  1.7897
 6152SOL     OW29917   0.356   2.372   7.923  0.3676 -0.0328 -1.0025
 6152SOL    HW129918   0.433   2.388   7.869  0.0692 -0.3491 -1.5346
 6152SOL    HW229919   0.309   2.323   7.854 -1.6716  1.0858 -0.4084
 6153SOL     OW29920   0.095   4.110  10.297  0.1164  0.0076  0.4938
 6153SOL    HW129921   0.027   4.061  10.344 -0.9386  3.7899  2.8708
 6153SOL    HW229922   0.169   4.093  10.355  0.1467  2.1416  1.0660
 6154SOL     OW29923   1.098   1.377   2.066  0.4422  0.3352  0.6323
 6154SOL    HW129924   1.054   1.424   2.137 -0.4002  1.7937 -0.8484
 6154SOL    HW229925   1.077   1.284   2.077 -0.2588  0.2086 -1.7074
 6155SOL     OW29926   4.460   0.924   5.480  0.2652 -0.0659  0.0148
 6155SOL    HW129927   4.541   0.945   5.434  0.2712  0.1942  0.1441
 6155SOL    HW229928   4.484   0.912   5.572 -0.9503 -2.5688  0.0067
 6156SOL     OW29929   2.866   3.888   3.168 -0.4557 -0.3740 -0.2855
 6156SOL    HW129930   2.895   3.797   3.156 -0.0642 -0.4087  0.8908
 6156SOL    HW229931   2.822   3.900   3.084  0.3108  0.2061 -0.5998
 6157SOL     OW29932   3.416   4.697   4.729  0.8143  0.2163  0.3018
 6157SOL    HW129933   3.429   4.608   4.696 -1.1884 -0.7731  2.2067
 6157SOL    HW229934   3.335   4.711   4.680 -0.6583 -0.2357  2.6545
 6158SOL     OW29935   4.108   2.163   4.297  0.3671  0.1703 -0.1677
 6158SOL    HW129936   4.139   2.228   4.360 -0.1593 -1.5043  1.7990
 6158SOL    HW229937   4.179   2.160   4.233 -0.7479  1.2147 -1.4570
 6159SOL     OW29938   1.718   2.614   4.685  0.3050  0.2162 -0.0147
 6159SOL    HW129939   1.800   2.663   4.675 -0.3835  1.6556  1.4015
 6159SOL    HW229940   1.723   2.540   4.624  1.4393  0.6079 -0.4087
 6160SOL     OW29941   4.225   2.593   3.228  0.0414  0.4196  0.9792
 6160SOL    HW129942   4.136   2.583   3.261 -0.2376 -0.1261  0.0696
 6160SOL    HW229943   4.222   2.553   3.141  0.6810 -0.2221  1.2522
 6161SOL     OW29944   0.713   3.618   7.094  0.5054  0.1923  0.3065
 6161SOL    HW129945   0.644   3.660   7.147  0.9332  0.4517  0.6536
 6161SOL    HW229946   0.741   3.696   7.045 -0.2795  0.4016  0.1815
 6162SOL     OW29947   3.917   2.672  14.832 -0.1021  0.2265  0.1561
 6162SOL    HW129948   3.840   2.692  14.779 -0.4148 -2.2280 -0.3303
 6162SOL    HW229949   3.988   2.695  14.772 -0.7647 -0.0495 -0.7318
 6163SOL     OW29950   0.985   0.823   6.880  0.1892  0.3677  0.3933
 6163SOL    HW129951   0.926   0.896   6.897  0.9292  0.7114  1.4582
 6163SOL    HW229952   1.014   0.831   6.788 -0.9762 -0.2322 -0.0192
 6164SOL     OW29953   4.012   4.425   6.939 -0.0566  0.2261 -0.6447
 6164SOL    HW129954   3.917   4.425   6.955 -0.2373  1.5682 -1.6866
 6164SOL    HW229955   4.023   4.496   6.876  0.7599  1.0325  0.3918
 6165SOL     OW29956   0.154   2.444  15.862  0.0466 -0.4265  0.1314
 6165SOL    HW129957   0.168   2.372  15.924 -0.0358 -0.5493  0.0094
 6165SOL    HW229958   0.083   2.403  15.812 -2.3127  0.3885  2.8166
 6166SOL     OW29959   1.134   3.342   6.221  0.1467  0.0382 -0.0867
 6166SOL    HW129960   1.209   3.285   6.205 -2.0482 -2.3104 -1.8386
 6166SOL    HW229961   1.062   3.291   6.183 -0.9624  0.8811  0.8556
 6167SOL     OW29962   1.835   0.922  12.810 -0.3136  0.2458 -0.0020
 6167SOL    HW129963   1.781   0.971  12.872 -0.5664  0.2335 -0.2096
 6167SOL    HW229964   1.770   0.861  12.776 -1.3631  0.8707  0.8970
 6168SOL     OW29965   1.517   1.370   3.618 -0.2716  0.3185  0.1830
 6168SOL    HW129966   1.549   1.461   3.616  0.8217 -0.0293  1.2787
 6168SOL    HW229967   1.594   1.329   3.578 -0.9099 -1.2950  0.6105
 6169SOL     OW29968   1.374   4.393   2.432  0.3224  0.3363 -0.1300
 6169SOL    HW129969   1.433   4.324   2.464 -0.0455  0.5309  0.9764
 6169SOL    HW229970   1.380   4.372   2.339  0.8423 -0.4344  0.0685
 6170SOL     OW29971   2.220   2.050  16.553  0.4859 -0.0468 -0.4111
 6170SOL    HW129972   2.276   2.100  16.493 -1.4087 -0.4225 -2.4659
 6170SOL    HW229973   2.283   1.994  16.599  0.9955  0.7019 -0.1856
 6171SOL     OW29974   4.209   2.975  10.129  0.0987 -0.4432 -0.1551
 6171SOL    HW129975   4.156   2.975  10.209 -0.9822  2.3320 -0.8630
 6171SOL    HW229976   4.140   3.018  10.079  1.1421  1.3524 -0.0350
 6172SOL     OW29977   0.801   3.882   8.874 -0.1649  0.4376  0.4481
 6172SOL    HW129978   0.849   3.802   8.894  1.1947  1.2210  0.3570
 6172SOL    HW229979   0.813   3.895   8.779  1.4709  0.4380  0.6539
 6173SOL     OW29980   1.530   4.244   3.055  0.2055 -0.3776 -0.8130
 6173SOL    HW129981   1.443   4.251   3.093 -0.2274  0.7005 -1.9920
 6173SOL    HW229982   1.545   4.337   3.035  1.7606 -0.2778  0.8490
 6174SOL     OW29983   4.105   0.516   3.624  0.0488  0.1232  0.5659
 6174SOL    HW129984   4.105   0.531   3.719  3.1029 -0.2933  0.6433
 6174SOL    HW229985   4.149   0.432   3.612 -1.7113 -0.5436 -1.2430
 6175SOL     OW29986   4.675   3.849  11.941 -0.9359 -0.5964  0.2017
 6175SOL    HW129987   4.625   3.813  11.868  0.1869  1.0890 -1.3843
 6175SOL    HW229988   4.612   3.858  12.013 -1.0585 -2.2731  0.2954
 6176SOL     OW29989   2.273   4.693   3.741 -0.5352  0.0309 -0.5874
 6176SOL    HW129990   2.226   4.610   3.734  1.4250 -1.4500  3.8076
 6176SOL    HW229991   2.346   4.685   3.680 -1.0555 -0.6644 -1.1157
 6177SOL     OW29992   3.077   4.169   5.320 -0.1096 -0.6084  0.1838
 6177SOL    HW129993   3.004   4.218   5.282  0.3889 -1.3182 -1.6585
 6177SOL    HW229994   3.118   4.236   5.375 -2.3889  1.4762 -0.6153
 6178SOL     OW29995   1.689   1.379  11.716 -0.1642  0.4029 -0.1720
 6178SOL    HW129996   1.600   1.375  11.750  0.0954 -2.6044  0.1333
 6178SOL    HW229997   1.674   1.381  11.621 -0.5895 -1.6412 -0.1548
 6179SOL     OW29998   1.634   2.720   1.060 -0.4515 -0.1639 -0.4824
 6179SOL    HW129999   1.640   2.768   1.143 -1.3846 -2.1816  0.7344
 6179SOL    HW230000   1.703   2.766   1.010  0.2061  2.1948  2.5877
 6180SOL     OW30001   1.966   2.835  12.470 -0.2280  0.2157  0.0278
 6180SOL    HW130002   1.973   2.880  12.386 -0.0723 -1.2967 -0.7752
 6180SOL    HW230003   1.886   2.867  12.512  0.4519 -0.2596  1.6761
 6181SOL     OW30004   1.548   4.005  10.878 -0.3862 -0.0142  0.3952
 6181SOL    HW130005   1.627   3.979  10.925  0.2546 -0.6933 -1.0512
 6181SOL    HW230006   1.483   3.987  10.946  0.7822 -1.8781  0.9906
 6182SOL     OW30007   0.371   3.115   0.005  0.5124 -0.0956 -0.4085
 6182SOL    HW130008   0.452   3.116   0.056  0.8258 -1.6707 -0.8545
 6182SOL    HW230009   0.306   3.096   0.073 -0.4120  0.1469 -1.2273
 6183SOL     OW30010   0.381   3.773   7.038  0.0764 -0.0377 -0.2063
 6183SOL    HW130011   0.304   3.823   7.066  0.3060  0.7587 -0.9782
 6183SOL    HW230012   0.377   3.786   6.943 -0.5550  1.3475  0.0137
 6184SOL     OW30013   1.613   0.195  13.269  0.6252 -0.0215 -0.4123
 6184SOL    HW130014   1.603   0.214  13.176  1.1314  0.5460 -0.3462
 6184SOL    HW230015   1.546   0.127  13.281 -0.1788  1.0569  1.2870
 6185SOL     OW30016   1.516   3.923   6.650  0.5929  0.7209  0.3343
 6185SOL    HW130017   1.508   3.868   6.728 -1.5423 -2.0405 -1.8406
 6185SOL    HW230018   1.466   3.999   6.679 -0.5949 -0.4084  1.2270
 6186SOL     OW30019   3.480   0.839   1.205 -0.1146  0.3380 -0.3104
 6186SOL    HW130020   3.479   0.914   1.146  1.5003 -0.0425 -0.8339
 6186SOL    HW230021   3.485   0.872   1.295  2.0695  1.1402 -0.7340
 6187SOL     OW30022   2.432   0.744   1.262 -0.0651  0.2616 -0.2873
 6187SOL    HW130023   2.466   0.720   1.348  1.8371 -0.1655 -1.1611
 6187SOL    HW230024   2.425   0.837   1.285 -0.9272  0.3970 -1.1113
 6188SOL     OW30025   2.329   3.000   4.830  0.3642 -0.5454  0.0985
 6188SOL    HW130026   2.409   3.006   4.779 -0.3057  1.4639 -0.7404
 6188SOL    HW230027   2.343   3.063   4.901 -1.1886  1.9010 -1.7271
 6189SOL     OW30028   4.075   2.394   0.869 -0.4382  0.2352 -0.1983
 6189SOL    HW130029   4.115   2.365   0.951  1.4318 -0.2390 -1.2676
 6189SOL    HW230030   3.994   2.432   0.902  0.1879  1.0187  0.4610
 6190SOL     OW30031   2.851   1.257   7.659 -0.3763 -0.0096  0.0691
 6190SOL    HW130032   2.818   1.306   7.735  1.5821 -0.1779  1.0229
 6190SOL    HW230033   2.867   1.172   7.700  1.8233  1.3497  2.0666
 6191SOL     OW30034   2.742   2.517   9.146  0.4115  0.5318  0.5393
 6191SOL    HW130035   2.727   2.516   9.051  0.3987 -1.1656  0.5719
 6191SOL    HW230036   2.653   2.533   9.177  0.8650  0.6821  1.7481
 6192SOL     OW30037   4.462   2.906  11.854  0.1296  0.0960 -0.2009
 6192SOL    HW130038   4.381   2.941  11.815  0.6159 -1.4797 -2.6081
 6192SOL    HW230039   4.462   2.816  11.820 -0.1513 -0.2357  0.6705
 6193SOL     OW30040   1.991   3.254  16.090 -0.3672  0.3534  0.0493
 6193SOL    HW130041   2.069   3.273  16.141  0.2266  0.4104 -0.8868
 6193SOL    HW230042   1.943   3.334  16.113 -0.8860  1.2082 -4.0881
 6194SOL     OW30043   0.698   0.249   3.394 -0.4550 -0.3313 -0.2772
 6194SOL    HW130044   0.605   0.266   3.404 -0.3174 -0.7355  1.6177
 6194SOL    HW230045   0.700   0.222   3.302  1.6743  0.9419 -0.6008
 6195SOL     OW30046   0.285   1.692   0.295  0.3642 -0.4227  0.0663
 6195SOL    HW130047   0.372   1.729   0.275 -0.8265  1.7132 -1.2214
 6195SOL    HW230048   0.254   1.773   0.336 -0.2748 -0.5165 -0.2397
 6196SOL     OW30049   2.692   0.082  13.437  0.1367  0.8941  0.4488
 6196SOL    HW130050   2.703   4.721  13.391  1.9521  1.1761  0.3605
 6196SOL    HW230051   2.606   0.115  13.412  0.0186  0.2451 -0.0143
 6197SOL     OW30052   1.841   2.569   4.176 -0.5879 -0.0612 -0.9521
 6197SOL    HW130053   1.879   2.519   4.104  0.0542  0.7439 -1.1757
 6197SOL    HW230054   1.912   2.627   4.204  0.2241 -1.7384  0.4486
 6198SOL     OW30055   2.920   1.040   8.040 -0.1199  0.6903 -0.1965
 6198SOL    HW130056   2.905   1.024   7.947 -1.3701 -0.7884  0.2638
 6198SOL    HW230057   3.006   1.080   8.050  0.3807 -0.1031 -1.4317
 6199SOL     OW30058   1.579   0.632  16.045 -0.2516  0.2787  0.2308
 6199SOL    HW130059   1.497   0.657  16.003 -1.3262 -1.4722  1.2595
 6199SOL    HW230060   1.563   0.538  16.045  0.7316  0.1066  1.6972
 6200SOL     OW30061   1.290   2.295   7.119  0.5977  0.1881  0.0318
 6200SOL    HW130062   1.228   2.349   7.072  1.8059  1.4508 -0.1146
 6200SOL    HW230063   1.325   2.359   7.182  1.6264  0.7949 -1.1640
 6201SOL     OW30064   0.207   1.101  13.961 -0.0575 -0.0831 -0.1627
 6201SOL    HW130065   0.119   1.075  13.932 -0.4053  1.5779 -0.6171
 6201SOL    HW230066   0.206   1.054  14.045  3.3578  1.3783  0.6787
 6202SOL     OW30067   0.728   3.825  14.458  0.3753  0.0645  0.0150
 6202SOL    HW130068   0.768   3.911  14.457  1.0056 -0.2372 -0.3566
 6202SOL    HW230069   0.681   3.816  14.375 -0.4642  0.8869  0.4033
 6203SOL     OW30070   0.692   0.725   9.848  0.2148 -0.1818  0.0431
 6203SOL    HW130071   0.785   0.748   9.835  0.0644  0.3995 -0.0136
 6203SOL    HW230072   0.697   0.705   9.941  2.8803  0.1782 -0.0196
 6204SOL     OW30073   0.367   3.813  12.017 -0.1823  0.2682 -0.1853
 6204SOL    HW130074   0.431   3.846  12.080 -1.4018 -1.1056  1.7460
 6204SOL    HW230075   0.336   3.728  12.049 -0.9745 -0.1426 -2.0368
 6205SOL     OW30076   3.875   0.240   2.067  0.2225  0.6020  0.2805
 6205SOL    HW130077   3.877   0.152   2.028 -1.2117  1.1525 -1.0316
 6205SOL    HW230078   3.945   0.233   2.132 -0.1597  0.5798  0.6901
 6206SOL     OW30079   0.759   2.270  15.619  0.3670 -0.4244  0.1803
 6206SOL    HW130080   0.758   2.315  15.534  0.4493  0.1333  0.4762
 6206SOL    HW230081   0.842   2.295  15.658  0.1028  0.7228  0.0126
 6207SOL     OW30082   3.127   0.859   8.951  0.1123  0.1131  0.3282
 6207SOL    HW130083   3.221   0.839   8.950  0.6671  2.7426 -0.0143
 6207SOL    HW230084   3.117   0.943   8.906  1.4869 -0.2057 -0.5981
 6208SOL     OW30085   4.494   1.906   4.168 -0.2477  0.3916 -0.1116
 6208SOL    HW130086   4.563   1.941   4.225  2.2244 -1.2663 -2.0503
 6208SOL    HW230087   4.543   1.856   4.103  0.0274  0.3637  0.1152
 6209SOL     OW30088   0.238   1.320  12.968  0.5430  0.3454 -0.0347
 6209SOL    HW130089   0.213   1.338  13.059  1.5588  1.4865  0.0197
 6209SOL    HW230090   0.208   1.230  12.958 -1.4080  0.8986  0.8437
 6210SOL     OW30091   0.644   3.578   3.400  0.0862  0.4818  0.0221
 6210SOL    HW130092   0.563   3.544   3.364 -0.1866  0.9158  0.2303
 6210SOL    HW230093   0.668   3.497   3.445 -2.2157 -0.4746 -0.5027
 6211SOL     OW30094   4.450   0.975   6.234  0.4185  0.1703 -0.8993
 6211SOL    HW130095   4.540   0.960   6.262 -0.1885 -1.1386  0.3205
 6211SOL    HW230096   4.452   1.013   6.146 -0.2808  0.6101 -0.7250
 6212SOL     OW30097   0.170   2.559   9.839 -0.0572 -0.4545 -0.2737
 6212SOL    HW130098   0.191   2.631   9.898 -0.1436 -1.2307  0.7118
 6212SOL    HW230099   0.135   2.494   9.901 -0.4187 -1.3028 -1.3594
 6213SOL     OW30100   0.229   3.972   3.790  0.2264 -0.0192 -0.4147
 6213SOL    HW130101   0.148   3.923   3.801 -0.1532  0.4476 -1.0871
 6213SOL    HW230102   0.265   3.954   3.703  2.0227 -0.6047  0.4424
 6214SOL     OW30103   0.856   3.546   8.061  0.0270  0.1296 -0.0635
 6214SOL    HW130104   0.872   3.462   8.105 -2.2175 -0.5038 -0.4523
 6214SOL    HW230105   0.939   3.549   8.012 -0.4006 -0.1321 -0.8076
 6215SOL     OW30106   3.429   0.651   9.546 -0.6780  0.1161 -0.1809
 6215SOL    HW130107   3.504   0.636   9.489 -0.7646  1.1227 -0.5560
 6215SOL    HW230108   3.443   0.736   9.587  1.5949 -1.4287  2.2732
 6216SOL     OW30109   1.777   0.789   5.241  0.7307 -0.4640  0.6618
 6216SOL    HW130110   1.836   0.804   5.167  0.7595  0.7503  0.9285
 6216SOL    HW230111   1.701   0.758   5.192 -0.1561 -0.7611  2.2516
 6217SOL     OW30112   3.631   2.786   7.004 -0.0277  0.0824 -0.1067
 6217SOL    HW130113   3.557   2.833   6.965 -0.9171 -2.2213 -1.2146
 6217SOL    HW230114   3.712   2.835   6.991 -0.8723  2.2643  2.8434
 6218SOL     OW30115   4.693   2.459   6.198  0.3619  0.0200 -0.2286
 6218SOL    HW130116   4.656   2.444   6.285  0.2856 -3.5226 -0.8546
 6218SOL    HW230117   0.011   2.545   6.208 -2.0279  1.0333  0.6903
 6219SOL     OW30118   0.335   1.017  12.228 -0.7051 -0.3629  0.3174
 6219SOL    HW130119   0.385   0.943  12.192  0.0931  1.0499 -1.4423
 6219SOL    HW230120   0.383   1.033  12.310 -2.2146  2.3919  0.6342
 6220SOL     OW30121   2.215   1.527   8.781 -0.2592 -0.2901 -0.2332
 6220SOL    HW130122   2.172   1.537   8.866 -0.4150  0.3645 -0.3862
 6220SOL    HW230123   2.223   1.433   8.770  1.0707 -0.2484  0.4774
 6221SOL     OW30124   4.369   2.791   4.686 -0.0341  0.2041 -0.5548
 6221SOL    HW130125   4.449   2.770   4.639  0.6237 -0.6365  0.9286
 6221SOL    HW230126   4.405   2.784   4.774 -1.4609 -2.4621 -0.1646
 6222SOL     OW30127   2.886   0.625   8.096 -0.2300  0.1924  0.0031
 6222SOL    HW130128   2.811   0.682   8.116  0.4607  0.9115  0.5587
 6222SOL    HW230129   2.960   0.680   8.069 -0.4332  1.1173  1.3113
 6223SOL     OW30130   2.239   2.181   6.785  0.0895  0.3742 -0.0275
 6223SOL    HW130131   2.192   2.184   6.868 -1.5885 -0.3965 -0.9428
 6223SOL    HW230132   2.269   2.272   6.781 -2.9230  1.4315  0.9750
 6224SOL     OW30133   0.503   1.183   8.825  0.2954 -0.2506 -0.1331
 6224SOL    HW130134   0.524   1.130   8.902 -0.1310  1.6019  1.2618
 6224SOL    HW230135   0.517   1.271   8.861 -2.1861 -1.1934  3.1940
 6225SOL     OW30136   1.297   1.085   0.101  0.3459 -0.6123  0.8241
 6225SOL    HW130137   1.207   1.111   0.080  0.2922 -1.1331  0.4006
 6225SOL    HW230138   1.289   0.991   0.088 -2.6628 -0.5798  2.4936
 6226SOL     OW30139   0.409   4.636   0.848  0.4727 -0.4415  0.0507
 6226SOL    HW130140   0.385   4.644   0.755 -0.7761 -1.5242  0.2874
 6226SOL    HW230141   0.479   4.570   0.845  1.7136  0.7762  2.5352
 6227SOL     OW30142   3.034   2.861   2.904 -0.4507 -0.1828 -0.6349
 6227SOL    HW130143   3.085   2.932   2.941  1.0514 -0.0092 -3.0588
 6227SOL    HW230144   3.052   2.878   2.811  0.4198  0.7269 -0.3018
 6228SOL     OW30145   0.169   1.373   0.078  0.4498 -0.7139 -0.2159
 6228SOL    HW130146   0.261   1.350   0.067  0.6141  0.0259 -0.3820
 6228SOL    HW230147   0.164   1.411   0.165  1.6179 -1.1283  0.0340
 6229SOL     OW30148   4.401   1.742   7.796 -0.2157  0.0652  0.2983
 6229SOL    HW130149   4.311   1.709   7.793 -0.1521 -0.1503  0.7968
 6229SOL    HW230150   4.434   1.676   7.857  3.2212 -1.2464 -2.9772
 6230SOL     OW30151   1.250   0.489  14.917 -0.7472  0.7523  0.0623
 6230SOL    HW130152   1.301   0.436  14.856 -1.1285  0.7189 -0.2310
 6230SOL    HW230153   1.239   0.430  14.992 -1.5367  0.4349 -0.2998
 6231SOL     OW30154   2.708   3.610   7.305  0.4126  0.5002  0.2469
 6231SOL    HW130155   2.737   3.552   7.375 -1.3354  0.7164  1.1602
 6231SOL    HW230156   2.766   3.583   7.234 -0.6676  0.3662 -0.5873
 6232SOL     OW30157   2.181   0.572   3.238 -0.1593  0.4606  0.0362
 6232SOL    HW130158   2.264   0.590   3.196  0.2364 -0.9963  0.2054
 6232SOL    HW230159   2.129   0.630   3.182 -0.6822 -0.2306 -0.1982
 6233SOL     OW30160   3.488   4.439   1.358 -0.7661  0.0072 -0.1292
 6233SOL    HW130161   3.572   4.447   1.403 -0.1637 -0.0065 -1.2682
 6233SOL    HW230162   3.510   4.451   1.266 -0.5053  1.2122  0.0902
 6234SOL     OW30163   0.538   1.681   4.307  0.4995  0.6727  0.3240
 6234SOL    HW130164   0.482   1.752   4.340 -0.3400  1.1734 -2.1942
 6234SOL    HW230165   0.474   1.630   4.257  1.6418 -0.5910  0.1364
 6235SOL     OW30166   1.119   1.205   7.753 -0.8062 -0.5695  0.1832
 6235SOL    HW130167   1.173   1.284   7.759 -1.7265  0.2369 -1.9092
 6235SOL    HW230168   1.158   1.172   7.672  1.9765  0.8821  0.9255
 6236SOL     OW30169   4.249   0.256   1.404 -0.4813 -0.1510  0.5241
 6236SOL    HW130170   4.312   0.264   1.333 -1.8902  3.5917 -0.3213
 6236SOL    HW230171   4.179   0.316   1.375  0.4822  1.0364  0.6628
 6237SOL     OW30172   2.319   1.387   1.319  0.1928 -0.3229 -0.1709
 6237SOL    HW130173   2.246   1.337   1.356 -0.4288  0.1954 -0.7104
 6237SOL    HW230174   2.289   1.396   1.228 -0.5439  1.1162  0.2197
 6238SOL     OW30175   1.128   2.512   5.621  0.3994  0.2259 -0.0109
 6238SOL    HW130176   1.176   2.489   5.542  0.2496 -3.3552  0.9644
 6238SOL    HW230177   1.151   2.605   5.623  0.0478  0.3643 -1.6189
 6239SOL     OW30178   3.421   2.231   5.396 -0.0238 -0.4532  0.1155
 6239SOL    HW130179   3.482   2.178   5.344 -2.2813 -1.9424 -0.9964
 6239SOL    HW230180   3.362   2.168   5.439  0.1909 -0.7159  0.0259
 6240SOL     OW30181   2.385   2.731  10.209  0.1260  0.5452 -0.0226
 6240SOL    HW130182   2.342   2.675  10.145  0.0279  0.6552 -0.0534
 6240SOL    HW230183   2.455   2.751  10.147  1.3562 -1.3290  0.7469
 6241SOL     OW30184   1.194   1.775  12.280 -0.2008 -0.3656  0.1875
 6241SOL    HW130185   1.269   1.717  12.277  0.3673  0.3912 -0.1082
 6241SOL    HW230186   1.127   1.722  12.323 -2.2852  2.2906  0.2447
 6242SOL     OW30187   4.180   0.471  15.875  0.1190  0.4879  0.1801
 6242SOL    HW130188   4.111   0.514  15.924 -0.2187  1.0563 -0.7889
 6242SOL    HW230189   4.251   0.490  15.937 -0.0155 -0.5007  0.6388
 6243SOL     OW30190   0.032   0.916   6.583 -0.4990 -0.3806 -0.2453
 6243SOL    HW130191   0.102   0.981   6.594 -0.1170 -0.8453  0.0585
 6243SOL    HW230192   4.684   0.949   6.639  0.4582  0.9630  0.1974
 6244SOL     OW30193   2.175   2.362   7.827 -0.3545  0.1599  0.2690
 6244SOL    HW130194   2.103   2.424   7.838 -0.2932 -0.2525  2.8929
 6244SOL    HW230195   2.253   2.418   7.833  0.3166 -0.6625 -0.8693
 6245SOL     OW30196   2.810   3.116   6.637 -0.1769 -0.0499 -0.3983
 6245SOL    HW130197   2.839   3.194   6.589  0.6443 -0.3926 -0.4601
 6245SOL    HW230198   2.806   3.145   6.728 -2.3399 -0.1085 -0.4749
 6246SOL     OW30199   2.549   2.779   2.566 -0.3130  0.3326 -0.0573
 6246SOL    HW130200   2.522   2.689   2.581 -0.9887  0.5840  0.2624
 6246SOL    HW230201   2.590   2.801   2.649  1.0594  0.9453 -0.8849
 6247SOL     OW30202   4.638   1.660   6.360  0.3408  0.0686  0.0921
 6247SOL    HW130203   4.608   1.570   6.362  0.4602  0.0139 -0.6995
 6247SOL    HW230204   4.597   1.687   6.442 -1.1546 -1.2816 -0.2253
 6248SOL     OW30205   4.473   0.908  15.367 -0.5169 -0.3945  0.0001
 6248SOL    HW130206   4.469   0.913  15.462 -0.3491 -1.6484  0.0757
 6248SOL    HW230207   4.547   0.847  15.361  1.0529  1.6772 -1.9945
 6249SOL     OW30208   0.104   2.142  10.841 -0.0910 -0.3994 -0.1595
 6249SOL    HW130209   0.113   2.131  10.936  1.0912  1.7876 -0.0205
 6249SOL    HW230210   0.047   2.071  10.812 -1.0674 -0.0711  0.9538
 6250SOL     OW30211   4.512   2.012  13.237 -0.2613 -0.1712 -0.1872
 6250SOL    HW130212   4.578   1.977  13.298  1.1293  2.0335 -0.4295
 6250SOL    HW230213   4.561   2.087  13.205 -0.9248 -0.0155 -0.8291
 6251SOL     OW30214   1.336   2.879   7.553 -0.9397  0.4763  0.5202
 6251SOL    HW130215   1.395   2.906   7.624  1.0317 -0.8977 -0.5845
 6251SOL    HW230216   1.259   2.867   7.609  0.0111  0.9238  1.9348
 6252SOL     OW30217   3.142   1.206   2.468 -0.2299  0.1474 -0.7510
 6252SOL    HW130218   3.212   1.189   2.532 -1.7989  1.5794  1.3273
 6252SOL    HW230219   3.182   1.222   2.382 -1.2553 -0.4359 -1.3326
 6253SOL     OW30220   1.759   2.640  16.659  0.1104 -0.6338  0.2941
 6253SOL    HW130221   1.766   2.712  16.721 -1.9670 -0.1021 -0.1033
 6253SOL    HW230222   1.844   2.603  16.682  0.0947 -0.9742 -0.1998
 6254SOL     OW30223   3.418   4.501  12.614 -0.3259 -0.0874 -0.0503
 6254SOL    HW130224   3.491   4.453  12.574  0.8580  1.6483  0.0483
 6254SOL    HW230225   3.440   4.588  12.581  0.9048 -0.4904 -0.2994
 6255SOL     OW30226   2.663   0.409   2.388 -0.4596  0.2382  0.0641
 6255SOL    HW130227   2.736   0.352   2.410 -0.2854  0.9011  1.2467
 6255SOL    HW230228   2.670   0.393   2.294  0.8623 -1.1963  0.4163
 6256SOL     OW30229   2.751   1.377   6.995 -0.7107 -0.3821  0.2203
 6256SOL    HW130230   2.685   1.403   7.059 -1.1527 -1.9352  0.3826
 6256SOL    HW230231   2.707   1.386   6.911  0.5967 -0.9297 -0.5207
 6257SOL     OW30232   0.458   0.360   4.102  0.1257  0.5169  0.0144
 6257SOL    HW130233   0.372   0.360   4.061  0.0735  0.4123  0.1251
 6257SOL    HW230234   0.517   0.343   4.029  0.0047 -0.5081  0.1625
 6258SOL     OW30235   0.358   3.369   2.641 -0.3237 -0.1756 -0.2197
 6258SOL    HW130236   0.406   3.371   2.724 -0.6213  2.8563 -0.1231
 6258SOL    HW230237   0.330   3.277   2.649  2.2003 -0.9156  0.1808
 6259SOL     OW30238   0.997   4.062   9.035 -0.5935 -0.1236  0.4014
 6259SOL    HW130239   0.933   4.132   9.052 -0.6680 -0.5400  1.8291
 6259SOL    HW230240   0.933   4.001   8.997  0.3286 -0.2937 -0.8696
 6260SOL     OW30241   1.876   0.214   8.042  0.0618 -0.2240  0.0065
 6260SOL    HW130242   1.883   0.307   8.017 -0.2023 -0.2275 -0.0785
 6260SOL    HW230243   1.970   0.201   8.028 -0.4628 -3.1692 -0.6687
 6261SOL     OW30244   3.069   2.015   9.181 -0.0859 -0.0645 -0.5312
 6261SOL    HW130245   3.017   1.973   9.113 -0.2256 -0.8722  0.0784
 6261SOL    HW230246   3.092   2.093   9.130 -0.0227  0.4197  0.2420
 6262SOL     OW30247   2.661   2.850   0.920  0.2827 -0.3494 -0.2164
 6262SOL    HW130248   2.662   2.934   0.875  0.9463 -0.1561  0.1726
 6262SOL    HW230249   2.696   2.863   1.008 -1.2017 -0.2216  0.3561
 6263SOL     OW30250   1.559   3.687   5.826 -0.6149  0.4066 -0.0888
 6263SOL    HW130251   1.602   3.602   5.814 -1.7461 -0.0081 -1.2310
 6263SOL    HW230252   1.630   3.743   5.857  0.0367  0.4525 -1.6284
 6264SOL     OW30253   0.098   2.256   6.902 -0.0038  0.5851  0.1088
 6264SOL    HW130254   0.120   2.344   6.872  1.2879 -0.2694 -1.4600
 6264SOL    HW230255   0.071   2.281   6.990 -2.4178 -0.3392 -0.3525
 6265SOL     OW30256   4.391   2.544   5.729 -0.0398 -0.0319  0.3753
 6265SOL    HW130257   4.304   2.567   5.698  0.5016  0.3931 -0.8551
 6265SOL    HW230258   4.363   2.499   5.809  3.7374 -0.7189  1.3386
 6266SOL     OW30259   2.754   4.614  11.249  0.5541 -0.4350  0.0719
 6266SOL    HW130260   2.807   4.582  11.176  0.1792 -0.8321 -0.0216
 6266SOL    HW230261   2.798   4.580  11.327  0.3996  1.0868  0.8240
 6267SOL     OW30262   0.634   4.533   4.024  0.1787  0.5674 -0.3149
 6267SOL    HW130263   0.611   4.505   4.113 -3.5507  3.7062 -0.2900
 6267SOL    HW230264   0.666   4.624   4.024  1.9434 -0.0496  0.8071
 6268SOL     OW30265   1.669   1.913   6.661 -0.6034 -0.1229 -0.5631
 6268SOL    HW130266   1.668   2.007   6.682  0.9162  0.5621 -3.5040
 6268SOL    HW230267   1.644   1.917   6.569 -3.0120 -2.2717  0.0218
 6269SOL     OW30268   4.593   4.530  16.022 -0.7682 -0.0977 -0.2240
 6269SOL    HW130269   4.678   4.537  15.979 -0.5245 -0.4477  0.1871
 6269SOL    HW230270   4.599   4.478  16.103 -4.0659  0.2794  0.2515
 6270SOL     OW30271   4.254   3.749  10.437 -0.5208  0.1903  0.1565
 6270SOL    HW130272   4.180   3.738  10.497 -0.1250 -0.8552  0.4473
 6270SOL    HW230273   4.240   3.838  10.404 -1.2931  0.8245  2.1771
 6271SOL     OW30274   1.909   4.466   5.703  0.2310  0.2794  0.6823
 6271SOL    HW130275   1.827   4.496   5.743  0.6080 -2.1221  3.2376
 6271SOL    HW230276   1.949   4.432   5.783  2.0912 -1.2904 -0.9235
 6272SOL     OW30277   3.173   0.704   8.240 -0.1636  0.4187 -0.0019
 6272SOL    HW130278   3.140   0.735   8.156  3.0177 -2.2412 -2.2447
 6272SOL    HW230279   3.192   0.615   8.210  0.0847 -0.3211  2.3031
 6273SOL     OW30280   3.369   2.173  16.342 -0.6240  0.4018 -0.5478
 6273SOL    HW130281   3.402   2.129  16.263  3.0600  0.7539  0.7864
 6273SOL    HW230282   3.407   2.114  16.407 -0.1884 -1.2239 -2.2756
 6274SOL     OW30283   1.382   4.149   4.011  0.2054  0.2551  0.1012
 6274SOL    HW130284   1.394   4.079   4.075 -0.0236 -2.4469 -2.7601
 6274SOL    HW230285   1.475   4.171   4.002 -0.7494  2.9505 -3.3508
 6275SOL     OW30286   1.843   3.236   3.311 -0.1934  0.3379  0.1429
 6275SOL    HW130287   1.858   3.290   3.388  2.2305  1.9060 -1.4109
 6275SOL    HW230288   1.872   3.294   3.240 -0.1303  0.9801  0.6966
 6276SOL     OW30289   3.690   2.666   5.183 -0.3058 -0.3262 -0.4090
 6276SOL    HW130290   3.762   2.613   5.149 -0.5719 -0.1621 -1.2179
 6276SOL    HW230291   3.730   2.753   5.191 -1.0082 -0.0721  0.3137
 6277SOL     OW30292   2.479   0.264   7.671  0.3026 -0.1782 -0.2074
 6277SOL    HW130293   2.482   0.358   7.688  1.1115 -0.1085 -0.7652
 6277SOL    HW230294   2.490   0.229   7.759  0.6974  1.5267  0.4264
 6278SOL     OW30295   2.426   4.711   5.053  0.6257 -0.0032 -0.3465
 6278SOL    HW130296   2.359   0.008   4.988  0.2466  1.0270  0.3476
 6278SOL    HW230297   2.389   4.624   5.069  2.1344 -0.6361 -0.3694
 6279SOL     OW30298   1.002   1.340   2.444 -0.4922  0.2016  0.0747
 6279SOL    HW130299   1.049   1.385   2.514  0.3434 -3.3125  1.7682
 6279SOL    HW230300   0.999   1.407   2.375 -1.7760 -0.1522 -0.2186
 6280SOL     OW30301   4.481   1.146   4.465 -0.1093  0.0981  0.1110
 6280SOL    HW130302   4.456   1.235   4.491  0.9313 -0.6499  3.7423
 6280SOL    HW230303   4.549   1.165   4.400  1.1827 -0.0895  1.3874
 6281SOL     OW30304   0.727   4.616  15.847  0.1522  0.3631  0.0300
 6281SOL    HW130305   0.644   4.658  15.870 -0.1640  0.2023 -0.8355
 6281SOL    HW230306   0.698   4.575  15.766  0.3274 -0.1089  0.2096
 6282SOL     OW30307   3.317   0.239  14.581 -0.0859  0.2387  0.0729
 6282SOL    HW130308   3.241   0.186  14.557 -0.9669  0.7411  1.8143
 6282SOL    HW230309   3.369   0.174  14.628 -0.2212  0.0914  0.0184
 6283SOL     OW30310   3.441   0.418   4.967  0.2804 -0.8196 -0.0941
 6283SOL    HW130311   3.462   0.337   4.920 -2.6719 -2.0580  0.6963
 6283SOL    HW230312   3.515   0.477   4.954  1.4228 -1.9630  1.1546
 6284SOL     OW30313   0.654   3.786   3.845  0.2559  0.1551 -0.0824
 6284SOL    HW130314   0.692   3.706   3.807  1.9547  1.4714 -1.1629
 6284SOL    HW230315   0.571   3.762   3.887 -0.0160  0.7601 -0.2779
 6285SOL     OW30316   2.313   1.303   4.493 -0.3575  0.2486  0.5706
 6285SOL    HW130317   2.312   1.395   4.467  0.1368 -0.0491 -0.5170
 6285SOL    HW230318   2.281   1.252   4.418 -1.6436  2.5493 -0.4354
 6286SOL     OW30319   4.276   4.599   7.256  0.5460  0.2638  0.5562
 6286SOL    HW130320   4.242   4.654   7.186  0.9116 -2.3580 -1.6582
 6286SOL    HW230321   4.247   4.514   7.222 -1.0150  0.9415  0.2286
 6287SOL     OW30322   0.534   0.805   2.952 -0.3057 -1.4093 -0.2981
 6287SOL    HW130323   0.445   0.784   2.981  0.3046 -1.4738  1.5090
 6287SOL    HW230324   0.521   0.794   2.858  0.4356  0.6793 -0.6381
 6288SOL     OW30325   2.714   4.271   6.199 -0.5747 -0.2955  0.0125
 6288SOL    HW130326   2.749   4.343   6.147 -2.0840  1.6589  1.7228
 6288SOL    HW230327   2.788   4.210   6.206  0.4210  1.0574  1.1688
 6289SOL     OW30328   2.495   1.030   3.801  0.7627 -0.3975  0.1175
 6289SOL    HW130329   2.498   1.060   3.710  0.3761 -3.7825 -1.0218
 6289SOL    HW230330   2.456   1.112   3.832  0.5045 -0.9012  1.1213
 6290SOL     OW30331   4.009   1.495   9.370 -0.4946 -0.1384  0.5946
 6290SOL    HW130332   4.102   1.473   9.375 -0.8070 -1.7719 -0.9573
 6290SOL    HW230333   3.995   1.465   9.281  0.4659 -0.0952  0.4236
 6291SOL     OW30334   4.008   2.518   4.869  0.2429 -0.2782 -0.6489
 6291SOL    HW130335   3.917   2.510   4.842 -0.0594  2.3712 -0.4260
 6291SOL    HW230336   4.008   2.603   4.913 -1.4786 -1.0858  0.9037
 6292SOL     OW30337   1.048   1.791   8.600  0.5911  0.3185  0.4749
 6292SOL    HW130338   1.114   1.761   8.661 -1.5288  0.5949  2.9262
 6292SOL    HW230339   1.052   1.886   8.611 -0.3424  0.4417 -0.2216
 6293SOL     OW30340   0.521   3.812  11.793 -0.0111  0.6892  0.4134
 6293SOL    HW130341   0.475   3.765  11.862 -0.5269  3.2363  1.7954
 6293SOL    HW230342   0.588   3.858  11.845  3.0699 -0.6352 -2.3602
 6294SOL     OW30343   3.512   3.758  13.708 -0.5721  0.1141  0.1708
 6294SOL    HW130344   3.482   3.809  13.783  0.3913  1.0629 -0.0917
 6294SOL    HW230345   3.592   3.716  13.739 -1.1093 -0.5392  0.6507
 6295SOL     OW30346   2.061   2.432   8.528 -0.3986 -0.4460  0.6920
 6295SOL    HW130347   1.982   2.422   8.475 -0.0667  0.1012  0.0876
 6295SOL    HW230348   2.067   2.526   8.547  0.8031 -0.2213 -0.8067
 6296SOL     OW30349   1.773   2.244   4.062 -0.4843 -0.2198 -1.1435
 6296SOL    HW130350   1.801   2.158   4.093  1.4209  0.7932 -0.0402
 6296SOL    HW230351   1.678   2.233   4.052 -1.2717  3.6850  1.8751
 6297SOL     OW30352   0.164   2.599  15.291  0.5122  0.0694 -0.5066
 6297SOL    HW130353   0.134   2.513  15.262 -1.1421  0.2321  0.7106
 6297SOL    HW230354   0.169   2.648  15.209 -0.7493  1.4650  0.2372
 6298SOL     OW30355   1.082   0.963  10.010 -0.4552  0.9450 -0.2884
 6298SOL    HW130356   1.102   1.044  10.057  1.5341  0.3828 -0.1811
 6298SOL    HW230357   1.017   0.927  10.071  0.7601  1.2426  1.1740
 6299SOL     OW30358   1.925   1.741   8.857  0.2849 -0.2405  0.3170
 6299SOL    HW130359   1.905   1.737   8.951  2.3552  2.5141  0.9012
 6299SOL    HW230360   2.020   1.754   8.850  0.7956 -3.4017  1.5670
 6300SOL     OW30361   2.929   2.577   3.451  0.0718 -0.4138 -0.1474
 6300SOL    HW130362   2.866   2.542   3.514 -0.6441  0.1244 -0.5686
 6300SOL    HW230363   2.898   2.663   3.423  5.1150  1.6100  0.4617
 6301SOL     OW30364   2.273   0.396   6.806  0.9739 -0.0875  0.2536
 6301SOL    HW130365   2.214   0.466   6.776 -0.7955 -1.3939  0.7386
 6301SOL    HW230366   2.207   0.330   6.825  0.0726  0.9688  0.8251
 6302SOL     OW30367   4.543   0.354   4.922 -0.3936  0.3276 -0.2142
 6302SOL    HW130368   4.460   0.394   4.896  0.4588  1.4493 -1.2398
 6302SOL    HW230369   4.516   0.288   4.985  0.2790  0.5454  0.2947
 6303SOL     OW30370   1.054   3.020  11.312  0.0017 -1.3801  0.4567
 6303SOL    HW130371   1.117   3.002  11.382  1.3383  0.6643 -0.2366
 6303SOL    HW230372   1.109   3.034  11.236  0.0328  0.1056  0.7505
 6304SOL     OW30373   3.093   4.591   2.834  0.0932  0.3557 -0.6818
 6304SOL    HW130374   3.086   4.580   2.929 -0.8342 -2.2941 -1.0439
 6304SOL    HW230375   2.998   4.580   2.820 -0.5615  2.7911  1.9880
 6305SOL     OW30376   4.339   1.699  15.306 -0.4350  0.3191 -0.0836
 6305SOL    HW130377   4.251   1.702  15.344 -0.7932 -1.4301 -0.7969
 6305SOL    HW230378   4.377   1.639  15.370 -1.9438  0.0999  0.5962
 6306SOL     OW30379   2.688   2.577   2.275  0.6390  0.0422 -0.2643
 6306SOL    HW130380   2.731   2.649   2.229  1.5374 -1.5828 -1.9452
 6306SOL    HW230381   2.607   2.572   2.223  0.4421  1.0977 -0.0620
 6307SOL     OW30382   2.739   3.776   7.513  0.0991 -0.4295 -0.2613
 6307SOL    HW130383   2.738   3.706   7.448 -0.2271  0.9698 -1.7645
 6307SOL    HW230384   2.668   3.751   7.571 -0.6937  3.6306  0.5561
 6308SOL     OW30385   1.659   1.583   7.611 -0.0715  0.9830 -0.5564
 6308SOL    HW130386   1.612   1.517   7.663  0.9883  1.5948  1.1932
 6308SOL    HW230387   1.675   1.527   7.536 -0.2630  0.7343 -0.4119
 6309SOL     OW30388   1.195   4.233   7.833 -0.2503  0.4351 -0.2950
 6309SOL    HW130389   1.245   4.260   7.756  1.0586 -0.9039  0.0870
 6309SOL    HW230390   1.258   4.240   7.904 -0.1547 -1.9013 -0.1356
 6310SOL     OW30391   1.191   4.241  17.117  0.1554  0.1698  0.5025
 6310SOL    HW130392   1.188   4.146  17.126  0.4096  0.1917  0.7994
 6310SOL    HW230393   1.266   4.261  17.173  0.0588  1.2989  0.2253
 6311SOL     OW30394   3.170   4.021  11.165 -0.2213  0.3385  0.0557
 6311SOL    HW130395   3.223   3.945  11.140  2.1025  1.4617  1.5466
 6311SOL    HW230396   3.185   4.072  11.085  0.9018  1.4040  0.9444
 6312SOL     OW30397   3.940   3.110  11.395  0.2155 -0.3865  0.2448
 6312SOL    HW130398   3.924   3.201  11.419  1.4984  0.0487 -0.5260
 6312SOL    HW230399   3.853   3.072  11.402  0.4255 -0.6385  1.4195
 6313SOL     OW30400   3.027   3.060  10.511 -0.3628 -0.5851  0.2966
 6313SOL    HW130401   3.051   3.147  10.544  0.2264 -0.6730  0.0996
 6313SOL    HW230402   2.936   3.070  10.483 -0.0982 -1.1060 -0.7486
 6314SOL     OW30403   2.236   0.354   7.544 -0.5144  0.0928 -0.3056
 6314SOL    HW130404   2.202   0.296   7.612  1.9625  0.5269  1.2864
 6314SOL    HW230405   2.264   0.290   7.478  1.7256 -0.5796  1.3060
 6315SOL     OW30406   4.286   1.101  17.093 -0.3919  0.4188  0.6832
 6315SOL    HW130407   4.219   1.093  17.161 -1.1648 -1.6639 -0.3232
 6315SOL    HW230408   4.317   1.013  17.071  0.7319  1.2300 -0.9963
 6316SOL     OW30409   4.072   0.236   0.868  0.1898  0.1588  0.1096
 6316SOL    HW130410   3.989   0.196   0.843 -0.8916  2.8293 -0.5967
 6316SOL    HW230411   4.040   0.326   0.866 -1.2312 -0.3678 -0.3307
 6317SOL     OW30412   2.107   4.123   5.358  0.5215 -0.6626  0.2155
 6317SOL    HW130413   2.042   4.182   5.319  0.9187 -0.1442  0.3220
 6317SOL    HW230414   2.139   4.187   5.422 -2.4630  1.5426 -0.4824
 6318SOL     OW30415   3.246   3.919   7.306  0.2749 -0.3553 -0.0439
 6318SOL    HW130416   3.298   3.948   7.231  1.1316 -0.1747  0.6180
 6318SOL    HW230417   3.164   3.899   7.261  1.1336 -3.2090 -0.3579
 6319SOL     OW30418   0.848   2.415  13.591  0.1592 -0.4880 -0.3869
 6319SOL    HW130419   0.767   2.458  13.615  0.2486 -0.3638 -0.3061
 6319SOL    HW230420   0.900   2.484  13.549  2.1446 -1.7112  0.0547
 6320SOL     OW30421   1.226   1.046   6.902  0.1876  0.0121 -0.0082
 6320SOL    HW130422   1.318   1.029   6.883  0.2789  0.7741 -0.2784
 6320SOL    HW230423   1.182   0.968   6.867 -2.6300  1.4202  0.3631
 6321SOL     OW30424   3.508   0.481  17.576 -0.2693  0.2376  0.7212
 6321SOL    HW130425   3.499   0.549  17.510 -2.9334  0.3419  1.2178
 6321SOL    HW230426   3.506   0.543  17.648  0.1590  1.1352 -0.0480
 6322SOL     OW30427   0.156   2.488  16.336 -0.2829 -0.0100 -0.1290
 6322SOL    HW130428   0.172   2.533  16.254  0.8375  0.4073  0.3120
 6322SOL    HW230429   0.193   2.548  16.401  1.3325 -0.2764 -0.8050
 6323SOL     OW30430   4.006   2.712   7.567 -0.1590 -0.2844  0.0153
 6323SOL    HW130431   4.036   2.673   7.485 -0.9204  1.7112 -1.2122
 6323SOL    HW230432   3.915   2.684   7.576 -0.6131  1.5439  1.1549
 6324SOL     OW30433   4.590   2.045   7.634  0.5783  0.1916  0.0520
 6324SOL    HW130434   4.587   1.950   7.629 -0.2027  0.1495  1.2255
 6324SOL    HW230435   4.527   2.051   7.706  0.9965  0.5676  0.3912
 6325SOL     OW30436   1.921   0.232  16.311 -0.6010 -0.2578 -0.4960
 6325SOL    HW130437   1.855   0.176  16.270  0.7493 -0.1869 -2.7801
 6325SOL    HW230438   1.915   0.224  16.406  0.1586  2.5358 -0.2054
 6326SOL     OW30439   1.673   0.434  14.144 -0.5570  0.2729 -0.4957
 6326SOL    HW130440   1.746   0.440  14.083  0.2891  0.9167  0.5855
 6326SOL    HW230441   1.627   0.366  14.095  0.3017 -2.3519  2.3279
 6327SOL     OW30442   1.846   0.576   9.030 -0.1995 -0.3898 -0.0607
 6327SOL    HW130443   1.827   0.614   9.116 -1.8609 -0.9344 -0.1807
 6327SOL    HW230444   1.801   0.492   9.037  1.5411 -1.3432 -0.3605
 6328SOL     OW30445   1.229   4.131   3.753  0.2681  0.1973  0.3005
 6328SOL    HW130446   1.274   4.058   3.710 -0.1454 -0.5458  1.1230
 6328SOL    HW230447   1.278   4.143   3.835 -2.3717  4.2194  1.2641
 6329SOL     OW30448   1.980   0.810   6.588  0.1717 -0.3782 -0.1445
 6329SOL    HW130449   1.945   0.744   6.527 -0.8334 -1.4151  1.5496
 6329SOL    HW230450   2.028   0.876   6.538 -0.2097  0.5834  0.7709
 6330SOL     OW30451   0.926   3.900   5.516 -0.3796 -0.0876 -0.1356
 6330SOL    HW130452   0.854   3.952   5.480  1.9154  2.9319 -0.3885
 6330SOL    HW230453   0.998   3.960   5.499 -0.6218  0.4646  0.7400
 6331SOL     OW30454   1.843   3.782   5.726  0.3124 -0.2599 -0.4363
 6331SOL    HW130455   1.798   3.738   5.654  0.6899  3.5629 -2.9797
 6331SOL    HW230456   1.928   3.797   5.685  0.1096  1.3771 -0.2705
 6332SOL     OW30457   3.741   2.834  16.190 -0.7191 -0.2837 -0.4897
 6332SOL    HW130458   3.664   2.886  16.170 -1.4578 -1.3071 -0.3023
 6332SOL    HW230459   3.799   2.888  16.245  1.8000 -1.8373 -1.6338
 6333SOL     OW30460   0.950   4.255  12.480  0.2976 -0.1099 -0.3765
 6333SOL    HW130461   0.978   4.183  12.424  0.7413 -0.7558  0.6904
 6333SOL    HW230462   0.976   4.233  12.569 -0.9154 -2.8617 -0.7146
 6334SOL     OW30463   4.444   4.523  17.096  0.2147  0.2386 -0.2035
 6334SOL    HW130464   4.355   4.537  17.129 -0.6796 -1.5588 -1.9032
 6334SOL    HW230465   4.434   4.440  17.050 -1.6115 -0.8039  2.0621
 6335SOL     OW30466   2.661   2.341   1.616  0.7031  0.6593 -0.0507
 6335SOL    HW130467   2.617   2.293   1.546  0.0805  0.3735  0.5357
 6335SOL    HW230468   2.625   2.429   1.617 -0.7496  0.0506  1.1567
 6336SOL     OW30469   3.542   2.551   2.778 -0.6818 -0.6292 -0.2530
 6336SOL    HW130470   3.571   2.465   2.747  1.0218 -0.6038  1.3130
 6336SOL    HW230471   3.497   2.586   2.701 -0.2910  0.2153 -0.0971
 6337SOL     OW30472   3.941   3.585   4.690  0.0410 -0.0123 -0.0951
 6337SOL    HW130473   4.011   3.558   4.631  0.8586  0.5393  0.6228
 6337SOL    HW230474   3.876   3.519   4.666 -0.2483 -0.0857  0.8594
 6338SOL     OW30475   4.183   2.095  10.334 -0.0518  0.0983  0.2052
 6338SOL    HW130476   4.214   2.077  10.423 -0.7653 -0.2624  0.3851
 6338SOL    HW230477   4.203   2.013  10.287 -1.1638 -0.6653  1.0634
 6339SOL     OW30478   0.066   1.166   3.949 -0.1432  0.2497  0.7859
 6339SOL    HW130479   0.089   1.095   3.889 -1.0640  0.1423  0.5624
 6339SOL    HW230480   4.696   1.143   3.956 -0.2385  0.0565 -1.1876
 6340SOL     OW30481   4.274   3.275   4.353 -0.1526  0.3786 -0.0368
 6340SOL    HW130482   4.276   3.354   4.298  0.5317  1.0659  0.9636
 6340SOL    HW230483   4.303   3.326   4.429  0.6676  0.6734 -0.5452
 6341SOL     OW30484   4.044   2.880   7.137 -0.2792  0.0853 -0.1714
 6341SOL    HW130485   4.019   2.788   7.123  0.7271 -0.0845 -0.8669
 6341SOL    HW230486   3.973   2.913   7.191  1.2626  1.5393  0.9759
 6342SOL     OW30487   3.565   2.441  16.605  0.1138 -0.3519  0.5053
 6342SOL    HW130488   3.601   2.485  16.681  1.9549  2.3134 -1.9063
 6342SOL    HW230489   3.641   2.449  16.546  0.1192 -0.5396  0.4858
 6343SOL     OW30490   3.628   0.016   3.228  0.2435 -0.2990  0.0800
 6343SOL    HW130491   3.594   0.008   3.139 -0.9187 -3.4467  0.8269
 6343SOL    HW230492   3.673   4.655   3.240  0.9697  0.3294  1.7573
 6344SOL     OW30493   2.696   4.674   1.920 -0.5820 -0.1281  0.2774
 6344SOL    HW130494   2.768   4.703   1.865 -0.5327 -2.6048 -0.9683
 6344SOL    HW230495   2.724   4.707   2.006 -1.1049 -2.6311  1.4164
 6345SOL     OW30496   3.613   1.635   7.992 -0.3404 -0.0641 -0.2425
 6345SOL    HW130497   3.662   1.640   7.909 -0.2014  0.4208 -0.1291
 6345SOL    HW230498   3.635   1.546   8.020 -0.1000  0.2323  0.5025
 6346SOL     OW30499   2.065   4.178   3.068 -0.4047 -0.7081  0.8375
 6346SOL    HW130500   2.148   4.175   3.116  0.3043  0.6245 -0.3093
 6346SOL    HW230501   2.094   4.228   2.992 -2.0736  1.9043  1.9176
 6347SOL     OW30502   4.430   4.420   3.070 -0.0003 -0.0143 -0.6780
 6347SOL    HW130503   4.467   4.386   3.152  0.2467  1.5232 -0.1564
 6347SOL    HW230504   4.343   4.444   3.102 -0.1677 -1.0777 -0.3108
 6348SOL     OW30505   0.072   4.634   8.440 -0.1279 -0.1854 -0.1849
 6348SOL    HW130506   0.155   4.681   8.451 -0.4426  0.6322 -1.3414
 6348SOL    HW230507   0.009   4.700   8.413  0.7578  0.4599 -0.6791
 6349SOL     OW30508   3.733   1.270   3.172 -0.3225  0.3885 -0.1938
 6349SOL    HW130509   3.759   1.205   3.107  1.5638  0.6855  0.2604
 6349SOL    HW230510   3.773   1.349   3.136  1.8085 -0.9649 -0.7580
 6350SOL     OW30511   2.723   3.261  15.410 -0.3009 -0.1160 -0.3530
 6350SOL    HW130512   2.695   3.352  15.407  0.0440 -0.0027 -0.2108
 6350SOL    HW230513   2.636   3.221  15.402  0.7615 -2.4515 -0.1819
 6351SOL     OW30514   4.294   1.994   7.154 -0.0034 -0.2091  0.0841
 6351SOL    HW130515   4.231   2.014   7.223  1.2472 -0.1720  1.2243
 6351SOL    HW230516   4.376   2.004   7.202 -1.6670  1.9142  2.4993
 6352SOL     OW30517   4.457   0.238   6.125 -0.1012  0.2690 -0.0114
 6352SOL    HW130518   4.528   0.260   6.186 -0.3436 -3.1581  1.5158
 6352SOL    HW230519   4.410   0.194   6.196  0.3081  0.1247  0.1709
 6353SOL     OW30520   2.074   2.381   9.138  0.6075 -0.1932  0.2468
 6353SOL    HW130521   2.093   2.298   9.094  1.3348  0.2226 -0.2048
 6353SOL    HW230522   2.127   2.360   9.215  0.6693 -3.7236 -0.7501
 6354SOL     OW30523   0.914   3.477   7.227 -0.0861 -0.7102 -0.4183
 6354SOL    HW130524   0.832   3.493   7.181  0.1675 -3.6662 -1.9213
 6354SOL    HW230525   0.981   3.504   7.164 -0.0264  0.7336  0.2543
 6355SOL     OW30526   0.571   1.625   6.482 -0.4719  0.2765  0.5442
 6355SOL    HW130527   0.505   1.671   6.430  2.1390 -0.1949 -3.2061
 6355SOL    HW230528   0.520   1.558   6.528  0.7810 -0.0814  1.4164
 6356SOL     OW30529   0.932   1.108   2.612 -0.1633 -0.5532  0.4155
 6356SOL    HW130530   0.987   1.178   2.577  0.3359  0.5125  3.3017
 6356SOL    HW230531   0.968   1.087   2.699 -0.7516 -0.0801  0.7719
 6357SOL     OW30532   0.456   1.906   4.475 -0.2772  0.3508 -0.4737
 6357SOL    HW130533   0.487   1.904   4.566  2.7974  1.5830 -1.4951
 6357SOL    HW230534   0.448   2.002   4.468  1.2980  0.7505  3.1879
 6358SOL     OW30535   2.672   0.336  15.899 -0.2432  0.0272  0.0943
 6358SOL    HW130536   2.624   0.363  15.977  0.1099 -1.8847  0.9756
 6358SOL    HW230537   2.603   0.304  15.842  2.0405 -0.3539 -2.4812
 6359SOL     OW30538   3.347   1.869   6.346 -0.0412 -0.2182  0.7433
 6359SOL    HW130539   3.436   1.834   6.349  1.1289  2.8974  2.1687
 6359SOL    HW230540   3.342   1.877   6.250 -1.7334  0.6673  0.9102
 6360SOL     OW30541   1.984   4.572  16.107 -0.0711  0.3142  0.1085
 6360SOL    HW130542   2.075   4.596  16.125 -0.4905  1.2572  0.9706
 6360SOL    HW230543   1.961   4.532  16.191  1.9591 -2.4702 -0.6265
 6361SOL     OW30544   3.247   0.228   7.779  0.2819  0.7261  0.1203
 6361SOL    HW130545   3.159   0.200   7.756  0.1507  0.9087  0.3950
 6361SOL    HW230546   3.237   0.243   7.873  0.1750 -0.0347  0.2277
 6362SOL     OW30547   3.429   2.319   3.079 -0.0617 -0.3545 -0.2407
 6362SOL    HW130548   3.477   2.330   2.997 -0.2527  1.1838 -0.1374
 6362SOL    HW230549   3.359   2.259   3.052 -0.7321  1.1887 -1.9089
 6363SOL     OW30550   3.226   3.786   2.922 -0.4768 -0.7858 -0.2408
 6363SOL    HW130551   3.154   3.847   2.911 -0.8219 -1.2710 -0.6943
 6363SOL    HW230552   3.186   3.701   2.943 -2.3660  0.4503  1.0685
 6364SOL     OW30553   2.607   3.494  16.057  0.1771 -0.2473  0.1125
 6364SOL    HW130554   2.643   3.531  15.976 -0.9431  0.0456 -0.2464
 6364SOL    HW230555   2.514   3.492  16.036  0.7851  3.9633 -2.9862
 6365SOL     OW30556   2.857   1.855  14.287 -0.5057 -0.1800  0.4854
 6365SOL    HW130557   2.789   1.857  14.355 -0.8166 -1.1106  0.2000
 6365SOL    HW230558   2.920   1.791  14.321  3.0371  1.3775 -3.1921
 6366SOL     OW30559   0.271   3.886  13.220 -0.1044 -0.1321 -0.3256
 6366SOL    HW130560   0.290   3.922  13.306  0.5435 -0.2632 -0.4139
 6366SOL    HW230561   0.272   3.792  13.237 -1.5691  0.3642  2.5058
 6367SOL     OW30562   2.494   0.269  12.640 -0.2557 -0.0917 -0.8626
 6367SOL    HW130563   2.585   0.284  12.665 -1.0069  1.8594  0.6622
 6367SOL    HW230564   2.460   0.214  12.712  1.7819 -2.2335 -1.5290
 6368SOL     OW30565   0.777   1.598  10.357  0.1284 -0.2749  0.7465
 6368SOL    HW130566   0.697   1.639  10.390 -3.1256 -3.4475 -3.3608
 6368SOL    HW230567   0.810   1.674  10.308 -1.9307 -0.7281 -1.3291
 6369SOL     OW30568   1.827   3.462  15.176 -0.1300 -0.7643 -0.2036
 6369SOL    HW130569   1.769   3.457  15.100 -1.7766  2.9791  0.8260
 6369SOL    HW230570   1.883   3.385  15.169 -0.6456 -1.1615  0.0692
 6370SOL     OW30571   1.252   3.279   9.215 -0.1153 -0.4124 -0.4072
 6370SOL    HW130572   1.299   3.199   9.193  1.3742  0.3033  0.1192
 6370SOL    HW230573   1.164   3.250   9.192 -0.3107  0.0163 -0.1967
 6371SOL     OW30574   4.466   0.029  15.654  0.1771  1.1806 -0.5536
 6371SOL    HW130575   4.428   0.067  15.575 -0.3486  1.3679 -0.2172
 6371SOL    HW230576   4.545   0.079  15.674  0.0102  0.8135  1.0053
 6372SOL     OW30577   3.746   1.847  11.169  0.2712 -0.4678  0.4103
 6372SOL    HW130578   3.690   1.806  11.235  0.7156  1.0248  1.7408
 6372SOL    HW230579   3.715   1.809  11.087  3.8792 -0.7832 -0.8026
 6373SOL     OW30580   0.235   1.322   8.159  0.9641 -0.4981 -0.0346
 6373SOL    HW130581   0.257   1.389   8.094 -1.6658 -1.1788 -1.6456
 6373SOL    HW230582   0.159   1.369   8.192  0.1014 -0.2784 -2.3304
 6374SOL     OW30583   3.431   3.526   8.373  0.0253  0.2230 -0.1231
 6374SOL    HW130584   3.410   3.519   8.280 -0.2674  2.2710 -0.2077
 6374SOL    HW230585   3.372   3.598   8.396 -0.0812  0.3483 -0.7984
 6375SOL     OW30586   1.620   0.711   5.043  0.4796 -0.3975 -0.0120
 6375SOL    HW130587   1.692   0.707   4.981  1.0419  0.2467  0.6033
 6375SOL    HW230588   1.541   0.696   4.991  0.8546 -0.6778 -0.4915
 6376SOL     OW30589   0.928   2.603  15.706 -0.1765  0.1049  0.0584
 6376SOL    HW130590   0.961   2.514  15.718 -0.3439 -0.0873 -0.9470
 6376SOL    HW230591   1.012   2.644  15.688  0.0535 -0.5076 -0.2663
 6377SOL     OW30592   3.330   3.783   6.793 -0.2174  0.0147 -0.1731
 6377SOL    HW130593   3.381   3.724   6.849 -1.4401 -0.3179  0.5768
 6377SOL    HW230594   3.395   3.853   6.780 -2.0334  2.0276  1.5298
 6378SOL     OW30595   1.525   4.122   8.257  0.0943  0.0614  0.4130
 6378SOL    HW130596   1.490   4.166   8.334 -2.6035  0.3404 -0.9813
 6378SOL    HW230597   1.443   4.095   8.217  1.3366 -0.8628 -1.5188
 6379SOL     OW30598   1.918   0.125   5.277 -0.1211  0.6050 -0.3031
 6379SOL    HW130599   1.997   0.076   5.255 -0.2584  0.2787 -0.0696
 6379SOL    HW230600   1.866   0.058   5.322  1.1627 -1.4885 -1.9391
 6380SOL     OW30601   4.114   0.729   8.233 -0.2587 -0.2845 -0.1546
 6380SOL    HW130602   4.203   0.756   8.255  0.3241 -1.6229 -0.8799
 6380SOL    HW230603   4.098   0.654   8.289 -1.2754 -0.7674 -1.0943
 6381SOL     OW30604   1.741   4.265   8.150 -0.8295  0.1423 -0.7604
 6381SOL    HW130605   1.666   4.222   8.191  0.1875 -0.7989  0.1190
 6381SOL    HW230606   1.759   4.337   8.210  1.8045 -0.7647 -0.4613
 6382SOL     OW30607   3.669   1.944   6.546 -0.5949  0.3113 -0.4072
 6382SOL    HW130608   3.610   2.019   6.555  0.1354  0.7797  0.4760
 6382SOL    HW230609   3.669   1.915   6.637  2.6994 -1.6528 -1.0525
 6383SOL     OW30610   1.100   2.100  15.835  0.2891  0.2428  1.0011
 6383SOL    HW130611   1.191   2.104  15.803 -0.1308  2.4583  0.0414
 6383SOL    HW230612   1.070   2.031  15.776  1.1092  0.9434 -0.2507
 6384SOL     OW30613   0.082   0.037   4.321 -0.1337  0.3574  0.3019
 6384SOL    HW130614   0.117   0.117   4.283 -0.0537  0.1116 -0.1413
 6384SOL    HW230615   0.109   4.700   4.251 -2.0240  0.0355 -0.1276
 6385SOL     OW30616   1.314   3.458   5.643  0.1809  0.4212  0.0453
 6385SOL    HW130617   1.394   3.473   5.592  0.0115 -1.7140 -0.8498
 6385SOL    HW230618   1.301   3.539   5.692  2.8905  0.9049 -0.0731
 6386SOL     OW30619   0.498   0.098  12.597 -0.0332  0.4499  0.2391
 6386SOL    HW130620   0.460   0.054  12.521  1.5401 -0.7315  0.1277
 6386SOL    HW230621   0.554   0.158  12.546  3.2764 -1.3000  1.8085
 6387SOL     OW30622   0.574   1.613   7.016  0.0649  0.3699  0.1367
 6387SOL    HW130623   0.535   1.641   6.933  0.7041  2.2640  0.4788
 6387SOL    HW230624   0.662   1.591   6.986  0.2107  1.6408 -0.3711
 6388SOL     OW30625   2.503   4.595   2.316  0.3206 -0.2839 -0.1713
 6388SOL    HW130626   2.555   4.671   2.288  1.0607 -1.0863 -0.9741
 6388SOL    HW230627   2.567   4.551   2.372  0.5677 -1.2302 -1.1925
 6389SOL     OW30628   1.570   2.430   3.444 -0.1443  0.1842 -0.1713
 6389SOL    HW130629   1.525   2.374   3.381 -0.0673  0.1434 -0.1895
 6389SOL    HW230630   1.624   2.355   3.466 -1.9815 -0.7332  1.2342
 6390SOL     OW30631   1.381   2.744   9.022 -0.3130 -0.4671  0.0283
 6390SOL    HW130632   1.459   2.797   9.041  0.3882 -0.9081 -1.5918
 6390SOL    HW230633   1.409   2.653   9.033  0.7348 -0.2423 -0.7705
 6391SOL     OW30634   2.014   0.000   5.863  0.0186  0.0704  0.4212
 6391SOL    HW130635   2.029   4.705   5.770  0.4357  1.1343  0.2891
 6391SOL    HW230636   2.061   0.083   5.871 -0.3539  0.4052 -0.7149
 6392SOL     OW30637   2.727   4.177   0.457 -0.1717  0.0011 -0.4778
 6392SOL    HW130638   2.664   4.136   0.398  0.4599 -0.2743 -0.9575
 6392SOL    HW230639   2.734   4.116   0.530 -2.6647 -2.8022 -2.6252
 6393SOL     OW30640   3.120   0.326  10.073  0.0831 -0.1329 -0.2858
 6393SOL    HW130641   3.055   0.370  10.018 -1.0624 -0.2034  0.9900
 6393SOL    HW230642   3.121   0.236  10.041 -0.3649 -0.4395  0.5508
 6394SOL     OW30643   0.807   2.339   8.558  0.0778  0.0712  0.4259
 6394SOL    HW130644   0.799   2.248   8.586 -0.3024 -0.3719 -1.0891
 6394SOL    HW230645   0.894   2.341   8.519 -0.4110 -0.7556 -0.7392
 6395SOL     OW30646   2.412   0.142   2.831 -0.0463  0.1736  0.1773
 6395SOL    HW130647   2.468   0.220   2.826  1.7646 -1.2375 -1.3001
 6395SOL    HW230648   2.338   0.171   2.885  1.7368  1.6877  1.8357
 6396SOL     OW30649   0.360   2.824   6.865 -0.3662 -0.0374  0.2664
 6396SOL    HW130650   0.267   2.807   6.848 -0.4914  1.0186 -0.0933
 6396SOL    HW230651   0.350   2.917   6.883 -0.8238 -0.0548  0.1130
 6397SOL     OW30652   2.414   0.689   3.076 -0.1922  0.4701  0.2384
 6397SOL    HW130653   2.344   0.656   3.019  0.6908 -2.4319  0.8006
 6397SOL    HW230654   2.455   0.747   3.013 -0.1055  0.1019 -0.0455
 6398SOL     OW30655   0.279   1.516   7.959 -0.5443  0.4487  0.0734
 6398SOL    HW130656   0.209   1.580   7.944 -1.5853 -0.5549  0.7227
 6398SOL    HW230657   0.340   1.569   8.010 -0.1606 -0.6600  0.7565
 6399SOL     OW30658   3.453   3.901   7.105 -0.2193 -0.0981  0.1077
 6399SOL    HW130659   3.492   3.817   7.128 -2.2488 -1.8500 -2.8319
 6399SOL    HW230660   3.482   3.916   7.015 -1.3045 -1.2771 -0.4453
 6400SOL     OW30661   0.481   2.784  14.885  0.2738  0.6325 -0.0670
 6400SOL    HW130662   0.539   2.749  14.953  1.0450  0.2609 -0.9019
 6400SOL    HW230663   0.533   2.864  14.872  2.4086 -0.9233 -1.1902
 6401SOL     OW30664   1.749   2.365   6.573 -0.0147  0.3121  0.0073
 6401SOL    HW130665   1.840   2.347   6.551 -0.3873 -0.9189 -0.5097
 6401SOL    HW230666   1.761   2.430   6.643  1.7715  1.4511 -1.3785
 6402SOL     OW30667   3.105   0.228   0.701  0.1200  0.2459  0.3042
 6402SOL    HW130668   3.126   0.161   0.766 -0.4325  0.9297  1.1956
 6402SOL    HW230669   3.179   0.288   0.715 -0.9004  1.0155  2.4159
 6403SOL     OW30670   3.295   0.549  14.922 -0.5946 -0.0969 -0.2376
 6403SOL    HW130671   3.353   0.571  14.849 -1.7298 -0.3401 -1.2107
 6403SOL    HW230672   3.210   0.553  14.879 -0.5069 -1.4825 -0.5385
 6404SOL     OW30673   1.666   4.577   8.946 -0.7664  0.8201  0.6545
 6404SOL    HW130674   1.577   4.558   8.975 -0.4554  1.0234  1.7314
 6404SOL    HW230675   1.646   4.607   8.857  0.2943  0.2706  0.2255
 6405SOL     OW30676   2.730   1.974   6.041 -0.5911 -0.0951 -0.1973
 6405SOL    HW130677   2.640   2.001   6.060 -1.0010 -1.4676 -0.2247
 6405SOL    HW230678   2.733   1.998   5.948  2.4910 -0.8065 -0.2849
 6406SOL     OW30679   1.778   1.544   9.506 -0.1320 -0.4094  0.2559
 6406SOL    HW130680   1.798   1.493   9.585  0.9794 -1.2585 -0.5661
 6406SOL    HW230681   1.747   1.622   9.552  1.3035  0.0656  0.4263
 6407SOL     OW30682   3.210   2.982   6.582 -0.4477 -0.0790 -0.0061
 6407SOL    HW130683   3.222   2.896   6.622  1.3301  0.5499  0.8019
 6407SOL    HW230684   3.280   2.987   6.517  0.4179 -2.9525  0.7280
 6408SOL     OW30685   0.746   1.730   7.847  0.2104 -0.2776  0.0390
 6408SOL    HW130686   0.805   1.805   7.835 -0.6395  0.0460 -2.1188
 6408SOL    HW230687   0.806   1.661   7.874 -1.4224 -1.0255  1.7037
 6409SOL     OW30688   0.805   1.912   7.329  0.1613  0.0721  1.0177
 6409SOL    HW130689   0.892   1.949   7.345  0.6214 -0.8008  0.5235
 6409SOL    HW230690   0.800   1.864   7.412 -0.7717 -0.2758  0.7692
 6410SOL     OW30691   1.444   3.207   3.900 -0.1330 -0.5192 -0.0587
 6410SOL    HW130692   1.426   3.182   3.990  0.8157  3.9700  1.4014
 6410SOL    HW230693   1.365   3.258   3.880 -0.4377 -1.0584 -0.2212
 6411SOL     OW30694   2.060   1.240   1.433 -0.5634  0.2513  0.1608
 6411SOL    HW130695   2.117   1.187   1.489  0.0765  1.1602  0.3738
 6411SOL    HW230696   2.010   1.168   1.393  1.0948 -0.5327 -0.5347
 6412SOL     OW30697   1.361   3.317   0.748 -0.5043  0.2847  0.1266
 6412SOL    HW130698   1.297   3.248   0.730 -2.7047  2.1933  0.4942
 6412SOL    HW230699   1.443   3.273   0.767 -1.2050 -0.6270  1.0722
 6413SOL     OW30700   2.269   3.752   4.466  0.4300  0.4612 -0.5108
 6413SOL    HW130701   2.303   3.774   4.552 -1.6303  0.6753  0.2521
 6413SOL    HW230702   2.230   3.668   4.491  2.3723  0.1960  1.5532
 6414SOL     OW30703   3.844   4.485  10.652 -0.3854  0.7293  0.1468
 6414SOL    HW130704   3.780   4.449  10.591  0.3881 -0.1851 -0.1254
 6414SOL    HW230705   3.871   4.403  10.694  1.9766  1.3717 -0.1388
 6415SOL     OW30706   0.853   4.132   8.386 -0.0908  0.4484 -0.1178
 6415SOL    HW130707   0.852   4.048   8.432 -3.3069  1.1621  1.1087
 6415SOL    HW230708   0.811   4.183   8.454  1.8688 -0.0910  1.5101
 6416SOL     OW30709   3.319   1.763   5.311  0.7034  0.1394 -0.2288
 6416SOL    HW130710   3.327   1.792   5.402 -2.7639  0.5521 -0.0669
 6416SOL    HW230711   3.224   1.768   5.304  0.4192 -2.5228  1.3347
 6417SOL     OW30712   4.245   4.426   2.043  0.0113 -0.1125 -0.0088
 6417SOL    HW130713   4.217   4.502   1.991 -0.9857 -1.6053 -1.6325
 6417SOL    HW230714   4.247   4.358   1.976 -0.0899 -1.3085  1.1973
 6418SOL     OW30715   0.184   2.103   5.834  0.6345 -0.5492  0.0363
 6418SOL    HW130716   0.246   2.086   5.764 -0.5682 -0.8995 -0.9446
 6418SOL    HW230717   0.116   2.137   5.776  1.7389  1.9988  0.2476
 6419SOL     OW30718   1.999   2.655   7.134  0.0914  0.1944 -0.0878
 6419SOL    HW130719   2.040   2.739   7.152 -1.3769  0.7462  0.6886
 6419SOL    HW230720   1.910   2.682   7.159 -0.1556 -1.3741  0.7824
 6420SOL     OW30721   0.375   2.066   0.587 -0.7233  0.0471  0.2396
 6420SOL    HW130722   0.329   2.019   0.517  0.0494 -1.3888  0.6766
 6420SOL    HW230723   0.299   2.086   0.642 -0.9079  0.6628 -0.2467
 6421SOL     OW30724   1.660   3.983   5.825 -0.1915  0.1041 -0.4434
 6421SOL    HW130725   1.688   4.035   5.900 -0.5942 -0.0059 -0.2182
 6421SOL    HW230726   1.737   3.929   5.811 -1.5796 -1.8844 -0.3400
 6422SOL     OW30727   2.990   3.002   8.010 -0.2244  0.4262 -0.3942
 6422SOL    HW130728   3.072   2.979   8.054 -0.3896  1.6993  0.5920
 6422SOL    HW230729   3.015   3.085   7.968 -1.1058  1.0428  0.2961
 6423SOL     OW30730   3.287   1.073   5.847  0.1638 -0.2486  0.1501
 6423SOL    HW130731   3.361   1.075   5.785  0.7467 -2.6825  0.7602
 6423SOL    HW230732   3.298   1.164   5.872 -1.3041 -0.0488  0.0423
 6424SOL     OW30733   3.835   3.779   7.606  0.5289 -0.1138 -0.3188
 6424SOL    HW130734   3.793   3.774   7.520 -1.1191  2.5942  0.3218
 6424SOL    HW230735   3.831   3.696   7.654  1.6386  0.1385  0.2171
 6425SOL     OW30736   3.031   0.934   9.534  0.5743  0.0448 -0.1411
 6425SOL    HW130737   2.966   0.888   9.586 -0.8114  1.0580 -0.9710
 6425SOL    HW230738   2.991   1.021   9.538  1.5719  0.4360  1.4329
 6426SOL     OW30739   1.665   1.581   1.206 -0.4418 -0.1117  1.0248
 6426SOL    HW130740   1.597   1.560   1.271 -1.4256 -1.5926 -0.4932
 6426SOL    HW230741   1.730   1.625   1.261 -2.3964  1.3320  2.1969
 6427SOL     OW30742   0.378   1.955   4.972  0.2346 -0.3803  0.1590
 6427SOL    HW130743   0.440   1.962   5.044  0.2208 -2.3850  0.3735
 6427SOL    HW230744   0.394   1.866   4.941  0.5033  1.4179 -4.8078
 6428SOL     OW30745   3.160   3.598  12.103  0.4850  0.2166  1.0955
 6428SOL    HW130746   3.204   3.608  12.018  1.6447 -0.7396  1.5892
 6428SOL    HW230747   3.092   3.664  12.096 -1.4788 -1.9411 -0.0930
 6429SOL     OW30748   0.675   3.180  16.873 -0.2663 -0.0739  0.2946
 6429SOL    HW130749   0.660   3.260  16.922  1.5986  1.4908 -1.6682
 6429SOL    HW230750   0.596   3.181  16.817  1.4258  0.5885 -2.1082
 6430SOL     OW30751   4.017   2.708  11.090 -0.3108 -0.3352  0.0986
 6430SOL    HW130752   4.068   2.787  11.075  0.0266 -0.2825  1.5110
 6430SOL    HW230753   4.006   2.723  11.184 -1.7521  2.3603 -0.5167
 6431SOL     OW30754   2.436   4.184   4.428  0.1081  0.0014  0.4413
 6431SOL    HW130755   2.441   4.158   4.336  0.8986  1.2045  0.1531
 6431SOL    HW230756   2.489   4.262   4.414 -2.4993  2.1588  2.6523
 6432SOL     OW30757   1.976   0.471   7.431 -0.9342 -0.3812  0.2444
 6432SOL    HW130758   2.003   0.509   7.515  0.8388  2.0785 -1.4182
 6432SOL    HW230759   2.055   0.435   7.392  0.0009  1.6495  0.2378
 6433SOL     OW30760   1.313   1.819  10.610  0.3601 -0.2890 -0.4465
 6433SOL    HW130761   1.235   1.813  10.664  0.8678 -3.5566 -0.0185
 6433SOL    HW230762   1.298   1.736  10.564 -0.9448  0.6275 -1.6714
 6434SOL     OW30763   0.658   4.672  13.648  0.2658  0.1327 -0.0374
 6434SOL    HW130764   0.729   4.691  13.587  0.1222 -0.7335 -0.4688
 6434SOL    HW230765   0.580   4.671  13.593  1.1260 -1.8897 -1.2166
 6435SOL     OW30766   4.311   2.820   7.879  0.0504  0.2113 -0.1981
 6435SOL    HW130767   4.353   2.874   7.946  0.6199  0.9240 -1.1328
 6435SOL    HW230768   4.243   2.781   7.934  1.0927  0.9670  1.6174
 6436SOL     OW30769   1.383   3.194   9.527  0.4493  0.6061 -0.0901
 6436SOL    HW130770   1.325   3.122   9.503  0.6809  0.1101  0.8246
 6436SOL    HW230771   1.397   3.164   9.617 -0.0975 -0.0498 -0.2266
 6437SOL     OW30772   2.426   3.797   7.926 -0.1608  0.4632  0.3909
 6437SOL    HW130773   2.404   3.869   7.985  1.0000  0.0909  1.2785
 6437SOL    HW230774   2.335   3.788   7.899 -0.1751  1.0609  0.2431
 6438SOL     OW30775   1.397   2.909   8.635 -0.0017  0.3364  0.0358
 6438SOL    HW130776   1.465   2.860   8.589  0.3282  1.0020 -0.1843
 6438SOL    HW230777   1.446   2.981   8.674 -0.1190  0.0409  0.7430
 6439SOL     OW30778   3.433   1.545   2.497 -0.0447  0.1029 -0.3750
 6439SOL    HW130779   3.356   1.519   2.548  0.7979 -1.4879  0.0776
 6439SOL    HW230780   3.407   1.634   2.473  1.3562  0.4716 -0.5049
 6440SOL     OW30781   0.762   3.616   0.529 -0.1515  0.5970 -0.3119
 6440SOL    HW130782   0.820   3.588   0.458  1.4050 -0.6125  1.4347
 6440SOL    HW230783   0.824   3.643   0.597 -0.4228 -0.5547  0.4033
 6441SOL     OW30784   1.912   1.106   4.006  0.1753  0.3886 -0.4015
 6441SOL    HW130785   1.871   1.020   3.999  1.5293 -0.0865 -2.4740
 6441SOL    HW230786   1.997   1.098   3.964  0.5354  0.7389  0.2674
 6442SOL     OW30787   4.340   3.498  13.465 -0.9796 -0.2345  0.4946
 6442SOL    HW130788   4.369   3.587  13.485 -0.3385 -0.9816  2.9598
 6442SOL    HW230789   4.424   3.476  13.424 -1.8044 -0.7307 -0.9038
 6443SOL     OW30790   2.293   2.935   5.249 -0.2735  0.3443 -0.7606
 6443SOL    HW130791   2.233   2.864   5.226  0.7739 -1.5787  2.4960
 6443SOL    HW230792   2.343   2.902   5.323 -1.6243  0.7399  0.3259
 6444SOL     OW30793   3.577   3.646   8.074  0.3452  0.2044  0.0560
 6444SOL    HW130794   3.575   3.571   8.015  1.0505  0.2661 -0.0447
 6444SOL    HW230795   3.485   3.637   8.098  0.3292 -1.6724 -0.7224
 6445SOL     OW30796   3.678   2.918   1.871  0.7052 -0.4262  0.4425
 6445SOL    HW130797   3.739   2.992   1.874 -2.0282  1.8207  0.6602
 6445SOL    HW230798   3.600   2.963   1.838  0.1585 -0.7554  1.2936
 6446SOL     OW30799   0.747   3.789   8.264 -0.1391  0.1630 -0.6553
 6446SOL    HW130800   0.754   3.866   8.207 -0.0790  1.8429  1.5993
 6446SOL    HW230801   0.840   3.774   8.279 -0.7323 -2.3726  0.5376
 6447SOL     OW30802   2.125   0.282   4.762  0.3767  0.0047  0.7702
 6447SOL    HW130803   2.086   0.265   4.676  0.1462  0.0270  0.8691
 6447SOL    HW230804   2.047   0.317   4.806 -2.1489 -2.3310 -1.8198
 6448SOL     OW30805   3.404   0.326   7.223  0.3720 -0.1182 -0.3634
 6448SOL    HW130806   3.407   0.420   7.204 -0.7060 -0.2247 -1.0542
 6448SOL    HW230807   3.444   0.312   7.309 -0.9186 -0.8978  0.0965
 6449SOL     OW30808   3.511   1.063   5.679  0.0343 -0.3006  0.0724
 6449SOL    HW130809   3.500   0.970   5.699  3.4569 -0.7736 -0.1556
 6449SOL    HW230810   3.463   1.075   5.597  1.2821 -2.2895 -0.9681
 6450SOL     OW30811   1.114   3.460   5.465  0.2403  0.0291 -0.3442
 6450SOL    HW130812   1.128   3.535   5.406 -0.8210 -0.4600 -1.2274
 6450SOL    HW230813   1.187   3.470   5.525  0.6214  0.6815 -0.9150
 6451SOL     OW30814   0.156   0.470   6.806 -0.0515  0.1818  0.2412
 6451SOL    HW130815   0.085   0.413   6.775  1.2695 -0.2850 -1.9240
 6451SOL    HW230816   0.101   0.508   6.874  1.9063  1.6743  0.9973
 6452SOL     OW30817   1.584   2.408  10.258  0.1952  0.2909  0.0361
 6452SOL    HW130818   1.573   2.314  10.271  2.6791  0.0534  0.2954
 6452SOL    HW230819   1.677   2.414  10.278  0.4999 -0.4301 -1.1969
 6453SOL     OW30820   3.629   0.729   9.842  0.0501  0.0744 -0.2080
 6453SOL    HW130821   3.554   0.776   9.805  0.1610  1.9031  1.8793
 6453SOL    HW230822   3.686   0.726   9.764  0.4101  0.2878  0.0456
 6454SOL     OW30823   2.359   1.833   5.751 -0.5439 -0.4990 -0.1441
 6454SOL    HW130824   2.266   1.823   5.769 -0.8004 -0.6866 -1.5280
 6454SOL    HW230825   2.356   1.892   5.676  0.5344 -1.6791 -1.1205
 6455SOL     OW30826   0.485   3.067  15.162 -0.1011 -0.1196  0.1699
 6455SOL    HW130827   0.499   3.006  15.235 -4.0328 -0.2658  0.7925
 6455SOL    HW230828   0.570   3.109  15.151 -0.4671  1.6311  3.8637
 6456SOL     OW30829   2.443   0.590   7.659 -0.3146 -0.1587 -0.0465
 6456SOL    HW130830   2.408   0.679   7.649 -1.2704 -0.3543  1.5476
 6456SOL    HW230831   2.458   0.571   7.567  1.1390  0.7916 -0.0086
 6457SOL     OW30832   4.211   3.031   7.017  0.0922 -0.9361  0.2307
 6457SOL    HW130833   4.135   2.979   7.044 -0.2957 -0.9218 -0.8591
 6457SOL    HW230834   4.179   3.120   7.032  3.0570  0.3398 -1.1102
 6458SOL     OW30835   0.860   2.881   3.047  0.6479  0.4628  0.3989
 6458SOL    HW130836   0.917   2.806   3.027 -0.3596  0.4549 -2.4917
 6458SOL    HW230837   0.917   2.950   3.012  0.3992 -0.5864 -2.0983
 6459SOL     OW30838   2.621   0.660  11.071 -0.1114  0.7050 -0.0321
 6459SOL    HW130839   2.530   0.690  11.063 -1.2148 -2.0246  2.4674
 6459SOL    HW230840   2.670   0.740  11.090  0.1980  0.6859 -0.7695
 6460SOL     OW30841   1.741   4.166  16.394 -0.3461 -0.0614 -0.2800
 6460SOL    HW130842   1.783   4.082  16.416 -1.0495 -0.5578 -0.8225
 6460SOL    HW230843   1.719   4.142  16.304  1.6825  1.9798 -1.3339
 6461SOL     OW30844   1.114   1.955   5.787  0.0470  0.6937  0.0817
 6461SOL    HW130845   1.064   2.025   5.830 -1.0557 -0.9131  1.4203
 6461SOL    HW230846   1.182   1.952   5.854 -0.3963 -1.5590  0.4394
 6462SOL     OW30847   0.818   2.083  13.979 -0.0336 -0.9057  0.0833
 6462SOL    HW130848   0.760   2.039  14.041 -0.2824  0.9858  1.1949
 6462SOL    HW230849   0.768   2.084  13.898  1.6734 -2.1547 -0.9830
 6463SOL     OW30850   0.854   3.090   6.639 -0.5538  0.7915  0.5685
 6463SOL    HW130851   0.863   3.023   6.706  0.8705 -1.3767 -1.7962
 6463SOL    HW230852   0.838   3.165   6.696 -0.0680  0.2524  1.4192
 6464SOL     OW30853   3.629   1.426  14.697  0.5502 -0.1456 -0.4199
 6464SOL    HW130854   3.706   1.481  14.686 -0.6539  1.1080 -2.4609
 6464SOL    HW230855   3.570   1.471  14.638 -1.0593 -0.1873  1.1482
 6465SOL     OW30856   3.307   4.264   7.394  0.0302 -0.4841 -0.3528
 6465SOL    HW130857   3.293   4.357   7.412 -0.2043 -0.4802 -0.5462
 6465SOL    HW230858   3.373   4.276   7.325 -0.4771  1.5411 -0.4755
 6466SOL     OW30859   1.235   1.130   4.625  0.4669  0.3569 -0.5015
 6466SOL    HW130860   1.164   1.162   4.682 -0.2127 -2.4704  0.2476
 6466SOL    HW230861   1.312   1.181   4.650 -1.8202  2.6566  2.0029
 6467SOL     OW30862   1.906   3.496  11.542  0.4490 -0.3475  0.0017
 6467SOL    HW130863   1.840   3.493  11.612  0.8970  1.6861  0.5014
 6467SOL    HW230864   1.906   3.405  11.510 -3.5836 -1.3107  2.7517
 6468SOL     OW30865   1.887   0.640   2.209 -0.1506  0.8182  0.3317
 6468SOL    HW130866   1.845   0.556   2.227 -1.4548  1.2460 -0.7393
 6468SOL    HW230867   1.816   0.704   2.216 -0.8874  0.0908 -0.4250
 6469SOL     OW30868   0.651   1.950  14.131 -0.7516 -0.2907 -0.5456
 6469SOL    HW130869   0.664   1.980  14.221  0.9472 -2.8934  0.0428
 6469SOL    HW230870   0.556   1.960  14.122 -0.6919  0.8921  0.1190
 6470SOL     OW30871   2.153   0.421  13.511  0.0633  0.3972 -0.2043
 6470SOL    HW130872   2.125   0.330  13.503 -0.9627  0.9579 -2.7658
 6470SOL    HW230873   2.151   0.448  13.419 -0.8969  0.6587 -0.1088
 6471SOL     OW30874   4.132   3.837   7.549  0.4330 -0.4941  0.3244
 6471SOL    HW130875   4.047   3.805   7.581  1.1835 -0.6084  2.1380
 6471SOL    HW230876   4.152   3.905   7.613  2.1306 -0.6074 -0.0889
 6472SOL     OW30877   0.721   3.185  15.070 -0.7230 -0.7234  0.6961
 6472SOL    HW130878   0.769   3.161  15.149 -0.6609 -0.1618  0.8286
 6472SOL    HW230879   0.747   3.275  15.051  1.8312 -1.1550  2.2334
 6473SOL     OW30880   2.330   4.536  14.226 -0.0915 -0.5654 -0.0866
 6473SOL    HW130881   2.295   4.475  14.161  0.8411 -0.8187 -0.3483
 6473SOL    HW230882   2.349   4.615  14.176  0.7874 -0.8811 -0.2515
 6474SOL     OW30883   1.579   0.894   6.559 -0.6710 -0.3268 -0.2312
 6474SOL    HW130884   1.652   0.934   6.606 -0.9882  1.8323 -1.5153
 6474SOL    HW230885   1.594   0.806   6.591  2.6694  0.1250 -0.5098
 6475SOL     OW30886   0.785   0.878   2.531 -0.0415  0.5044 -0.3958
 6475SOL    HW130887   0.706   0.919   2.497 -0.5621 -1.6804 -1.8549
 6475SOL    HW230888   0.833   0.953   2.565 -0.4542  0.7262 -0.3009
 6476SOL     OW30889   4.239   1.288   5.720  0.0061 -0.2688  0.6291
 6476SOL    HW130890   4.275   1.223   5.658  0.5875  1.1655 -0.5405
 6476SOL    HW230891   4.161   1.315   5.672 -2.3016 -2.5141  3.1397
 6477SOL     OW30892   2.388   2.135   4.091 -0.1142 -0.2276  0.0242
 6477SOL    HW130893   2.327   2.131   4.017 -0.4074 -1.1473  0.3155
 6477SOL    HW230894   2.339   2.173   4.164 -1.9046 -1.5452 -0.4881
 6478SOL     OW30895   1.516   1.026   0.347 -0.0358  0.3593 -0.0442
 6478SOL    HW130896   1.436   0.991   0.388 -1.0175  0.7111 -1.6755
 6478SOL    HW230897   1.506   0.986   0.261 -1.1018 -0.8701  0.6537
 6479SOL     OW30898   4.363   3.439   7.834  0.0212 -0.4507 -0.2204
 6479SOL    HW130899   4.334   3.501   7.767  0.7369  2.3012  1.9991
 6479SOL    HW230900   4.424   3.494   7.883 -0.4675 -0.9338  0.9347
 6480SOL     OW30901   2.052   3.850   5.283 -0.1062 -0.2932 -0.5367
 6480SOL    HW130902   2.123   3.858   5.218  0.8392  1.9916  0.7692
 6480SOL    HW230903   2.052   3.938   5.320  0.6985 -1.2796  1.7983
 6481SOL     OW30904   0.674   1.353  12.951 -0.5017 -0.2910  0.1750
 6481SOL    HW130905   0.700   1.442  12.930 -0.5163 -0.4078 -0.3536
 6481SOL    HW230906   0.649   1.363  13.043  1.2117 -0.1936  0.6308
 6482SOL     OW30907   2.740   1.217   8.160 -0.5568  0.1312 -0.5316
 6482SOL    HW130908   2.795   1.148   8.123  0.1833  0.8184 -0.7005
 6482SOL    HW230909   2.673   1.233   8.093  0.1391  1.7511 -0.8235
 6483SOL     OW30910   2.366   2.237   3.450 -0.0497 -0.3916 -0.4006
 6483SOL    HW130911   2.290   2.182   3.469  0.1025  0.2105  2.0024
 6483SOL    HW230912   2.403   2.227   3.538 -1.9936 -0.8408  0.3609
 6484SOL     OW30913   2.065   0.362   9.065  0.2105  0.1645 -0.1425
 6484SOL    HW130914   2.081   0.311   8.986  0.1289 -0.3814  0.1983
 6484SOL    HW230915   1.970   0.375   9.062  0.3286  0.3063 -3.1968
 6485SOL     OW30916   3.419   2.917   6.878  0.4262  0.1924 -0.5830
 6485SOL    HW130917   3.327   2.943   6.890  1.1183  1.4353  1.8774
 6485SOL    HW230918   3.429   2.968   6.797  0.4556  1.7619  0.4067
 6486SOL     OW30919   1.952   4.119   6.557 -0.5215  0.4877  0.0472
 6486SOL    HW130920   1.911   4.036   6.532 -2.3014  0.9774  1.3508
 6486SOL    HW230921   1.934   4.121   6.651 -0.9187 -0.3708 -0.0052
 6487SOL     OW30922   0.448   2.849   3.341  0.1150  0.0583  0.4570
 6487SOL    HW130923   0.523   2.897   3.306  1.6074 -2.2627  0.4486
 6487SOL    HW230924   0.382   2.912   3.370  0.1608 -0.4812  1.7159
 6488SOL     OW30925   4.256   1.297  10.856  0.3861  0.2440 -0.1522
 6488SOL    HW130926   4.336   1.287  10.907 -0.2953 -0.0464  0.8676
 6488SOL    HW230927   4.237   1.390  10.848  0.3680  0.1082 -1.6261
 6489SOL     OW30928   2.784   2.317   9.582  0.0216 -0.5023 -0.2400
 6489SOL    HW130929   2.816   2.371   9.509  1.6089  0.1647  0.9559
 6489SOL    HW230930   2.766   2.376   9.655 -0.0737 -0.5493 -0.2265
 6490SOL     OW30931   2.351   2.352   5.733  0.5445  0.2441  0.3007
 6490SOL    HW130932   2.291   2.279   5.720 -0.9141  1.5855 -0.5365
 6490SOL    HW230933   2.284   2.420   5.739  3.0764  2.7075  0.8472
 6491SOL     OW30934   1.900   2.182   2.731 -0.0498 -0.2568 -0.3192
 6491SOL    HW130935   1.930   2.259   2.779  1.6415  1.0743 -3.4666
 6491SOL    HW230936   1.982   2.140   2.704 -1.0445 -1.3364 -1.6683
 6492SOL     OW30937   1.487   2.822  12.738 -0.1237  0.6622 -0.3680
 6492SOL    HW130938   1.426   2.756  12.706 -0.7140  1.6813 -1.3315
 6492SOL    HW230939   1.426   2.884  12.776 -0.4237  0.2845 -0.2330
 6493SOL     OW30940   0.563   1.017   9.433  0.1816  0.8282 -0.4776
 6493SOL    HW130941   0.609   1.079   9.490 -0.3627  1.1724 -0.4080
 6493SOL    HW230942   0.559   0.941   9.490 -0.5955  1.3224  0.1340
 6494SOL     OW30943   0.899   4.444   9.169  0.3291  0.0698 -0.2137
 6494SOL    HW130944   0.814   4.476   9.198 -0.6980 -1.4269 -1.6344
 6494SOL    HW230945   0.868   4.378   9.107 -0.2089 -0.9184  1.1108
 6495SOL     OW30946   4.630   4.403  16.285  1.1429  0.1924 -0.7500
 6495SOL    HW130947   4.602   4.484  16.327  0.0447 -1.3384  1.5070
 6495SOL    HW230948   4.722   4.397  16.311  1.3585 -0.2037 -1.6131
 6496SOL     OW30949   0.068   0.627   6.579 -0.2106 -0.5040  0.1016
 6496SOL    HW130950   0.077   0.722   6.582  2.1962 -0.6396 -3.1766
 6496SOL    HW230951   0.079   0.606   6.672  0.4673 -0.3600  0.0528
 6497SOL     OW30952   3.921   2.304   5.292 -0.2388  0.4914 -0.6723
 6497SOL    HW130953   3.890   2.232   5.347  0.4696  0.7075 -0.0004
 6497SOL    HW230954   3.860   2.279   5.222  0.3758 -0.8400 -0.7242
 6498SOL     OW30955   3.760   4.348   7.558 -0.1225 -0.0219 -0.1243
 6498SOL    HW130956   3.854   4.344   7.540  0.0206 -1.5435  1.0172
 6498SOL    HW230957   3.741   4.255   7.554  0.8347 -0.1677 -1.1005
 6499SOL     OW30958   3.101   1.432  12.593  0.3177 -0.0023  0.5437
 6499SOL    HW130959   3.092   1.396  12.505  0.7539  0.6296  0.2321
 6499SOL    HW230960   3.127   1.356  12.646  0.0147  0.0782  0.8076
 6500SOL     OW30961   4.347   0.795   4.232  0.2998  0.0501  0.1799
 6500SOL    HW130962   4.301   0.852   4.293  1.3890 -0.5449  1.5351
 6500SOL    HW230963   4.414   0.854   4.198 -0.9659  1.7602  0.6290
 6501SOL     OW30964   1.416   3.811  16.227 -0.1283  0.6439 -0.3984
 6501SOL    HW130965   1.511   3.803  16.234 -0.3122 -1.2954 -0.1921
 6501SOL    HW230966   1.412   3.883  16.164 -1.9668 -0.2090 -1.2425
 6502SOL     OW30967   3.144   1.080   1.942 -0.6287  0.0548 -0.0088
 6502SOL    HW130968   3.210   1.115   1.881 -0.9715  2.5950  1.0750
 6502SOL    HW230969   3.073   1.068   1.878  0.0408  0.8057 -0.8947
 6503SOL     OW30970   2.648   3.512   9.332 -0.7641 -0.1691 -0.1456
 6503SOL    HW130971   2.729   3.528   9.284 -2.1513  0.5363 -2.2586
 6503SOL    HW230972   2.631   3.418   9.322  1.3141 -0.6193  0.5045
 6504SOL     OW30973   2.761   4.092   3.866  0.4942 -0.6709  0.6432
 6504SOL    HW130974   2.770   4.028   3.795  1.3694  0.3838 -0.2070
 6504SOL    HW230975   2.767   4.167   3.806  1.5751 -1.9576 -0.8348
 6505SOL     OW30976   0.384   2.241   6.512 -0.4165 -0.4535  0.4193
 6505SOL    HW130977   0.309   2.200   6.470  0.0023 -0.5288 -0.2411
 6505SOL    HW230978   0.364   2.229   6.605 -1.9431  2.0115  0.4202
 6506SOL     OW30979   1.665   2.319   2.320 -0.5836  0.6220  0.2828
 6506SOL    HW130980   1.697   2.408   2.311 -0.3946  0.3987 -1.2572
 6506SOL    HW230981   1.585   2.327   2.372 -1.4640 -1.4152 -0.7558
 6507SOL     OW30982   2.152   3.333   3.495  0.3559 -0.0195  0.2726
 6507SOL    HW130983   2.114   3.370   3.415  0.2337  0.6111  0.6238
 6507SOL    HW230984   2.247   3.344   3.491  0.3054 -0.2954 -1.6011
 6508SOL     OW30985   1.817   2.488   9.073 -0.1518 -0.3185  0.5943
 6508SOL    HW130986   1.833   2.575   9.110 -0.6298  0.8265 -1.9285
 6508SOL    HW230987   1.894   2.440   9.101  0.5642  1.6714  2.0874
 6509SOL     OW30988   0.147   2.666  10.865 -0.8793 -0.2483  0.2391
 6509SOL    HW130989   0.155   2.618  10.947  1.5960  0.5957  0.4811
 6509SOL    HW230990   0.218   2.629  10.812  1.7335  1.1281  2.8322
 6510SOL     OW30991   2.440   0.505  13.241 -0.4210  0.2430  0.0565
 6510SOL    HW130992   2.356   0.549  13.234 -1.1746 -1.1495  0.2922
 6510SOL    HW230993   2.433   0.461  13.326 -0.9074  0.1765 -0.0166
 6511SOL     OW30994   0.694   1.221   9.556  0.2803  0.1570  0.1553
 6511SOL    HW130995   0.775   1.247   9.513 -0.3221  3.0714  0.7991
 6511SOL    HW230996   0.657   1.302   9.591 -0.5755 -0.3845  0.4998
 6512SOL     OW30997   4.042   0.719   7.819  0.4804 -0.4590 -0.4967
 6512SOL    HW130998   4.037   0.811   7.843  0.5970 -1.2605  2.6034
 6512SOL    HW230999   4.050   0.676   7.904 -1.6317  3.0901  1.4870
 6513SOL     OW31000   4.151   4.054   3.855 -0.2565 -0.5275 -0.2020
 6513SOL    HW131001   4.209   4.016   3.789 -0.0951 -0.0073 -0.3529
 6513SOL    HW231002   4.072   4.060   3.801 -0.8340  0.5784  0.7588
 6514SOL     OW31003   0.340   1.937   3.859 -0.1335 -0.4174 -0.0195
 6514SOL    HW131004   0.327   1.846   3.832  2.2893 -0.8893  0.3733
 6514SOL    HW231005   0.296   1.978   3.784  1.9053  0.9229 -0.4878
 6515SOL     OW31006   3.494   3.544   6.170  0.6522 -0.0209 -0.4572
 6515SOL    HW131007   3.471   3.560   6.078 -1.6160 -1.9134 -0.2210
 6515SOL    HW231008   3.560   3.479   6.148  0.7001  0.1581 -0.8448
 6516SOL     OW31009   0.648   1.008   9.777  0.1313 -0.4874 -0.3476
 6516SOL    HW131010   0.667   0.914   9.769  1.0254 -0.2808 -0.6819
 6516SOL    HW231011   0.704   1.046   9.709 -0.0585 -0.8198 -0.6878
 6517SOL     OW31012   1.371   0.741   3.425 -0.6001  0.5452 -0.1989
 6517SOL    HW131013   1.358   0.661   3.375 -4.2063  0.6106  0.6557
 6517SOL    HW231014   1.300   0.735   3.489  0.4134 -0.3515  0.8371
 6518SOL     OW31015   3.084   0.747   3.438 -0.0534 -0.0837 -0.3148
 6518SOL    HW131016   3.098   0.775   3.529  1.3322  1.2375 -0.9346
 6518SOL    HW231017   3.166   0.784   3.404 -0.9658  1.6584 -0.6074
 6519SOL     OW31018   3.859   0.679   2.109  0.1535  0.2330  0.2206
 6519SOL    HW131019   3.802   0.603   2.100  0.0607  0.1088  1.8437
 6519SOL    HW231020   3.808   0.734   2.169  1.0228  0.6697  0.5632
 6520SOL     OW31021   2.489   3.247   7.064  0.3213 -0.2607 -0.1109
 6520SOL    HW131022   2.542   3.212   6.992  0.5008 -1.1346  0.4466
 6520SOL    HW231023   2.520   3.198   7.140  0.5519 -0.6374 -0.4463
 6521SOL     OW31024   2.158   3.591   6.740 -0.7106 -0.0011  0.9078
 6521SOL    HW131025   2.216   3.668   6.738  1.2752 -1.4422  3.0538
 6521SOL    HW231026   2.172   3.551   6.655  0.5786 -1.0419  1.6120
 6522SOL     OW31027   2.655   1.679   1.906  0.3610 -0.5624 -0.6936
 6522SOL    HW131028   2.585   1.621   1.934  0.8846 -0.4002  0.9702
 6522SOL    HW231029   2.698   1.698   1.989 -0.0474 -0.5758 -0.4806
 6523SOL     OW31030   0.706   3.297   6.799  0.3825 -0.2069 -0.1457
 6523SOL    HW131031   0.772   3.321   6.864  0.2931  0.5451 -0.3342
 6523SOL    HW231032   0.651   3.375   6.794 -1.0286 -1.0383  2.1375
 6524SOL     OW31033   0.845   3.228   9.809 -0.0240 -0.3420  0.2855
 6524SOL    HW131034   0.860   3.166   9.880  0.8179 -0.5961 -0.1082
 6524SOL    HW231035   0.885   3.192   9.730  0.0883  0.4840 -0.0361
 6525SOL     OW31036   2.434   4.009   6.976  0.3221  0.5901  0.0378
 6525SOL    HW131037   2.362   4.055   7.019 -0.8483 -1.1897  0.0106
 6525SOL    HW231038   2.445   4.069   6.903 -0.0708  0.7095  0.0775
 6526SOL     OW31039   3.635   2.790  16.976  0.5962  0.1642 -0.5101
 6526SOL    HW131040   3.719   2.802  17.019  0.6323  0.0181 -0.5400
 6526SOL    HW231041   3.666   2.742  16.899  2.1718  0.7219 -0.2054
 6527SOL     OW31042   4.340   1.402  15.730  0.3541 -0.4402  0.4043
 6527SOL    HW131043   4.268   1.420  15.790 -0.5564  1.9474 -1.4071
 6527SOL    HW231044   4.388   1.321  15.747  1.5340  0.0804 -0.4144
 6528SOL     OW31045   1.788   1.782   0.755 -0.1609 -0.1471 -0.6749
 6528SOL    HW131046   1.746   1.783   0.840  1.0961  0.3211 -0.0534
 6528SOL    HW231047   1.859   1.719   0.772 -0.3643 -0.4527 -0.9555
 6529SOL     OW31048   0.693   4.042  15.590 -0.1440  0.0810  0.9164
 6529SOL    HW131049   0.685   4.029  15.684  1.4867  0.3781  1.0929
 6529SOL    HW231050   0.619   4.097  15.564 -0.7911 -1.6233 -0.7785
 6530SOL     OW31051   4.041   2.775   3.054 -0.1913 -0.0191 -0.2118
 6530SOL    HW131052   4.070   2.715   3.122  1.9654 -0.7992 -1.8369
 6530SOL    HW231053   4.026   2.714   2.981  0.6287  0.0750 -0.4614
 6531SOL     OW31054   4.490   3.830   6.076 -0.1641 -0.3399  0.0825
 6531SOL    HW131055   4.420   3.868   6.022 -2.4821 -1.0376  2.6540
 6531SOL    HW231056   4.534   3.905   6.116 -0.7653  0.3214 -0.4835
 6532SOL     OW31057   4.562   2.619   4.280 -0.1101  0.4652  0.5570
 6532SOL    HW131058   4.470   2.626   4.254  0.1207 -1.4014 -0.8271
 6532SOL    HW231059   4.578   2.687   4.344  1.1942 -1.3730  2.1844
 6533SOL     OW31060   3.837   2.664  10.088 -0.4465 -0.0569 -0.2394
 6533SOL    HW131061   3.859   2.744  10.040 -2.4986  0.1225 -0.8924
 6533SOL    HW231062   3.879   2.676  10.173 -2.1285  0.7673  0.4678
 6534SOL     OW31063   4.575   2.842   9.774  0.3021  0.7362  0.3766
 6534SOL    HW131064   4.653   2.858   9.827 -0.7891  1.6099  1.7208
 6534SOL    HW231065   4.524   2.922   9.784  0.6967  0.8482  1.4342
 6535SOL     OW31066   1.845   3.747  13.759 -0.3646 -0.6466  0.1881
 6535SOL    HW131067   1.835   3.841  13.771  1.1851 -0.3295 -1.0561
 6535SOL    HW231068   1.937   3.730  13.778  0.4018  0.3166 -2.6826
 6536SOL     OW31069   3.967   2.644   7.045  0.2741 -0.1597  0.7191
 6536SOL    HW131070   4.051   2.639   6.998 -0.7480 -1.9107 -0.9066
 6536SOL    HW231071   3.905   2.633   6.973  1.0576 -0.9510  0.1591
 6537SOL     OW31072   1.252   1.717   8.828 -0.2140  0.2658 -0.0360
 6537SOL    HW131073   1.261   1.643   8.888 -2.5227 -1.4572 -1.8184
 6537SOL    HW231074   1.315   1.772   8.874  1.6014 -1.1480 -0.8153
 6538SOL     OW31075   4.307   2.732   7.213 -0.5513 -0.2904 -0.6406
 6538SOL    HW131076   4.241   2.802   7.209  1.0056  1.1406 -1.5999
 6538SOL    HW231077   4.385   2.788   7.216  0.1034 -1.3990  3.1286
 6539SOL     OW31078   3.111   3.869   4.659  0.2279 -0.0735  0.2212
 6539SOL    HW131079   3.031   3.864   4.608  0.5295 -1.6434 -0.0963
 6539SOL    HW231080   3.119   3.964   4.668  0.9419 -0.1017 -0.0673
 6540SOL     OW31081   4.393   0.963  13.200 -0.0923  0.6455 -0.1215
 6540SOL    HW131082   4.410   0.888  13.257 -0.7465 -0.2219 -1.0510
 6540SOL    HW231083   4.441   1.022  13.257  1.8772 -0.3639 -0.7248
 6541SOL     OW31084   1.772   3.504  11.107 -0.1566 -0.1777 -0.6189
 6541SOL    HW131085   1.699   3.445  11.125  1.8894 -2.6203 -0.2589
 6541SOL    HW231086   1.820   3.517  11.189  0.1235  1.6784 -1.0737
 6542SOL     OW31087   4.509   2.567   3.135 -0.3763 -0.1869 -0.6440
 6542SOL    HW131088   4.415   2.560   3.154  0.0979  1.0226  2.1832
 6542SOL    HW231089   4.516   2.629   3.063  0.2756  1.3181  0.7247
 6543SOL     OW31090   1.499   0.613   8.961  0.1159 -0.5568  0.6420
 6543SOL    HW131091   1.536   0.643   8.878  0.2134 -1.0850  0.4950
 6543SOL    HW231092   1.519   0.521   8.947  2.1605 -0.0696  0.3835
 6544SOL     OW31093   4.342   0.738  16.258  0.4012  0.1117  0.8236
 6544SOL    HW131094   4.284   0.713  16.330 -2.2270  1.4648 -0.8224
 6544SOL    HW231095   4.395   0.802  16.305 -1.8040  3.2014 -0.9448
 6545SOL     OW31096   1.594   0.521  16.457 -0.3001  0.5196  1.0075
 6545SOL    HW131097   1.641   0.519  16.373 -0.0205  0.7702  1.1606
 6545SOL    HW231098   1.573   0.428  16.472  1.8900  0.2370  2.3006
 6546SOL     OW31099   4.149   1.444   1.802 -0.0076 -0.1876  0.0330
 6546SOL    HW131100   4.244   1.453   1.811 -0.4363  2.2941  1.8710
 6546SOL    HW231101   4.109   1.519   1.845 -1.1781 -0.8080  0.0033
 6547SOL     OW31102   3.693   0.095   8.348  0.5640  0.3653  0.3428
 6547SOL    HW131103   3.638   0.018   8.357 -0.5483  0.8376 -2.3585
 6547SOL    HW231104   3.701   0.123   8.439  2.9218  1.7272 -0.2809
 6548SOL     OW31105   0.144   0.197   6.430  0.1919 -0.0115 -0.0807
 6548SOL    HW131106   0.089   0.130   6.470 -1.4769 -0.5947 -3.3717
 6548SOL    HW231107   0.078   0.265   6.426  2.9353  2.6294 -0.6320
 6549SOL     OW31108   4.243   2.365   5.927  0.9866 -0.0499 -0.0753
 6549SOL    HW131109   4.192   2.425   5.983  1.0501  1.2666 -1.4179
 6549SOL    HW231110   4.171   2.350   5.865 -1.1728 -0.4351  2.5068
 6550SOL     OW31111   2.851   2.662   5.724  0.4214 -0.8537 -0.0833
 6550SOL    HW131112   2.914   2.709   5.670  1.2152 -2.1961 -0.3161
 6550SOL    HW231113   2.856   2.570   5.698 -2.7697 -0.9199 -0.5721
 6551SOL     OW31114   1.385   2.175   7.837  0.3786 -0.2798  0.6418
 6551SOL    HW131115   1.398   2.143   7.926 -1.5553 -2.1120  0.2589
 6551SOL    HW231116   1.470   2.220   7.832  0.5310 -0.4150  2.1759
 6552SOL     OW31117   0.504   4.650   2.983 -0.0998 -1.2067 -0.4243
 6552SOL    HW131118   0.487   4.576   3.042 -0.8195 -0.4199  0.3546
 6552SOL    HW231119   0.595   4.636   2.956 -0.3158 -0.2197 -1.6598
 6553SOL     OW31120   1.107   0.534   0.109 -0.1360  0.5082  0.3502
 6553SOL    HW131121   1.089   0.441   0.122  3.3605 -0.7590 -3.9061
 6553SOL    HW231122   1.062   0.547   0.026 -0.9808 -3.2949  0.1851
 6554SOL     OW31123   4.068   3.494   5.956 -0.1162 -0.1307 -0.6420
 6554SOL    HW131124   3.987   3.451   5.929 -0.6454 -0.8816  2.1624
 6554SOL    HW231125   4.093   3.532   5.871 -0.3850  1.4590 -0.0051
 6555SOL     OW31126   1.298   3.080   1.012  0.0940 -0.2846 -0.0335
 6555SOL    HW131127   1.331   3.159   1.056  1.8837  0.1517 -2.1934
 6555SOL    HW231128   1.219   3.071   1.066  0.2484 -1.2456  0.0227
 6556SOL     OW31129   0.580   0.986   7.633 -0.8713 -0.1035 -0.2954
 6556SOL    HW131130   0.619   1.012   7.550  2.9396 -1.5344  1.0479
 6556SOL    HW231131   0.521   0.918   7.599  0.8794 -1.6787 -0.1646
 6557SOL     OW31132   0.421   4.133  10.736 -0.2495  0.0633 -0.3558
 6557SOL    HW131133   0.500   4.091  10.700 -1.3879 -1.6410 -0.8708
 6557SOL    HW231134   0.415   4.080  10.816  0.7738 -1.1785 -1.0970
 6558SOL     OW31135   0.648   1.224  11.894 -0.2294  0.2059  0.0309
 6558SOL    HW131136   0.609   1.224  11.981  0.8241 -1.4221  0.4992
 6558SOL    HW231137   0.647   1.131  11.870  0.2764  0.4045 -0.7469
 6559SOL     OW31138   2.817   3.686  15.645  0.4622  0.7198 -0.4461
 6559SOL    HW131139   2.864   3.613  15.605  0.4163  0.3545  0.1646
 6559SOL    HW231140   2.871   3.697  15.724  1.3064  0.1491 -0.9408
 6560SOL     OW31141   0.078   0.964   7.401 -0.1714 -0.4045  0.3873
 6560SOL    HW131142   0.065   1.007   7.317 -0.0909 -0.9470  0.0971
 6560SOL    HW231143   0.150   0.909   7.368  0.8139  1.4576 -0.5387
 6561SOL     OW31144   1.842   0.405  15.645  0.5431 -0.0753  0.4818
 6561SOL    HW131145   1.849   0.472  15.578 -0.9432  0.1949  0.5828
 6561SOL    HW231146   1.764   0.359  15.612  0.9832  0.6659 -1.6137
 6562SOL     OW31147   1.285   2.229   2.851 -0.0950  0.4735 -0.2592
 6562SOL    HW131148   1.203   2.274   2.869  0.0423  0.4839  0.3367
 6562SOL    HW231149   1.298   2.183   2.934 -0.7280 -1.4500 -1.2365
 6563SOL     OW31150   3.579   4.027   2.058 -0.1039 -0.0607  0.1236
 6563SOL    HW131151   3.640   3.966   2.100 -1.7355 -1.6014  0.2222
 6563SOL    HW231152   3.501   4.030   2.113 -0.6129 -0.1746 -0.6099
 6564SOL     OW31153   1.163   0.245   6.408  0.6099 -0.4734 -0.8310
 6564SOL    HW131154   1.197   0.162   6.376 -0.3494 -1.7436  1.4089
 6564SOL    HW231155   1.148   0.212   6.497 -1.1722  2.6590  0.0475
 6565SOL     OW31156   1.432   3.002   5.974 -0.1233 -0.2006 -0.4709
 6565SOL    HW131157   1.446   2.961   5.889 -0.4266 -2.6244  0.6634
 6565SOL    HW231158   1.446   2.929   6.034 -0.3036  1.2643  1.3482
 6566SOL     OW31159   3.174   4.161   6.837  0.3387 -0.3556  0.4454
 6566SOL    HW131160   3.226   4.145   6.915  1.1663  0.0310 -0.0280
 6566SOL    HW231161   3.087   4.132   6.864 -0.8239  1.1531 -1.6890
 6567SOL     OW31162   2.019   0.378   6.500 -0.1906  0.2990 -0.2916
 6567SOL    HW131163   1.958   0.413   6.436 -0.3492  1.1477  0.3145
 6567SOL    HW231164   1.971   0.389   6.582 -0.3948 -2.7520 -0.0179
 6568SOL     OW31165   0.709   3.741   6.584 -0.0477 -0.4248  0.1670
 6568SOL    HW131166   0.685   3.759   6.493  2.3183 -0.1083 -0.3775
 6568SOL    HW231167   0.792   3.696   6.567  2.1647  3.0551  1.7605
 6569SOL     OW31168   1.275   2.018   4.355  0.1256 -0.2619  0.3604
 6569SOL    HW131169   1.304   1.927   4.344 -2.2105 -1.3300  3.1462
 6569SOL    HW231170   1.345   2.055   4.409  1.8530 -1.5671 -0.9833
 6570SOL     OW31171   4.195   1.268  11.821 -0.4243  0.0332 -0.2230
 6570SOL    HW131172   4.277   1.248  11.775 -1.6391 -0.6676 -2.0784
 6570SOL    HW231173   4.210   1.354  11.860 -2.9875 -0.1498  1.1542
 6571SOL     OW31174   1.028   4.205   2.346  0.2919 -0.1176 -0.3111
 6571SOL    HW131175   0.963   4.204   2.277 -0.3427  0.7191  0.2812
 6571SOL    HW231176   1.107   4.249   2.314  0.0606 -1.2646 -2.4274
 6572SOL     OW31177   2.265   3.067   6.346  0.0614 -0.1856 -0.3657
 6572SOL    HW131178   2.180   3.108   6.363  1.3403  1.6454  1.5302
 6572SOL    HW231179   2.306   3.131   6.404  2.3691 -2.2865  0.2978
 6573SOL     OW31180   0.153   4.047   4.489  0.0956  0.6495 -0.0495
 6573SOL    HW131181   0.210   4.121   4.466  0.4582  0.3569 -0.1015
 6573SOL    HW231182   0.063   4.079   4.486 -0.7992 -1.6328  2.1300
 6574SOL     OW31183   0.034   3.002   9.222 -0.0588 -0.5172  0.1824
 6574SOL    HW131184   0.069   3.042   9.302  0.2068  0.7506 -0.5665
 6574SOL    HW231185   4.684   2.956   9.265 -0.1883 -0.4114  0.0778
 6575SOL     OW31186   1.859   1.362   0.515 -0.5209  0.5985  0.0043
 6575SOL    HW131187   1.777   1.316   0.499  0.1422 -0.2323 -0.9603
 6575SOL    HW231188   1.855   1.393   0.606 -1.3026  0.5343 -0.0068
 6576SOL     OW31189   3.992   3.797   8.850 -0.7644  0.1197  0.1119
 6576SOL    HW131190   4.071   3.848   8.828 -0.4327  0.0125  1.0782
 6576SOL    HW231191   3.981   3.816   8.943 -1.3044 -1.2873  0.3207
 6577SOL     OW31192   4.461   0.029  12.574 -0.0796  0.4814  0.5114
 6577SOL    HW131193   4.481   0.001  12.663 -2.4369 -0.6132  0.6781
 6577SOL    HW231194   4.366   0.022  12.574  0.0268 -1.0176  0.0327
 6578SOL     OW31195   3.494   2.434   7.319  0.4469  0.3191 -1.1453
 6578SOL    HW131196   3.578   2.397   7.346 -0.0433 -0.2967 -0.4335
 6578SOL    HW231197   3.517   2.471   7.235 -0.9353 -0.5693 -1.9283
 6579SOL     OW31198   1.282   3.936   6.117  0.1726  0.4845 -0.1447
 6579SOL    HW131199   1.326   3.852   6.133 -0.6453  0.0946  0.0497
 6579SOL    HW231200   1.189   3.915   6.119  0.2241  0.1965 -1.0757
 6580SOL     OW31201   3.287   2.282   6.878  0.2998  0.0908 -0.1543
 6580SOL    HW131202   3.292   2.209   6.939  0.2432 -1.3366 -1.8856
 6580SOL    HW231203   3.198   2.306   6.902  0.3514 -1.0373  1.1531
 6581SOL     OW31204   0.404   3.798   5.972 -0.9710 -0.3034  0.2524
 6581SOL    HW131205   0.338   3.864   5.950  0.5282  0.7970 -0.8939
 6581SOL    HW231206   0.426   3.767   5.884 -2.9280 -1.6614  0.2182
 6582SOL     OW31207   3.423   0.148   0.829  0.2268 -0.8241  0.1803
 6582SOL    HW131208   3.443   0.145   0.923 -1.6318 -1.4307  0.5720
 6582SOL    HW231209   3.398   0.240   0.835 -1.7393 -1.2086 -1.8998
 6583SOL     OW31210   3.536   0.059   3.464  0.5471 -0.7484 -0.3249
 6583SOL    HW131211   3.570   0.042   3.376  0.8048 -0.7692 -0.2207
 6583SOL    HW231212   3.447   0.028   3.448  0.4078 -0.8091  0.5813
 6584SOL     OW31213   1.571   1.513   0.761 -0.4276  0.8430  0.4026
 6584SOL    HW131214   1.568   1.508   0.666 -0.0119  0.5763  0.4040
 6584SOL    HW231215   1.665   1.499   0.774 -1.2024 -2.3494  2.5396
 6585SOL     OW31216   2.209   0.707   8.280  0.0857  0.0653  0.2038
 6585SOL    HW131217   2.151   0.769   8.235  1.0313 -1.4298 -3.0933
 6585SOL    HW231218   2.281   0.769   8.293  0.2227  0.2847 -1.5651
 6586SOL     OW31219   0.116   2.639   5.847  0.1816 -0.2667 -0.0300
 6586SOL    HW131220   0.123   2.724   5.803 -0.2040  0.0168  0.4582
 6586SOL    HW231221   0.072   2.591   5.776 -0.8256 -0.0357  0.4352
 6587SOL     OW31222   2.825   2.296   4.518 -0.2672  0.7146 -0.0669
 6587SOL    HW131223   2.910   2.325   4.552 -0.1696  0.8373 -0.4136
 6587SOL    HW231224   2.840   2.258   4.431  2.1713  0.3601  0.5041
 6588SOL     OW31225   4.521   3.695  14.043  0.1953  0.5201  0.2016
 6588SOL    HW131226   4.545   3.620  13.988  2.0635  2.1674 -1.2234
 6588SOL    HW231227   4.503   3.756  13.971  0.6975 -1.6774 -1.8059
 6589SOL     OW31228   2.039   3.756   9.190  0.1353 -0.5047 -0.2542
 6589SOL    HW131229   1.986   3.783   9.265 -1.6605 -0.1906 -1.6421
 6589SOL    HW231230   2.046   3.838   9.142  0.3766 -0.1675  0.3596
 6590SOL     OW31231   2.214   3.345  15.136  0.1591 -0.0616 -0.0585
 6590SOL    HW131232   2.130   3.356  15.091 -0.8630 -0.5689  1.7155
 6590SOL    HW231233   2.266   3.325  15.058 -0.2239 -0.5743 -0.1866
 6591SOL     OW31234   0.455   3.769   5.229  0.3117  0.3779  0.4750
 6591SOL    HW131235   0.457   3.727   5.144  1.3112  1.6425 -0.1301
 6591SOL    HW231236   0.500   3.851   5.208 -1.9945  1.3725 -0.5997
 6592SOL     OW31237   2.533   3.968   9.381 -0.3420 -0.4145 -0.4608
 6592SOL    HW131238   2.486   3.885   9.371 -0.2993 -0.4786 -0.1287
 6592SOL    HW231239   2.474   4.027   9.333  0.3187 -1.3432 -2.4439
 6593SOL     OW31240   0.940   3.013   9.998 -0.1821 -0.6197  0.2632
 6593SOL    HW131241   0.911   2.924   9.978  1.5886 -1.4640  1.4678
 6593SOL    HW231242   1.005   3.006  10.068 -0.4763  2.6167  0.8391
 6594SOL     OW31243   4.643   2.804  16.745  0.2250 -0.6127  0.4374
 6594SOL    HW131244   4.633   2.850  16.828  2.0869 -1.8533  1.3416
 6594SOL    HW231245   4.555   2.767  16.731  0.5748 -1.3571  0.1863
 6595SOL     OW31246   2.513   1.466   3.997 -0.1002 -0.0802 -0.1084
 6595SOL    HW131247   2.474   1.517   4.068 -0.1676  0.4664 -0.5337
 6595SOL    HW231248   2.456   1.390   3.985 -1.0171  0.2059  2.4874
 6596SOL     OW31249   1.696   1.661   3.237  0.1308 -0.2950 -0.0435
 6596SOL    HW131250   1.707   1.682   3.144 -1.4038 -0.9468 -0.3773
 6596SOL    HW231251   1.638   1.586   3.223 -2.7504  1.5106  2.2213
 6597SOL     OW31252   0.017   3.020  15.412 -0.1166  0.3840  0.2799
 6597SOL    HW131253   0.047   3.057  15.329  0.4547 -1.8341 -0.4899
 6597SOL    HW231254   0.082   2.951  15.424 -0.0969  0.4146  0.3511
 6598SOL     OW31255   2.571   1.622   6.458  0.0344 -0.0555 -0.7605
 6598SOL    HW131256   2.530   1.702   6.424 -1.2741 -1.0080 -1.4361
 6598SOL    HW231257   2.658   1.637   6.421  0.7392  0.4588  1.1079
 6599SOL     OW31258   1.904   4.057   4.320  0.0359 -0.1918  0.0175
 6599SOL    HW131259   1.992   4.038   4.354  0.1062 -1.7591 -1.0445
 6599SOL    HW231260   1.874   4.116   4.390 -2.0770 -0.7843 -0.4104
 6600SOL     OW31261   3.589   3.384  11.445  0.0276  0.3869 -0.3164
 6600SOL    HW131262   3.582   3.315  11.512 -0.7040  0.2989 -0.4843
 6600SOL    HW231263   3.502   3.389  11.405  1.1829  2.2255 -2.5668
 6601SOL     OW31264   3.652   2.357   3.380  0.7691  0.6944 -0.4906
 6601SOL    HW131265   3.599   2.380   3.456 -0.5212 -0.8193 -0.9432
 6601SOL    HW231266   3.745   2.364   3.402  0.3550 -1.3008  1.8888
 6602SOL     OW31267   0.389   0.591  15.210 -0.5617 -0.5455  0.0215
 6602SOL    HW131268   0.293   0.589  15.211 -0.5748 -0.0734 -0.5987
 6602SOL    HW231269   0.414   0.505  15.244 -0.3357 -0.0243  1.1886
 6603SOL     OW31270   0.063   0.367   2.564 -0.4644 -0.5018 -0.3821
 6603SOL    HW131271   0.138   0.423   2.586 -1.0478 -0.1372  0.6791
 6603SOL    HW231272   0.103   0.287   2.531  0.8024  1.6285 -3.9959
 6604SOL     OW31273   3.303   2.679   5.965  0.3680  0.4296  0.0332
 6604SOL    HW131274   3.385   2.635   5.989  0.8270  0.7301 -1.0209
 6604SOL    HW231275   3.240   2.610   5.986  0.8778 -0.3369 -1.0048
 6605SOL     OW31276   4.143   1.719   6.861  0.4136 -0.4889  0.2828
 6605SOL    HW131277   4.051   1.699   6.847  0.0950  2.0769 -1.1785
 6605SOL    HW231278   4.158   1.757   6.775 -0.4121 -0.3786  0.1884
 6606SOL     OW31279   0.524   4.286   8.681 -1.0941  0.2945 -0.4733
 6606SOL    HW131280   0.462   4.324   8.618 -1.3344 -1.1514 -1.1191
 6606SOL    HW231281   0.469   4.267   8.757  3.4904  0.5320  2.9021
 6607SOL     OW31282   4.246   1.956   5.798 -0.5460  0.3241  0.2481
 6607SOL    HW131283   4.197   1.986   5.722 -0.7250 -1.1009 -0.1945
 6607SOL    HW231284   4.305   2.028   5.821  0.1618 -0.5651  1.2507
 6608SOL     OW31285   2.811   3.754   6.415  0.1200 -0.0361  0.2087
 6608SOL    HW131286   2.773   3.789   6.335  0.4705 -0.9673 -0.3615
 6608SOL    HW231287   2.728   3.749   6.461  1.5823  3.0806  3.2681
 6609SOL     OW31288   3.381   3.289   2.471  0.4050 -0.0725  0.0946
 6609SOL    HW131289   3.451   3.236   2.509  0.5114  0.3164  0.4371
 6609SOL    HW231290   3.396   3.272   2.378 -0.1977 -0.4647  0.0697
 6610SOL     OW31291   4.000   2.669   0.126  0.3961 -0.4828  0.4353
 6610SOL    HW131292   3.977   2.589   0.172  0.1244 -0.0525  1.0506
 6610SOL    HW231293   4.094   2.656   0.139  0.7032  2.0386  0.7370
 6611SOL     OW31294   4.357   2.955   4.405 -0.2315 -0.1648 -0.7834
 6611SOL    HW131295   4.330   3.040   4.441  1.0876 -1.7869  3.9741
 6611SOL    HW231296   4.330   2.898   4.477 -1.4780  2.2428  0.6554
 6612SOL     OW31297   2.457   0.125  15.815 -0.3179  0.0805 -0.4362
 6612SOL    HW131298   2.450   0.142  15.908  0.7663 -1.9231  0.0115
 6612SOL    HW231299   2.425   0.207  15.777 -1.4821 -0.3679 -0.4084
 6613SOL     OW31300   1.447   3.109  13.055  0.1706 -0.0890  0.0100
 6613SOL    HW131301   1.392   3.031  13.062 -0.4988  0.4331  0.6027
 6613SOL    HW231302   1.387   3.183  13.042  0.6536  0.1574 -0.7907
 6614SOL     OW31303   1.136   3.974   3.433 -0.4942 -0.4406 -0.0860
 6614SOL    HW131304   1.229   3.995   3.447 -0.4507  1.2645 -2.9520
 6614SOL    HW231305   1.095   4.031   3.499 -1.3548 -0.9873 -0.1562
 6615SOL     OW31306   0.089   2.027   1.896  0.1858  0.2437  0.4709
 6615SOL    HW131307   0.092   2.099   1.959 -0.1829 -0.0929  0.8753
 6615SOL    HW231308   0.174   1.987   1.915  1.4967  2.7204 -0.2585
 6616SOL     OW31309   4.454   1.333   2.834 -0.5160 -0.0304  0.4453
 6616SOL    HW131310   4.490   1.421   2.847  1.0381 -0.8062  1.4292
 6616SOL    HW231311   4.385   1.330   2.901  0.9212  0.8784  1.9669
 6617SOL     OW31312   2.555   4.693  10.197 -0.1413 -0.0981 -0.1302
 6617SOL    HW131313   2.613   0.019  10.137  0.1475 -2.5565 -1.8479
 6617SOL    HW231314   2.618   4.635  10.239  0.2373 -1.4216 -2.4768
 6618SOL     OW31315   1.967   0.502   9.724 -0.7887  0.7764 -0.0903
 6618SOL    HW131316   1.914   0.431   9.759  0.0142 -1.5807 -3.6837
 6618SOL    HW231317   1.976   0.462   9.638 -0.5559 -0.2450  0.4066
 6619SOL     OW31318   4.160   4.167   4.159 -0.2636  0.0908  0.2318
 6619SOL    HW131319   4.161   4.164   4.063 -1.3183 -0.2146  0.2286
 6619SOL    HW231320   4.070   4.142   4.181 -0.6026  0.1458 -1.0578
 6620SOL     OW31321   3.472   3.943   2.701  0.2567 -0.2400 -0.0825
 6620SOL    HW131322   3.424   3.951   2.619 -2.4380 -2.1131  1.3338
 6620SOL    HW231323   3.420   4.001   2.756  1.4647  1.0276 -0.2691
 6621SOL     OW31324   4.619   4.499   3.928  0.2613  0.2500  0.4023
 6621SOL    HW131325   4.690   4.546   3.883  0.1187  0.6184  0.5574
 6621SOL    HW231326   4.666   4.450   3.995  0.2576 -0.5185 -0.1627
 6622SOL     OW31327   4.573   1.371   8.180 -0.8304  0.6332  0.2507
 6622SOL    HW131328   4.573   1.286   8.223  0.0293  0.7993  0.5850
 6622SOL    HW231329   4.636   1.414   8.239 -1.1675  2.9673 -1.0919
 6623SOL     OW31330   4.508   4.685   3.285  0.2352  0.9655  0.2207
 6623SOL    HW131331   4.515   0.043   3.235  1.7889  0.4644 -0.3542
 6623SOL    HW231332   4.430   4.691   3.340  0.0903  1.6213 -0.0583
 6624SOL     OW31333   0.880   2.488   6.550 -0.5742  0.6163 -0.2188
 6624SOL    HW131334   0.861   2.465   6.460  0.2618 -0.8356 -0.0181
 6624SOL    HW231335   0.966   2.530   6.538  1.6522 -3.5072  1.2199
 6625SOL     OW31336   4.042   1.613   1.990 -0.0885  0.0998 -0.2762
 6625SOL    HW131337   4.113   1.677   1.985 -1.9219  2.3085  2.0148
 6625SOL    HW231338   3.993   1.644   2.066 -4.5133 -1.7671 -2.3371
 6626SOL     OW31339   1.378   0.719   5.536 -0.5389 -0.3315 -0.2295
 6626SOL    HW131340   1.402   0.780   5.467  1.4642 -0.9273 -0.0499
 6626SOL    HW231341   1.436   0.644   5.520 -0.9701 -0.5359 -0.8549
 6627SOL     OW31342   3.617   1.766   6.335 -0.1295  0.4938 -0.5638
 6627SOL    HW131343   3.597   1.684   6.380 -1.1917 -0.0231 -2.0020
 6627SOL    HW231344   3.642   1.819   6.411  0.2854  0.7892 -0.9096
 6628SOL     OW31345   2.907   1.372   9.800  0.0142 -0.0343  0.1365
 6628SOL    HW131346   2.887   1.422   9.879 -0.7476 -1.8710  1.0937
 6628SOL    HW231347   2.876   1.429   9.729 -0.7198  0.0858  0.5488
 6629SOL     OW31348   2.795   2.101   9.301 -0.1222 -0.1488  0.1319
 6629SOL    HW131349   2.756   2.144   9.378 -0.2052 -1.6525  0.9311
 6629SOL    HW231350   2.859   2.042   9.341  0.3153  0.4940  0.3792
 6630SOL     OW31351   0.404   2.046   4.208  0.2212 -0.7332  0.1405
 6630SOL    HW131352   0.436   1.989   4.278 -1.5071 -0.6875  0.9614
 6630SOL    HW231353   0.330   1.990   4.187  0.3456 -0.9445  0.2660
 6631SOL     OW31354   1.123   2.573   4.604  0.0684  0.4458  0.4294
 6631SOL    HW131355   1.148   2.644   4.663  0.7605  0.8693 -0.3787
 6631SOL    HW231356   1.042   2.607   4.567  0.7336 -0.8642 -2.2100
 6632SOL     OW31357   2.194   0.338   8.426 -0.1183 -0.5516  0.0543
 6632SOL    HW131358   2.117   0.358   8.480 -1.4859 -0.5640 -1.8648
 6632SOL    HW231359   2.189   0.244   8.445  2.1928 -0.6126  0.2914
 6633SOL     OW31360   3.363   1.638   1.978 -0.4631 -0.1162 -0.3934
 6633SOL    HW131361   3.455   1.611   1.969 -0.5305 -0.7627  0.8440
 6633SOL    HW231362   3.381   1.732   1.983 -1.3035 -0.0501  1.3729
 6634SOL     OW31363   2.545   0.296   9.359  0.5250  0.5753 -0.8217
 6634SOL    HW131364   2.589   0.315   9.275  2.5725  2.5532  0.6990
 6634SOL    HW231365   2.458   0.315   9.324 -0.8205  1.9554  3.3438
 6635SOL     OW31366   3.830   2.628   6.773  0.0604  0.3514  0.1454
 6635SOL    HW131367   3.787   2.547   6.801  2.1218 -1.5321 -2.1531
 6635SOL    HW231368   3.838   2.620   6.678  0.5017 -0.9682  0.2870
 6636SOL     OW31369   2.128   1.875  15.527  0.1823  0.0802 -0.0487
 6636SOL    HW131370   2.097   1.902  15.440 -2.1924  0.3774  0.8785
 6636SOL    HW231371   2.223   1.880  15.520  0.0898  2.2870  0.1167
 6637SOL     OW31372   3.523   3.970   6.790  0.6641  0.6220 -0.0077
 6637SOL    HW131373   3.601   3.960   6.844  1.0548  0.4818 -0.6002
 6637SOL    HW231374   3.512   4.060   6.758 -2.6239  0.6637  1.1988
 6638SOL     OW31375   2.060   0.470   3.484  0.1222  0.0505 -0.5831
 6638SOL    HW131376   2.044   0.548   3.538  0.3134 -0.2871 -0.0350
 6638SOL    HW231377   2.111   0.509   3.413  1.7843 -1.0298  0.0210
 6639SOL     OW31378   2.174   1.811  15.814 -0.3310 -0.0683  0.1364
 6639SOL    HW131379   2.111   1.741  15.799 -1.2798  0.4436  1.7171
 6639SOL    HW231380   2.184   1.844  15.724  1.7541  1.5478  0.9489
 6640SOL     OW31381   3.054   3.140   1.958 -0.2029 -0.5211 -0.0295
 6640SOL    HW131382   2.961   3.120   1.971 -0.0775 -0.4390  0.9844
 6640SOL    HW231383   3.086   3.066   1.908 -0.6949  0.1926 -1.4030
 6641SOL     OW31384   0.717   1.105  12.859 -0.5009 -0.4352 -0.7672
 6641SOL    HW131385   0.762   1.069  12.935 -1.7454  0.2080  0.2793
 6641SOL    HW231386   0.698   1.194  12.891  0.7904 -0.5244  0.2350
 6642SOL     OW31387   3.227   3.274   2.933 -0.2781 -0.1339 -0.0636
 6642SOL    HW131388   3.163   3.317   2.877 -0.4501 -1.6736 -1.0571
 6642SOL    HW231389   3.289   3.223   2.880 -1.2180 -2.0522  0.6670
 6643SOL     OW31390   3.534   3.131   6.220  0.0746 -0.4232  0.6439
 6643SOL    HW131391   3.628   3.124   6.207 -0.0014 -3.7317  1.7493
 6643SOL    HW231392   3.499   3.141   6.132  0.6691 -0.2096  0.4327
 6644SOL     OW31393   0.679   0.048  11.484  0.2303  0.0822 -0.1460
 6644SOL    HW131394   0.662   0.007  11.569  0.2327 -0.1040 -0.2353
 6644SOL    HW231395   0.603   0.007  11.443 -0.2080  1.9579 -1.1724
 6645SOL     OW31396   3.299   1.550   0.362  0.0572  0.9520  0.4285
 6645SOL    HW131397   3.333   1.621   0.417  0.5929  0.3230  0.9069
 6645SOL    HW231398   3.239   1.500   0.417  0.8445 -0.9579 -0.4402
 6646SOL     OW31399   0.291   4.533   4.516 -0.2548 -0.4600  0.1778
 6646SOL    HW131400   0.198   4.552   4.532  0.0914  2.5979 -1.4206
 6646SOL    HW231401   0.320   4.527   4.607 -0.1018 -2.4453 -0.0096
 6647SOL     OW31402   2.475   2.454  11.003 -0.3344 -0.1963 -0.4071
 6647SOL    HW131403   2.569   2.437  10.988  0.0672  0.7974  1.0184
 6647SOL    HW231404   2.433   2.368  11.014  0.2585 -0.6923 -1.9158
 6648SOL     OW31405   2.198   1.807   8.458  0.1641  0.7047 -0.3277
 6648SOL    HW131406   2.173   1.888   8.413  0.3258  1.0180  0.1487
 6648SOL    HW231407   2.291   1.807   8.437  0.7815  0.8108  2.5311
 6649SOL     OW31408   4.067   1.205   6.566 -0.3171 -0.0275 -0.0096
 6649SOL    HW131409   4.156   1.205   6.531  0.8175  0.1645  2.8240
 6649SOL    HW231410   4.036   1.296   6.562 -1.4090 -0.3881  0.1522
 6650SOL     OW31411   2.967   3.573   8.907  0.5639 -0.0631  0.2831
 6650SOL    HW131412   2.888   3.524   8.882  1.5155  0.1417 -3.0758
 6650SOL    HW231413   3.005   3.508   8.967  0.1880 -1.5153 -1.0364
 6651SOL     OW31414   2.833   2.468   6.883  0.1947 -0.2172  0.3540
 6651SOL    HW131415   2.766   2.427   6.828  1.2493  1.1710 -1.9628
 6651SOL    HW231416   2.883   2.510   6.813  0.4515 -0.6731  0.2705
 6652SOL     OW31417   2.113   2.496   1.866 -0.3080  0.0667 -0.2795
 6652SOL    HW131418   2.056   2.446   1.808 -1.8312 -2.2855  3.2342
 6652SOL    HW231419   2.048   2.526   1.930 -2.1889 -0.6383 -1.8575
 6653SOL     OW31420   1.723   0.857   5.979 -0.7214 -0.0276 -0.3466
 6653SOL    HW131421   1.685   0.827   5.897  0.8859 -0.4416 -0.9353
 6653SOL    HW231422   1.763   0.942   5.962  1.9615 -1.3633 -0.6506
 6654SOL     OW31423   0.273   0.815   5.346 -0.1104 -0.0528 -0.2961
 6654SOL    HW131424   0.305   0.784   5.430  1.1799  3.5918  0.5524
 6654SOL    HW231425   0.282   0.730   5.302 -0.2088 -0.7818  1.1167
 6655SOL     OW31426   2.643   0.114   3.156  0.4204 -0.7589 -0.2452
 6655SOL    HW131427   2.559   0.155   3.177  0.3300 -1.0513 -0.0383
 6655SOL    HW231428   2.696   0.193   3.147  0.7634 -0.9253  0.3570
 6656SOL     OW31429   2.907   0.967  11.272  0.2311  0.2355  0.5370
 6656SOL    HW131430   2.954   0.937  11.350  0.3802 -2.0357 -0.4033
 6656SOL    HW231431   2.950   1.051  11.254 -2.2053  0.9830 -1.7714
 6657SOL     OW31432   2.170   3.938  11.019  0.0609 -0.3530  0.5485
 6657SOL    HW131433   2.114   3.975  10.951  0.5355 -1.3429 -0.3824
 6657SOL    HW231434   2.215   4.021  11.035  0.5201 -0.6721  0.9133
 6658SOL     OW31435   1.990   2.446  13.338  0.1834  0.6177  0.2002
 6658SOL    HW131436   2.083   2.468  13.338  0.1963  0.5281 -1.2865
 6658SOL    HW231437   1.961   2.493  13.260 -1.0063  1.4018  1.1127
 6659SOL     OW31438   3.735   4.004   2.727  0.5637  0.3081  0.3258
 6659SOL    HW131439   3.640   3.992   2.728  0.4140  1.6742  3.5120
 6659SOL    HW231440   3.756   3.965   2.642 -0.7870  1.0536 -0.3566
 6660SOL     OW31441   3.567   3.654  15.790  0.3219 -0.2935 -0.0772
 6660SOL    HW131442   3.478   3.689  15.796  0.6439  0.6696 -0.8134
 6660SOL    HW231443   3.585   3.632  15.881 -0.9718  0.6916  0.4151
 6661SOL     OW31444   0.518   4.022   8.975  0.4384  0.2086  0.2250
 6661SOL    HW131445   0.580   4.012   9.048 -2.5686 -1.1690  2.5778
 6661SOL    HW231446   0.550   3.943   8.933  1.3291 -0.3262  1.9051
 6662SOL     OW31447   2.651   1.372   1.804  0.2444  0.2661 -0.0019
 6662SOL    HW131448   2.628   1.289   1.845 -1.0110  0.7358  0.2502
 6662SOL    HW231449   2.579   1.425   1.839 -0.1831 -1.3225  1.5278
 6663SOL     OW31450   2.675   0.440   1.536  0.7820 -0.3246  0.4068
 6663SOL    HW131451   2.744   0.414   1.475  0.2619  1.2490 -0.8541
 6663SOL    HW231452   2.593   0.425   1.489 -0.9585  0.9349  3.1130
 6664SOL     OW31453   1.087   3.757   4.798  0.1380 -0.2754  0.0097
 6664SOL    HW131454   1.135   3.682   4.764 -1.5295 -0.7669 -1.2286
 6664SOL    HW231455   1.038   3.781   4.720  1.4602  1.5403 -0.2770
 6665SOL     OW31456   4.399   3.372   3.717  0.2878 -0.1008 -0.0858
 6665SOL    HW131457   4.377   3.445   3.775  3.5153  0.7287  0.0613
 6665SOL    HW231458   4.326   3.360   3.656  0.9491 -0.3008 -0.8298
 6666SOL     OW31459   2.533   0.536   7.918  0.4273  0.1077  0.1249
 6666SOL    HW131460   2.510   0.565   7.830 -5.2312  0.2983  1.6497
 6666SOL    HW231461   2.523   0.613   7.975  0.8419  1.2639 -1.3397
 6667SOL     OW31462   3.523   0.511   5.233  0.3001 -0.3676 -0.1788
 6667SOL    HW131463   3.461   0.487   5.301 -1.1623  0.7221 -1.1301
 6667SOL    HW231464   3.476   0.470   5.161  2.2537 -1.3598 -0.9052
 6668SOL     OW31465   3.853   1.057  14.077 -0.7977  0.1128 -0.4635
 6668SOL    HW131466   3.873   0.964  14.064  3.5412  1.0396 -0.4849
 6668SOL    HW231467   3.876   1.072  14.169 -0.2050 -1.2210 -0.3766
 6669SOL     OW31468   2.314   1.852  12.202  0.7005 -0.3426  0.0465
 6669SOL    HW131469   2.262   1.911  12.147 -0.2142  0.1015  1.3818
 6669SOL    HW231470   2.388   1.913  12.204  1.4407 -1.2953  1.3170
 6670SOL     OW31471   2.013   2.367   8.819  0.5341  0.3250  0.1606
 6670SOL    HW131472   2.030   2.394   8.728 -0.2253  2.0653  0.5325
 6670SOL    HW231473   1.943   2.304   8.799  0.8944 -0.2262  0.6278
 6671SOL     OW31474   0.917   4.341  16.219  0.5649  0.0275 -0.6488
 6671SOL    HW131475   0.870   4.299  16.292  1.8286  1.8549  1.2254
 6671SOL    HW231476   1.005   4.323  16.251 -0.7514 -3.4494  1.1819
 6672SOL     OW31477   3.303   0.489   0.514 -0.6478  0.4073  0.0275
 6672SOL    HW131478   3.237   0.430   0.477 -2.6944  1.3784  2.1352
 6672SOL    HW231479   3.386   0.444   0.498 -0.4278  0.5933  0.6436
 6673SOL     OW31480   0.390   2.179  12.350  0.5343 -0.7109  0.0867
 6673SOL    HW131481   0.337   2.249  12.311  0.7303 -0.5737  0.0669
 6673SOL    HW231482   0.358   2.101  12.306 -0.4765  0.0902 -0.6098
 6674SOL     OW31483   0.619   0.512   7.995 -0.6207  0.2015 -0.0263
 6674SOL    HW131484   0.625   0.550   8.082  1.9730 -0.4124  0.0402
 6674SOL    HW231485   0.539   0.462   8.009 -0.7830  0.3793 -0.2940
 6675SOL     OW31486   4.535   2.279   7.342  0.0301 -0.2704  0.0022
 6675SOL    HW131487   4.489   2.254   7.422 -0.1830  0.6355  0.1651
 6675SOL    HW231488   4.543   2.198   7.293  1.6153  0.9945 -1.8437
 6676SOL     OW31489   2.996   3.050  16.461  0.0855 -0.4422  0.3278
 6676SOL    HW131490   2.917   3.101  16.444  0.7032  0.1108 -0.8770
 6676SOL    HW231491   3.032   3.026  16.375 -6.4375 -3.8565 -1.4295
 6677SOL     OW31492   3.782   4.480   8.610  0.4962 -0.3175  0.0838
 6677SOL    HW131493   3.802   4.387   8.599 -1.1878 -0.8664  1.7416
 6677SOL    HW231494   3.728   4.494   8.533 -1.9800 -0.6153  1.7864
 6678SOL     OW31495   4.279   4.527   4.878  0.1449 -0.0728  0.2284
 6678SOL    HW131496   4.200   4.554   4.831  0.9005 -0.2734 -1.1711
 6678SOL    HW231497   4.336   4.601   4.857 -1.2166  1.1868  0.9898
 6679SOL     OW31498   0.465   2.763   2.518  0.2206 -0.3980  0.0950
 6679SOL    HW131499   0.511   2.682   2.498 -0.9680 -0.5090 -2.2580
 6679SOL    HW231500   0.536   2.827   2.512  0.8517 -0.9929  1.1927
 6680SOL     OW31501   3.840   0.892  10.879 -0.4701  0.5443  0.1568
 6680SOL    HW131502   3.879   0.908  10.965  0.9647  0.1323 -0.4150
 6680SOL    HW231503   3.753   0.931  10.888 -1.4733 -1.8916  0.8610
 6681SOL     OW31504   3.679   4.049   8.430 -0.4016  0.1356  0.5918
 6681SOL    HW131505   3.601   4.067   8.483 -0.9933  0.8048 -0.4936
 6681SOL    HW231506   3.649   3.966   8.392 -1.4290  1.2394 -1.0167
 6682SOL     OW31507   1.406   1.156   6.326  0.2925 -0.5814  0.4453
 6682SOL    HW131508   1.456   1.235   6.345 -1.0928  0.5017 -0.4084
 6682SOL    HW231509   1.454   1.115   6.255  0.4655  0.9946 -0.3271
 6683SOL     OW31510   1.552   1.757   6.022  0.2883  0.2416 -0.3753
 6683SOL    HW131511   1.490   1.698   6.065 -0.4826  1.8930  0.7959
 6683SOL    HW231512   1.500   1.828   5.985 -1.0460 -1.2938 -1.4256
 6684SOL     OW31513   0.427   0.704  16.468 -0.3581  0.1083  0.4233
 6684SOL    HW131514   0.341   0.730  16.499 -0.5226  1.4301 -1.1568
 6684SOL    HW231515   0.480   0.769  16.515  1.8111 -1.9405  0.8141
 6685SOL     OW31516   1.493   2.612   9.391  0.6423  0.4385 -0.1118
 6685SOL    HW131517   1.553   2.661   9.334 -0.8053  3.0151  0.5596
 6685SOL    HW231518   1.545   2.596   9.470  1.5730 -2.1681 -1.2605
 6686SOL     OW31519   2.890   0.104  10.316  0.3835  0.6697 -0.2856
 6686SOL    HW131520   2.877   0.100  10.221 -2.1563  2.0287 -0.0053
 6686SOL    HW231521   2.825   0.172  10.335 -0.7475 -0.1116 -1.3221
 6687SOL     OW31522   2.374   2.532   1.806 -0.0053  0.0674  0.4679
 6687SOL    HW131523   2.288   2.496   1.830 -0.0254 -0.3458 -0.2179
 6687SOL    HW231524   2.361   2.535   1.711  1.4783 -1.1061  0.2311
 6688SOL     OW31525   3.185   2.440   0.354 -0.1466 -1.1122 -0.1953
 6688SOL    HW131526   3.148   2.525   0.378  2.4134 -0.1330  0.3149
 6688SOL    HW231527   3.199   2.453   0.261 -0.7414 -2.2952 -0.4459
 6689SOL     OW31528   2.422   1.395   4.902 -0.6856  0.4790 -0.0267
 6689SOL    HW131529   2.414   1.441   4.986  0.6201 -3.3214  2.1821
 6689SOL    HW231530   2.493   1.334   4.922  0.3230  1.5270 -0.4065
 6690SOL     OW31531   0.444   2.261   0.400 -0.8518  0.4061  0.1554
 6690SOL    HW131532   0.511   2.282   0.334  0.2575 -1.4408  0.6729
 6690SOL    HW231533   0.491   2.216   0.471 -0.3135 -0.7108 -0.9038
 6691SOL     OW31534   4.004   0.496   5.478  0.4252  0.2498  0.7173
 6691SOL    HW131535   3.918   0.538   5.466  0.6032  1.1174  2.4477
 6691SOL    HW231536   3.983   0.426   5.539  0.4717 -2.3990 -2.3205
 6692SOL     OW31537   2.188   3.390  10.311 -0.3123 -0.3640  0.0241
 6692SOL    HW131538   2.096   3.365  10.319 -0.4861  0.6624  1.0985
 6692SOL    HW231539   2.198   3.361  10.220  1.1026 -3.8365  1.2628
 6693SOL     OW31540   3.584   2.087   7.954  0.5206 -0.7024 -0.1953
 6693SOL    HW131541   3.531   2.161   7.983 -0.2680 -1.3994  0.1654
 6693SOL    HW231542   3.566   2.023   8.023  0.2773 -0.9130 -0.4532
 6694SOL     OW31543   2.048   2.870  12.719 -0.1782 -0.2224  0.6515
 6694SOL    HW131544   2.120   2.930  12.740 -0.4535  0.9957 -1.9040
 6694SOL    HW231545   2.056   2.867  12.624  0.6052 -0.5887  0.7299
 6695SOL     OW31546   4.600   1.204   3.612 -0.1558  0.4375 -0.3193
 6695SOL    HW131547   4.527   1.146   3.633 -1.3395  2.0044 -0.1358
 6695SOL    HW231548   4.610   1.181   3.520 -1.2306 -1.1322 -0.0446
 6696SOL     OW31549   0.368   3.105   6.992  0.6546  0.4394  0.1082
 6696SOL    HW131550   0.390   3.190   6.952  0.9638  0.3515  0.0858
 6696SOL    HW231551   0.409   3.109   7.078  0.4807  3.4679  0.0720
 6697SOL     OW31552   2.668   0.107   3.649 -0.4902  0.7213  0.2027
 6697SOL    HW131553   2.596   0.168   3.634 -0.6811  0.1540 -1.1440
 6697SOL    HW231554   2.728   0.140   3.583  0.9269  0.0750  1.1861
 6698SOL     OW31555   0.830   1.989  13.632  0.1833  0.0761 -0.2737
 6698SOL    HW131556   0.788   1.958  13.551  1.7630 -0.7537 -0.7756
 6698SOL    HW231557   0.843   1.907  13.679 -0.9936 -0.0897 -0.2227
 6699SOL     OW31558   0.144   3.158   5.523  0.9005  0.0379 -0.8531
 6699SOL    HW131559   0.129   3.065   5.504  2.9595 -0.9748  2.6175
 6699SOL    HW231560   0.137   3.195   5.435 -0.9609  0.8604 -0.3476
 6700SOL     OW31561   1.553   2.134  17.548  0.5801  0.9895  0.9241
 6700SOL    HW131562   1.564   2.073  17.475 -1.5465  0.1104  1.3511
 6700SOL    HW231563   1.463   2.114  17.572  0.6162 -0.8270 -0.4063
 6701SOL     OW31564   2.481   0.796  13.215  0.1086  0.0263  0.1230
 6701SOL    HW131565   2.483   0.753  13.301  0.9618  0.6349  0.4052
 6701SOL    HW231566   2.404   0.755  13.175 -0.1448 -0.8808  1.5179
 6702SOL     OW31567   3.031   3.274   8.556  0.3826 -0.4314  0.4170
 6702SOL    HW131568   3.061   3.339   8.493  0.4488 -0.9593 -0.0979
 6702SOL    HW231569   2.963   3.325   8.601  1.1075  0.9967 -0.1230
 6703SOL     OW31570   3.149   1.328   2.980  0.9108  0.3184  0.6038
 6703SOL    HW131571   3.055   1.349   2.985  0.7844 -0.5640  1.8551
 6703SOL    HW231572   3.139   1.235   2.962 -2.2710  0.2138  2.9701
 6704SOL     OW31573   3.604   0.936   3.282 -0.0710  0.0854  0.0734
 6704SOL    HW131574   3.620   1.012   3.227 -0.8315 -0.1527 -0.4788
 6704SOL    HW231575   3.649   0.961   3.363  2.2366 -0.6128 -1.0108
 6705SOL     OW31576   4.417   0.822  17.019  0.3273 -0.6861  0.1798
 6705SOL    HW131577   4.446   0.756  16.956 -0.5626 -1.5419  0.6816
 6705SOL    HW231578   4.505   0.855  17.042  0.4178 -0.1347 -0.9660
 6706SOL     OW31579   0.481   2.259  10.460  0.4684 -0.0663  0.1055
 6706SOL    HW131580   0.533   2.218  10.530  0.8947 -0.9377 -0.7290
 6706SOL    HW231581   0.401   2.259  10.512  0.8613  0.8219  0.7117
 6707SOL     OW31582   1.555   0.226  13.965 -0.2636 -0.3244  0.2925
 6707SOL    HW131583   1.630   0.205  13.910 -0.2726 -1.2438  0.6285
 6707SOL    HW231584   1.496   0.282  13.915  1.0861  0.9904  0.1711
 6708SOL     OW31585   1.068   0.949   8.456  0.2987  0.1425  0.5548
 6708SOL    HW131586   1.104   1.002   8.385 -0.1142  0.5913  0.6879
 6708SOL    HW231587   0.977   0.979   8.454 -0.8201 -3.1805  1.8977
 6709SOL     OW31588   1.029   3.673   5.912  0.0658 -0.1900 -0.1301
 6709SOL    HW131589   1.117   3.667   5.875  0.7802  0.0447  1.5013
 6709SOL    HW231590   0.992   3.751   5.871 -0.9990 -0.1515  0.9032
 6710SOL     OW31591   2.223   4.054   5.053 -0.4846 -0.0560  0.1087
 6710SOL    HW131592   2.135   4.026   5.027  0.5549 -1.0677 -2.3268
 6710SOL    HW231593   2.208   4.147   5.067  0.6126 -0.0447  1.1360
 6711SOL     OW31594   3.559   2.417   6.235 -0.2450 -0.2704 -0.0747
 6711SOL    HW131595   3.528   2.395   6.147  1.7219  2.9899 -1.5811
 6711SOL    HW231596   3.545   2.512   6.241 -0.2938 -0.3256  0.6649
 6712SOL     OW31597   0.224   0.584  11.742  0.3201 -0.3867 -0.4454
 6712SOL    HW131598   0.185   0.627  11.666  1.2932  0.2555 -0.5741
 6712SOL    HW231599   0.172   0.503  11.744 -0.7691  0.3199 -0.0653
 6713SOL     OW31600   0.397   0.814   7.543  0.2135 -0.5965 -0.1117
 6713SOL    HW131601   0.367   0.817   7.452  2.0118 -0.6655 -0.7046
 6713SOL    HW231602   0.342   0.742   7.574 -1.5246  0.3521 -0.9684
 6714SOL     OW31603   1.618   0.152   6.430  0.6317  0.2372  0.2707
 6714SOL    HW131604   1.677   0.101   6.375  2.2244  2.1291  0.2220
 6714SOL    HW231605   1.558   0.193   6.367  0.1131 -1.7980 -0.5787
 6715SOL     OW31606   4.565   0.928   4.098  0.1554 -0.0070  0.1846
 6715SOL    HW131607   4.566   0.840   4.061 -2.1060  0.2924 -0.5785
 6715SOL    HW231608   4.625   0.919   4.172  1.4574 -0.1818 -0.8908
 6716SOL     OW31609   2.051   2.963   4.932  0.2303  0.2663 -0.1795
 6716SOL    HW131610   2.073   2.923   4.848 -1.0418  1.2919 -0.9932
 6716SOL    HW231611   2.118   2.924   4.988  1.1822  2.8107  0.4472
 6717SOL     OW31612   0.212   1.241   4.163  0.7228  0.1652  0.1378
 6717SOL    HW131613   0.144   1.193   4.116 -1.3769  1.9494  1.3660
 6717SOL    HW231614   0.266   1.259   4.086  0.0694  0.8600 -0.1581
 6718SOL     OW31615   3.026   0.575  11.632 -0.1451  0.2368 -0.3420
 6718SOL    HW131616   3.047   0.489  11.595 -1.9849 -0.9909  1.4383
 6718SOL    HW231617   3.033   0.628  11.553 -3.3318 -0.4048 -1.0396
 6719SOL     OW31618   3.186   4.106  13.830  0.2756  0.0602 -0.5177
 6719SOL    HW131619   3.221   4.150  13.907 -1.4242  0.1072  0.2154
 6719SOL    HW231620   3.256   4.041  13.821  1.8405  1.5536  0.8285
 6720SOL     OW31621   1.516   2.063   1.857 -0.3672 -0.0638 -0.2898
 6720SOL    HW131622   1.464   2.132   1.815  1.2560  1.6236  0.4764
 6720SOL    HW231623   1.514   2.080   1.951  3.5750 -1.0109 -0.0283
 6721SOL     OW31624   3.957   3.336  12.332 -0.1131 -0.0752  0.4489
 6721SOL    HW131625   3.873   3.304  12.301 -0.1223  0.0120  0.3832
 6721SOL    HW231626   3.970   3.296  12.418  0.1408 -0.2557  0.3253
 6722SOL     OW31627   0.459   3.137   2.349 -0.2029  0.2406  0.5435
 6722SOL    HW131628   0.529   3.072   2.343 -0.5528 -0.2626  1.9705
 6722SOL    HW231629   0.406   3.116   2.425 -1.1253  2.5408  0.5577
 6723SOL     OW31630   0.749   2.617  17.091 -0.4200 -0.1016 -0.0616
 6723SOL    HW131631   0.771   2.704  17.058 -0.8785 -0.1669 -0.5448
 6723SOL    HW231632   0.777   2.566  17.015 -0.6772 -0.2737 -0.0413
 6724SOL     OW31633   0.995   2.984   4.907 -0.0569  0.8001  0.1980
 6724SOL    HW131634   0.945   2.982   4.826  0.9001 -0.5834 -0.3487
 6724SOL    HW231635   1.068   3.046   4.899 -1.0372  2.0058  0.5156
 6725SOL     OW31636   3.518   2.982  12.783  0.1615 -0.1864 -0.0991
 6725SOL    HW131637   3.591   2.923  12.768  1.7336  1.5933  0.6114
 6725SOL    HW231638   3.524   3.038  12.705 -1.2560 -1.4530 -1.1135
 6726SOL     OW31639   3.542   2.849   0.327  0.0831  0.4083 -0.5629
 6726SOL    HW131640   3.513   2.935   0.295  1.3373  1.8090  2.0342
 6726SOL    HW231641   3.464   2.794   0.316  0.0576  0.3078  0.1495
 6727SOL     OW31642   2.820   3.772   8.470  0.6317 -0.0870  0.2223
 6727SOL    HW131643   2.909   3.782   8.435  0.4364  2.4518  0.3914
 6727SOL    HW231644   2.769   3.726   8.403  0.8972 -0.4442  0.2657
 6728SOL     OW31645   0.134   3.758   8.007 -0.0454 -0.3465 -0.6069
 6728SOL    HW131646   0.064   3.804   8.055 -1.2316 -0.1747 -2.4828
 6728SOL    HW231647   0.214   3.806   8.029 -0.9629  0.3117  1.3045
 6729SOL     OW31648   2.620   0.571   4.279 -0.0125 -0.0798  0.2254
 6729SOL    HW131649   2.529   0.580   4.309 -0.3304 -1.6881 -0.2688
 6729SOL    HW231650   2.602   0.494   4.225  2.0927 -0.8876  0.6867
 6730SOL     OW31651   2.689   3.698  10.704  0.2310  0.4050 -0.0272
 6730SOL    HW131652   2.759   3.668  10.645  1.1262  0.7543  0.8426
 6730SOL    HW231653   2.681   3.783  10.661 -2.1725  1.3561  2.3742
 6731SOL     OW31654   3.046   3.378   1.169 -0.0010  0.3179  0.6543
 6731SOL    HW131655   2.970   3.333   1.133 -0.0238  0.5073  0.4640
 6731SOL    HW231656   3.108   3.371   1.097  0.4710 -0.8326  1.1767
 6732SOL     OW31657   3.193   1.625   8.731  0.1138 -0.2006  0.0159
 6732SOL    HW131658   3.277   1.646   8.773 -0.3631  0.0661  0.8477
 6732SOL    HW231659   3.221   1.555   8.673  0.1367 -0.6084  0.5132
 6733SOL     OW31660   1.366   3.937   8.486  0.3279 -0.4061 -0.2828
 6733SOL    HW131661   1.317   3.866   8.526 -1.0322  0.5718 -0.1830
 6733SOL    HW231662   1.292   3.978   8.439 -0.5965 -0.9889  0.6740
 6734SOL     OW31663   2.045   4.456   4.532  0.4491  0.6299  0.3326
 6734SOL    HW131664   2.121   4.490   4.580  1.2409 -0.4017 -0.1782
 6734SOL    HW231665   1.993   4.427   4.606  0.8831 -0.1160  0.3500
 6735SOL     OW31666   3.409   3.194   1.900 -0.0848  0.6295  0.1744
 6735SOL    HW131667   3.415   3.236   1.986  0.7450 -0.3317  0.5787
 6735SOL    HW231668   3.372   3.270   1.856 -1.3031 -0.4463 -0.6445
 6736SOL     OW31669   3.686   1.833   7.703  0.5832 -0.0871 -0.2864
 6736SOL    HW131670   3.717   1.916   7.741 -0.4678  0.7652 -1.2748
 6736SOL    HW231671   3.600   1.829   7.745  0.6422  0.4951 -0.1099
 6737SOL     OW31672   0.271   0.918   8.716  0.3246  0.2276 -0.2348
 6737SOL    HW131673   0.267   0.906   8.811  1.5902 -0.1579 -0.2305
 6737SOL    HW231674   0.272   1.013   8.701  0.9695  0.5110  1.6101
 6738SOL     OW31675   2.808   0.946   4.796 -0.1007 -0.3663  0.8638
 6738SOL    HW131676   2.732   0.938   4.854 -0.6586  3.6855  0.6832
 6738SOL    HW231677   2.818   0.856   4.766  1.5291 -0.4118  1.5579
 6739SOL     OW31678   3.441   0.640   2.330 -0.7085 -0.3031 -0.2817
 6739SOL    HW131679   3.430   0.568   2.393  0.8731 -1.5298 -1.3965
 6739SOL    HW231680   3.378   0.620   2.261 -2.7191  0.6845  1.2943
 6740SOL     OW31681   1.700   4.536   5.204 -0.0500  0.3990 -0.0319
 6740SOL    HW131682   1.731   4.571   5.288 -1.2122 -0.3912  0.7252
 6740SOL    HW231683   1.616   4.578   5.194 -0.5936 -1.0456 -1.6052
 6741SOL     OW31684   3.063   3.476   2.753  0.1321 -0.6055 -0.5052
 6741SOL    HW131685   2.993   3.419   2.720 -1.1212  0.3168  0.5469
 6741SOL    HW231686   3.038   3.557   2.707  0.1789 -1.2767 -1.6999
 6742SOL     OW31687   0.729   1.715   7.509  0.4601 -0.0420  0.4248
 6742SOL    HW131688   0.652   1.670   7.473  1.1565 -1.8701  1.1962
 6742SOL    HW231689   0.718   1.703   7.603  4.0604 -2.6019  0.5198
 6743SOL     OW31690   1.686   2.770   7.999  0.0676 -0.0478  0.0758
 6743SOL    HW131691   1.654   2.821   8.074 -0.0359 -0.7205  0.4840
 6743SOL    HW231692   1.710   2.687   8.040  1.3339  0.9270  1.3294
 6744SOL     OW31693   3.051   0.761   3.720  0.1383 -0.5042  0.5902
 6744SOL    HW131694   3.034   0.737   3.811 -0.6338 -3.6542 -0.3856
 6744SOL    HW231695   2.989   0.704   3.675 -0.2134  1.2181 -1.1077
 6745SOL     OW31696   4.482   3.391   9.069 -0.0630  0.2213 -0.5284
 6745SOL    HW131697   4.426   3.335   9.016  0.2970 -0.0041 -0.6716
 6745SOL    HW231698   4.566   3.346   9.060 -0.8396 -1.2751 -0.3408
 6746SOL     OW31699   0.527   4.258   4.779  0.4481 -0.4171 -0.1221
 6746SOL    HW131700   0.499   4.168   4.762  0.4278 -0.2999 -0.7016
 6746SOL    HW231701   0.527   4.287   4.688  3.5196  1.5997  0.4850
 6747SOL     OW31702   3.843   0.717  14.255  0.0962 -0.0695  0.2914
 6747SOL    HW131703   3.810   0.629  14.275 -2.2157  1.1187  1.7641
 6747SOL    HW231704   3.898   0.723  14.333  0.3368 -1.6261  0.2407
 6748SOL     OW31705   2.277   0.439   4.085  0.2610 -0.3737 -0.3546
 6748SOL    HW131706   2.312   0.505   4.025 -1.9159 -0.5169 -1.7515
 6748SOL    HW231707   2.341   0.368   4.081 -0.3409 -0.9149 -0.4071
 6749SOL     OW31708   2.373   2.538   7.866 -0.4292  0.0574  0.7745
 6749SOL    HW131709   2.428   2.472   7.908 -0.6306 -1.4692 -1.3263
 6749SOL    HW231710   2.429   2.607   7.833 -1.8201  1.6104  1.6773
 6750SOL     OW31711   4.269   2.726   3.546  0.2466 -0.0748  0.4853
 6750SOL    HW131712   4.310   2.639   3.549 -2.1046 -1.2651 -1.9853
 6750SOL    HW231713   4.200   2.715   3.612 -1.5237  1.6870 -1.1003
 6751SOL     OW31714   0.286   0.902  17.499  0.3577 -0.3858  0.5006
 6751SOL    HW131715   0.300   0.845  17.575 -0.3357  0.4458  1.2427
 6751SOL    HW231716   0.216   0.848  17.464  1.7640 -1.2089 -1.0269
 6752SOL     OW31717   2.576   0.306   2.117 -0.4521 -0.6264 -0.0355
 6752SOL    HW131718   2.579   0.266   2.030  1.3995  1.3370 -0.8554
 6752SOL    HW231719   2.506   0.371   2.110  1.3136  1.2339 -0.3763
 6753SOL     OW31720   2.475   2.639   6.677 -0.7081 -0.2643 -0.5729
 6753SOL    HW131721   2.535   2.648   6.603 -0.4312 -1.9637 -0.5743
 6753SOL    HW231722   2.529   2.667   6.751  0.1030 -0.2513 -1.1713
 6754SOL     OW31723   1.495   1.270   6.940 -0.1799  0.5026  0.7582
 6754SOL    HW131724   1.407   1.272   6.978  0.1099  1.4590  1.3669
 6754SOL    HW231725   1.488   1.336   6.871  2.1460 -0.4983 -0.4359
 6755SOL     OW31726   1.425   3.561   3.520 -0.4875 -0.0055  0.1110
 6755SOL    HW131727   1.444   3.640   3.470  1.2109 -1.5621 -1.7062
 6755SOL    HW231728   1.338   3.540   3.485 -0.2916  0.7384 -0.8090
 6756SOL     OW31729   2.960   3.201  15.782 -0.0903 -0.4258  0.2137
 6756SOL    HW131730   3.045   3.240  15.803 -1.0243  2.4638 -1.4271
 6756SOL    HW231731   2.909   3.216  15.861 -0.8656  0.9208 -0.5544
 6757SOL     OW31732   4.498   3.801   4.357 -0.0144 -0.5005  0.7244
 6757SOL    HW131733   4.514   3.777   4.448 -0.7778 -0.4405  0.8675
 6757SOL    HW231734   4.410   3.837   4.358  0.5614  0.9281  0.3250
 6758SOL     OW31735   3.690   3.909   7.908 -0.0613 -0.2317 -0.7121
 6758SOL    HW131736   3.785   3.916   7.899 -0.4089  1.9863 -2.5513
 6758SOL    HW231737   3.674   3.864   7.991 -0.4262  0.6347 -0.3093
 6759SOL     OW31738   3.383   2.706   0.128  0.4449 -0.3264 -0.0730
 6759SOL    HW131739   3.466   2.659   0.134  0.5188 -0.0956  0.6823
 6759SOL    HW231740   3.420   2.786   0.090 -2.8868  0.5562 -1.4617
 6760SOL     OW31741   3.944   4.631   7.592  0.1493 -0.7110  0.0952
 6760SOL    HW131742   3.880   4.701   7.575  0.8523  0.2085  1.3041
 6760SOL    HW231743   4.018   4.662   7.540  0.5955  1.1851  1.8772
 6761SOL     OW31744   3.758   0.996  11.878 -0.2717  0.7804 -0.0315
 6761SOL    HW131745   3.845   1.035  11.888  0.7747 -1.3805 -0.8619
 6761SOL    HW231746   3.753   0.946  11.959  1.5148 -2.4214 -1.9151
 6762SOL     OW31747   3.212   0.379   6.042  0.1281  0.0897 -0.0170
 6762SOL    HW131748   3.295   0.397   5.998  1.2966  1.5935  2.7860
 6762SOL    HW231749   3.183   0.469   6.056  3.0532  1.1804 -1.1174
 6763SOL     OW31750   4.708   0.497  13.576 -0.0797 -0.2730 -0.0124
 6763SOL    HW131751   4.702   0.418  13.523  1.3227 -0.1695 -0.2995
 6763SOL    HW231752   4.720   0.469  13.667 -0.6730 -2.7222 -0.6935
 6764SOL     OW31753   3.517   0.167   1.383 -0.3940 -0.5184  0.0762
 6764SOL    HW131754   3.510   0.261   1.401  0.3000  0.0699 -2.7688
 6764SOL    HW231755   3.593   0.168   1.326  0.0737 -1.3927  0.6841
 6765SOL     OW31756   3.201   3.290   0.082  0.0427 -0.1525 -0.1066
 6765SOL    HW131757   3.279   3.279   0.135  1.3333  2.2769 -1.5236
 6765SOL    HW231758   3.190   3.202   0.046 -0.6261 -0.2691  0.3748
 6766SOL     OW31759   0.864   2.467   1.488 -0.2773  0.3286 -0.4303
 6766SOL    HW131760   0.875   2.563   1.489 -3.2950  0.6741  0.1624
 6766SOL    HW231761   0.783   2.458   1.438 -0.0314  1.0550 -0.9670
 6767SOL     OW31762   3.643   4.355   3.484  0.0432 -0.6587  0.3425
 6767SOL    HW131763   3.588   4.378   3.408 -0.5758 -0.2441  0.9122
 6767SOL    HW231764   3.622   4.262   3.486 -0.4897 -0.5031  1.6530
 6768SOL     OW31765   1.989   1.500   9.291 -0.3554 -0.2909 -1.0338
 6768SOL    HW131766   2.033   1.584   9.298 -0.1725 -0.6053  1.7094
 6768SOL    HW231767   1.896   1.522   9.282 -0.4607  0.1154  0.9654
 6769SOL     OW31768   3.947   1.768   6.485 -0.1801  0.0729  0.2390
 6769SOL    HW131769   3.960   1.818   6.404 -3.3413 -0.2684 -0.4716
 6769SOL    HW231770   3.887   1.827   6.529  0.6290  1.3543 -0.3778
 6770SOL     OW31771   2.097   4.231   8.239 -0.3151  0.9015 -0.4316
 6770SOL    HW131772   2.150   4.185   8.304  0.2096  2.0497 -0.0572
 6770SOL    HW231773   2.092   4.313   8.287  0.7348 -0.2226  1.6068
 6771SOL     OW31774   4.262   4.458   0.749 -0.0615 -1.1518  0.6354
 6771SOL    HW131775   4.315   4.537   0.764  1.6846 -2.2672  0.2822
 6771SOL    HW231776   4.242   4.469   0.656  1.4976 -1.1409  0.2915
 6772SOL     OW31777   3.886   0.706   8.461 -0.6334 -0.4651 -0.3089
 6772SOL    HW131778   3.841   0.622   8.451 -1.4430  0.1575 -1.9444
 6772SOL    HW231779   3.811   0.764   8.447  0.7936  1.5949  0.5559
 6773SOL     OW31780   1.090   2.339   5.989 -0.0595  0.0111 -0.2827
 6773SOL    HW131781   1.078   2.433   6.000 -1.9658 -0.5232  2.1355
 6773SOL    HW231782   1.093   2.307   6.079  1.6220  1.2314  0.1056
 6774SOL     OW31783   1.916   2.009   3.860  0.1859  0.3218 -0.4694
 6774SOL    HW131784   1.820   2.006   3.856  0.0915  3.4011 -1.0320
 6774SOL    HW231785   1.936   1.959   3.781  1.0446 -2.2408  1.3914
 6775SOL     OW31786   0.942   0.487   6.603 -0.3682 -0.1791  0.5918
 6775SOL    HW131787   1.032   0.471   6.576 -0.2506  0.3661  0.6594
 6775SOL    HW231788   0.953   0.487   6.698 -0.0428  1.2986  0.5493
 6776SOL     OW31789   2.829   3.810   8.965 -0.0144 -0.3702 -0.7275
 6776SOL    HW131790   2.827   3.861   8.883 -1.2845  0.4930 -0.1625
 6776SOL    HW231791   2.892   3.741   8.945  0.1768 -0.4129  0.0586
 6777SOL     OW31792   0.175   2.640   6.333  0.1728  0.1455  0.0315
 6777SOL    HW131793   0.201   2.632   6.242 -0.0456 -1.1785  0.0803
 6777SOL    HW231794   0.245   2.597   6.382 -1.3972 -1.1352  1.1752
 6778SOL     OW31795   1.906   0.092   7.096  0.0053  0.3236  0.3611
 6778SOL    HW131796   1.859   0.081   7.179  2.3384 -0.2508  1.6093
 6778SOL    HW231797   1.994   0.120   7.122  0.5068  0.0751 -1.1099
 6779SOL     OW31798   4.465   1.661  16.546  0.3985 -0.6342  0.7168
 6779SOL    HW131799   4.395   1.702  16.596  0.9217  1.3776 -0.2239
 6779SOL    HW231800   4.530   1.668  16.617  0.1095  0.1515  0.9028
 6780SOL     OW31801   2.433   1.370   6.511  0.0027 -1.0193  0.1018
 6780SOL    HW131802   2.338   1.379   6.506  0.0112  0.0497  1.7265
 6780SOL    HW231803   2.469   1.458   6.498  2.7436 -2.4007 -1.6248
 6781SOL     OW31804   0.198   1.649   1.769 -0.1044 -0.1964  0.1506
 6781SOL    HW131805   0.225   1.729   1.724  2.5141 -1.0679  0.1400
 6781SOL    HW231806   0.271   1.623   1.825  0.6195  3.2582  0.8088
 6782SOL     OW31807   3.919   2.843   1.410  0.2322  0.0995  0.8175
 6782SOL    HW131808   3.897   2.788   1.485  0.8587 -0.3662  0.6617
 6782SOL    HW231809   3.881   2.794   1.337 -1.2984  2.3997  0.0606
 6783SOL     OW31810   0.740   1.241  14.031 -0.0511  0.1832  0.2468
 6783SOL    HW131811   0.694   1.246  14.115  0.4124  1.8654  0.4034
 6783SOL    HW231812   0.787   1.160  14.047 -0.5229  0.0337  0.8495
 6784SOL     OW31813   0.085   1.359   2.548 -0.1679  0.1305  0.0846
 6784SOL    HW131814   0.157   1.314   2.503  0.8307  0.4011  1.4028
 6784SOL    HW231815   0.127   1.402   2.623  1.1632 -0.9632 -0.0250
 6785SOL     OW31816   2.554   1.009  10.785  0.2236  0.0889 -0.1110
 6785SOL    HW131817   2.480   0.951  10.772  1.1656 -0.9963 -0.6644
 6785SOL    HW231818   2.627   0.947  10.788  1.3867  1.5471  1.6274
 6786SOL     OW31819   3.946   0.889   6.805  0.5964 -0.3213 -0.5248
 6786SOL    HW131820   3.994   0.833   6.865  1.8001 -0.1237 -1.2974
 6786SOL    HW231821   4.002   0.896   6.728  0.7398 -0.6685 -0.4517
 6787SOL     OW31822   0.830   4.395   5.194 -0.3098  0.0579 -0.5684
 6787SOL    HW131823   0.785   4.396   5.109  2.1979 -1.5589 -1.9132
 6787SOL    HW231824   0.919   4.412   5.165 -0.3485 -1.6343 -1.7204
 6788SOL     OW31825   0.901   1.462  14.838  0.8560  0.5561  0.5963
 6788SOL    HW131826   0.838   1.440  14.769  1.0949 -1.9330  1.1789
 6788SOL    HW231827   0.842   1.507  14.899 -0.2236 -2.4982  1.8320
 6789SOL     OW31828   1.141   2.883   3.683 -0.0602  0.8065  0.1646
 6789SOL    HW131829   1.096   2.954   3.728  0.5543  1.6581 -0.5611
 6789SOL    HW231830   1.232   2.914   3.679  0.2275 -0.0310  0.0959
 6790SOL     OW31831   2.688   0.874   0.943 -0.3434  0.3891 -0.1875
 6790SOL    HW131832   2.638   0.827   1.009  1.3473  0.4410  1.1428
 6790SOL    HW231833   2.777   0.876   0.978 -0.7655 -0.0049  0.9050
 6791SOL     OW31834   0.121   0.508  16.948  0.0003  0.0425  0.1991
 6791SOL    HW131835   0.153   0.527  16.859  0.8295 -1.0259  0.2726
 6791SOL    HW231836   0.032   0.480  16.923 -0.0643  2.1138 -1.9676
 6792SOL     OW31837   3.222   0.797   3.065  0.2660 -0.6257 -0.1307
 6792SOL    HW131838   3.247   0.710   3.099  3.0294 -0.0822 -0.7305
 6792SOL    HW231839   3.255   0.841   3.144 -2.1866  1.3302 -0.2223
 6793SOL     OW31840   0.443   3.881  15.296 -0.0320  0.3255  0.1878
 6793SOL    HW131841   0.522   3.920  15.333  0.3698 -2.2043  2.0164
 6793SOL    HW231842   0.426   3.914  15.208  0.4957  0.2167  0.0439
 6794SOL     OW31843   4.234   0.623  11.619 -0.5333  0.3146 -0.1400
 6794SOL    HW131844   4.159   0.568  11.593  2.4303 -3.2055 -1.2389
 6794SOL    HW231845   4.180   0.693  11.656 -0.7071  0.7422 -1.2146
 6795SOL     OW31846   0.708   2.940   4.008 -0.4892 -0.2977 -0.9654
 6795SOL    HW131847   0.764   2.862   4.000 -0.1104 -0.4872  3.0974
 6795SOL    HW231848   0.774   3.003   4.039 -0.1328 -1.2383  0.1915
 6796SOL     OW31849   0.832   4.189   5.372  0.0071 -0.2280  0.4105
 6796SOL    HW131850   0.821   4.273   5.326 -0.3164 -0.2197  0.5007
 6796SOL    HW231851   0.918   4.207   5.410  1.1684 -1.3198 -1.7313
 6797SOL     OW31852   0.521   4.228   6.667 -0.5490 -0.3352  0.0963
 6797SOL    HW131853   0.546   4.167   6.597  3.2793  3.3811 -1.7835
 6797SOL    HW231854   0.588   4.200   6.729  1.5814  1.2730 -1.4959
 6798SOL     OW31855   1.590   2.741   4.137  0.2977 -0.0860 -0.2405
 6798SOL    HW131856   1.659   2.676   4.149 -0.5814 -1.3321 -1.9447
 6798SOL    HW231857   1.520   2.687   4.098  1.3641 -0.0860 -2.1336
 6799SOL     OW31858   3.475   2.236   8.646 -0.7223 -0.2157  0.2158
 6799SOL    HW131859   3.396   2.282   8.619  0.4045  1.4469 -0.1960
 6799SOL    HW231860   3.539   2.307   8.649 -2.4162  1.3475 -0.9792
 6800SOL     OW31861   0.531   3.343   7.113 -0.2971  0.1957 -0.0686
 6800SOL    HW131862   0.466   3.406   7.145  1.2870 -0.1097  3.7307
 6800SOL    HW231863   0.568   3.389   7.038 -0.2734 -0.1972 -0.2949
 6801SOL     OW31864   0.777   1.565  12.804  0.2892 -0.4028 -0.0069
 6801SOL    HW131865   0.860   1.605  12.777 -0.2601 -0.0344 -1.1682
 6801SOL    HW231866   0.738   1.634  12.858 -1.6910 -0.1746 -1.7294
 6802SOL     OW31867   2.474   1.054  12.632  0.4899 -0.4005  0.2308
 6802SOL    HW131868   2.554   1.107  12.629  0.4136 -0.3983 -1.3213
 6802SOL    HW231869   2.406   1.109  12.594  3.6788  2.3838 -1.4587
 6803SOL     OW31870   2.743   3.547  14.522  0.6198  0.0933 -0.5241
 6803SOL    HW131871   2.681   3.618  14.511 -1.9979 -2.0228  0.5531
 6803SOL    HW231872   2.688   3.470  14.504 -0.9348  1.3432 -1.0561
 6804SOL     OW31873   1.631   4.502   4.043  0.9590 -0.1484 -0.0680
 6804SOL    HW131874   1.606   4.568   4.108  0.1307 -1.2180  0.7050
 6804SOL    HW231875   1.676   4.439   4.100  1.4477  2.1841  2.0994
 6805SOL     OW31876   0.145   3.054   7.199 -0.5583  0.4165 -0.4758
 6805SOL    HW131877   0.186   3.064   7.113 -1.0062 -0.3582 -0.7686
 6805SOL    HW231878   0.220   3.039   7.256 -1.7777  0.8629  1.2343
 6806SOL     OW31879   3.741   1.438   8.354  0.4869  0.3171 -0.1883
 6806SOL    HW131880   3.721   1.445   8.448 -2.4402 -2.0890 -0.6484
 6806SOL    HW231881   3.776   1.524   8.331  0.6091  0.1050 -0.7807
 6807SOL     OW31882   3.346   3.612  16.632  0.4248 -0.3827 -0.4491
 6807SOL    HW131883   3.430   3.654  16.616 -0.3755  0.9970 -0.9216
 6807SOL    HW231884   3.358   3.566  16.716  1.3453 -2.0882 -1.5037
 6808SOL     OW31885   4.313   0.507   3.248  0.4581  0.2106  0.3536
 6808SOL    HW131886   4.348   0.485   3.162 -1.5958 -1.2465 -0.1151
 6808SOL    HW231887   4.242   0.444   3.262  1.3940 -0.7587  0.7995
 6809SOL     OW31888   2.203   0.384   2.305  0.3932  0.2760 -0.2644
 6809SOL    HW131889   2.261   0.428   2.243 -1.1429  1.7598 -0.6313
 6809SOL    HW231890   2.209   0.441   2.382  0.2920 -0.8741  0.6011
 6810SOL     OW31891   2.523   2.745  12.060 -0.4924  0.2780  0.0897
 6810SOL    HW131892   2.484   2.694  12.131 -0.3889 -3.0458 -2.2466
 6810SOL    HW231893   2.555   2.679  11.999  0.5822  0.9605 -0.0930
 6811SOL     OW31894   1.702   3.146   6.510  0.2766  0.5763 -0.1173
 6811SOL    HW131895   1.717   3.176   6.600 -3.6015  1.2831  0.3018
 6811SOL    HW231896   1.788   3.121   6.476  0.1333  0.7075 -0.5851
 6812SOL     OW31897   2.715   1.336   1.150  0.0376  0.5125 -0.1373
 6812SOL    HW131898   2.794   1.293   1.117 -0.7101 -0.4087 -0.7292
 6812SOL    HW231899   2.651   1.266   1.138  0.1623  0.1810  1.0653
 6813SOL     OW31900   2.896   0.311   4.913 -0.1757 -0.2889 -0.2202
 6813SOL    HW131901   2.832   0.377   4.938 -1.3774 -1.2061 -0.8395
 6813SOL    HW231902   2.979   0.351   4.938 -0.0732 -0.2244 -0.6608
 6814SOL     OW31903   0.677   3.767   6.001  0.2202 -0.1535  0.7176
 6814SOL    HW131904   0.702   3.845   5.953 -0.8602 -0.4157 -0.2842
 6814SOL    HW231905   0.582   3.776   5.993  0.1725  0.3005  1.8610
 6815SOL     OW31906   3.037   4.583   3.142  0.0137  0.1526  0.4964
 6815SOL    HW131907   3.044   4.672   3.106 -2.1785 -0.8996 -2.5742
 6815SOL    HW231908   3.117   4.574   3.193  0.7012 -1.4241 -0.8483
 6816SOL     OW31909   1.076   2.683  10.544  0.3912 -1.2471 -0.2907
 6816SOL    HW131910   1.084   2.677  10.639 -2.2066  1.6083  0.0993
 6816SOL    HW231911   1.024   2.604  10.530 -1.0208 -0.1497 -1.2571
 6817SOL     OW31912   2.474   1.333   5.646  0.2320 -0.6825  0.6026
 6817SOL    HW131913   2.490   1.322   5.740 -1.0940  0.2738  0.9460
 6817SOL    HW231914   2.379   1.321   5.642 -0.0021  1.1110  0.6597
 6818SOL     OW31915   2.809   0.334   3.190  0.2969  0.1308  0.0954
 6818SOL    HW131916   2.760   0.377   3.260 -0.8889  0.5349 -1.0022
 6818SOL    HW231917   2.802   0.395   3.116 -0.7769  0.3966  0.4197
 6819SOL     OW31918   1.814   4.170   8.445 -0.0958 -0.2876  0.0501
 6819SOL    HW131919   1.776   4.239   8.390  0.4810 -0.3726 -0.4564
 6819SOL    HW231920   1.849   4.211   8.524 -0.5809  0.3909 -0.0839
 6820SOL     OW31921   0.293   1.329  11.983  0.5378 -0.3728  0.4053
 6820SOL    HW131922   0.332   1.249  11.949 -1.4162 -0.9611 -0.4025
 6820SOL    HW231923   0.295   1.313  12.078  0.0305 -2.3259  0.0845
 6821SOL     OW31924   2.192   0.626   2.913  0.4413 -0.1844 -0.0192
 6821SOL    HW131925   2.103   0.651   2.935  0.5163  1.3478 -1.4061
 6821SOL    HW231926   2.183   0.631   2.817  4.0960  0.9829 -0.3213
 6822SOL     OW31927   2.116   2.767   5.637  0.2285  0.5648 -0.9901
 6822SOL    HW131928   2.060   2.762   5.714 -0.6725 -2.6802 -1.8541
 6822SOL    HW231929   2.093   2.676   5.619  1.0279 -0.3312  2.4575
 6823SOL     OW31930   4.618   0.867   7.110 -0.6023 -0.8446 -0.4773
 6823SOL    HW131931   4.664   0.943   7.144 -0.4586 -0.9241 -0.4921
 6823SOL    HW231932   4.598   0.815   7.188  2.2971 -1.3836 -0.0652
 6824SOL     OW31933   1.993   3.892   3.090  0.5025 -0.0260 -0.0402
 6824SOL    HW131934   1.939   3.970   3.073 -0.7699 -0.7801  0.5314
 6824SOL    HW231935   1.927   3.823   3.085  0.4409  0.0895 -0.8437
 6825SOL     OW31936   4.244   1.580  16.919 -0.0112 -0.2527 -0.2095
 6825SOL    HW131937   4.247   1.492  16.957 -1.3416  0.9593  2.6636
 6825SOL    HW231938   4.246   1.638  16.995 -0.3967  0.1277 -0.4930
 6826SOL     OW31939   2.347   3.574  11.220  1.0166 -0.3302  0.2702
 6826SOL    HW131940   2.336   3.655  11.271 -1.3864 -1.1407  1.0740
 6826SOL    HW231941   2.344   3.605  11.130 -2.7999  0.9117  0.8048
 6827SOL     OW31942   3.716   0.235   4.104  0.0811 -0.4422 -0.0066
 6827SOL    HW131943   3.750   0.173   4.169  1.5343  0.1871 -0.1591
 6827SOL    HW231944   3.622   0.234   4.122  0.8158 -1.6356  3.7539
 6828SOL     OW31945   3.714   2.443  16.355 -0.2029  0.5179 -0.7375
 6828SOL    HW131946   3.659   2.381  16.308 -2.1444 -0.6928  3.1214
 6828SOL    HW231947   3.759   2.489  16.284 -0.1427 -0.9993 -1.6951
 6829SOL     OW31948   1.934   1.909  16.623 -0.3245  0.1409 -0.7024
 6829SOL    HW131949   1.850   1.931  16.662 -1.2230 -2.5345 -1.1771
 6829SOL    HW231950   1.924   1.917  16.528 -0.8619 -0.5282 -0.6977
 6830SOL     OW31951   0.773   3.186   3.130 -0.3245  0.2797  0.3134
 6830SOL    HW131952   0.695   3.241   3.140 -0.3536 -0.1615  2.4199
 6830SOL    HW231953   0.758   3.163   3.038  0.6748  0.0565  0.2131
 6831SOL     OW31954   0.077   1.735   7.994 -0.0020 -0.1347  0.9734
 6831SOL    HW131955   0.090   1.812   8.049 -1.6219  0.5128  0.4681
 6831SOL    HW231956   4.711   1.755   7.964  0.6908  3.7857  1.4935
 6832SOL     OW31957   0.865   3.725  16.702 -1.4035  0.3631  0.6524
 6832SOL    HW131958   0.939   3.705  16.644 -1.1473  0.0401  1.0886
 6832SOL    HW231959   0.895   3.797  16.758  0.7411 -1.3229  1.6584
 6833SOL     OW31960   4.276   2.557  11.155  0.5597 -0.5178 -0.1811
 6833SOL    HW131961   4.351   2.502  11.176 -0.1099 -1.8040 -1.0894
 6833SOL    HW231962   4.230   2.570  11.238 -0.6045 -3.4898 -0.3561
 6834SOL     OW31963   0.706   4.374   4.967 -0.4972  0.4435  0.0835
 6834SOL    HW131964   0.748   4.413   4.890 -0.7898 -1.3561 -0.9911
 6834SOL    HW231965   0.637   4.324   4.924 -2.0841  0.4110  2.6813
 6835SOL     OW31966   3.663   3.169   7.074  0.4692 -0.3768  0.0890
 6835SOL    HW131967   3.721   3.235   7.036  0.3963  1.1571  2.5992
 6835SOL    HW231968   3.590   3.167   7.013  0.0709  2.5832  0.4608
 6836SOL     OW31969   0.436   1.298   3.292 -0.2166  0.0487  0.4140
 6836SOL    HW131970   0.410   1.343   3.373 -0.9065  1.3179 -0.5035
 6836SOL    HW231971   0.366   1.233   3.290 -1.3141  1.1997  0.9183
 6837SOL     OW31972   2.451   4.110   4.877 -0.3597  0.5130  0.1806
 6837SOL    HW131973   2.396   4.066   4.942 -0.0747  0.7391  0.5810
 6837SOL    HW231974   2.529   4.109   4.933 -0.5109 -0.8144  0.3844
 6838SOL     OW31975   2.876   2.612   7.171 -0.0141 -0.1595  0.4178
 6838SOL    HW131976   2.873   2.538   7.110  2.6608  0.7274 -0.7813
 6838SOL    HW231977   2.877   2.568   7.256 -0.7075 -0.5093  0.2467
 6839SOL     OW31978   1.384   0.628   0.588 -0.1383 -0.0485  0.4604
 6839SOL    HW131979   1.324   0.623   0.514  1.2520 -0.9936 -0.6164
 6839SOL    HW231980   1.400   0.721   0.598 -1.0397  0.0232  1.1452
 6840SOL     OW31981   2.104   1.771  10.357 -0.1030  0.1854  0.5174
 6840SOL    HW131982   2.199   1.781  10.363 -0.0394  0.9984 -2.0218
 6840SOL    HW231983   2.090   1.811  10.271 -1.3115 -1.4873 -0.0718
 6841SOL     OW31984   0.732   3.688   5.542  0.5457 -0.2559  0.3083
 6841SOL    HW131985   0.807   3.746   5.555 -1.0244  1.7937  0.2110
 6841SOL    HW231986   0.744   3.665   5.450  1.3537  1.6629 -0.0664
 6842SOL     OW31987   4.220   3.629   2.423 -0.0972 -0.1020 -0.4102
 6842SOL    HW131988   4.201   3.619   2.516 -0.4617  0.1510 -0.4580
 6842SOL    HW231989   4.239   3.722   2.414 -0.4073  0.0630  0.5740
 6843SOL     OW31990   3.793   2.725  15.314  0.6046  0.0680  0.2974
 6843SOL    HW131991   3.809   2.819  15.317  1.8274 -0.1245 -0.2575
 6843SOL    HW231992   3.840   2.699  15.235  0.0721  2.8238 -0.9104
 6844SOL     OW31993   3.653   2.898   6.034 -0.4597  0.0331  0.6072
 6844SOL    HW131994   3.698   2.960   5.977 -0.3633  0.1057  0.7617
 6844SOL    HW231995   3.715   2.900   6.107 -1.2665  1.4588  1.2650
 6845SOL     OW31996   4.214   0.016   4.206 -0.0095  0.2567 -0.0763
 6845SOL    HW131997   4.304   0.007   4.175 -0.2663  0.5246 -0.8937
 6845SOL    HW231998   4.220   0.085   4.272 -1.1062  1.4964 -1.2869
 6846SOL     OW31999   4.491   3.734   2.974  0.1667 -0.2780  0.4888
 6846SOL    HW132000   4.561   3.680   3.010 -0.8378 -1.5805  0.4571
 6846SOL    HW232001   4.524   3.819   2.943 -3.9431  0.5500 -1.7809
 6847SOL     OW32002   0.821   4.133   6.105  0.4516 -0.0618  0.8848
 6847SOL    HW132003   0.833   4.077   6.029 -0.0108  0.9461  0.0757
 6847SOL    HW232004   0.891   4.099   6.162 -0.6528 -0.4175  2.0271
 6848SOL     OW32005   3.860   3.293  13.763 -0.2985  0.6592  0.3264
 6848SOL    HW132006   3.863   3.198  13.756 -1.1107  0.7727 -1.5250
 6848SOL    HW232007   3.784   3.310  13.819  1.0689 -1.5256  2.8180
 6849SOL     OW32008   1.271   0.843  14.138 -0.4787 -0.0101  0.9162
 6849SOL    HW132009   1.277   0.750  14.115  0.7098  0.1790  0.4658
 6849SOL    HW232010   1.358   0.850  14.176  0.2551 -0.9984 -0.6097
 6850SOL     OW32011   4.226   3.346  12.703 -0.1866 -0.1896 -0.2370
 6850SOL    HW132012   4.246   3.342  12.610 -0.4025  0.9418 -0.3333
 6850SOL    HW232013   4.290   3.412  12.730 -2.6557  1.2264  2.2537
 6851SOL     OW32014   1.408   4.555   0.719  0.3933 -0.0417 -0.7290
 6851SOL    HW132015   1.499   4.527   0.705  0.3317  0.3245 -1.8309
 6851SOL    HW232016   1.372   4.518   0.639  1.4980 -1.1943 -0.7030
 6852SOL     OW32017   3.355   0.883   9.221  0.0457  1.0349 -0.2431
 6852SOL    HW132018   3.410   0.819   9.176 -2.1481 -0.9942 -0.0294
 6852SOL    HW232019   3.308   0.829   9.285 -0.9338  3.2226  0.8490
 6853SOL     OW32020   0.920   4.016  17.568 -0.1842 -0.3302  0.2620
 6853SOL    HW132021   0.966   4.076  17.626  0.2967 -2.5021  2.1617
 6853SOL    HW232022   0.832   4.052  17.564 -1.2966 -2.8113  2.1642
 6854SOL     OW32023   0.670   3.874   2.844 -0.0712  0.2969  0.4145
 6854SOL    HW132024   0.667   3.791   2.890  0.6328 -0.6000 -1.1644
 6854SOL    HW232025   0.595   3.917   2.884  0.9220  1.7981  0.6784
 6855SOL     OW32026   2.039   3.909   2.504  0.7506  0.0088  0.4033
 6855SOL    HW132027   2.007   3.963   2.576  2.3058  0.5835  0.6709
 6855SOL    HW232028   2.114   3.863   2.543  1.4067  1.3247  0.6958
 6856SOL     OW32029   4.595   4.717   2.047 -0.4831  0.1699 -0.3448
 6856SOL    HW132030   4.590   4.671   1.963  0.2027 -0.7873  0.1367
 6856SOL    HW232031   4.513   0.044   2.041 -1.0345 -0.7192 -0.0819
 6857SOL     OW32032   3.872   3.414   6.718 -0.3890  0.1102 -0.7544
 6857SOL    HW132033   3.943   3.399   6.656 -1.6627 -1.7179 -1.7605
 6857SOL    HW232034   3.807   3.350   6.691  1.7156 -1.7982 -1.3005
 6858SOL     OW32035   0.262   1.461   2.742 -0.0712 -0.0327  0.0803
 6858SOL    HW132036   0.350   1.443   2.776  0.7033  1.1720 -1.2324
 6858SOL    HW232037   0.226   1.524   2.803  2.1014 -0.4420  1.7797
 6859SOL     OW32038   1.836   4.505   1.936  0.4154 -0.0361  0.0804
 6859SOL    HW132039   1.925   4.533   1.918 -0.4218  1.2759 -2.1073
 6859SOL    HW232040   1.830   4.411   1.953 -1.1243  0.1526  0.6437
 6860SOL     OW32041   3.302   0.405   4.422 -0.2483 -0.5144 -0.0862
 6860SOL    HW132042   3.310   0.456   4.503 -0.4370 -0.7675  0.0910
 6860SOL    HW232043   3.247   0.461   4.368 -1.4398  1.0849  2.7537
 6861SOL     OW32044   1.218   0.578   0.382  0.1888  0.3929 -0.1821
 6861SOL    HW132045   1.212   0.544   0.293  0.6500  0.6816 -0.3219
 6861SOL    HW232046   1.172   0.510   0.431  1.8532  0.5241  1.5804
 6862SOL     OW32047   1.944   0.295   4.561 -0.1550  0.4341  0.6805
 6862SOL    HW132048   1.954   0.273   4.469 -1.2770 -2.8746  1.3302
 6862SOL    HW232049   1.868   0.352   4.555 -0.6012 -0.2957 -0.5033
 6863SOL     OW32050   4.453   1.617  16.269 -0.2395  0.0296 -0.4868
 6863SOL    HW132051   4.446   1.659  16.355  1.3873 -2.1032  0.6570
 6863SOL    HW232052   4.508   1.545  16.298 -0.1243 -0.6823 -2.5073
 6864SOL     OW32053   2.324   2.105  11.946 -0.0246 -0.4120 -0.7254
 6864SOL    HW132054   2.270   2.161  11.890  1.1092  0.2073 -1.1998
 6864SOL    HW232055   2.256   2.038  11.956 -0.3612  0.0575  0.1083
 6865SOL     OW32056   0.496   3.290   3.209 -0.1142 -0.3165 -0.5475
 6865SOL    HW132057   0.467   3.378   3.233  1.9423  0.4839 -0.9942
 6865SOL    HW232058   0.484   3.238   3.289 -2.3167  2.4372  0.8901
 6866SOL     OW32059   1.182   3.000   4.032 -0.3152 -0.0896  0.1186
 6866SOL    HW132060   1.256   2.997   4.092  0.6292 -3.3668 -1.1906
 6866SOL    HW232061   1.170   2.914   3.993  0.0374  0.1688 -0.5533
 6867SOL     OW32062   4.515   3.998   2.564  0.1024  0.3752  0.2385
 6867SOL    HW132063   4.566   4.075   2.539  1.8536 -0.7703  0.3680
 6867SOL    HW232064   4.587   3.936   2.570  0.7679  1.1909  0.6248
 6868SOL     OW32065   3.259   2.046   8.046  0.1444 -0.4877  0.5991
 6868SOL    HW132066   3.322   2.108   8.084 -1.0702  1.8442 -1.2658
 6868SOL    HW232067   3.272   2.054   7.952 -1.7394 -0.2552  0.3759
 6869SOL     OW32068   2.937   0.704  15.108 -0.1992 -0.1052  0.5194
 6869SOL    HW132069   2.875   0.778  15.104  1.5105  1.2279 -1.2595
 6869SOL    HW232070   2.867   0.640  15.118  0.0502 -0.4987 -0.2884
 6870SOL     OW32071   2.377   2.283   9.401 -0.2040  0.1589 -0.0290
 6870SOL    HW132072   2.398   2.364   9.447  0.1039 -0.6164  1.1791
 6870SOL    HW232073   2.421   2.214   9.450  1.6071  1.1522 -0.2256
 6871SOL     OW32074   0.938   1.341   9.459  0.5881  0.1032  0.3933
 6871SOL    HW132075   1.018   1.291   9.477 -0.2964 -0.5265  2.6090
 6871SOL    HW232076   0.947   1.423   9.508 -1.7001 -0.3939  1.6429
 6872SOL     OW32077   0.381   3.055   2.602 -0.4587 -0.1207  0.7325
 6872SOL    HW132078   0.297   3.093   2.627 -0.6867 -0.9506  1.2167
 6872SOL    HW232079   0.360   2.962   2.598  0.8085 -0.3094 -1.3395
 6873SOL     OW32080   1.482   1.273  16.632 -0.3150  0.3656  0.5135
 6873SOL    HW132081   1.458   1.352  16.584  0.5626 -0.9729 -2.1369
 6873SOL    HW232082   1.504   1.218  16.557  0.1076  2.9169 -1.2255
 6874SOL     OW32083   4.466   1.369   6.104 -0.9509 -0.5631 -0.0437
 6874SOL    HW132084   4.406   1.350   6.033 -0.1345 -0.8843 -0.6479
 6874SOL    HW232085   4.539   1.411   6.058 -0.6064 -1.9950 -0.7906
 6875SOL     OW32086   3.173   2.004   4.065  0.8027  0.3741 -0.2820
 6875SOL    HW132087   3.157   2.087   4.022 -0.2248  0.4916  0.3178
 6875SOL    HW232088   3.150   1.939   3.998  1.7735  1.8278 -2.0223
 6876SOL     OW32089   4.533   2.652   2.556  0.2295 -0.2309  0.0889
 6876SOL    HW132090   4.521   2.642   2.462  0.0858  0.4151  0.0352
 6876SOL    HW232091   4.517   2.562   2.583 -1.6639 -0.1594 -0.7979
 6877SOL     OW32092   2.092   1.669  10.619 -0.4692 -0.0604 -0.2289
 6877SOL    HW132093   2.131   1.702  10.538  1.1902 -1.0438  0.1729
 6877SOL    HW232094   2.018   1.617  10.587 -0.1786 -1.6035  1.5991
 6878SOL     OW32095   4.463   3.351  17.414 -0.1716 -0.3124  0.4702
 6878SOL    HW132096   4.399   3.296  17.369  0.1452 -0.1774 -0.1439
 6878SOL    HW232097   4.445   3.327  17.505  1.9448 -1.4258  0.6062
 6879SOL     OW32098   4.436   2.858   6.921  0.0228  0.6244 -0.4533
 6879SOL    HW132099   4.410   2.767   6.904 -3.3028  1.3083  1.0915
 6879SOL    HW232100   4.348   2.894   6.931 -0.8403 -1.8809  0.9965
 6880SOL     OW32101   1.653   2.974   4.253 -0.1163 -0.1210  0.3540
 6880SOL    HW132102   1.567   2.991   4.215 -1.1182  0.8938  3.0427
 6880SOL    HW232103   1.653   2.880   4.237 -1.4683  0.1729 -1.3565
 6881SOL     OW32104   1.639   2.836   2.851  0.5684  0.4750  0.2138
 6881SOL    HW132105   1.622   2.847   2.757  1.0514  1.4677  0.2409
 6881SOL    HW232106   1.552   2.858   2.884 -0.1555  1.5650 -2.4206
 6882SOL     OW32107   1.363   4.577   6.390  0.3312 -0.2333  0.5955
 6882SOL    HW132108   1.331   4.582   6.300  0.9191 -1.6150  0.3038
 6882SOL    HW232109   1.452   4.544   6.376  0.6364  0.5739  0.6799
 6883SOL     OW32110   1.795   1.577   5.238 -0.3013 -0.1909 -0.1797
 6883SOL    HW132111   1.711   1.533   5.253 -0.0529 -1.3415 -2.1725
 6883SOL    HW232112   1.854   1.511   5.274 -2.1024  0.2474  3.5525
 6884SOL     OW32113   2.928   1.003  11.698 -1.0296 -0.4175 -0.2136
 6884SOL    HW132114   2.976   1.008  11.615 -0.3728 -0.3701  0.1677
 6884SOL    HW232115   2.915   0.908  11.704 -1.9057 -0.3266 -0.5641
 6885SOL     OW32116   2.126   3.555   7.260 -0.0196  0.3627  0.2512
 6885SOL    HW132117   2.203   3.500   7.275 -0.7207 -0.1715  1.8384
 6885SOL    HW232118   2.060   3.487   7.269  0.9141 -0.6913 -0.8427
 6886SOL     OW32119   2.841   4.526  11.489  0.3194 -0.0267  0.4348
 6886SOL    HW132120   2.792   4.446  11.471  0.5996 -0.5767  2.1872
 6886SOL    HW232121   2.852   4.522  11.584 -0.5360 -0.8173  0.5053
 6887SOL     OW32122   4.132   2.899  15.474  0.3750  0.3186 -0.1436
 6887SOL    HW132123   4.172   2.850  15.545  0.1508 -2.0436 -1.6537
 6887SOL    HW232124   4.140   2.849  15.393  1.1350 -2.6000  1.7281
 6888SOL     OW32125   0.511   3.110   5.037  0.1393  0.1263 -0.4689
 6888SOL    HW132126   0.424   3.146   5.019  0.8383  1.9333 -0.2648
 6888SOL    HW232127   0.558   3.193   5.026 -1.7577  1.0463 -1.5501
 6889SOL     OW32128   0.222   0.510   9.395 -0.1100  0.2674  0.2557
 6889SOL    HW132129   0.143   0.494   9.446 -0.1608 -1.4533 -0.3354
 6889SOL    HW232130   0.246   0.428   9.351  1.1784  1.5820 -1.5228
 6890SOL     OW32131   2.530   1.951   4.961 -0.1523 -0.4190 -0.2596
 6890SOL    HW132132   2.468   1.884   4.934 -0.7145  0.0037 -0.0161
 6890SOL    HW232133   2.614   1.906   4.954  0.1789  0.2644 -0.7338
 6891SOL     OW32134   3.235   2.341   8.567  0.5279 -0.4921 -0.4509
 6891SOL    HW132135   3.201   2.352   8.656  0.7548  0.6946 -0.5218
 6891SOL    HW232136   3.166   2.291   8.523 -1.2146  0.2710  1.4189
 6892SOL     OW32137   3.440   2.359   3.617  0.3657  0.6325 -0.0641
 6892SOL    HW132138   3.374   2.426   3.630 -0.3607  0.2297 -1.6900
 6892SOL    HW232139   3.505   2.389   3.680  0.1965  0.1873  0.3228
 6893SOL     OW32140   1.009   0.894  12.268  0.4600 -0.0987 -0.0013
 6893SOL    HW132141   0.920   0.917  12.240 -0.1024 -0.8162  1.2107
 6893SOL    HW232142   0.996   0.858  12.355 -2.4336 -0.1693 -0.4603
 6894SOL     OW32143   3.449   4.203   3.855  0.4091 -0.4574  0.2444
 6894SOL    HW132144   3.542   4.185   3.843  0.1972 -0.8957 -0.7168
 6894SOL    HW232145   3.409   4.177   3.773 -2.2508 -3.0747  2.3868
 6895SOL     OW32146   2.089   2.876   9.176 -0.4743 -0.1621  0.1615
 6895SOL    HW132147   2.117   2.956   9.222 -0.6405 -0.5472  0.9368
 6895SOL    HW232148   2.138   2.888   9.095  2.1802  0.9590  1.9274
 6896SOL     OW32149   0.127   2.508  14.662 -0.0753  0.1713 -0.0321
 6896SOL    HW132150   0.172   2.583  14.700  1.0184 -1.2049  1.3860
 6896SOL    HW232151   0.073   2.481  14.735 -0.0659 -1.2102 -0.5291
 6897SOL     OW32152   2.120   4.343   7.005  0.5795 -0.7198  0.1603
 6897SOL    HW132153   2.189   4.300   7.056 -0.1531 -1.1919  0.7624
 6897SOL    HW232154   2.142   4.435   7.014  0.4910 -0.8231  1.4060
 6898SOL     OW32155   3.949   2.455   4.256  0.3916 -0.2615  0.9557
 6898SOL    HW132156   3.894   2.508   4.314  0.3072 -0.6087  1.1905
 6898SOL    HW232157   3.902   2.372   4.249  1.1367 -0.6825  0.9094
 6899SOL     OW32158   2.647   0.139   5.952  0.1745  0.1471 -0.5480
 6899SOL    HW132159   2.611   0.099   6.031  1.5271  0.6396  0.3120
 6899SOL    HW232160   2.665   0.229   5.980 -2.3344  0.1102  1.1341
 6900SOL     OW32161   2.987   1.803  15.944 -0.4664 -0.1217  0.0369
 6900SOL    HW132162   2.954   1.855  15.871 -1.0135  3.9157  3.1966
 6900SOL    HW232163   2.933   1.832  16.017 -0.0670  0.6921  0.0136
 6901SOL     OW32164   3.339   3.304   0.633  0.0464 -0.0287 -0.1129
 6901SOL    HW132165   3.418   3.253   0.652 -0.0530  0.1615  0.8013
 6901SOL    HW232166   3.266   3.275   0.687 -1.6993 -1.1698 -3.0966
 6902SOL     OW32167   2.186   3.488  15.355  0.5329 -0.0445 -0.5337
 6902SOL    HW132168   2.231   3.562  15.315  1.7289  1.3363  3.3876
 6902SOL    HW232169   2.192   3.426  15.283  0.3561 -0.5725 -0.0934
 6903SOL     OW32170   3.670   4.103   3.722 -0.4359 -0.4330 -0.1516
 6903SOL    HW132171   3.743   4.041   3.727  0.8105  1.0502  0.2378
 6903SOL    HW232172   3.719   4.185   3.722 -0.8866 -0.1638 -0.5003
 6904SOL     OW32173   3.913   2.404   6.169  0.2106 -0.7462  0.0708
 6904SOL    HW132174   3.861   2.339   6.121 -0.9658  1.0901 -1.1448
 6904SOL    HW232175   3.973   2.448   6.109 -0.4136  0.1152  0.0737
 6905SOL     OW32176   0.623   0.178  10.664 -0.8338  0.0618  0.4938
 6905SOL    HW132177   0.575   0.250  10.624 -1.1189  0.0206  0.7611
 6905SOL    HW232178   0.698   0.234  10.683 -2.8063  1.5384  3.9365
 6906SOL     OW32179   2.530   3.559   3.182  0.8181  0.3031 -0.2104
 6906SOL    HW132180   2.558   3.471   3.157  0.7369  0.9570 -2.6121
 6906SOL    HW232181   2.470   3.586   3.113 -0.1310  0.3324  0.6158
 6907SOL     OW32182   4.146   2.555   7.730 -0.6936  0.1611 -0.4375
 6907SOL    HW132183   4.083   2.614   7.688  0.2284  0.9654 -0.6954
 6907SOL    HW232184   4.085   2.488   7.760 -0.4248 -0.1773 -0.6378
 6908SOL     OW32185   1.823   1.784   7.523 -0.5165 -0.0815 -0.4330
 6908SOL    HW132186   1.777   1.707   7.557 -1.5918  0.8806  0.3222
 6908SOL    HW232187   1.784   1.862   7.563  0.8894  1.1072 -1.4004
 6909SOL     OW32188   0.137   2.223   2.116 -0.5533 -0.3190  0.1723
 6909SOL    HW132189   0.109   2.278   2.189 -2.2004 -2.8623  1.4823
 6909SOL    HW232190   0.198   2.165   2.162  0.6392 -0.0356 -1.0642
 6910SOL     OW32191   0.937   2.039  14.238 -0.1977 -0.0518  0.2437
 6910SOL    HW132192   0.914   2.034  14.145 -1.2047  0.0533  0.4848
 6910SOL    HW232193   0.885   2.111  14.274 -0.8521 -0.9645  1.1072
 6911SOL     OW32194   2.627   3.909   8.221 -0.3032  0.5533 -0.0190
 6911SOL    HW132195   2.570   3.974   8.260 -0.2021 -0.8992  2.5809
 6911SOL    HW232196   2.584   3.903   8.136 -2.3391 -1.1072  1.1279
 6912SOL     OW32197   0.338   4.633   6.180  0.2047 -0.3035 -0.6452
 6912SOL    HW132198   0.317   4.549   6.140  2.1245 -0.3730 -1.4795
 6912SOL    HW232199   0.429   4.639   6.152  0.4553 -0.9465  0.0199
 6913SOL     OW32200   2.076   3.285  17.541 -0.0784  0.0442 -0.5641
 6913SOL    HW132201   2.045   3.255  17.627 -0.3752 -2.3199 -1.4910
 6913SOL    HW232202   1.988   3.293  17.503  0.1585  1.8392 -0.6978
 6914SOL     OW32203   0.337   0.189   8.822 -0.5828 -0.7601 -0.1876
 6914SOL    HW132204   0.387   0.258   8.777 -1.1590 -2.0346 -2.7879
 6914SOL    HW232205   0.288   0.242   8.884  0.9058  2.0755 -1.3993
 6915SOL     OW32206   1.065   1.752   7.627 -0.2933  0.6614  0.0396
 6915SOL    HW132207   1.090   1.703   7.548 -0.2631 -0.3570  0.6953
 6915SOL    HW232208   1.066   1.843   7.595  0.4473  0.5794 -0.1786
 6916SOL     OW32209   3.447   1.400  12.674  0.5774 -0.3540  0.5317
 6916SOL    HW132210   3.520   1.463  12.670 -0.2126  0.4695 -0.8713
 6916SOL    HW232211   3.395   1.425  12.597  0.6471  1.5609  1.1015
 6917SOL     OW32212   3.975   2.938  11.777 -0.6861  0.2578  0.5404
 6917SOL    HW132213   3.952   3.028  11.752 -3.7657 -0.3367  1.2083
 6917SOL    HW232214   3.894   2.906  11.818  1.1494 -1.3623  2.8854
 6918SOL     OW32215   0.639   3.173   2.715 -0.0827 -0.3089  0.3313
 6918SOL    HW132216   0.666   3.115   2.786 -0.2582  0.6182  1.1509
 6918SOL    HW232217   0.573   3.124   2.667 -1.8330  1.6668  0.6870
 6919SOL     OW32218   0.497   2.762   5.668  0.3921 -0.2294  0.1641
 6919SOL    HW132219   0.425   2.789   5.610  1.3325 -0.2322 -0.9918
 6919SOL    HW232220   0.575   2.785   5.618 -0.2664 -1.8682 -1.6268
 6920SOL     OW32221   3.878   0.365   5.694 -0.3758  0.1548  0.5390
 6920SOL    HW132222   3.914   0.283   5.658 -0.0468  1.2872 -1.7380
 6920SOL    HW232223   3.933   0.382   5.770 -0.5338  0.9446  0.4718
 6921SOL     OW32224   3.498   1.935   6.974  0.4105 -0.2758 -0.1380
 6921SOL    HW132225   3.408   1.967   6.972 -0.2227 -2.0058  0.3242
 6921SOL    HW232226   3.509   1.875   6.900 -1.1631  1.3039 -1.6680
 6922SOL     OW32227   4.533   1.344   6.353  0.0093  0.0281 -0.3494
 6922SOL    HW132228   4.513   1.344   6.260 -2.3132 -1.1552  0.1473
 6922SOL    HW232229   4.619   1.301   6.353 -0.8455 -1.6785 -0.7230
 6923SOL     OW32230   1.871   2.963   5.576  0.6123  0.1107  0.3997
 6923SOL    HW132231   1.792   2.930   5.532  0.1858  1.1539  0.3647
 6923SOL    HW232232   1.831   2.987   5.660 -0.9785 -0.0007 -0.3206
 6924SOL     OW32233   0.443   4.063   4.618  0.1865  0.2847 -0.3927
 6924SOL    HW132234   0.476   4.007   4.548  0.7131 -0.2653  0.2926
 6924SOL    HW232235   0.403   4.125   4.556  0.4303  1.2119  0.3760
 6925SOL     OW32236   4.135   2.790  15.233  0.0630 -0.0920  0.0479
 6925SOL    HW132237   4.160   2.808  15.143  0.0448 -0.3622 -0.0107
 6925SOL    HW232238   4.062   2.736  15.205  2.3029 -2.4776 -1.2285
 6926SOL     OW32239   3.770   4.051  16.249 -0.4582  0.1533  0.4276
 6926SOL    HW132240   3.787   4.141  16.221  0.1938  0.6665  2.4858
 6926SOL    HW232241   3.854   4.027  16.288  1.8220  2.5662 -3.0163
 6927SOL     OW32242   3.910   2.010  13.732  0.5112  0.2784 -0.3369
 6927SOL    HW132243   3.859   2.029  13.810  1.1855  0.1479  0.1335
 6927SOL    HW232244   3.988   1.972  13.773  0.5701 -1.4285 -2.0017
 6928SOL     OW32245   3.056   0.771   6.346  0.0809 -0.0089 -0.2904
 6928SOL    HW132246   2.964   0.776   6.322  0.6524 -0.6303 -2.7203
 6928SOL    HW232247   3.047   0.713   6.421 -2.2643  0.1391 -0.4747
 6929SOL     OW32248   1.119   3.452   4.692 -0.0544 -0.1905 -0.2761
 6929SOL    HW132249   1.169   3.450   4.610  2.7113 -2.1782  1.4177
 6929SOL    HW232250   1.134   3.360   4.718 -4.4285 -1.0697 -0.8955
 6930SOL     OW32251   4.440   0.652  11.428  0.3256 -0.0402 -0.4172
 6930SOL    HW132252   4.481   0.566  11.428 -3.4991 -1.8716  1.2412
 6930SOL    HW232253   4.366   0.637  11.488  0.2893 -1.5509 -0.8375
 6931SOL     OW32254   1.254   3.395   5.045  0.5864 -0.0660 -0.9411
 6931SOL    HW132255   1.345   3.422   5.032  1.2857 -1.3133  1.2804
 6931SOL    HW232256   1.248   3.427   5.135 -0.8853  0.0340 -1.0775
 6932SOL     OW32257   0.278   1.964   7.359  0.0899  0.5391 -0.0322
 6932SOL    HW132258   0.365   2.003   7.348  0.9701 -1.7113 -1.1020
 6932SOL    HW232259   0.237   2.035   7.409  1.4512  0.5411  1.0891
 6933SOL     OW32260   1.736   3.560   7.677  0.0919 -0.3243 -0.3326
 6933SOL    HW132261   1.827   3.553   7.649  0.4202 -0.5702  0.7781
 6933SOL    HW232262   1.732   3.630   7.743 -1.5335 -2.1799  1.5495
 6934SOL     OW32263   1.967   3.436   7.568 -0.0880 -0.2238  0.0208
 6934SOL    HW132264   1.964   3.388   7.486 -2.0533  3.0963 -1.8327
 6934SOL    HW232265   1.980   3.360   7.624 -2.6473 -0.3728  0.4256
 6935SOL     OW32266   2.770   1.350   3.465  0.1267  0.5445  0.1009
 6935SOL    HW132267   2.822   1.294   3.407  0.3253  1.6552 -0.8142
 6935SOL    HW232268   2.808   1.434   3.438  2.6802 -0.7622 -0.3048
 6936SOL     OW32269   3.065   0.770   4.852  0.0360  0.2413 -0.8049
 6936SOL    HW132270   2.989   0.713   4.850 -0.1390  0.4503 -0.0744
 6936SOL    HW232271   3.029   0.851   4.888  1.0414 -0.1422  1.0522
 6937SOL     OW32272   3.464   2.092   7.239  0.4451 -0.5344  0.6923
 6937SOL    HW132273   3.514   2.128   7.165  1.8963 -2.2007  0.8749
 6937SOL    HW232274   3.402   2.032   7.199 -2.3632  1.5875  1.8297
 6938SOL     OW32275   4.264   1.719   0.280  0.5278 -0.4651 -0.4434
 6938SOL    HW132276   4.249   1.792   0.220  2.1997  0.6451  0.4822
 6938SOL    HW232277   4.232   1.647   0.225  0.3660  1.7294 -3.2348
 6939SOL     OW32278   3.293   2.043   7.767  0.0402 -0.2394 -0.1257
 6939SOL    HW132279   3.335   2.071   7.685  0.9247 -1.2523 -0.0238
 6939SOL    HW232280   3.325   1.953   7.771  1.3688  0.2421  0.0871
 6940SOL     OW32281   3.084   4.702   4.230 -0.2609 -0.5902 -0.0447
 6940SOL    HW132282   2.995   4.674   4.251 -0.8948  0.6544 -1.1071
 6940SOL    HW232283   3.074   0.072   4.252 -0.2663  0.0690 -2.8385
 6941SOL     OW32284   1.939   1.602   8.303  0.4276 -0.0448  0.4495
 6941SOL    HW132285   1.930   1.507   8.305 -1.4127  0.1599  1.4228
 6941SOL    HW232286   2.024   1.614   8.259  0.5667  1.7040  1.1998
 6942SOL     OW32287   1.259   0.809   8.794  0.7347  0.4790 -0.2359
 6942SOL    HW132288   1.226   0.893   8.760  0.9445  0.9423  0.7094
 6942SOL    HW232289   1.183   0.780   8.843  0.3589  0.7788 -0.6373
 6943SOL     OW32290   0.417   3.059   6.613  0.4982 -0.7170  0.5585
 6943SOL    HW132291   0.322   3.051   6.615  0.2688  1.8222 -0.3723
 6943SOL    HW232292   0.438   3.142   6.655 -0.2552  0.6833 -1.8186
 6944SOL     OW32293   3.133   0.624   5.384 -0.2423  0.1332  0.5498
 6944SOL    HW132294   3.134   0.703   5.329 -1.5959 -0.2822 -0.0932
 6944SOL    HW232295   3.054   0.577   5.355 -0.5620  0.3414  1.0862
 6945SOL     OW32296   4.681   0.355   6.693  0.1945 -0.4168 -0.3600
 6945SOL    HW132297   4.666   0.395   6.607  1.0677  0.0010 -0.3261
 6945SOL    HW232298   4.599   0.306   6.701 -0.7624  1.3026  0.3053
 6946SOL     OW32299   1.997   1.077   5.176  0.2298  0.0490 -0.7271
 6946SOL    HW132300   1.952   1.015   5.233 -1.7422  1.1330 -1.1122
 6946SOL    HW232301   1.919   1.096   5.123 -1.7906 -2.2607  1.4386
 6947SOL     OW32302   4.458   1.156   9.843 -0.2987  0.0410  0.4276
 6947SOL    HW132303   4.398   1.118   9.908  0.5263  0.2357  1.3055
 6947SOL    HW232304   4.527   1.095   9.867 -0.3880 -0.3358 -0.2946
 6948SOL     OW32305   2.867   1.476   2.719 -0.0431  0.0241 -0.0523
 6948SOL    HW132306   2.911   1.548   2.675  0.3759 -0.1559  0.0757
 6948SOL    HW232307   2.785   1.514   2.752 -0.6497 -0.8052 -0.6047
 6949SOL     OW32308   0.253   0.851   5.926 -0.0062 -0.3884  0.1191
 6949SOL    HW132309   0.203   0.784   5.879 -1.5397  2.0821 -1.7792
 6949SOL    HW232310   0.291   0.907   5.858 -2.6087  0.4882 -0.5902
 6950SOL     OW32311   1.719   2.656   6.084  0.1425  0.0531 -0.0309
 6950SOL    HW132312   1.732   2.731   6.143  0.1713 -0.7576  0.9913
 6950SOL    HW232313   1.711   2.700   5.999  0.1395  0.0982 -0.0077
 6951SOL     OW32314   0.080   2.767   2.354 -0.5483  0.3462  0.1390
 6951SOL    HW132315   0.030   2.849   2.362  2.2589  1.9710  1.1023
 6951SOL    HW232316   0.112   2.777   2.265 -1.3423  2.4450  0.0859
 6952SOL     OW32317   0.728   2.294   8.251  0.6639 -0.2061 -0.6723
 6952SOL    HW132318   0.792   2.328   8.189 -0.6749 -1.8994 -2.9792
 6952SOL    HW232319   0.708   2.212   8.206  0.5922 -0.9009  0.6258
 6953SOL     OW32320   3.351   0.024   4.357 -0.1040 -0.2110  0.1381
 6953SOL    HW132321   3.266   0.011   4.316 -0.3726  0.8101  0.3658
 6953SOL    HW232322   3.378   4.656   4.342 -4.7663 -2.1950  3.5069
 6954SOL     OW32323   3.575   0.477   8.824 -0.0751 -0.2107  0.1199
 6954SOL    HW132324   3.514   0.453   8.894 -0.1975  0.2324  0.1669
 6954SOL    HW232325   3.656   0.488   8.873  0.4541  2.2536 -1.2871
 6955SOL     OW32326   0.644   4.020  13.905  0.2433  0.3631 -0.0143
 6955SOL    HW132327   0.627   4.060  13.820 -0.8094  2.6069  1.2633
 6955SOL    HW232328   0.578   3.950  13.910 -0.4497  0.9482 -1.0650
 6956SOL     OW32329   0.924   2.477  10.477  0.1222 -0.1282  0.5523
 6956SOL    HW132330   0.967   2.393  10.461  0.3895  0.0784  0.1731
 6956SOL    HW232331   0.837   2.454  10.444  0.1663  0.5205 -0.0357
 6957SOL     OW32332   2.240   1.205  12.599  0.0611  0.3185  0.0711
 6957SOL    HW132333   2.163   1.162  12.635  0.1007 -1.2555 -1.7126
 6957SOL    HW232334   2.256   1.274  12.664  0.3540  0.3557 -0.0384
 6958SOL     OW32335   4.681   2.590  14.375 -0.1832 -0.8969 -0.4173
 6958SOL    HW132336   4.600   2.593  14.325 -0.6949  0.3432  0.4593
 6958SOL    HW232337   0.007   2.654  14.323 -1.2812 -0.3761 -0.8065
 6959SOL     OW32338   1.834   3.517   4.009 -0.2966  0.7694  0.1367
 6959SOL    HW132339   1.790   3.432   4.000  0.5589  0.2674  0.6282
 6959SOL    HW232340   1.753   3.567   4.009 -0.0335  1.1958 -0.1434
 6960SOL     OW32341   1.869   1.014  14.472 -0.1901  0.1020  0.3116
 6960SOL    HW132342   1.899   0.928  14.499 -0.9564 -0.2927 -0.1110
 6960SOL    HW232343   1.896   1.058  14.553  3.5574  2.8210 -2.4346
 6961SOL     OW32344   1.836   2.135   6.184  0.4304 -0.1984  0.3115
 6961SOL    HW132345   1.893   2.107   6.112  0.0822  0.0130 -0.0481
 6961SOL    HW232346   1.879   2.211   6.223 -2.1898  1.2234  0.4507
 6962SOL     OW32347   2.471   1.325   2.765 -0.2712  0.4069  0.0841
 6962SOL    HW132348   2.556   1.296   2.732  0.2400 -0.5172  2.2117
 6962SOL    HW232349   2.519   1.374   2.831 -0.2268  0.1429  0.2473
 6963SOL     OW32350   0.236   0.753   3.879  0.2222  0.0802  0.6830
 6963SOL    HW132351   0.171   0.813   3.842  1.4879 -0.2204 -1.9950
 6963SOL    HW232352   0.306   0.812   3.909 -1.3282  1.6409  1.2168
 6964SOL     OW32353   3.950   0.261   0.483  0.3713 -0.0028  0.2987
 6964SOL    HW132354   3.880   0.321   0.510  0.5132 -0.3903  1.5142
 6964SOL    HW232355   3.898   0.222   0.412  0.5617  0.4998 -0.1156
 6965SOL     OW32356   1.863   3.703   4.750 -0.1523 -0.0900 -0.1194
 6965SOL    HW132357   1.908   3.703   4.835  0.0063 -1.8070 -0.2165
 6965SOL    HW232358   1.900   3.778   4.702 -2.0883  1.2505  0.4945
 6966SOL     OW32359   3.756   2.362   6.781  0.1600 -0.4066  0.4025
 6966SOL    HW132360   3.680   2.310   6.806 -1.7449  2.2722  0.1223
 6966SOL    HW232361   3.816   2.308   6.728  1.0681 -0.5131  1.5365
 6967SOL     OW32362   3.131   1.290  12.380 -0.3875  0.0541  0.1565
 6967SOL    HW132363   3.096   1.215  12.331  0.4753 -1.9729  2.6364
 6967SOL    HW232364   3.221   1.258  12.386 -0.3224  0.3775  0.9086
 6968SOL     OW32365   2.402   0.764   1.750 -0.2307  0.1330 -0.0827
 6968SOL    HW132366   2.433   0.834   1.807 -1.3559  0.6031 -0.0441
 6968SOL    HW232367   2.320   0.807   1.724 -1.0948 -0.7716  1.1101
 6969SOL     OW32368   0.627   0.785   7.189 -0.6632  0.4403  0.2544
 6969SOL    HW132369   0.625   0.825   7.276 -0.5898 -1.0690  0.9502
 6969SOL    HW232370   0.681   0.708   7.200  1.3386  2.1633  2.6050
 6970SOL     OW32371   2.950   3.670  10.560  0.4576  0.4934  0.3834
 6970SOL    HW132372   3.040   3.678  10.529  0.7818 -1.1426  0.8979
 6970SOL    HW232373   2.928   3.580  10.533  1.6384  1.5758 -4.1479
 6971SOL     OW32374   2.487   3.741  11.817  0.1582 -0.3846 -0.2570
 6971SOL    HW132375   2.454   3.652  11.804 -1.1979  0.1496 -0.4603
 6971SOL    HW232376   2.499   3.770  11.726  0.6513  0.2674  0.0165
 6972SOL     OW32377   1.340   4.023   2.849 -0.6208 -0.3565 -0.0207
 6972SOL    HW132378   1.348   4.057   2.759 -1.9662 -1.5274 -0.5816
 6972SOL    HW232379   1.420   4.063   2.882 -0.9038  1.6353 -1.7263
 6973SOL     OW32380   0.491   2.045   0.863 -0.0731  0.7540 -0.2048
 6973SOL    HW132381   0.486   2.053   0.768 -1.0938 -0.3248 -0.2404
 6973SOL    HW232382   0.420   1.982   0.873  0.2280  0.4415 -0.0233
 6974SOL     OW32383   0.963   3.677   8.914  0.0604 -0.1985 -0.2606
 6974SOL    HW132384   0.899   3.622   8.960  0.5007 -1.6500 -1.3647
 6974SOL    HW232385   1.040   3.628   8.941 -1.3702 -0.9210  2.4921
 6975SOL     OW32386   0.520   4.718   8.236  0.0440  0.2187 -0.2588
 6975SOL    HW132387   0.440   4.666   8.239  1.2330 -1.7746 -3.5441
 6975SOL    HW232388   0.577   4.672   8.175 -0.6700  0.2337 -0.9320
 6976SOL     OW32389   2.486   2.056  12.234 -0.1216  0.4158  0.6420
 6976SOL    HW132390   2.506   2.148  12.220 -0.2387  0.5437  1.3459
 6976SOL    HW232391   2.565   2.009  12.210 -0.6388 -0.1803  0.0921
 6977SOL     OW32392   0.558   3.417   7.613  0.0374  0.4646 -0.2382
 6977SOL    HW132393   0.582   3.487   7.553  0.3880  1.2752  0.8334
 6977SOL    HW232394   0.540   3.472   7.689 -0.8193  1.5208 -1.2134
 6978SOL     OW32395   0.989   3.011   5.592 -0.0945  0.3154 -0.4447
 6978SOL    HW132396   1.061   3.047   5.644 -0.5336 -0.9567  1.0304
 6978SOL    HW232397   1.010   3.053   5.509  3.5422 -1.5022 -0.4238
 6979SOL     OW32398   2.549   0.144   4.685 -0.6402  0.2152 -0.1318
 6979SOL    HW132399   2.474   0.200   4.665 -0.3659 -0.3027 -2.5896
 6979SOL    HW232400   2.536   0.086   4.611 -0.6076  1.3647 -1.0363
 6980SOL     OW32401   2.899   2.039  15.744 -0.3712  0.9479  0.3418
 6980SOL    HW132402   2.804   2.042  15.739 -0.3518 -1.1329 -1.3371
 6980SOL    HW232403   2.914   2.088  15.825  1.0334  1.2598 -0.1010
 6981SOL     OW32404   2.993   2.842   7.183  0.0529 -0.2337 -0.3526
 6981SOL    HW132405   2.946   2.759   7.181  2.7084 -1.7677  1.8520
 6981SOL    HW232406   3.001   2.852   7.278 -0.2151  3.0975 -0.6526
 6982SOL     OW32407   0.594   1.337   4.583  0.6122  0.3121 -0.1274
 6982SOL    HW132408   0.637   1.374   4.506 -0.5581 -0.6952 -1.2509
 6982SOL    HW232409   0.578   1.416   4.636  2.4547  0.6608 -0.0923
 6983SOL     OW32410   3.624   1.672   1.953 -0.6226  0.6891  0.1471
 6983SOL    HW132411   3.628   1.761   1.989  1.3209  0.4132  0.6109
 6983SOL    HW232412   3.709   1.673   1.908 -0.0363  3.2825  1.2752
 6984SOL     OW32413   4.459   2.631   3.886  0.2471  0.3275 -0.1800
 6984SOL    HW132414   4.412   2.645   3.968 -1.8265  0.2231 -1.3490
 6984SOL    HW232415   4.426   2.545   3.858  0.2056  0.1431  0.4353
 6985SOL     OW32416   1.637   1.570  10.639 -0.7234 -0.0489  0.4776
 6985SOL    HW132417   1.666   1.651  10.597  2.0386 -1.1829  0.2536
 6985SOL    HW232418   1.720   1.553  10.684  0.0520 -0.1091 -0.9962
 6986SOL     OW32419   0.038   1.655   5.356 -0.3987 -0.3697  0.0762
 6986SOL    HW132420   4.704   1.646   5.280  1.3297  0.7722 -1.3569
 6986SOL    HW232421   4.706   1.623   5.427 -0.1565  2.8065  1.7057
 6987SOL     OW32422   2.519   4.097   6.715  0.0521  0.6063 -0.0603
 6987SOL    HW132423   2.428   4.122   6.696 -0.5335 -1.4304 -0.0035
 6987SOL    HW232424   2.555   4.079   6.629  0.9257  1.6325  0.0961
 6988SOL     OW32425   3.736   4.372   6.909 -0.0251  0.3785  0.3551
 6988SOL    HW132426   3.716   4.454   6.954 -0.9707  0.7846 -0.7891
 6988SOL    HW232427   3.649   4.334   6.895 -0.0284 -0.5078  2.8592
 6989SOL     OW32428   4.276   0.286  15.711  0.0975  0.2124 -0.3095
 6989SOL    HW132429   4.230   0.208  15.743  0.4120 -0.1323 -0.7061
 6989SOL    HW232430   4.240   0.356  15.765  1.3408 -0.1858  1.0047
 6990SOL     OW32431   3.179   2.862   4.124  1.0003 -0.1632 -0.4491
 6990SOL    HW132432   3.149   2.857   4.034 -1.0906  0.5210  0.2195
 6990SOL    HW232433   3.130   2.935   4.163  0.7051 -0.3537 -0.4646
 6991SOL     OW32434   1.173   1.347  11.383  0.1335 -0.3663  0.2725
 6991SOL    HW132435   1.135   1.270  11.426 -0.0988 -0.9011 -0.8792
 6991SOL    HW232436   1.124   1.411  11.434 -0.5993 -0.6819 -0.0312
 6992SOL     OW32437   1.778   3.781  10.692  0.3759  0.2230 -0.3467
 6992SOL    HW132438   1.747   3.693  10.668  2.5346 -0.7594  0.4890
 6992SOL    HW232439   1.873   3.783  10.686  0.4882 -2.5029  0.7194
 6993SOL     OW32440   4.225   1.965  13.135  0.5356  0.0871  0.3128
 6993SOL    HW132441   4.263   1.970  13.047  2.6415 -2.5490  1.0835
 6993SOL    HW232442   4.295   1.933  13.192  0.0310  2.0023  2.0154
 6994SOL     OW32443   0.323   2.021   8.939 -0.0894  0.5370 -0.3477
 6994SOL    HW132444   0.346   2.061   8.855  0.3652  1.3080  0.1490
 6994SOL    HW232445   0.296   2.096   8.992 -1.1445  1.1834 -1.7848
 6995SOL     OW32446   0.072   1.407   3.755 -0.1242 -0.0554  0.7568
 6995SOL    HW132447   0.024   1.348   3.696  1.9761 -1.0825  0.0863
 6995SOL    HW232448   0.077   1.354   3.835 -0.9786  0.1338  0.9352
 6996SOL     OW32449   1.200   2.675   2.690  0.2089  0.1733 -1.0969
 6996SOL    HW132450   1.158   2.691   2.606 -2.2370 -1.4100 -0.2100
 6996SOL    HW232451   1.237   2.589   2.668  3.0439  1.2625 -0.5818
 6997SOL     OW32452   1.326   3.354   2.787 -0.2809 -0.1215  0.1912
 6997SOL    HW132453   1.272   3.342   2.865  0.3603  0.1040  0.6787
 6997SOL    HW232454   1.312   3.272   2.740  0.0556 -0.7036  1.1042
 6998SOL     OW32455   3.892   4.675   4.101 -0.4152 -0.0750 -0.7679
 6998SOL    HW132456   3.884   4.678   4.006 -0.7092  0.0404 -0.7395
 6998SOL    HW232457   3.987   4.666   4.109 -0.4625 -2.6547 -3.2521
 6999SOL     OW32458   2.291   0.765  13.685  0.1589 -0.0979 -0.1688
 6999SOL    HW132459   2.268   0.846  13.639  1.5304  0.2395 -0.2483
 6999SOL    HW232460   2.349   0.798  13.753 -0.7826  1.4507 -0.0918
 7000SOL     OW32461   3.276   1.292   0.643  0.0644  0.2744 -0.0392
 7000SOL    HW132462   3.213   1.337   0.586 -0.2595 -1.3784 -0.9790
 7000SOL    HW232463   3.288   1.215   0.588 -1.0530 -1.5311  2.2475
 7001SOL     OW32464   1.812   1.026   0.197 -0.0136  0.0752  0.2853
 7001SOL    HW132465   1.764   1.106   0.176  1.6500  0.9421 -0.2448
 7001SOL    HW232466   1.753   0.987   0.261 -2.4037  1.3391 -1.1647
 7002SOL     OW32467   1.428   2.222   5.313 -0.5544  0.6998  0.1201
 7002SOL    HW132468   1.369   2.172   5.370  0.1973  0.4374  0.6659
 7002SOL    HW232469   1.402   2.200   5.224 -1.1738  0.8995  0.2518
 7003SOL     OW32470   1.726   2.588   2.317 -0.1293 -0.0767  0.4245
 7003SOL    HW132471   1.703   2.606   2.408 -0.0907  0.0422  0.4106
 7003SOL    HW232472   1.757   2.676   2.297 -1.8574  0.2225 -0.9369
 7004SOL     OW32473   3.083   0.286   3.264  0.2048 -0.1907  0.9580
 7004SOL    HW132474   3.005   0.279   3.210 -0.1534  0.3763  1.3959
 7004SOL    HW232475   3.073   0.375   3.298  2.0537  0.7533 -0.9584
 7005SOL     OW32476   4.482   4.523   8.157  0.0677  0.3497  0.6995
 7005SOL    HW132477   4.438   4.548   8.238  1.5584 -0.3625  1.7330
 7005SOL    HW232478   4.428   4.447   8.135  0.1933  0.0396  1.4531
 7006SOL     OW32479   1.129   2.935   6.123  0.2555 -0.4300  0.0492
 7006SOL    HW132480   1.105   3.027   6.132  1.7279 -0.0069 -0.3408
 7006SOL    HW232481   1.042   2.896   6.121 -0.7325  1.7607  0.5978
 7007SOL     OW32482   1.455   3.636   2.980  0.2401 -0.2488 -0.5653
 7007SOL    HW132483   1.513   3.705   2.947  0.0476 -1.0888 -2.6281
 7007SOL    HW232484   1.505   3.615   3.060 -0.2032  0.3324 -0.1416
 7008SOL     OW32485   0.700   2.285   6.880  0.0014  0.3599 -0.2211
 7008SOL    HW132486   0.724   2.217   6.943  1.2726  1.1949  0.2027
 7008SOL    HW232487   0.785   2.330   6.882 -0.7298  1.6278  1.9204
 7009SOL     OW32488   3.320   4.585  11.628  0.0261  0.3131  0.4055
 7009SOL    HW132489   3.305   4.539  11.711  1.8273  2.2884  1.8169
 7009SOL    HW232490   3.348   4.669  11.665 -1.2738  0.3773  1.2532
 7010SOL     OW32491   0.684   0.739   4.083  0.4310 -0.0192  0.2071
 7010SOL    HW132492   0.701   0.654   4.124 -0.6731 -0.1011  0.5163
 7010SOL    HW232493   0.772   0.769   4.063  0.4288 -0.0172  0.2003
 7011SOL     OW32494   2.731   1.744   3.875 -0.1619 -0.0224  0.0690
 7011SOL    HW132495   2.666   1.806   3.907  0.7967  0.9542  0.1285
 7011SOL    HW232496   2.723   1.665   3.928  0.7454 -0.9107 -1.0928
 7012SOL     OW32497   3.115   1.789  10.204 -0.2790 -0.1819 -0.1441
 7012SOL    HW132498   3.135   1.696  10.192 -1.6582 -0.7738  2.1624
 7012SOL    HW232499   3.136   1.818  10.115 -0.9657 -3.6524 -1.4259
 7013SOL     OW32500   0.341   4.035  15.689 -0.2034  0.6661 -0.3560
 7013SOL    HW132501   0.301   4.013  15.605  0.2105 -2.3137  0.2060
 7013SOL    HW232502   0.363   4.126  15.674 -1.5424  1.0990  0.2670
 7014SOL     OW32503   2.777   1.060   3.211 -0.2144 -0.3249  0.2489
 7014SOL    HW132504   2.824   0.990   3.166 -0.1856 -0.3910  0.3812
 7014SOL    HW232505   2.793   1.033   3.301 -0.4834 -1.5200 -0.0646
 7015SOL     OW32506   4.262   1.052   3.281 -0.6117  0.2235  0.5713
 7015SOL    HW132507   4.235   1.022   3.368  0.1370 -0.4950  0.5464
 7015SOL    HW232508   4.176   1.053   3.238 -0.6326  0.3473  0.6150
 7016SOL     OW32509   1.835   2.702   4.943 -0.5883 -0.1700 -0.2904
 7016SOL    HW132510   1.873   2.768   4.885 -1.0508 -0.4720 -0.9265
 7016SOL    HW232511   1.816   2.750   5.023  2.5487 -0.3031  0.5539
 7017SOL     OW32512   1.219   0.077  15.109  0.0956  0.1378  0.2261
 7017SOL    HW132513   1.221   0.057  15.015  1.1966  2.0643 -0.1579
 7017SOL    HW232514   1.154   0.013  15.138  0.6087 -0.7786 -0.6505
 7018SOL     OW32515   0.053   2.843  16.532  0.2744 -0.5313  0.2922
 7018SOL    HW132516   4.722   2.784  16.479 -0.8807  0.2103  0.6304
 7018SOL    HW232517   0.004   2.822  16.612  0.4482  1.3263  0.8939
 7019SOL     OW32518   0.863   0.694   9.431  0.3801  0.2217  0.3526
 7019SOL    HW132519   0.777   0.729   9.453 -0.8025 -0.7307 -2.6639
 7019SOL    HW232520   0.837   0.630   9.364  0.4981 -0.7751  1.2467
 7020SOL     OW32521   4.600   1.263   7.337  0.2935  0.4144 -0.3696
 7020SOL    HW132522   4.596   1.327   7.409 -0.6405  0.8752 -0.8282
 7020SOL    HW232523   4.578   1.330   7.272  1.1151  1.9767  0.9640
 7021SOL     OW32524   3.663   2.436  10.431 -0.1027  0.2972 -0.9883
 7021SOL    HW132525   3.632   2.488  10.505  0.2207 -1.3295  0.2722
 7021SOL    HW232526   3.757   2.429  10.442 -0.3427  0.3582  1.0022
 7022SOL     OW32527   0.640   4.320   3.234 -0.2107 -0.0747  0.0522
 7022SOL    HW132528   0.709   4.253   3.233 -1.2171 -1.1643  3.0485
 7022SOL    HW232529   0.639   4.348   3.325 -0.1103  3.2746 -0.9959
 7023SOL     OW32530   1.033   4.175   4.469  0.1496 -0.0224  0.0769
 7023SOL    HW132531   0.939   4.154   4.464  0.0492  0.5205 -0.3077
 7023SOL    HW232532   1.024   4.249   4.409 -2.8232 -1.0924 -0.8367
 7024SOL     OW32533   2.446   2.623   9.845 -0.3719  0.2272  0.3617
 7024SOL    HW132534   2.373   2.607   9.904 -0.6473 -0.8380 -0.2633
 7024SOL    HW232535   2.410   2.693   9.791  1.2391  1.5322  0.9772
 7025SOL     OW32536   1.576   1.701  10.888 -0.4093  0.6971  0.2708
 7025SOL    HW132537   1.564   1.651  10.807  1.5461 -0.9524  0.9826
 7025SOL    HW232538   1.486   1.726  10.910 -0.8294  0.3195 -1.0008
 7026SOL     OW32539   2.082   3.569   8.014  0.4311 -0.2480 -0.2660
 7026SOL    HW132540   2.097   3.592   8.106 -1.4715  0.9820 -0.2572
 7026SOL    HW232541   2.156   3.512   7.997  0.1971 -1.2557  2.0674
 7027SOL     OW32542   1.800   3.751   7.867 -0.1487 -0.5988 -0.2376
 7027SOL    HW132543   1.868   3.710   7.920 -1.3677 -0.9027  1.0803
 7027SOL    HW232544   1.727   3.742   7.929 -0.0534 -1.1118 -0.1998
 7028SOL     OW32545   0.303   3.743   8.902  0.0516 -0.7392 -0.7881
 7028SOL    HW132546   0.286   3.800   8.827  0.9368  1.3133  0.5640
 7028SOL    HW232547   0.212   3.738   8.932 -0.0120 -1.6720 -1.1478
 7029SOL     OW32548   2.751   1.919  16.082 -0.0848  0.2052  0.5510
 7029SOL    HW132549   2.786   1.949  16.166 -0.0534 -2.2679  1.4128
 7029SOL    HW232550   2.715   2.003  16.053  0.3758 -0.7300 -2.7259
 7030SOL     OW32551   3.588   3.848   0.291  0.3241 -0.4098  0.3804
 7030SOL    HW132552   3.560   3.757   0.300 -1.9900 -0.0305 -2.9304
 7030SOL    HW232553   3.503   3.877   0.257  1.1009 -0.0365 -1.1964
 7031SOL     OW32554   4.627   0.605   0.609 -0.1420 -0.7737 -0.0212
 7031SOL    HW132555   4.675   0.570   0.534  2.0461  0.9142  0.6222
 7031SOL    HW232556   4.604   0.696   0.589 -0.2265 -0.6315  0.7266
 7032SOL     OW32557   4.208   3.977   6.196  0.2126 -0.3998 -0.4049
 7032SOL    HW132558   4.129   3.933   6.164  0.4838 -1.0671 -0.1459
 7032SOL    HW232559   4.203   3.936   6.282  1.2543 -0.1495 -0.2316
 7033SOL     OW32560   4.200   4.619  12.528  0.6040 -0.1464 -0.4063
 7033SOL    HW132561   4.208   4.600  12.434 -0.2139  2.0597 -0.9458
 7033SOL    HW232562   4.135   4.690  12.538 -0.8058 -1.5900  0.6436
 7034SOL     OW32563   4.544   0.233   5.733  0.0837 -0.0959 -0.1898
 7034SOL    HW132564   4.596   0.252   5.811 -1.8138 -1.8222  1.4830
 7034SOL    HW232565   4.459   0.276   5.746 -0.1943 -0.5158 -0.6017
 7035SOL     OW32566   1.185   1.126   8.286 -0.0710 -0.1594 -0.3512
 7035SOL    HW132567   1.227   1.211   8.299  0.4220 -0.3448 -0.7395
 7035SOL    HW232568   1.256   1.091   8.231 -0.4149 -2.3044  0.5367
 7036SOL     OW32569   3.911   2.047   5.414 -0.1000  0.2928  0.0676
 7036SOL    HW132570   3.942   2.011   5.330 -1.1637  0.0301 -0.2098
 7036SOL    HW232571   3.825   2.007   5.425 -0.3284  0.4670 -1.0783
 7037SOL     OW32572   2.150   4.165  14.643 -0.3954  0.3466 -0.4197
 7037SOL    HW132573   2.101   4.083  14.642  0.9366 -0.4767  0.9763
 7037SOL    HW232574   2.232   4.132  14.680  0.1210  0.5915 -1.3549
 7038SOL     OW32575   0.112   3.813   5.646  0.5887 -0.4600  0.0799
 7038SOL    HW132576   0.185   3.857   5.603  1.2787 -0.7142  1.0071
 7038SOL    HW232577   0.056   3.892   5.647 -1.0823 -1.6548  2.5809
 7039SOL     OW32578   3.554   0.114   8.089  0.1609  0.3080  0.1490
 7039SOL    HW132579   3.632   0.129   8.035  0.2499 -0.7752 -0.0221
 7039SOL    HW232580   3.596   0.123   8.175  1.9960 -2.7727 -0.4504
 7040SOL     OW32581   3.302   2.869   7.190 -0.2088  0.1889  0.2146
 7040SOL    HW132582   3.302   2.839   7.099  0.8298 -1.3486  0.7113
 7040SOL    HW232583   3.227   2.826   7.230  0.3303  0.8269  1.9229
 7041SOL     OW32584   3.743   1.141  11.287 -0.0182  0.0115 -0.9236
 7041SOL    HW132585   3.799   1.077  11.244  1.2076  1.2698 -1.1891
 7041SOL    HW232586   3.798   1.157  11.364  1.1884 -2.1392 -1.3516
 7042SOL     OW32587   4.414   0.329  16.684 -0.4127  0.3827  0.2894
 7042SOL    HW132588   4.451   0.325  16.596 -0.4976  0.8525  0.2298
 7042SOL    HW232589   4.484   0.353  16.746 -0.0703  2.3426 -0.8681
 7043SOL     OW32590   2.501   3.343   1.048 -0.3279  0.4116  0.2844
 7043SOL    HW132591   2.581   3.395   1.040  1.8004 -2.3506  3.2389
 7043SOL    HW232592   2.427   3.402   1.034  0.3940  1.4069  0.6849
 7044SOL     OW32593   0.420   3.407   5.281 -0.5188 -0.0360 -0.3638
 7044SOL    HW132594   0.470   3.404   5.362  0.0489  1.3895 -0.6709
 7044SOL    HW232595   0.388   3.496   5.295 -0.0563  0.2599 -1.2100
 7045SOL     OW32596   3.064   2.390   7.771  0.2468  0.2542  0.2981
 7045SOL    HW132597   3.022   2.348   7.846 -0.0844 -1.2044 -0.6901
 7045SOL    HW232598   2.995   2.379   7.705  1.4853 -1.4581 -0.7429
 7046SOL     OW32599   1.904   3.793   9.415 -0.0688 -0.1809  0.6114
 7046SOL    HW132600   1.886   3.874   9.463 -2.7402 -2.0227  2.7070
 7046SOL    HW232601   1.814   3.759   9.412  1.0147 -2.9529 -0.9636
 7047SOL     OW32602   1.429   0.475   7.017 -0.1519 -0.0923  0.6423
 7047SOL    HW132603   1.469   0.419   7.083 -2.4622 -1.9812  0.4655
 7047SOL    HW232604   1.501   0.479   6.955 -1.0724  3.2587 -0.2364
 7048SOL     OW32605   1.681   0.895   1.286  0.6236  0.0880 -0.0965
 7048SOL    HW132606   1.590   0.891   1.258  0.2594  1.9409  0.8235
 7048SOL    HW232607   1.715   0.850   1.208 -0.7285 -1.5948  0.2895
 7049SOL     OW32608   1.010   0.446   7.431 -0.3402  0.5619 -0.0047
 7049SOL    HW132609   0.951   0.382   7.470 -1.5183  0.7523 -1.4764
 7049SOL    HW232610   1.060   0.383   7.379  0.3118  0.5649  0.6265
 7050SOL     OW32611   1.221   2.456   6.394  0.2266  0.1279 -0.2384
 7050SOL    HW132612   1.174   2.392   6.341 -1.6598  0.9218  0.4593
 7050SOL    HW232613   1.157   2.510   6.441 -1.1305 -0.3273 -1.5586
 7051SOL     OW32614   1.355   2.418  17.486  0.3539  0.5011  0.2309
 7051SOL    HW132615   1.375   2.330  17.455  1.3651  0.7504  0.1741
 7051SOL    HW232616   1.260   2.409  17.492  0.5362 -1.1356  0.5552
 7052SOL     OW32617   0.190   3.997  11.901  0.6445 -0.4358 -0.6247
 7052SOL    HW132618   0.272   3.952  11.922 -0.3486 -2.2936 -0.6859
 7052SOL    HW232619   0.125   3.927  11.904  0.0198  0.2669  2.5849
 7053SOL     OW32620   3.591   0.395   2.622 -0.7016 -0.6007 -0.1202
 7053SOL    HW132621   3.497   0.414   2.626 -0.4147  0.3982  1.8828
 7053SOL    HW232622   3.599   0.391   2.527 -0.3399 -0.8107 -0.0809
 7054SOL     OW32623   4.609   1.093  13.062  0.3112 -0.4356 -0.2929
 7054SOL    HW132624   4.638   1.135  13.143  1.2614 -1.7422  0.0363
 7054SOL    HW232625   4.551   1.034  13.110  0.8567 -2.0069 -1.5743
 7055SOL     OW32626   0.970   0.743   6.000 -0.2342  0.4873  0.3978
 7055SOL    HW132627   1.001   0.811   5.940 -3.9246  0.5153 -1.4520
 7055SOL    HW232628   0.916   0.797   6.058  1.2977  0.7334  1.6002
 7056SOL     OW32629   2.332   4.386   9.709  0.0708  0.6268  0.2644
 7056SOL    HW132630   2.414   4.369   9.755 -0.6841  1.9051  2.0723
 7056SOL    HW232631   2.329   4.319   9.641  3.6980 -0.2948  1.0467
 7057SOL     OW32632   2.760   0.305   0.009 -0.0365  0.5224  0.0727
 7057SOL    HW132633   2.825   0.311   0.078 -1.2181  0.4762  1.1806
 7057SOL    HW232634   2.787   0.221  17.665  1.4962  0.4203  1.4667
 7058SOL     OW32635   3.838   4.398  11.600  0.1028 -0.5463  0.1712
 7058SOL    HW132636   3.872   4.317  11.638  0.9470 -0.9112 -1.3445
 7058SOL    HW232637   3.753   4.371  11.566 -0.5253  1.2848  0.2679
 7059SOL     OW32638   4.234   3.765   4.700 -0.9256  0.5544  0.4533
 7059SOL    HW132639   4.190   3.720   4.627 -0.5824  0.1500  0.4951
 7059SOL    HW232640   4.178   3.839   4.722  1.0371  1.8664  1.0711
 7060SOL     OW32641   3.112   2.124   7.467  0.2271 -0.0238 -0.1678
 7060SOL    HW132642   3.112   2.171   7.384 -1.5630  1.7817  0.8621
 7060SOL    HW232643   3.207   2.116   7.467  0.4335  2.2773  0.9549
 7061SOL     OW32644   4.234   2.825  13.501  1.0486 -0.8401  0.1427
 7061SOL    HW132645   4.184   2.746  13.520  0.7072 -0.5946  0.2684
 7061SOL    HW232646   4.291   2.816  13.578  0.2136 -0.4987  0.8063
 7062SOL     OW32647   3.683   0.510   4.623 -0.0199 -0.4761  0.0239
 7062SOL    HW132648   3.644   0.596   4.636 -0.4942 -0.7716  0.5341
 7062SOL    HW232649   3.764   0.509   4.674 -0.8009 -1.4658  1.2603
 7063SOL     OW32650   2.267   1.971   3.325  0.7311 -0.0729  0.0826
 7063SOL    HW132651   2.255   1.876   3.312  1.4252 -0.3985  1.7908
 7063SOL    HW232652   2.279   2.013   3.240 -0.3716 -0.7422 -0.4064
 7064SOL     OW32653   1.750   3.602   2.010 -1.0136  0.1657  0.7074
 7064SOL    HW132654   1.681   3.541   1.984  0.9690 -1.3215 -1.0803
 7064SOL    HW232655   1.803   3.547   2.068 -1.0924 -0.2611  0.3770
 7065SOL     OW32656   1.439   1.528   6.162 -0.4170 -0.0540 -0.4147
 7065SOL    HW132657   1.491   1.488   6.231 -0.2659  0.2575 -0.3480
 7065SOL    HW232658   1.350   1.529   6.197 -0.1590  0.2782  0.2136
 7066SOL     OW32659   3.111   3.472   8.404  0.5872  0.0238 -0.0172
 7066SOL    HW132660   3.033   3.512   8.367  0.1422  1.1556  2.1431
 7066SOL    HW232661   3.155   3.453   8.321  1.1960  1.7181 -0.0726
 7067SOL     OW32662   2.675   3.340   4.695  0.0343  0.0036  0.3109
 7067SOL    HW132663   2.688   3.372   4.784  0.9507 -1.3762  0.6848
 7067SOL    HW232664   2.701   3.249   4.712 -1.9192 -0.6609 -0.2091
 7068SOL     OW32665   2.782   2.434   3.666 -0.0385  0.1509  0.1871
 7068SOL    HW132666   2.790   2.351   3.713  0.4512  0.3877  0.5118
 7068SOL    HW232667   2.712   2.476   3.715 -0.9427 -0.0845 -0.8812
 7069SOL     OW32668   2.928   4.088   6.890  0.0231  0.1799 -0.1857
 7069SOL    HW132669   2.845   4.136   6.898 -0.4595 -0.5331 -0.7846
 7069SOL    HW232670   2.904   3.997   6.873 -0.4751  0.2682  0.0354
 7070SOL     OW32671   0.336   3.326   0.309 -0.2911  0.2752 -0.0595
 7070SOL    HW132672   0.403   3.273   0.267 -0.4114 -1.0605  1.4452
 7070SOL    HW232673   0.363   3.412   0.275 -1.7072  0.4898 -0.6402
 7071SOL     OW32674   4.339   0.200  14.820  0.3077 -0.1249 -0.2504
 7071SOL    HW132675   4.338   0.175  14.728 -0.5441  0.8399 -0.4947
 7071SOL    HW232676   4.421   0.161  14.851  0.1368 -0.1516  0.1664
 7072SOL     OW32677   2.979   2.713   3.940  0.6827  0.2348  0.5049
 7072SOL    HW132678   2.897   2.726   3.892  2.6261  0.3329 -2.8129
 7072SOL    HW232679   2.943   2.676   4.021 -0.9651  0.4594 -0.1282
 7073SOL     OW32680   2.348   1.571   5.108  0.3565 -0.1389 -0.1188
 7073SOL    HW132681   2.349   1.550   5.201 -1.2081 -0.6393 -0.2235
 7073SOL    HW232682   2.438   1.603   5.097  0.8900 -1.3857  0.6598
 7074SOL     OW32683   2.628   2.790  14.178  0.2145  0.2943  0.0576
 7074SOL    HW132684   2.543   2.746  14.185 -0.0016  0.3895 -1.8689
 7074SOL    HW232685   2.685   2.732  14.127 -1.3986 -0.7195 -0.6037
 7075SOL     OW32686   0.967   2.939   7.066 -0.4485  0.7023 -0.0939
 7075SOL    HW132687   0.875   2.931   7.089 -0.4454 -0.3095 -0.4472
 7075SOL    HW232688   0.988   3.005   7.132 -2.0214  0.2607  0.8451
 7076SOL     OW32689   0.673   2.624  15.571  0.0858 -0.3095 -0.2328
 7076SOL    HW132690   0.688   2.562  15.500  0.3157 -1.4424  0.8023
 7076SOL    HW232691   0.752   2.601  15.620  0.4341 -2.0867 -1.6125
 7077SOL     OW32692   1.536   1.385   8.638 -0.0700  0.0121 -0.0978
 7077SOL    HW132693   1.537   1.419   8.728  1.2562 -0.6435  0.1342
 7077SOL    HW232694   1.590   1.449   8.593 -0.2695  0.7432  0.6824
 7078SOL     OW32695   0.995   2.385   3.444 -0.4703 -0.0709 -0.4204
 7078SOL    HW132696   0.904   2.355   3.447 -1.2898  2.1012 -3.9829
 7078SOL    HW232697   1.024   2.344   3.526 -1.2027 -0.9770 -0.6062
 7079SOL     OW32698   2.526   2.028   7.441 -0.2963  0.3009 -0.2984
 7079SOL    HW132699   2.568   1.949   7.474 -0.3649  0.6685  0.6891
 7079SOL    HW232700   2.605   2.077   7.417 -0.6106  0.3057 -1.3079
 7080SOL     OW32701   4.186   4.510   4.342 -0.2015  0.1315  0.3613
 7080SOL    HW132702   4.172   4.564   4.265  1.5158 -1.0052 -0.7331
 7080SOL    HW232703   4.267   4.552   4.370 -0.1918  0.2987  0.0762
 7081SOL     OW32704   2.205   1.636  14.474 -0.2132 -0.3616  0.1159
 7081SOL    HW132705   2.157   1.636  14.391  1.3604 -0.0229 -0.7935
 7081SOL    HW232706   2.140   1.644  14.544 -0.4736 -2.4714  0.1167
 7082SOL     OW32707   3.389   0.787   8.956  0.1304  0.1527  0.3514
 7082SOL    HW132708   3.443   0.860   8.927  1.1453 -0.1316  1.5283
 7082SOL    HW232709   3.457   0.742   9.005 -2.2273 -1.0772  2.5072
 7083SOL     OW32710   0.370   4.044   7.459  0.2561 -0.3922 -0.5945
 7083SOL    HW132711   0.361   3.960   7.504  0.2209  0.4275  0.9124
 7083SOL    HW232712   0.287   4.057   7.415  0.0458 -0.1745 -0.1305
 7084SOL     OW32713   0.691   3.191   4.663  0.0478 -0.0418  0.5994
 7084SOL    HW132714   0.669   3.137   4.739  0.6576 -0.0545  0.7727
 7084SOL    HW232715   0.626   3.156   4.602 -0.1721 -1.0588  1.4100
 7085SOL     OW32716   3.779   2.577   2.453  0.2134  0.1763  0.1311
 7085SOL    HW132717   3.770   2.672   2.466  1.3882  0.8445 -3.7595
 7085SOL    HW232718   3.731   2.544   2.529 -2.0696  1.5073 -0.7428
 7086SOL     OW32719   0.521   3.725  11.532 -0.0444  0.5030 -0.2330
 7086SOL    HW132720   0.526   3.762  11.620 -1.8262 -0.9185  0.4688
 7086SOL    HW232721   0.427   3.708  11.534  0.4898 -2.2548  2.1262
 7087SOL     OW32722   3.161   4.347  10.450 -0.0690 -0.4836  0.2298
 7087SOL    HW132723   3.094   4.321  10.513 -0.1183 -2.4666 -0.6325
 7087SOL    HW232724   3.169   4.440  10.473  2.3364 -1.0568  1.7263
 7088SOL     OW32725   2.163   2.180   3.924 -1.1144  0.4101  0.3423
 7088SOL    HW132726   2.078   2.140   3.907 -1.6368  0.7195  2.2191
 7088SOL    HW232727   2.188   2.197   3.833 -2.4040 -1.6823 -0.4034
 7089SOL     OW32728   4.349   1.545   4.285  0.6776 -0.4710 -0.3801
 7089SOL    HW132729   4.351   1.500   4.369  0.2880  0.5592  0.1689
 7089SOL    HW232730   4.285   1.613   4.305  1.7876  0.9527 -1.6878
 7090SOL     OW32731   3.095   0.174  16.867 -0.1489  0.0782 -0.3135
 7090SOL    HW132732   3.020   0.232  16.877 -0.2603 -0.0965 -0.1531
 7090SOL    HW232733   3.163   0.240  16.882 -1.6350  1.3492  0.8135
 7091SOL     OW32734   3.275   3.848  11.390 -0.4037  0.1363  0.1268
 7091SOL    HW132735   3.206   3.799  11.433 -0.3871 -1.0176 -1.1377
 7091SOL    HW232736   3.232   3.930  11.368 -0.4731  0.3424  1.0700
 7092SOL     OW32737   2.733   0.572   0.465 -0.5929  0.0476  0.5497
 7092SOL    HW132738   2.714   0.515   0.390  1.1397 -1.4577  1.2601
 7092SOL    HW232739   2.652   0.620   0.483 -1.3729 -0.7744 -0.7592
 7093SOL     OW32740   0.522   1.948  15.132 -0.1857 -0.3356 -0.3759
 7093SOL    HW132741   0.595   1.910  15.083 -1.0241 -0.5031 -1.5167
 7093SOL    HW232742   0.551   2.034  15.160  1.8447 -1.7136  1.6678
 7094SOL     OW32743   0.486   0.935  12.461  0.6242 -0.1051 -0.3057
 7094SOL    HW132744   0.493   0.882  12.540 -0.5363  0.5814  0.2619
 7094SOL    HW232745   0.489   1.024  12.498  0.9521 -0.5489  0.7253
 7095SOL     OW32746   0.831   0.692   3.151  0.2082 -0.4516 -0.3026
 7095SOL    HW132747   0.836   0.695   3.246  1.8237  1.8896 -0.4584
 7095SOL    HW232748   0.740   0.663   3.138 -0.0269  0.3639 -0.4504
 7096SOL     OW32749   1.394   2.245  15.164  0.8623  0.3025  0.1977
 7096SOL    HW132750   1.338   2.190  15.219  0.8596  0.7954  0.6921
 7096SOL    HW232751   1.406   2.184  15.092 -0.2443  0.3467 -0.0295
 7097SOL     OW32752   4.193   4.129   7.945  0.3525 -0.3352 -0.3683
 7097SOL    HW132753   4.272   4.093   7.986  0.5109 -1.1968 -1.4112
 7097SOL    HW232754   4.137   4.074   8.000 -1.7989  0.7806 -1.4123
 7098SOL     OW32755   0.679   0.011   5.522 -0.4026  0.3841  0.5501
 7098SOL    HW132756   0.716   0.054   5.600  1.2984  1.2597 -0.7410
 7098SOL    HW232757   0.739   4.659   5.517 -1.9507 -0.9978  2.4010
 7099SOL     OW32758   2.271   0.154  10.522 -0.4561 -0.0368  0.3205
 7099SOL    HW132759   2.182   0.126  10.541 -0.0761 -1.0676  0.5595
 7099SOL    HW232760   2.293   0.090  10.453 -0.7235  1.6904 -1.3745
 7100SOL     OW32761   1.304   1.223   9.858  0.1974  0.3472 -0.0196
 7100SOL    HW132762   1.274   1.210   9.948  0.2256 -2.0199 -0.3658
 7100SOL    HW232763   1.367   1.151   9.847 -1.4423 -1.1748  0.6996
 7101SOL     OW32764   4.545   3.011   5.824  0.3813  0.8048  0.4630
 7101SOL    HW132765   4.481   2.940   5.827 -0.5324  1.6076 -0.2432
 7101SOL    HW232766   4.629   2.968   5.841  0.6059  0.7012 -0.9314
 7102SOL     OW32767   1.000   4.306   3.302  0.1973  0.2206  0.2906
 7102SOL    HW132768   0.940   4.237   3.272  0.1140  0.8707 -1.0318
 7102SOL    HW232769   1.045   4.260   3.373  1.2389  1.4013  0.3952
 7103SOL     OW32770   3.381   4.173   4.166  0.4927  0.0005  0.4504
 7103SOL    HW132771   3.340   4.114   4.103 -1.1223  0.4868  1.0628
 7103SOL    HW232772   3.472   4.185   4.138  0.0957  0.2168 -0.7599
 7104SOL     OW32773   2.209   1.355   5.931  0.3229  0.0818 -0.0453
 7104SOL    HW132774   2.158   1.428   5.965 -0.3785 -0.5756  0.3129
 7104SOL    HW232775   2.189   1.291   5.999 -0.1117  1.6434  1.2882
 7105SOL     OW32776   0.270   0.616   7.121  0.1943  1.1224  0.4937
 7105SOL    HW132777   0.182   0.585   7.098  0.7623  0.1100 -0.2756
 7105SOL    HW232778   0.315   0.534   7.139 -0.6789 -0.0205 -2.5562
 7106SOL     OW32779   3.749   1.221   5.439  0.9402  0.6837  0.0594
 7106SOL    HW132780   3.830   1.178   5.410  0.2331 -0.8761  0.4235
 7106SOL    HW232781   3.763   1.214   5.534 -1.0298 -0.1740  0.2854
 7107SOL     OW32782   2.951   3.259   2.258  0.4112  0.3491  0.4762
 7107SOL    HW132783   2.950   3.207   2.178 -1.7557 -0.1449  0.8476
 7107SOL    HW232784   3.005   3.205   2.316  0.0162 -1.1152 -0.5246
 7108SOL     OW32785   1.602   0.200   8.046 -0.0989  0.0036  0.0355
 7108SOL    HW132786   1.602   0.262   8.119  0.5406 -0.3228  0.3096
 7108SOL    HW232787   1.695   0.182   8.058 -0.1257  0.7916  1.4031
 7109SOL     OW32788   4.720   3.617  10.685 -0.0633 -0.0938 -0.4270
 7109SOL    HW132789   4.639   3.661  10.658  2.2620  5.1366  1.1573
 7109SOL    HW232790   0.025   3.565  10.610 -1.1540 -0.7985 -0.3463
 7110SOL     OW32791   0.974   0.147   7.058 -0.0223  0.0891 -0.6387
 7110SOL    HW132792   1.051   0.200   7.077 -0.6689  0.5608  0.6833
 7110SOL    HW232793   0.958   0.162   6.965  2.1173 -0.3507 -1.0583
 7111SOL     OW32794   3.839   1.483   3.038 -0.5269 -0.2019  0.6180
 7111SOL    HW132795   3.797   1.487   2.952  1.0664 -0.8864 -0.1886
 7111SOL    HW232796   3.785   1.548   3.083  0.7924  0.4128  1.3308
 7112SOL     OW32797   1.123   4.132   5.789 -0.0844  0.0190 -0.2089
 7112SOL    HW132798   1.095   4.041   5.800 -2.2197  0.5780 -1.0700
 7112SOL    HW232799   1.214   4.109   5.768 -0.4139  1.5973 -3.4253
 7113SOL     OW32800   3.818   2.737   1.632  0.1961 -0.0859 -0.1095
 7113SOL    HW132801   3.727   2.713   1.615  0.1197  0.8879 -1.0474
 7113SOL    HW232802   3.809   2.810   1.694 -0.4356 -0.3691  0.1293
 7114SOL     OW32803   0.633   0.613   5.155 -0.0630 -0.0697  0.5203
 7114SOL    HW132804   0.635   0.666   5.234 -3.6171  1.9052 -0.7367
 7114SOL    HW232805   0.677   0.535   5.189  2.5813  2.2271  2.3993
 7115SOL     OW32806   2.481   2.642   0.869 -0.1748  0.0323  0.3260
 7115SOL    HW132807   2.487   2.670   0.778  0.8432  0.1774  0.4315
 7115SOL    HW232808   2.553   2.691   0.910 -0.0496 -1.1035  1.4801
 7116SOL     OW32809   3.896   3.697   0.937 -0.1784 -0.2823  0.2618
 7116SOL    HW132810   3.941   3.716   0.855 -0.9626 -1.3133 -0.4148
 7116SOL    HW232811   3.844   3.775   0.958  1.7914  0.5751  1.9620
 7117SOL     OW32812   1.644   3.059   7.088  0.1218 -0.2499 -0.0086
 7117SOL    HW132813   1.736   3.070   7.064 -0.0625 -0.3628 -0.7716
 7117SOL    HW232814   1.619   3.147   7.060 -0.4829 -0.0680  1.0916
 7118SOL     OW32815   3.863   2.595   0.819  0.3774 -0.0413 -0.4365
 7118SOL    HW132816   3.839   2.687   0.829 -2.4811 -0.9097  0.5895
 7118SOL    HW232817   3.787   2.560   0.772  1.5280  0.8043 -2.9308
 7119SOL     OW32818   0.378   0.278   3.660 -0.3516 -0.3500 -0.6235
 7119SOL    HW132819   0.380   0.366   3.622  1.9374 -1.3033 -2.6762
 7119SOL    HW232820   0.375   0.224   3.581  0.6505  0.8323 -1.4648
 7120SOL     OW32821   4.470   0.352   7.674 -0.5191 -0.1400 -0.1639
 7120SOL    HW132822   4.538   0.420   7.674 -0.6148 -0.0424  0.3172
 7120SOL    HW232823   4.409   0.379   7.742 -1.6035  1.2636 -1.7001
 7121SOL     OW32824   1.119   2.882   6.418  0.2562 -0.0138 -0.6347
 7121SOL    HW132825   1.118   2.911   6.327 -0.5317  1.6731 -0.0974
 7121SOL    HW232826   1.104   2.964   6.466 -1.7308  0.3619 -1.8895
 7122SOL     OW32827   1.622   0.122   2.020 -0.6422  0.2321  0.0666
 7122SOL    HW132828   1.528   0.116   2.037 -0.6263  0.0660  0.0938
 7122SOL    HW232829   1.638   0.214   2.042  0.6488  0.6603 -2.6968
 7123SOL     OW32830   3.886   2.174  13.512 -0.2338  0.5542 -0.1198
 7123SOL    HW132831   3.879   2.102  13.574  0.1648 -0.4055 -1.1931
 7123SOL    HW232832   3.904   2.138  13.425  1.4511  0.1991  0.3820
 7124SOL     OW32833   2.610   2.532   4.829  0.2971 -0.5665 -0.8605
 7124SOL    HW132834   2.572   2.619   4.835 -1.3311 -1.2881 -0.8232
 7124SOL    HW232835   2.542   2.482   4.874 -1.2082 -0.8791 -3.4964
 7125SOL     OW32836   0.907   2.737   7.714 -0.2487  0.1544  0.5644
 7125SOL    HW132837   0.821   2.719   7.676 -0.1724 -1.5309  1.2007
 7125SOL    HW232838   0.932   2.647   7.735 -0.4126  0.2710  1.2786
 7126SOL     OW32839   1.922   1.222   5.803 -0.2294  0.5996 -0.5301
 7126SOL    HW132840   1.883   1.295   5.852  0.2870  1.0650 -0.8131
 7126SOL    HW232841   1.986   1.188   5.864 -1.7409  1.9630  1.8168
 7127SOL     OW32842   1.549   1.472  14.273 -0.7451 -0.3590 -0.2074
 7127SOL    HW132843   1.642   1.489  14.260 -0.1830 -1.7080  2.0798
 7127SOL    HW232844   1.539   1.378  14.254 -0.0758 -0.0074 -2.2759
 7128SOL     OW32845   1.934   3.533  16.149 -0.5703  0.0830  0.4455
 7128SOL    HW132846   1.920   3.576  16.233 -1.0051 -0.7242  0.7836
 7128SOL    HW232847   1.900   3.603  16.093  0.3533  0.7371  0.6919
 7129SOL     OW32848   1.362   4.489  10.032 -0.3171  0.4271 -0.0128
 7129SOL    HW132849   1.394   4.444  10.110 -2.8445 -0.1670  0.6672
 7129SOL    HW232850   1.278   4.514  10.071 -0.1934 -0.1217  0.5969
 7130SOL     OW32851   0.092   0.218   1.468 -0.3071 -0.2169  0.4120
 7130SOL    HW132852   0.183   0.215   1.438 -0.1429  1.0029  0.7549
 7130SOL    HW232853   0.080   0.313   1.478  4.6907  0.5866 -1.1301
 7131SOL     OW32854   3.599   4.539   2.683 -0.4283 -0.3627 -0.2333
 7131SOL    HW132855   3.519   4.590   2.698 -0.7684 -0.2924 -2.3428
 7131SOL    HW232856   3.553   4.456   2.699  0.3865 -0.5317  1.2304
 7132SOL     OW32857   2.303   3.881   2.345 -0.3285  0.1342 -0.0682
 7132SOL    HW132858   2.237   3.880   2.276 -1.3646 -0.8856  0.9258
 7132SOL    HW232859   2.260   3.826   2.411  0.5340 -1.2143 -0.6274
 7133SOL     OW32860   3.340   3.509   2.675 -0.0913  0.1976  0.1922
 7133SOL    HW132861   3.252   3.488   2.706 -0.7975  0.6501 -1.5095
 7133SOL    HW232862   3.361   3.432   2.622 -2.9804 -0.7518  0.4305
 7134SOL     OW32863   2.246   4.597  16.032  0.2973  0.2320  0.3231
 7134SOL    HW132864   2.316   4.570  15.973  0.0832  2.2973 -0.8860
 7134SOL    HW232865   2.194   4.664  15.987  1.9252 -0.0036 -1.8974
 7135SOL     OW32866   1.503   4.574   5.475 -0.7643 -0.2736 -0.1776
 7135SOL    HW132867   1.495   4.608   5.386 -1.3001  1.4461  0.5497
 7135SOL    HW232868   1.550   4.493   5.452 -0.7139  0.3523 -2.2462
 7136SOL     OW32869   0.276   3.665   2.417  0.0361  0.2378 -0.0230
 7136SOL    HW132870   0.267   3.684   2.511  0.9617  0.7836 -0.0489
 7136SOL    HW232871   0.227   3.584   2.408  0.4189 -0.1858  1.6178
 7137SOL     OW32872   0.428   4.056   0.234  0.3310 -0.7039 -0.5351
 7137SOL    HW132873   0.500   4.064   0.296 -0.4154  0.9545  0.1126
 7137SOL    HW232874   0.432   4.147   0.203 -1.9168  0.3262  2.2207
 7138SOL     OW32875   2.104   1.842  12.940  0.3139 -0.4526 -0.6920
 7138SOL    HW132876   2.118   1.748  12.935  1.3778 -0.1433 -3.8135
 7138SOL    HW232877   2.194   1.870  12.958  0.3851 -0.1654 -1.4801
 7139SOL     OW32878   2.141   1.964   6.158 -0.2585 -0.7437 -0.0299
 7139SOL    HW132879   2.139   1.869   6.152  1.2511 -0.8093  0.3531
 7139SOL    HW232880   2.189   1.992   6.080  0.3072  0.2261  0.6584
 7140SOL     OW32881   4.706   3.980   6.832 -0.1377 -0.2251 -0.1537
 7140SOL    HW132882   4.649   3.921   6.783  0.9981 -2.0256  0.6808
 7140SOL    HW232883   4.639   4.048   6.828 -1.2786 -1.2827  0.6103
 7141SOL     OW32884   3.154   2.722   4.854  0.2928 -0.2769 -0.0123
 7141SOL    HW132885   3.221   2.673   4.901  0.4490 -0.4520 -0.4229
 7141SOL    HW232886   3.203   2.767   4.786 -0.0861  2.0796  1.2711
 7142SOL     OW32887   3.834   0.487   7.986 -0.4853  0.4347 -0.2898
 7142SOL    HW132888   3.786   0.512   7.907 -0.5603 -1.8606 -0.9723
 7142SOL    HW232889   3.810   0.559   8.044  1.9601  1.3231 -0.3566
 7143SOL     OW32890   0.118   1.847   8.848  0.0691 -0.0524  0.2672
 7143SOL    HW132891   0.190   1.906   8.866  0.4424 -0.2967 -0.4164
 7143SOL    HW232892   0.111   1.865   8.754 -0.9386 -1.3576  0.0866
 7144SOL     OW32893   1.408   4.690   9.130  0.0622 -0.1224  0.3068
 7144SOL    HW132894   1.383   4.600   9.111  0.1730  0.0873 -0.8323
 7144SOL    HW232895   1.363   4.707   9.213 -0.8748  0.6506 -0.3570
 7145SOL     OW32896   2.269   4.091  11.333  0.5035  0.5131 -0.3428
 7145SOL    HW132897   2.243   4.149  11.261  0.5924  0.1711 -0.6530
 7145SOL    HW232898   2.336   4.152  11.364 -0.8764  0.4286  2.7316
 7146SOL     OW32899   1.094   1.673   4.120  0.2704 -0.4823 -0.3609
 7146SOL    HW132900   1.183   1.653   4.148 -0.1971 -0.4502  1.1102
 7146SOL    HW232901   1.100   1.765   4.095  1.3319 -1.1576 -2.5823
 7147SOL     OW32902   2.670   2.143   3.773 -0.5638  0.0059  0.7146
 7147SOL    HW132903   2.764   2.129   3.767 -0.2866  1.5583  1.4247
 7147SOL    HW232904   2.641   2.064   3.728 -1.8720 -0.0497  1.6652
 7148SOL     OW32905   0.840   2.341   2.138 -0.5036  0.4171 -0.4836
 7148SOL    HW132906   0.896   2.413   2.166 -0.8299  0.1992  0.7270
 7148SOL    HW232907   0.779   2.384   2.079 -2.1268 -0.4798  0.5339
 7149SOL     OW32908   2.546   2.414  10.705 -0.0826 -0.2643  0.3602
 7149SOL    HW132909   2.609   2.411  10.778 -0.2814 -1.1868  0.5038
 7149SOL    HW232910   2.479   2.466  10.749 -0.0617 -0.4305  0.5930
 7150SOL     OW32911   3.773   0.789   7.600 -0.1396 -0.3524  0.2944
 7150SOL    HW132912   3.680   0.770   7.615 -0.3503 -0.4969 -1.2571
 7150SOL    HW232913   3.769   0.884   7.592  1.3099 -0.2338  0.9216
 7151SOL     OW32914   1.275   3.389   2.021 -0.7580  0.0977  0.1782
 7151SOL    HW132915   1.214   3.360   1.953 -1.7402 -1.0876  1.5608
 7151SOL    HW232916   1.219   3.399   2.098  0.5089 -1.2253  1.2787
 7152SOL     OW32917   3.742   3.887   7.027 -0.2799 -0.0575 -0.3512
 7152SOL    HW132918   3.826   3.915   7.062 -0.1334  1.4067 -1.8973
 7152SOL    HW232919   3.749   3.791   7.031 -1.3488 -0.1460 -0.5677
 7153SOL     OW32920   3.576   1.088   0.631  0.2756  0.4436  0.3895
 7153SOL    HW132921   3.510   1.120   0.570  1.3947  0.7750 -0.6365
 7153SOL    HW232922   3.640   1.052   0.570  0.4265 -0.6320  1.1776
 7154SOL     OW32923   4.434   0.449   3.030  0.2968 -0.2484 -0.2231
 7154SOL    HW132924   4.501   0.442   2.962  0.0046  1.6326 -0.6979
 7154SOL    HW232925   4.355   0.436   2.978 -0.6487  0.3389  1.0610
 7155SOL     OW32926   3.177   0.542   7.326  1.2745 -0.4481 -0.4480
 7155SOL    HW132927   3.186   0.580   7.414 -2.7404 -0.9082  0.1831
 7155SOL    HW232928   3.089   0.505   7.329  0.5759  1.2529  0.0235
 7156SOL     OW32929   4.384   2.304  16.994  0.3572  0.5520 -0.1982
 7156SOL    HW132930   4.309   2.357  17.022  1.1271  0.8637  1.2641
 7156SOL    HW232931   4.334   2.233  16.954 -0.6146  0.6400  0.8640
 7157SOL     OW32932   0.797   2.861  16.989  0.1936  0.1732 -0.6234
 7157SOL    HW132933   0.839   2.911  16.918  1.6847  0.4074  0.4267
 7157SOL    HW232934   0.758   2.929  17.044  0.5227  1.1084 -1.5246
 7158SOL     OW32935   1.714   1.247  15.435  0.6933  0.0672 -0.2871
 7158SOL    HW132936   1.763   1.221  15.512 -0.5486  0.0322  0.5021
 7158SOL    HW232937   1.634   1.197  15.455  1.5108 -1.2972 -0.4379
 7159SOL     OW32938   2.508   4.235   7.773  0.2904  0.2026  0.6677
 7159SOL    HW132939   2.510   4.207   7.681  1.4230 -0.5074  0.9144
 7159SOL    HW232940   2.415   4.220   7.792  0.5994 -0.5229  1.6340
 7160SOL     OW32941   4.242   0.928  12.982  0.3076  0.0565 -0.1190
 7160SOL    HW132942   4.253   0.992  12.912  0.6707 -2.2989 -2.2146
 7160SOL    HW232943   4.309   0.939  13.050  0.9844 -1.4088 -0.5467
 7161SOL     OW32944   2.909   1.489   5.405 -0.2313 -0.0863  0.3177
 7161SOL    HW132945   2.968   1.433   5.356  1.0660 -0.4635  2.3659
 7161SOL    HW232946   2.820   1.472   5.373  0.0607 -0.1875 -0.4472
 7162SOL     OW32947   4.141   0.488   0.628 -0.0640  0.3635  0.6618
 7162SOL    HW132948   4.234   0.469   0.641 -0.3087 -1.2505  0.1340
 7162SOL    HW232949   4.119   0.402   0.591 -2.1940  2.4698 -2.9000
 7163SOL     OW32950   2.070   3.921   8.340 -0.1720  0.1338  0.1164
 7163SOL    HW132951   2.135   3.989   8.359  0.2044  0.3715 -2.0459
 7163SOL    HW232952   2.133   3.849   8.339 -2.7067 -2.0302 -2.2593
 7164SOL     OW32953   4.529   3.700   1.722 -0.3607  0.1970 -0.1613
 7164SOL    HW132954   4.584   3.642   1.774 -1.3255 -1.1963 -0.6918
 7164SOL    HW232955   4.449   3.666   1.763  0.0814  1.1814  1.4893
 7165SOL     OW32956   2.913   4.051   9.723 -0.0939  0.5439  0.3848
 7165SOL    HW132957   2.884   4.039   9.813 -1.0708 -0.5097 -0.0658
 7165SOL    HW232958   2.827   4.071   9.685  2.3236  3.2863 -3.6545
 7166SOL     OW32959   4.297   1.491   8.861 -0.7532  0.2529  0.2205
 7166SOL    HW132960   4.369   1.479   8.800  1.7192  1.1270  2.9675
 7166SOL    HW232961   4.331   1.435   8.931 -1.4755  1.8324  1.8282
 7167SOL     OW32962   3.236   4.485   0.111  0.4421  0.1107  0.3762
 7167SOL    HW132963   3.248   4.442   0.196 -0.0485  0.6750  0.7262
 7167SOL    HW232964   3.284   4.421   0.057  0.6063  1.1221 -0.6722
 7168SOL     OW32965   3.731   2.247   1.740 -0.2972  0.5392  0.2734
 7168SOL    HW132966   3.819   2.248   1.778 -0.4661  0.8530  0.6568
 7168SOL    HW232967   3.680   2.283   1.813  0.4898  0.5320  0.8351
 7169SOL     OW32968   1.619   3.354   7.994 -0.4752 -0.1090 -0.7842
 7169SOL    HW132969   1.625   3.286   7.927 -0.0219 -1.0862  0.2396
 7169SOL    HW232970   1.706   3.392   7.991  0.2321 -1.5889  0.7787
 7170SOL     OW32971   1.431   4.179   6.730  0.0847 -0.1617  0.4523
 7170SOL    HW132972   1.368   4.181   6.802  0.3263 -1.7187  0.7092
 7170SOL    HW232973   1.484   4.257   6.745 -0.9714  0.4091  1.2471
 7171SOL     OW32974   0.993   1.378   3.122  0.0129 -0.0869  0.4629
 7171SOL    HW132975   0.977   1.319   3.196 -1.5816 -0.4945 -0.2056
 7171SOL    HW232976   0.987   1.464   3.165 -0.7980 -1.4068  2.9915
 7172SOL     OW32977   1.773   3.140   1.210 -0.3575 -0.2516 -0.5531
 7172SOL    HW132978   1.694   3.190   1.192 -0.8962 -1.2644 -1.0168
 7172SOL    HW232979   1.812   3.195   1.278 -1.4614  0.7144 -0.7039
 7173SOL     OW32980   4.220   3.876  14.244 -0.7967 -0.5462  0.1039
 7173SOL    HW132981   4.270   3.795  14.257  1.6486  1.0905  0.7820
 7173SOL    HW232982   4.233   3.926  14.324  0.0975 -0.0906 -0.3361
 7174SOL     OW32983   2.828   2.362   4.967 -0.7183  0.4470  1.1475
 7174SOL    HW132984   2.758   2.357   4.902 -0.7177 -0.8979  1.2525
 7174SOL    HW232985   2.883   2.424   4.920  1.4408 -0.3729  2.6081
 7175SOL     OW32986   4.306   2.392  10.367 -0.2358  1.0095 -0.0637
 7175SOL    HW132987   4.348   2.427  10.288 -2.1504 -0.9351 -1.9691
 7175SOL    HW232988   4.228   2.448  10.369 -0.7014  0.3386  0.3881
 7176SOL     OW32989   0.220   3.433  15.317  0.3364  0.7079 -0.1929
 7176SOL    HW132990   0.311   3.442  15.346  0.1602  1.9226 -0.0321
 7176SOL    HW232991   0.182   3.437  15.405 -1.0626 -1.5201 -0.6869
 7177SOL     OW32992   3.496   1.746   1.704  0.3667  0.3317 -0.2240
 7177SOL    HW132993   3.536   1.830   1.727 -2.1400  1.9460 -1.7962
 7177SOL    HW232994   3.509   1.693   1.782  3.0940  0.3044 -0.6920
 7178SOL     OW32995   0.609   3.827   3.523  0.4711  0.1346  0.9704
 7178SOL    HW132996   0.519   3.801   3.504  0.2644  1.7594 -0.2785
 7178SOL    HW232997   0.643   3.739   3.506 -1.2192 -0.1623 -0.8181
 7179SOL     OW32998   1.093   3.485  16.542 -0.6241 -0.6862 -0.0900
 7179SOL    HW132999   1.006   3.469  16.505 -0.4876 -0.6319 -0.4350
 7179SOL    HW233000   1.100   3.396  16.575  1.2015 -0.3002  0.5478
 7180SOL     OW33001   2.299   0.361   9.281 -0.5366  0.8065 -0.0067
 7180SOL    HW133002   2.210   0.328   9.293 -0.4513  0.7006  0.3482
 7180SOL    HW233003   2.277   0.449   9.249 -2.3990 -0.4827 -2.3126
 7181SOL     OW33004   3.637   2.478   1.270  0.8033 -0.3678  0.0172
 7181SOL    HW133005   3.688   2.550   1.231 -1.2916  1.5624  0.8358
 7181SOL    HW233006   3.570   2.525   1.320  0.3002 -1.5248  0.4342
 7182SOL     OW33007   2.982   1.290   7.135 -0.2534 -0.5952 -0.0758
 7182SOL    HW133008   2.942   1.323   7.215 -0.8144 -0.7693 -0.2831
 7182SOL    HW233009   2.910   1.310   7.075 -1.0974 -0.3410  1.0198
 7183SOL     OW33010   3.224   0.222  14.876  0.6482  0.3503 -0.5866
 7183SOL    HW133011   3.250   0.140  14.835  0.3362 -0.6606  1.2768
 7183SOL    HW233012   3.273   0.280  14.818 -0.6775  0.8412 -1.2153
 7184SOL     OW33013   3.395   3.435   1.096 -0.4714 -0.1334 -0.0902
 7184SOL    HW133014   3.319   3.390   1.059 -2.0046  1.9017  0.5558
 7184SOL    HW233015   3.454   3.449   1.022 -2.4840 -1.3138 -1.8988
 7185SOL     OW33016   0.511   4.666   0.554 -0.0313  0.5975  0.8716
 7185SOL    HW133017   0.593   4.709   0.574 -0.3273  1.5145  0.1460
 7185SOL    HW233018   0.448   0.014   0.569 -0.9228 -0.2010  0.9340
 7186SOL     OW33019   4.385   0.594   6.918 -0.5029  0.0542 -0.4245
 7186SOL    HW133020   4.467   0.633   6.886 -0.7741  0.3438 -0.7724
 7186SOL    HW233021   4.319   0.630   6.859 -1.7543 -1.2663  0.1989
 7187SOL     OW33022   2.605   4.613   7.054  0.2564 -0.0944 -0.1848
 7187SOL    HW133023   2.577   4.690   7.005 -0.8935 -0.2239  0.2825
 7187SOL    HW233024   2.694   4.639   7.078  0.2887 -0.5654  0.2152
 7188SOL     OW33025   0.422   0.549   7.692  0.2547 -0.1139 -0.2195
 7188SOL    HW133026   0.439   0.523   7.601  0.1317 -3.3783  0.6647
 7188SOL    HW233027   0.396   0.465   7.732 -2.6868  1.0460  0.2911
 7189SOL     OW33028   2.140   4.705   5.228 -0.2510  0.0654 -0.0557
 7189SOL    HW133029   2.216   0.040   5.240  0.7067 -1.2299  0.0864
 7189SOL    HW233030   2.143   4.646   5.304  0.4300  1.0030  0.6479
 7190SOL     OW33031   3.613   2.138  10.012  0.0583  0.1798  0.3016
 7190SOL    HW133032   3.652   2.196  10.078  1.4806 -2.4498  1.7895
 7190SOL    HW233033   3.692   2.102   9.974 -0.9917 -0.0751 -1.6474
 7191SOL     OW33034   1.807   2.076   7.374 -0.0066  0.1741  0.1703
 7191SOL    HW133035   1.821   1.982   7.379 -0.8009 -0.0397 -1.8825
 7191SOL    HW233036   1.876   2.099   7.437  0.9744 -2.2517 -0.0169
 7192SOL     OW33037   2.074   3.642  17.368  0.3491  0.5433  0.4043
 7192SOL    HW133038   1.996   3.696  17.376 -0.4835 -0.5686 -0.2022
 7192SOL    HW233039   2.141   3.692  17.414  1.9572 -0.9516 -0.2826
 7193SOL     OW33040   1.264   3.315   0.261  0.3198 -0.1509  0.4668
 7193SOL    HW133041   1.288   3.406   0.241  0.0164  0.2868  2.0606
 7193SOL    HW233042   1.184   3.308   0.208 -1.0151  1.3355  2.2780
 7194SOL     OW33043   3.060   4.121   7.375  0.3574 -0.4030  0.1102
 7194SOL    HW133044   3.090   4.032   7.393 -2.0998 -1.1124  0.5478
 7194SOL    HW233045   3.142   4.171   7.374 -0.5599  1.1076  0.6293
 7195SOL     OW33046   0.518   3.889   4.406  1.0546  0.8262  0.5862
 7195SOL    HW133047   0.565   3.807   4.392  0.0158  0.0633  1.5511
 7195SOL    HW233048   0.447   3.889   4.342  0.5308  1.6655  1.1636
 7196SOL     OW33049   2.302   1.406   8.413 -0.1394  0.1355  0.4626
 7196SOL    HW133050   2.334   1.477   8.358 -2.3141 -0.3747 -1.4607
 7196SOL    HW233051   2.213   1.437   8.434 -1.0965 -0.8467 -2.1927
 7197SOL     OW33052   4.347   0.123   1.670 -0.1203  0.1056 -0.0130
 7197SOL    HW133053   4.397   0.204   1.657 -1.0605  0.7372  0.2146
 7197SOL    HW233054   4.257   0.156   1.671 -0.3634 -0.6778  3.0545
 7198SOL     OW33055   1.592   2.152   4.889 -0.2397 -0.1193  0.1294
 7198SOL    HW133056   1.532   2.081   4.865  0.2244 -0.3791 -0.2832
 7198SOL    HW233057   1.553   2.226   4.843  1.6222  0.4342 -0.5552
 7199SOL     OW33058   0.198   1.129   6.634 -0.5976 -0.4214  0.5503
 7199SOL    HW133059   0.205   1.154   6.726  2.5470 -0.3926  0.3024
 7199SOL    HW233060   0.288   1.097   6.624  0.4432  2.4068  1.0775
 7200SOL     OW33061   1.345   3.743   7.608 -0.3462  0.3633  0.0891
 7200SOL    HW133062   1.345   3.770   7.516  0.9095  0.5513  0.1419
 7200SOL    HW233063   1.259   3.703   7.621  0.7919 -3.2804 -3.2368
 7201SOL     OW33064   3.988   1.218  11.527 -0.3386 -0.0891 -0.0667
 7201SOL    HW133065   3.935   1.151  11.570  0.6653 -0.4749  0.5743
 7201SOL    HW233066   4.015   1.176  11.445  0.1095  1.3312 -0.6522
 7202SOL     OW33067   2.073   3.822  11.522  0.4884 -0.4327  0.4607
 7202SOL    HW133068   2.133   3.797  11.452 -0.2891  1.5988 -0.9546
 7202SOL    HW233069   2.010   3.878  11.476  0.4506  0.0363  1.0789
 7203SOL     OW33070   0.344   2.005  13.599  0.1773 -0.9327  0.0990
 7203SOL    HW133071   0.409   2.026  13.532  0.3947 -0.5283  0.4441
 7203SOL    HW233072   0.392   2.046  13.671 -0.4850  0.6242 -0.3462
 7204SOL     OW33073   1.871   2.280   1.257  0.6534 -0.0826  0.1443
 7204SOL    HW133074   1.960   2.280   1.221  0.6346  0.5092  0.0927
 7204SOL    HW233075   1.836   2.194   1.233  1.9410 -0.7967  0.8063
 7205SOL     OW33076   2.939   0.634   2.335 -0.5088 -0.0681  0.0528
 7205SOL    HW133077   3.020   0.685   2.331 -1.2911  1.3069  2.0165
 7205SOL    HW233078   2.884   0.699   2.292  0.6703 -0.5349 -2.1895
 7206SOL     OW33079   0.642   0.239   8.118  0.4897 -0.5479  0.3733
 7206SOL    HW133080   0.580   0.198   8.057 -0.8697  0.0953  1.3028
 7206SOL    HW233081   0.577   0.260   8.185  0.4034 -1.1350  0.4744
 7207SOL     OW33082   4.281   0.042   3.392 -0.1215  0.1248 -0.2008
 7207SOL    HW133083   4.263   0.128   3.355 -0.8577  0.2103  0.3698
 7207SOL    HW233084   4.188   0.033   3.411  0.3007 -2.1857  0.8031
 7208SOL     OW33085   1.697   2.792   0.244 -0.4593  0.2269 -0.1711
 7208SOL    HW133086   1.699   2.729   0.172  0.0955  0.9678 -0.8128
 7208SOL    HW233087   1.607   2.824   0.247 -0.6930 -0.8509  4.4751
 7209SOL     OW33088   0.631   0.826  16.051  0.6367 -0.1154 -0.2240
 7209SOL    HW133089   0.693   0.895  16.076 -0.8228  0.7584  0.9427
 7209SOL    HW233090   0.551   0.877  16.059  0.8892 -0.1322  2.2764
 7210SOL     OW33091   1.656   0.009   2.397 -0.5008  0.0818  0.0842
 7210SOL    HW133092   1.707   0.049   2.467  1.7053 -2.6429  0.0172
 7210SOL    HW233093   1.730   4.703   2.344  0.2713 -0.5751  1.5385
 7211SOL     OW33094   2.883   0.408   1.769  0.7226  0.5051 -0.1949
 7211SOL    HW133095   2.836   0.481   1.728  0.2516  0.0661 -0.4342
 7211SOL    HW233096   2.809   0.350   1.788  1.1451 -0.2603 -0.9052
 7212SOL     OW33097   0.658   0.362  17.299 -0.3907  0.4535  0.3120
 7212SOL    HW133098   0.590   0.424  17.325  0.4359  0.9285  1.3040
 7212SOL    HW233099   0.726   0.380  17.363 -0.6316 -0.6700  0.8909
 7213SOL     OW33100   4.011   3.514   8.036 -0.0250 -0.0678  0.5891
 7213SOL    HW133101   3.983   3.434   8.081 -1.4499 -0.0103 -0.1825
 7213SOL    HW233102   4.034   3.484   7.949  2.1308  0.5851  0.9512
 7214SOL     OW33103   1.096   2.705  12.978  0.5687 -0.3184 -0.4089
 7214SOL    HW133104   1.050   2.629  12.943 -0.4509 -0.5845  1.4652
 7214SOL    HW233105   1.114   2.752  12.897 -3.3902  2.7195  0.4683
 7215SOL     OW33106   0.901   1.752   3.785 -0.4806  0.4533  0.3383
 7215SOL    HW133107   0.891   1.822   3.849  0.5006  0.1284  0.8460
 7215SOL    HW233108   0.810   1.733   3.762 -0.0583 -1.3425  0.1411
 7216SOL     OW33109   1.471   2.118   0.159  0.2612  0.5794 -0.7349
 7216SOL    HW133110   1.472   2.208   0.127  0.1176  0.4633 -1.0707
 7216SOL    HW233111   1.520   2.128   0.240  0.7563  0.4903 -1.0211
 7217SOL     OW33112   1.561   4.562   2.062  0.2326  0.8901 -0.2907
 7217SOL    HW133113   1.572   4.593   2.151  0.4890  0.2213 -0.0847
 7217SOL    HW233114   1.622   4.625   2.024  1.6152 -1.8849 -2.7160
 7218SOL     OW33115   0.066   0.038   5.777  0.3275  0.0790 -0.4887
 7218SOL    HW133116   4.722   0.088   5.824 -0.4149  0.6420 -2.1176
 7218SOL    HW233117   0.041   0.067   5.689 -1.5486 -0.8159 -0.2437
 7219SOL     OW33118   3.516   1.507   6.404 -0.4612 -0.1922  0.1411
 7219SOL    HW133119   3.446   1.503   6.469 -0.8821 -0.7150 -0.3357
 7219SOL    HW233120   3.477   1.438   6.350 -1.4406 -0.5403  1.2927
 7220SOL     OW33121   0.381   4.552   7.981 -0.3947 -0.6608  0.4494
 7220SOL    HW133122   0.384   4.506   8.065 -1.5949 -0.5057  0.5699
 7220SOL    HW233123   0.370   4.484   7.915 -0.3915  1.1031 -1.3614
 7221SOL     OW33124   1.062   2.723  17.111 -0.3799  0.5210 -0.2249
 7221SOL    HW133125   1.087   2.705  17.020 -0.2792  1.8460 -0.4628
 7221SOL    HW233126   1.059   2.818  17.108 -0.2991  0.4602 -2.6539
 7222SOL     OW33127   4.690   0.968  15.695 -0.4086  0.9747  0.2955
 7222SOL    HW133128   4.656   0.887  15.658  0.5528  0.5444  0.3568
 7222SOL    HW233129   0.061   0.952  15.684 -0.4372  1.1931 -0.2689
 7223SOL     OW33130   3.105   1.411   2.055 -0.1092  0.6857 -0.0069
 7223SOL    HW133131   3.091   1.319   2.078 -0.4548  0.4082 -1.3540
 7223SOL    HW233132   3.103   1.395   1.961  2.5218 -2.9127  0.5742
 7224SOL     OW33133   1.503   2.148   8.901  0.4716 -0.0892 -0.0455
 7224SOL    HW133134   1.503   2.232   8.946 -2.9507 -0.1694  0.1012
 7224SOL    HW233135   1.436   2.167   8.835 -1.8616 -1.8620  1.8137
 7225SOL     OW33136   1.169   0.602   4.004  0.3401 -0.2987 -0.4895
 7225SOL    HW133137   1.170   0.564   4.092  2.2776  2.2617  0.6087
 7225SOL    HW233138   1.214   0.685   4.021 -2.4341  0.6996  1.9606
 7226SOL     OW33139   3.267   4.675   0.734 -0.4584 -0.5697  0.4515
 7226SOL    HW133140   3.245   4.655   0.825 -2.6796  0.5072  0.1339
 7226SOL    HW233141   3.343   0.006   0.757 -1.2683  0.5042  0.5736
 7227SOL     OW33142   3.067   3.561   4.423  0.4877 -0.5446 -0.5548
 7227SOL    HW133143   2.999   3.522   4.367  0.7256  0.6491 -1.6635
 7227SOL    HW233144   3.008   3.582   4.495  2.6039 -1.3004  1.3631
 7228SOL     OW33145   2.953   0.659   7.165 -0.8454 -0.2867 -0.1789
 7228SOL    HW133146   2.968   0.727   7.098  0.6001  0.1369  0.5620
 7228SOL    HW233147   3.042   0.645   7.197 -0.7222 -0.2885 -0.5136
 7229SOL     OW33148   2.479   1.852   9.690 -0.3872  0.6005 -0.1838
 7229SOL    HW133149   2.492   1.757   9.685  0.7546  0.7689 -0.3916
 7229SOL    HW233150   2.503   1.866   9.782 -1.5769  2.6709 -0.1949
 7230SOL     OW33151   3.402   1.735   0.550  0.2521  0.6377  0.7371
 7230SOL    HW133152   3.497   1.747   0.551  0.1046  1.9529 -1.7177
 7230SOL    HW233153   3.364   1.823   0.557  0.3633  1.0438 -4.3033
 7231SOL     OW33154   2.773   3.128   0.074  0.1065 -0.0078 -0.1499
 7231SOL    HW133155   2.816   3.175   0.145 -1.0336 -1.0819  1.2265
 7231SOL    HW233156   2.833   3.134  17.692  0.8130 -1.3951  0.3102
 7232SOL     OW33157   3.883   3.233   7.393 -0.2673  0.0516  0.3960
 7232SOL    HW133158   3.950   3.302   7.391 -0.5386  0.2978 -0.4271
 7232SOL    HW233159   3.871   3.216   7.486  0.4902  0.2994  0.5395
 7233SOL     OW33160   1.668   2.350   5.315  0.1216 -0.0351  0.0483
 7233SOL    HW133161   1.594   2.290   5.323  0.5005 -0.1011  3.1289
 7233SOL    HW233162   1.653   2.383   5.227  1.6963  1.2867  0.2751
 7234SOL     OW33163   1.117   2.236  15.535 -0.0619  0.3064 -0.1368
 7234SOL    HW133164   1.124   2.328  15.510  0.7105  0.2245 -0.2171
 7234SOL    HW233165   1.170   2.191  15.468  2.5055  2.9516  0.1127
 7235SOL     OW33166   3.626   1.234  11.774  0.5321  0.0036  0.2832
 7235SOL    HW133167   3.679   1.161  11.805  0.9767  0.1388 -0.1593
 7235SOL    HW233168   3.553   1.192  11.729 -0.4739  2.8543 -0.7666
 7236SOL     OW33169   1.530   1.545   4.549 -0.3355 -0.3682 -0.3164
 7236SOL    HW133170   1.527   1.484   4.476  1.3877 -0.0291 -0.6645
 7236SOL    HW233171   1.617   1.585   4.553 -0.8475  0.5890  1.2517
 7237SOL     OW33172   3.478   1.722   3.582 -0.5761  0.5185  0.2950
 7237SOL    HW133173   3.515   1.650   3.633  0.8598  0.8310 -0.3185
 7237SOL    HW233174   3.410   1.670   3.539 -1.2022  0.9269  0.7829
 7238SOL     OW33175   4.540   3.945   7.290  0.2586  1.0418 -0.5687
 7238SOL    HW133176   4.558   3.853   7.308 -1.1766  0.9686  0.5220
 7238SOL    HW233177   4.448   3.954   7.265  0.5131 -1.3497 -2.3716
 7239SOL     OW33178   4.673   1.328   5.271 -0.1692 -0.4894  0.7696
 7239SOL    HW133179   0.014   1.360   5.335  0.0826  0.8716 -0.1505
 7239SOL    HW233180   0.004   1.300   5.196 -0.7659  2.0513 -0.6303
 7240SOL     OW33181   4.346   0.545   1.266  0.2874  0.3333  0.0944
 7240SOL    HW133182   4.366   0.541   1.173  1.3815  0.6664  0.3069
 7240SOL    HW233183   4.267   0.598   1.259 -0.8718 -1.6965 -2.1572
 7241SOL     OW33184   3.675   3.337   8.661  0.2773  0.2770 -0.0864
 7241SOL    HW133185   3.701   3.377   8.578  0.9089 -1.2725 -0.6308
 7241SOL    HW233186   3.585   3.319   8.636  0.9715 -0.1432 -2.2440
 7242SOL     OW33187   0.010   2.156   9.152  0.1731  0.0496 -0.1058
 7242SOL    HW133188   0.019   2.168   9.058  0.3432  1.4601  0.0843
 7242SOL    HW233189   0.035   2.064   9.159 -1.7874 -0.6467 -2.4073
 7243SOL     OW33190   0.994   1.793  13.395 -0.0060 -0.0375  0.0973
 7243SOL    HW133191   0.921   1.766  13.338 -1.0346  2.1505  0.3645
 7243SOL    HW233192   0.961   1.883  13.405 -0.7119 -0.0049 -2.5112
 7244SOL     OW33193   3.422   2.259   9.901  0.4339 -0.4942 -0.5452
 7244SOL    HW133194   3.388   2.179   9.863 -1.4275 -0.2055  0.5420
 7244SOL    HW233195   3.496   2.224   9.950  0.3987 -0.7566 -0.6815
 7245SOL     OW33196   2.495   1.812  15.856 -0.5770 -0.7527 -0.0475
 7245SOL    HW133197   2.434   1.739  15.845 -0.6784 -1.1462  3.1497
 7245SOL    HW233198   2.570   1.762  15.886 -1.1777 -1.1442  0.7881
 7246SOL     OW33199   0.819   0.771   2.872  0.8044  0.2814  0.2444
 7246SOL    HW133200   0.833   0.732   2.959 -0.2262 -1.8481 -0.5544
 7246SOL    HW233201   0.747   0.832   2.888 -0.0131 -0.4884 -0.5165
 7247SOL     OW33202   3.766   2.412   3.997 -0.5626  0.2478  0.2504
 7247SOL    HW133203   3.794   2.327   4.029 -3.3007 -0.2375  1.4296
 7247SOL    HW233204   3.699   2.423   4.065 -1.2937 -0.4221 -0.3702
 7248SOL     OW33205   0.658   0.429  12.652  0.4162  0.1007  0.3836
 7248SOL    HW133206   0.652   0.376  12.732 -0.5575  1.5258  1.2574
 7248SOL    HW233207   0.735   0.378  12.625 -0.7350 -1.1349 -0.5953
 7249SOL     OW33208   3.117   0.297   5.233 -0.2983  0.4299 -0.0369
 7249SOL    HW133209   3.160   0.335   5.157 -1.1896 -0.9735 -1.2459
 7249SOL    HW233210   3.183   0.233   5.261  1.2389  1.6308 -0.9146
 7250SOL     OW33211   2.213   2.131   2.621  0.2908 -0.2516  0.2773
 7250SOL    HW133212   2.273   2.156   2.692  0.7502  1.4876 -0.7248
 7250SOL    HW233213   2.269   2.157   2.548 -0.0373 -1.5201 -0.4308
 7251SOL     OW33214   0.140   2.554  12.278  0.4314  0.1035 -0.5929
 7251SOL    HW133215   0.066   2.601  12.239  0.3811 -1.2283 -2.0892
 7251SOL    HW233216   0.156   2.610  12.354  1.7860  0.0953 -0.8594
 7252SOL     OW33217   2.893   2.148   1.105  0.2364  0.2346 -0.3518
 7252SOL    HW133218   2.928   2.108   1.184  0.8629  1.0422 -0.2197
 7252SOL    HW233219   2.849   2.222   1.148 -2.0766 -1.9911  1.1324
 7253SOL     OW33220   0.790   3.257   6.420 -0.2899 -0.0125 -0.2706
 7253SOL    HW133221   0.790   3.181   6.479 -1.0190  0.0868 -0.1431
 7253SOL    HW233222   0.863   3.312   6.450  0.0945 -1.2303  1.0484
 7254SOL     OW33223   0.081   4.484   6.333 -0.1786  0.3289  0.2850
 7254SOL    HW133224   0.159   4.538   6.349 -0.5573  0.8849  0.2331
 7254SOL    HW233225   0.133   4.405   6.317  0.6270  0.8174  0.4633
 7255SOL     OW33226   2.460   1.117   8.544  0.0949  0.7187 -0.2462
 7255SOL    HW133227   2.454   1.150   8.634  0.0520 -0.1967  0.0854
 7255SOL    HW233228   2.523   1.046   8.561 -0.7686 -0.1488 -0.6889
 7256SOL     OW33229   2.904   0.241  13.483 -0.0478 -0.5653  1.0502
 7256SOL    HW133230   2.817   0.205  13.468  0.7780 -1.2179 -2.1380
 7256SOL    HW233231   2.963   0.170  13.460 -0.7409 -1.6689  2.6725
 7257SOL     OW33232   2.414   3.784   9.061  0.1719 -0.2266 -0.5196
 7257SOL    HW133233   2.483   3.735   9.017 -1.4768 -1.2558 -1.9528
 7257SOL    HW233234   2.339   3.728   9.042 -0.2455 -0.6742  2.3893
 7258SOL     OW33235   1.023   0.099   8.822  0.0350  0.2610  0.1523
 7258SOL    HW133236   1.105   0.146   8.803  0.2373 -0.6008 -1.1445
 7258SOL    HW233237   1.051   0.024   8.874  1.2321  0.6738  0.1100
 7259SOL     OW33238   1.819   1.438   1.024 -0.0028 -0.2632 -0.1890
 7259SOL    HW133239   1.890   1.435   1.089  1.2213 -0.7592 -1.5337
 7259SOL    HW233240   1.750   1.482   1.073 -0.6508 -0.3018 -1.0613
 7260SOL     OW33241   1.206   4.303  16.843  0.1131 -0.6520 -0.0214
 7260SOL    HW133242   1.208   4.285  16.937 -0.6054 -1.1916 -0.1060
 7260SOL    HW233243   1.200   4.398  16.835  1.2956 -0.7135 -1.6172
 7261SOL     OW33244   4.535   3.717   8.203  0.1465  0.0648 -0.7293
 7261SOL    HW133245   4.616   3.728   8.252  0.7394 -1.5449 -1.3499
 7261SOL    HW233246   4.475   3.681   8.269 -0.9556  0.3159 -1.5984
 7262SOL     OW33247   2.972   2.534  12.706 -0.2677 -0.3609 -0.2645
 7262SOL    HW133248   2.949   2.604  12.645 -0.5602 -0.8983 -0.7650
 7262SOL    HW233249   2.916   2.458  12.689  2.3442 -2.2790 -0.3316
 7263SOL     OW33250   0.387   0.091   7.604  0.2720  0.1520 -0.4274
 7263SOL    HW133251   0.432   0.171   7.578 -0.2082  0.6713  0.3536
 7263SOL    HW233252   0.304   0.132   7.629  1.6159  1.2679  2.2170
 7264SOL     OW33253   0.884   1.657   9.135 -0.2451  0.0797  0.7171
 7264SOL    HW133254   0.791   1.674   9.123  0.0439  1.1552 -0.0411
 7264SOL    HW233255   0.929   1.668   9.052 -1.7356 -2.0925 -0.3702
 7265SOL     OW33256   2.923   1.622  11.985 -0.6626 -0.7036  0.5391
 7265SOL    HW133257   2.827   1.620  11.978 -0.5344 -0.3942 -1.3160
 7265SOL    HW233258   2.947   1.553  12.047  1.6011 -2.1789 -1.9929
 7266SOL     OW33259   0.868   4.239  10.641 -0.3512 -0.4978  0.2311
 7266SOL    HW133260   0.912   4.170  10.691  1.6541  0.7558  0.1975
 7266SOL    HW233261   0.909   4.236  10.554  0.6401  1.2584  0.6455
 7267SOL     OW33262   3.209   0.653   2.770  0.6509 -0.1944 -0.3856
 7267SOL    HW133263   3.224   0.732   2.824 -1.5017 -0.1952  0.2189
 7267SOL    HW233264   3.282   0.600   2.802  1.7438 -0.0147 -2.5647
 7268SOL     OW33265   1.692   4.356   5.420 -0.0552  0.6918  0.2089
 7268SOL    HW133266   1.691   4.265   5.393  0.3974  0.2335  1.7571
 7268SOL    HW233267   1.718   4.404   5.341 -1.5407  1.7842  0.3862
 7269SOL     OW33268   2.092   3.554   3.840 -0.2555  0.0150  0.2037
 7269SOL    HW133269   2.133   3.596   3.916 -0.8799 -0.0791  0.5947
 7269SOL    HW233270   2.014   3.526   3.888 -1.3539  0.8724 -1.1037
 7270SOL     OW33271   0.115   2.541   7.609 -0.3356  0.0238 -0.0158
 7270SOL    HW133272   0.072   2.599   7.546  1.2848  1.0388 -0.1675
 7270SOL    HW233273   0.060   2.532   7.687 -2.4437  0.7442 -1.4203
 7271SOL     OW33274   3.953   1.996   2.725 -0.3290  0.1788 -0.0040
 7271SOL    HW133275   3.885   1.941   2.686 -0.3093  0.3463 -0.2730
 7271SOL    HW233276   3.932   2.080   2.685  0.1451  1.1723  1.8564
 7272SOL     OW33277   2.899   2.400   9.340 -0.5439  0.1788 -0.3837
 7272SOL    HW133278   2.862   2.442   9.263 -0.6563 -2.9851 -2.0415
 7272SOL    HW233279   2.927   2.325   9.288 -0.0964  1.3139 -1.7924
 7273SOL     OW33280   3.696   1.489   4.617  0.6020 -0.2030  0.0907
 7273SOL    HW133281   3.619   1.451   4.659  0.8077 -1.5670 -0.7372
 7273SOL    HW233282   3.724   1.408   4.574 -2.7210 -2.0146  1.3597
 7274SOL     OW33283   1.414   3.288   7.322 -0.5142 -0.2373  0.0388
 7274SOL    HW133284   1.449   3.279   7.411 -0.2464 -1.2972 -0.1726
 7274SOL    HW233285   1.360   3.210   7.321  0.9831 -1.3013  1.3354
 7275SOL     OW33286   3.261   4.187   6.554  0.1004 -0.6965  0.1578
 7275SOL    HW133287   3.211   4.200   6.635 -1.2646  1.2378 -0.9798
 7275SOL    HW233288   3.221   4.245   6.490 -2.7351 -1.0630  1.5983
 7276SOL     OW33289   2.128   2.102   4.814  0.0139  0.2260  0.2130
 7276SOL    HW133290   2.163   2.054   4.739  1.6120  0.5234  0.7624
 7276SOL    HW233291   2.081   2.037   4.866  1.7234  0.4274  2.0189
 7277SOL     OW33292   1.767   2.564   2.895 -0.2495  0.5196 -0.2175
 7277SOL    HW133293   1.697   2.537   2.835  0.2910  0.5518 -0.8555
 7277SOL    HW233294   1.727   2.646   2.924  0.2335  1.2113 -1.5288
 7278SOL     OW33295   4.683   3.312   6.120 -0.6663 -0.0414 -0.0762
 7278SOL    HW133296   4.622   3.374   6.079  2.2375  0.2905 -3.8343
 7278SOL    HW233297   4.639   3.282   6.199 -1.8489  0.4764 -0.5285
 7279SOL     OW33298   0.346   1.663   6.863  0.5190  0.3063  0.3461
 7279SOL    HW133299   0.285   1.727   6.827  2.7260  1.8987 -0.5922
 7279SOL    HW233300   0.355   1.613   6.782  0.7424  1.3841 -0.2946
 7280SOL     OW33301   3.185   4.269   2.492  0.1322 -0.1644  0.6371
 7280SOL    HW133302   3.211   4.361   2.492 -0.4231 -0.0052 -2.4714
 7280SOL    HW233303   3.268   4.225   2.473 -0.4938 -1.0496 -0.0485
 7281SOL     OW33304   2.565   0.498   8.759  0.1736 -0.5403  0.2771
 7281SOL    HW133305   2.581   0.536   8.845 -2.1929 -2.1564  1.4423
 7281SOL    HW233306   2.656   0.490   8.731 -0.2365  0.8397 -1.4007
 7282SOL     OW33307   1.286   1.496   3.713  0.4911  0.3922 -0.1707
 7282SOL    HW133308   1.342   1.424   3.683  1.1333  0.4711  0.8208
 7282SOL    HW233309   1.266   1.551   3.637 -0.4617  2.7244  1.7564
 7283SOL     OW33310   4.631   0.679   4.240 -0.2162 -0.3188 -0.1832
 7283SOL    HW133311   4.609   0.647   4.328  2.4157 -0.1326  0.5293
 7283SOL    HW233312   0.003   0.667   4.232  0.0793  0.9714  1.1781
 7284SOL     OW33313   2.971   1.719   1.553 -0.0594 -0.3359  0.9754
 7284SOL    HW133314   2.894   1.746   1.604 -0.3496 -1.5463  1.1680
 7284SOL    HW233315   3.030   1.721   1.629 -1.4870  0.6389  2.0559
 7285SOL     OW33316   4.025   2.225   6.362  0.1621  0.5061 -0.2582
 7285SOL    HW133317   3.993   2.292   6.302  0.2717  1.0876  0.3299
 7285SOL    HW233318   4.104   2.192   6.320  0.0573  0.5124 -0.4573
 7286SOL     OW33319   3.817   4.521  14.714 -0.0567 -0.0628 -0.1019
 7286SOL    HW133320   3.784   4.608  14.738 -0.4059 -0.8194  2.0740
 7286SOL    HW233321   3.874   4.555  14.644  2.5342 -2.2053  0.9841
 7287SOL     OW33322   2.663   2.568   3.140  0.0639 -0.2563 -0.4518
 7287SOL    HW133323   2.734   2.588   3.078 -0.8275  1.9054 -0.7665
 7287SOL    HW233324   2.666   2.647   3.193 -0.0737  0.4006 -1.4103
 7288SOL     OW33325   4.317   1.832   2.883  0.3060  0.0338  0.0222
 7288SOL    HW133326   4.229   1.867   2.876  0.9667  1.8291  0.6509
 7288SOL    HW233327   4.351   1.887   2.954  2.7462 -0.3099 -0.8750
 7289SOL     OW33328   4.668   2.385   4.181 -0.1847 -0.0549 -0.0446
 7289SOL    HW133329   4.630   2.467   4.213 -1.3823 -1.0129  0.9902
 7289SOL    HW233330   4.595   2.328   4.205  1.7429 -1.7144  1.8907
 7290SOL     OW33331   2.672   4.064  15.670  0.5574 -0.0363  0.6383
 7290SOL    HW133332   2.614   4.002  15.713 -2.9651  0.9097 -2.7500
 7290SOL    HW233333   2.634   4.146  15.702 -0.3602 -1.7167  3.8442
 7291SOL     OW33334   3.286   2.373   9.669 -0.6823  0.0255 -0.0492
 7291SOL    HW133335   3.241   2.292   9.644 -0.9197  0.5338 -1.2672
 7291SOL    HW233336   3.337   2.337   9.742 -0.2038  1.2171  0.1961
 7292SOL     OW33337   1.182   0.312   7.302  0.1130 -0.4638 -0.1581
 7292SOL    HW133338   1.219   0.237   7.349 -1.8073 -0.2310  1.7080
 7292SOL    HW233339   1.184   0.289   7.209 -2.7869  2.5132 -0.9403
 7293SOL     OW33340   0.456   4.096   2.092  0.0405  0.1777 -0.0137
 7293SOL    HW133341   0.513   4.086   2.168  0.3943  1.2647 -0.1344
 7293SOL    HW233342   0.483   4.025   2.034 -2.2814 -1.3994  0.8415
 7294SOL     OW33343   1.815   1.220   2.326  0.1753 -0.4520 -0.3213
 7294SOL    HW133344   1.892   1.232   2.382  0.2400 -2.8199  0.1170
 7294SOL    HW233345   1.826   1.294   2.267  0.1775 -1.0834 -1.1070
 7295SOL     OW33346   0.904   1.370   5.208 -0.1047 -0.1285  0.0710
 7295SOL    HW133347   0.848   1.419   5.269  0.8897  2.2884 -0.9298
 7295SOL    HW233348   0.840   1.344   5.141  0.2264  0.3057 -0.4146
 7296SOL     OW33349   1.151   3.038   9.432 -0.0320  0.4189  0.1431
 7296SOL    HW133350   1.073   2.983   9.435 -1.1419  2.0452  1.5127
 7296SOL    HW233351   1.193   2.992   9.359  1.7425  2.5722 -0.2271
 7297SOL     OW33352   2.798   3.963   7.761 -0.3805 -0.0073 -0.6372
 7297SOL    HW133353   2.872   4.022   7.745 -0.8477  0.6772 -0.2722
 7297SOL    HW233354   2.758   3.944   7.676 -0.4538 -0.9309 -0.3938
 7298SOL     OW33355   2.998   1.261   3.742  0.0514  0.1729  0.7508
 7298SOL    HW133356   3.079   1.222   3.775  1.4034 -0.4488 -3.3651
 7298SOL    HW233357   2.975   1.210   3.664  1.8505  0.3858  0.0812
 7299SOL     OW33358   0.043   0.499   7.061  0.0414 -0.0057  0.2490
 7299SOL    HW133359   0.059   0.404   7.056 -0.5395 -0.0914 -0.0071
 7299SOL    HW233360   4.690   0.489   7.119 -0.5002 -0.6231 -0.5496
 7300SOL     OW33361   3.576   2.564  14.923 -0.1574  0.1979 -0.5282
 7300SOL    HW133362   3.651   2.506  14.913 -0.8741 -0.5835 -1.3073
 7300SOL    HW233363   3.508   2.501  14.946 -0.4684  0.7013 -0.0552
 7301SOL     OW33364   1.694   2.161  13.515  0.3481 -0.0990  0.4039
 7301SOL    HW133365   1.610   2.173  13.470 -0.7748 -1.0683  2.2647
 7301SOL    HW233366   1.757   2.179  13.445  0.3919 -2.6200 -0.2039
 7302SOL     OW33367   3.308   2.779  10.373  0.3143 -0.0055  0.1240
 7302SOL    HW133368   3.399   2.761  10.395 -0.4636 -2.0475  1.7111
 7302SOL    HW233369   3.309   2.874  10.384  0.8889 -0.1580  1.3219
 7303SOL     OW33370   3.408   0.403  10.495  0.6215 -0.0215  0.2573
 7303SOL    HW133371   3.333   0.450  10.533 -0.8773 -0.2221 -2.4541
 7303SOL    HW233372   3.428   0.470  10.430 -0.0265 -0.0528  0.0196
 7304SOL     OW33373   2.106   4.642   6.774 -0.2282  0.4285 -0.0441
 7304SOL    HW133374   2.019   4.675   6.795 -0.9681 -0.6824 -1.3553
 7304SOL    HW233375   2.129   4.712   6.713  0.1374  0.4405  0.1082
 7305SOL     OW33376   0.757   2.726  13.521 -0.1918 -0.1308 -0.3397
 7305SOL    HW133377   0.800   2.783  13.585 -0.3299 -0.7361  0.2951
 7305SOL    HW233378   0.687   2.785  13.495  0.8704  1.2758 -0.0020
 7306SOL     OW33379   1.465   3.221   1.559 -0.1955  0.2231 -0.2892
 7306SOL    HW133380   1.470   3.125   1.555  3.8055  0.3580  0.9081
 7306SOL    HW233381   1.401   3.246   1.493 -1.2177 -1.5214  0.0226
 7307SOL     OW33382   3.145   4.411   6.757 -0.0668 -0.4828  0.0301
 7307SOL    HW133383   3.057   4.438   6.784 -0.3017  1.6657 -2.9737
 7307SOL    HW233384   3.150   4.320   6.787  1.4562  0.1272  1.6121
 7308SOL     OW33385   0.692   2.160   4.129  0.2041  0.1537 -0.2148
 7308SOL    HW133386   0.668   2.104   4.056 -0.1207  1.9200 -1.4665
 7308SOL    HW233387   0.625   2.131   4.191 -0.9590  1.8977 -0.6660
 7309SOL     OW33388   3.952   0.094   8.254  0.1798  0.5429 -0.0252
 7309SOL    HW133389   3.916   0.101   8.165  0.6434  2.1129 -0.0983
 7309SOL    HW233390   3.870   0.114   8.298 -0.3062 -1.5736  0.0257
 7310SOL     OW33391   4.308   0.560   1.784 -0.2841  0.1436 -0.2983
 7310SOL    HW133392   4.328   0.486   1.727  1.9340 -1.1497  2.0954
 7310SOL    HW233393   4.213   0.556   1.780 -0.2564 -0.4573 -0.3783
 7311SOL     OW33394   4.091   3.222   8.371 -0.4663  0.3180 -0.3178
 7311SOL    HW133395   4.051   3.140   8.403  0.1691  0.3615  0.5913
 7311SOL    HW233396   4.184   3.227   8.395 -0.5142 -1.3679  0.2642
 7312SOL     OW33397   1.555   2.480  16.646 -0.0550  0.0946  0.7149
 7312SOL    HW133398   1.626   2.544  16.648 -0.8686  0.9691  1.8655
 7312SOL    HW233399   1.494   2.519  16.708  1.0361 -0.1968  1.9691
 7313SOL     OW33400   2.830   0.905   3.432  0.4315  0.0515  0.5184
 7313SOL    HW133401   2.888   0.856   3.373 -1.1325  2.1344 -2.7773
 7313SOL    HW233402   2.809   0.848   3.505  0.5937 -0.5876  0.0618
 7314SOL     OW33403   1.648   4.276   8.894  0.2169 -0.1567  0.1709
 7314SOL    HW133404   1.640   4.370   8.909  0.4065 -0.1683  0.3423
 7314SOL    HW233405   1.570   4.258   8.840  0.4068 -0.6825  0.0720
 7315SOL     OW33406   0.260   0.724   8.511 -0.0705  0.3608 -0.5072
 7315SOL    HW133407   0.305   0.659   8.564 -0.0180  0.3619 -0.5505
 7315SOL    HW233408   0.262   0.792   8.578 -2.3735 -2.1711  2.1038
 7316SOL     OW33409   1.301   1.356   8.329  0.1400 -0.0889  0.1843
 7316SOL    HW133410   1.375   1.414   8.346  0.3786 -1.0369  2.3550
 7316SOL    HW233411   1.284   1.373   8.236 -0.5522 -0.4144  0.2531
 7317SOL     OW33412   4.111   2.843   6.779 -0.6262  0.2416  0.1167
 7317SOL    HW133413   4.129   2.813   6.689  2.2879 -1.5274  1.2695
 7317SOL    HW233414   4.146   2.770   6.831  0.5515  1.2277  0.7133
 7318SOL     OW33415   3.378   3.669  10.175  0.0592  0.0483  0.2803
 7318SOL    HW133416   3.405   3.622  10.254 -0.5479 -0.5486  0.1422
 7318SOL    HW233417   3.399   3.606  10.106 -1.6489 -0.4046  0.1759
 7319SOL     OW33418   1.650   2.606   2.604  0.2571  0.0970 -0.6743
 7319SOL    HW133419   1.595   2.539   2.643  0.0801  0.7989  0.2624
 7319SOL    HW233420   1.587   2.676   2.588 -0.6889 -0.7124 -0.4402
 7320SOL     OW33421   2.292   4.703   7.642  0.3298 -0.0113  0.4608
 7320SOL    HW133422   2.224   0.044   7.620  0.7354 -0.0434 -0.8684
 7320SOL    HW233423   2.241   4.623   7.639  2.0367 -1.1498  1.5260
 7321SOL     OW33424   1.089   4.559   2.133  0.1169 -0.1951  0.6065
 7321SOL    HW133425   1.108   4.546   2.040 -0.4227 -0.2208  0.5023
 7321SOL    HW233426   1.136   4.642   2.147  0.3624 -0.0028 -1.2347
 7322SOL     OW33427   3.433   0.089   1.125  0.1948 -0.2458 -0.1568
 7322SOL    HW133428   3.342   0.067   1.106  0.2261  0.5091 -1.2263
 7322SOL    HW233429   3.429   0.122   1.215 -1.3339  0.8349 -0.6264
 7323SOL     OW33430   3.407   4.367  17.620  0.2906 -0.6220  0.5759
 7323SOL    HW133431   3.399   4.448  17.570  0.3313 -1.1590 -0.2993
 7323SOL    HW233432   3.481   4.320  17.581 -0.5109 -0.9239 -0.5937
 7324SOL     OW33433   2.475   4.397  10.072 -0.1684  0.0079 -0.5059
 7324SOL    HW133434   2.472   4.305  10.101  1.5837  0.8449  2.3257
 7324SOL    HW233435   2.435   4.444  10.144  0.8721 -1.1504  0.8252
 7325SOL     OW33436   3.881   3.511  13.195 -0.1596 -0.2393  0.3005
 7325SOL    HW133437   3.858   3.594  13.236 -0.3710 -0.0605 -0.1767
 7325SOL    HW233438   3.969   3.498  13.229  0.6570 -0.3545 -1.8144
 7326SOL     OW33439   3.068   2.253  10.218  0.3956  0.6226 -0.1947
 7326SOL    HW133440   3.029   2.196  10.152  0.8757  0.8190 -0.6517
 7326SOL    HW233441   3.135   2.188  10.238  1.0250  1.2901 -0.0976
 7327SOL     OW33442   2.366   1.403   0.813 -0.2668  0.2773 -0.6485
 7327SOL    HW133443   2.362   1.399   0.717  0.2949  1.4258 -0.7081
 7327SOL    HW233444   2.452   1.361   0.823 -0.2071  0.1585 -1.6017
 7328SOL     OW33445   0.396   3.547   3.307 -0.4602 -0.2200  0.2548
 7328SOL    HW133446   0.306   3.534   3.276 -0.3749 -0.1952  0.0047
 7328SOL    HW233447   0.419   3.623   3.255 -1.0204  1.5964  2.6465
 7329SOL     OW33448   2.777   0.699  14.226 -0.0215  0.3028 -0.1952
 7329SOL    HW133449   2.751   0.621  14.275 -1.8643 -0.0332 -1.7166
 7329SOL    HW233450   2.841   0.653  14.172 -1.0680 -0.2543 -0.9321
 7330SOL     OW33451   3.675   2.976  12.193 -0.4284 -0.2083  0.0114
 7330SOL    HW133452   3.655   3.066  12.166 -1.8852 -0.9111 -1.2382
 7330SOL    HW233453   3.720   2.994  12.275  0.3154 -1.1324 -0.1889
 7331SOL     OW33454   4.365   4.321  17.493  0.4510 -0.4748  0.6385
 7331SOL    HW133455   4.307   4.372  17.550  0.8048  1.7440 -0.9701
 7331SOL    HW233456   4.398   4.260  17.559  0.7592 -1.2390 -0.2320
 7332SOL     OW33457   1.134   4.651   5.462 -0.0214 -0.4511  0.0698
 7332SOL    HW133458   1.172   0.016   5.465 -0.3530 -0.3238  0.6128
 7332SOL    HW233459   1.171   4.609   5.540  1.1615  1.5247  0.5950
 7333SOL     OW33460   3.357   0.078   2.125 -0.0608 -0.0779  0.1378
 7333SOL    HW133461   3.278   0.052   2.172 -0.4651  0.7263 -0.1136
 7333SOL    HW233462   3.413   0.019   2.177 -1.5349 -0.6268  1.1073
 7334SOL     OW33463   0.758   1.429  17.039 -0.4536  0.5805  0.2431
 7334SOL    HW133464   0.779   1.336  17.045  0.9789  0.8856 -0.0793
 7334SOL    HW233465   0.739   1.441  16.946  2.6215 -1.8188 -0.7254
 7335SOL     OW33466   1.449   4.618   8.483  0.4753 -0.6485 -0.0739
 7335SOL    HW133467   1.412   4.533   8.462 -0.1151 -0.4120  0.0142
 7335SOL    HW233468   1.472   4.640   8.393 -2.1282 -1.0241 -0.8162
 7336SOL     OW33469   1.328   3.574   0.729  0.4525  0.8602  0.6383
 7336SOL    HW133470   1.344   3.480   0.739 -1.4971  0.4877  0.2447
 7336SOL    HW233471   1.412   3.612   0.755  1.7329  0.2408 -2.5989
 7337SOL     OW33472   4.367   0.038   4.747 -0.6178  0.0238 -0.1457
 7337SOL    HW133473   4.428   0.087   4.692  0.4329 -1.4941 -0.3259
 7337SOL    HW233474   4.303   0.104   4.773 -0.5096  0.3028 -0.5810
 7338SOL     OW33475   3.057   0.252  15.093  0.1034 -0.1945  0.0218
 7338SOL    HW133476   3.096   0.266  15.007  0.6125 -4.0661 -0.3517
 7338SOL    HW233477   3.002   0.331  15.095 -0.1612 -0.3335 -1.8540
 7339SOL     OW33478   3.108   4.707  16.653 -0.3289 -0.1067 -0.0244
 7339SOL    HW133479   3.133   0.059  16.707 -0.2789  1.2508 -1.9390
 7339SOL    HW233480   3.077   0.040  16.581 -0.1615 -1.4391 -1.1202
 7340SOL     OW33481   0.894   3.624   8.628  0.1003 -0.9375 -0.2253
 7340SOL    HW133482   0.929   3.665   8.707  0.2001 -1.5491  0.0463
 7340SOL    HW233483   0.815   3.582   8.661  0.9602 -2.0606  0.3946
 7341SOL     OW33484   0.699   2.001   3.673  0.1850 -0.5350 -0.6800
 7341SOL    HW133485   0.748   2.073   3.713 -1.2021  0.4788 -0.8220
 7341SOL    HW233486   0.647   1.971   3.747  0.5361 -0.1482 -0.2785
 7342SOL     OW33487   1.709   3.606  17.002 -0.1293 -0.4287  0.5503
 7342SOL    HW133488   1.712   3.693  16.963 -1.1196 -0.3648  0.6208
 7342SOL    HW233489   1.652   3.566  16.936  0.1225  0.2824 -0.1000
 7343SOL     OW33490   3.615   0.399   6.105  0.0665  0.2586  0.2815
 7343SOL    HW133491   3.636   0.373   6.195 -2.1585  0.6561  0.9189
 7343SOL    HW233492   3.680   0.343   6.063 -0.1301 -1.0204  1.6657
 7344SOL     OW33493   1.532   2.634  10.099  0.6509  0.6737  0.6957
 7344SOL    HW133494   1.602   2.697  10.085  0.5081  0.4248 -1.2071
 7344SOL    HW233495   1.564   2.549  10.130  1.1958 -0.0899 -1.9657
 7345SOL     OW33496   2.042   0.927  12.496 -0.3900 -0.1698 -0.6691
 7345SOL    HW133497   2.011   0.987  12.564  0.1212 -0.1510 -0.4517
 7345SOL    HW233498   2.116   0.886  12.542 -1.5655  0.3433  1.6607
 7346SOL     OW33499   0.651   3.583   4.459 -0.3388  0.1241 -0.3439
 7346SOL    HW133500   0.688   3.646   4.520  0.0621  0.0999 -0.5618
 7346SOL    HW233501   0.714   3.513   4.477 -1.3074 -0.3767  1.0848
 7347SOL     OW33502   2.680   3.539   1.992 -0.0667  0.0179  0.0168
 7347SOL    HW133503   2.658   3.588   1.913 -0.6192  0.2759  0.3355
 7347SOL    HW233504   2.730   3.602   2.045 -1.5245  1.1813  0.0187
 7348SOL     OW33505   3.045   3.711   3.386  0.3377  0.1285 -0.0890
 7348SOL    HW133506   2.960   3.669   3.395 -0.1901  1.3457  0.7140
 7348SOL    HW233507   3.086   3.641   3.336 -0.9609 -1.8303  1.6104
 7349SOL     OW33508   3.267   0.198   6.777 -0.2094  0.2933 -0.1503
 7349SOL    HW133509   3.217   0.212   6.857 -0.3288  1.6935 -0.4853
 7349SOL    HW233510   3.208   0.149   6.719 -1.4455 -0.2620  1.5821
 7350SOL     OW33511   3.896   0.042   0.769  0.1009  0.8035  0.3802
 7350SOL    HW133512   3.814   0.030   0.722  0.8303  0.6949 -0.8453
 7350SOL    HW233513   3.876   0.013   0.858 -0.2486 -1.4965 -0.4462
 7351SOL     OW33514   0.478   3.060   1.129 -0.3854  0.3139 -0.6225
 7351SOL    HW133515   0.488   3.151   1.101  1.5690 -0.2255 -1.6800
 7351SOL    HW233516   0.466   3.020   1.042 -0.5465  2.0185 -1.3767
 7352SOL     OW33517   1.854   2.329   7.272  0.0589  0.4479  0.3468
 7352SOL    HW133518   1.807   2.255   7.310 -0.6301  0.7855  0.1625
 7352SOL    HW233519   1.788   2.370   7.216 -0.1552 -0.7234 -0.2611
 7353SOL     OW33520   0.700   3.153   5.473  0.2039  0.5083 -0.2198
 7353SOL    HW133521   0.742   3.211   5.537  0.2151 -0.6031  0.7721
 7353SOL    HW233522   0.746   3.181   5.394  0.3885 -3.2921 -1.4381
 7354SOL     OW33523   1.923   0.789  10.870  0.5037 -0.1689 -0.4587
 7354SOL    HW133524   1.881   0.722  10.815 -0.6079 -0.0564  0.2614
 7354SOL    HW233525   1.852   0.823  10.924  2.7101  2.9469  0.4426
 7355SOL     OW33526   3.907   0.133   1.407 -0.2099  0.6123 -0.1933
 7355SOL    HW133527   3.869   0.124   1.320  1.5735  1.0777 -1.0293
 7355SOL    HW233528   3.898   0.227   1.422 -0.2905 -0.0289  3.7876
 7356SOL     OW33529   0.054   2.344   8.686  0.4499  0.5314 -0.2472
 7356SOL    HW133530   0.116   2.412   8.662  0.1473  1.1258  0.6450
 7356SOL    HW233531   4.701   2.380   8.641  0.4106 -0.9841 -1.3973
 7357SOL     OW33532   2.822   1.601   3.371  0.2123 -0.4954 -0.1354
 7357SOL    HW133533   2.829   1.659   3.447 -0.1821 -1.2500  0.4816
 7357SOL    HW233534   2.896   1.630   3.318 -0.6699 -3.4700 -2.9391
 7358SOL     OW33535   1.033   4.440   6.392  0.4016 -0.0468 -0.3680
 7358SOL    HW133536   1.033   4.423   6.486  0.5405 -2.0828 -0.7399
 7358SOL    HW233537   1.111   4.396   6.357  0.0718 -1.4708  0.7480
 7359SOL     OW33538   2.342   3.685  10.977  0.5069 -0.5745  0.1041
 7359SOL    HW133539   2.315   3.774  11.001 -0.8154 -0.9194 -0.0892
 7359SOL    HW233540   2.257   3.651  10.948 -1.3432  3.4718  0.7312
 7360SOL     OW33541   4.215   1.214  14.473 -0.5836  0.1666 -0.2264
 7360SOL    HW133542   4.241   1.215  14.381 -0.1393 -1.0264 -0.1216
 7360SOL    HW233543   4.300   1.223  14.517 -0.5962 -0.6923 -0.0145
 7361SOL     OW33544   1.225   3.122   7.312  0.1442  0.0470 -0.2346
 7361SOL    HW133545   1.196   3.042   7.356 -0.1917 -0.0901 -0.7010
 7361SOL    HW233546   1.148   3.144   7.260  1.1429  0.5761 -1.4860
 7362SOL     OW33547   3.948   1.769   3.246 -0.3311 -0.2418  0.0721
 7362SOL    HW133548   3.945   1.718   3.327  3.0294 -0.9981 -0.2842
 7362SOL    HW233549   3.863   1.750   3.207  0.7717 -0.9161 -1.9928
 7363SOL     OW33550   4.346   2.112   9.984 -0.3036  0.3155  0.2487
 7363SOL    HW133551   4.315   2.033   9.939  0.3100  1.8465 -2.8789
 7363SOL    HW233552   4.286   2.113  10.059 -0.2579 -0.3212  0.2908
 7364SOL     OW33553   2.514   1.272   5.927  0.0790 -0.6064  0.3252
 7364SOL    HW133554   2.572   1.251   6.001 -0.5096  1.2985  1.3151
 7364SOL    HW233555   2.438   1.307   5.973  0.5050  0.7862 -0.0511
 7365SOL     OW33556   3.651   1.166   4.471  0.2913 -0.4386  0.7122
 7365SOL    HW133557   3.638   1.234   4.405  1.7988 -1.2981 -0.4557
 7365SOL    HW233558   3.610   1.095   4.421  0.6702 -0.2483  0.1331
 7366SOL     OW33559   4.218   1.710  16.155 -0.5267  0.7928  0.6918
 7366SOL    HW133560   4.200   1.684  16.065  0.2027  0.4539  0.6410
 7366SOL    HW233561   4.311   1.685  16.163 -0.2898  1.9108  1.4917
 7367SOL     OW33562   2.098   3.002   7.295  0.4489  0.1611 -0.1784
 7367SOL    HW133563   2.106   2.977   7.203  1.6107 -0.4917  0.1102
 7367SOL    HW233564   2.127   2.921   7.338  2.4795  0.8861 -0.1996
 7368SOL     OW33565   3.491   4.234   6.735  0.2883  0.1667  0.3390
 7368SOL    HW133566   3.432   4.261   6.665  1.8424  0.1441 -0.9907
 7368SOL    HW233567   3.461   4.293   6.804 -1.1257 -1.6243  1.2297
 7369SOL     OW33568   3.057   0.430   3.018 -0.2203 -0.2314 -0.2756
 7369SOL    HW133569   2.966   0.453   3.002  0.6023  0.9688 -3.2547
 7369SOL    HW233570   3.093   0.498   2.961 -2.4112  0.3335 -0.9765
 7370SOL     OW33571   0.445   4.206   5.906  0.1256  0.0324  0.0205
 7370SOL    HW133572   0.445   4.187   5.813  0.0626 -2.1036  0.4517
 7370SOL    HW233573   0.484   4.293   5.900  2.4922 -1.0710 -0.3230
 7371SOL     OW33574   0.544   3.422   4.101  0.9159 -0.2828 -0.3491
 7371SOL    HW133575   0.467   3.452   4.150  1.9465 -2.6441  2.7103
 7371SOL    HW233576   0.510   3.335   4.079  0.6375 -0.5870  1.3405
 7372SOL     OW33577   2.729   2.981   8.660  0.0379 -0.3508 -0.0228
 7372SOL    HW133578   2.821   3.004   8.666 -0.0891 -0.2922  1.5555
 7372SOL    HW233579   2.739   2.887   8.670  2.4558  0.0374  1.0032
 7373SOL     OW33580   3.260   4.123   9.553  0.2396  0.5611 -0.0926
 7373SOL    HW133581   3.283   4.211   9.582  0.3471  0.2635  0.7536
 7373SOL    HW233582   3.254   4.082   9.640 -1.0163 -1.4740 -1.1333
 7374SOL     OW33583   2.143   1.796  17.684 -0.4474 -0.0977 -0.5538
 7374SOL    HW133584   2.196   1.843   0.056  0.7278  1.7202 -2.8751
 7374SOL    HW233585   2.207   1.813  17.616 -1.4420 -0.4687 -1.5766
 7375SOL     OW33586   2.558   3.056   1.542  0.7784  0.6348 -0.0536
 7375SOL    HW133587   2.565   3.033   1.635 -0.8232 -0.2591 -0.1556
 7375SOL    HW233588   2.586   2.974   1.501 -1.0879  0.2512 -0.5830
 7376SOL     OW33589   3.411   1.289   2.879  0.3654 -0.1897  0.3091
 7376SOL    HW133590   3.330   1.279   2.928  0.2987  0.0167  0.2394
 7376SOL    HW233591   3.401   1.384   2.873  0.2339 -0.1744  0.7960
 7377SOL     OW33592   2.810   0.561   4.990  0.2167  0.0330  0.5595
 7377SOL    HW133593   2.841   0.645   5.024  0.1973  0.6268 -0.9103
 7377SOL    HW233594   2.759   0.538   5.068 -1.4240  1.1103 -0.2047
 7378SOL     OW33595   1.217   0.978   4.162 -0.1132  0.0892  0.0845
 7378SOL    HW133596   1.184   0.950   4.247 -0.8985 -2.1243 -0.9496
 7378SOL    HW233597   1.145   1.038   4.143  1.3437  1.5176 -0.8645
 7379SOL     OW33598   3.122   2.600   5.343  0.0276 -0.2381 -0.1273
 7379SOL    HW133599   3.096   2.517   5.304  0.3603 -1.0806  1.4572
 7379SOL    HW233600   3.217   2.597   5.333 -0.2539  2.2003 -3.4105
 7380SOL     OW33601   1.380   3.384   3.245  0.1447 -0.4623  0.2997
 7380SOL    HW133602   1.398   3.290   3.251  0.4698 -0.3672  0.8754
 7380SOL    HW233603   1.463   3.423   3.272 -0.1936 -0.6388  1.5793
 7381SOL     OW33604   1.547   0.295   4.645  0.8200  0.3327 -0.6990
 7381SOL    HW133605   1.617   0.357   4.626  0.0297  0.9833 -1.4819
 7381SOL    HW233606   1.580   0.214   4.606 -0.1286  0.5375 -1.9008
 7382SOL     OW33607   4.065   3.621   5.461  0.1546  0.0154  0.0030
 7382SOL    HW133608   4.102   3.572   5.388  0.4503  0.2771 -0.0193
 7382SOL    HW233609   4.115   3.702   5.463 -1.8844  1.2477  1.6546
 7383SOL     OW33610   1.282   3.687   5.798 -0.5748 -0.8865 -0.5866
 7383SOL    HW133611   1.376   3.700   5.810 -0.5302  0.7175 -2.8154
 7383SOL    HW233612   1.264   3.751   5.730  1.5902 -0.9750 -1.2670
 7384SOL     OW33613   0.719   3.888  11.981 -0.0323 -0.0250  0.6242
 7384SOL    HW133614   0.753   3.977  11.988  0.9474 -0.2065 -1.5453
 7384SOL    HW233615   0.795   3.833  11.998 -0.3112 -0.8222 -0.6513
 7385SOL     OW33616   3.870   1.715   4.023  0.2068  0.3874  0.2501
 7385SOL    HW133617   3.890   1.627   3.994  0.2163  0.8817 -1.2226
 7385SOL    HW233618   3.799   1.702   4.086 -1.2173 -1.6586 -1.8292
 7386SOL     OW33619   0.641   1.059   2.187 -0.7441 -0.1903 -0.1455
 7386SOL    HW133620   0.692   1.139   2.181  0.4064 -0.9019  0.1037
 7386SOL    HW233621   0.620   1.060   2.281 -2.8920  2.4799 -0.6669
 7387SOL     OW33622   4.115   4.478   6.525  0.3367 -0.7722 -0.8062
 7387SOL    HW133623   4.118   4.402   6.584  0.6208  1.2826  1.7931
 7387SOL    HW233624   4.149   4.437   6.445  2.0946  0.9799 -0.9621
 7388SOL     OW33625   1.523   0.623   4.774  0.3341 -0.0368 -0.3859
 7388SOL    HW133626   1.472   0.579   4.843 -1.0299  0.0757 -1.3299
 7388SOL    HW233627   1.500   0.563   4.703  1.5197 -1.2508  0.2425
 7389SOL     OW33628   2.319   4.072  14.414  0.3478 -0.6421 -0.2010
 7389SOL    HW133629   2.258   4.119  14.356  0.2475  0.5286  0.8670
 7389SOL    HW233630   2.311   4.124  14.493 -0.3070 -1.2349  0.1310
 7390SOL     OW33631   4.524   2.223   3.625 -0.0846  1.2134 -0.5351
 7390SOL    HW133632   4.587   2.275   3.575 -0.7281  1.6020 -0.9387
 7390SOL    HW233633   4.581   2.165   3.676 -0.5082  0.0212 -1.4257
 7391SOL     OW33634   0.160   4.068  14.965  0.0664  0.4032 -0.8357
 7391SOL    HW133635   0.107   4.011  14.911 -0.5067 -1.5567  1.7933
 7391SOL    HW233636   0.233   4.011  14.990  0.2070  0.6260 -0.7291
 7392SOL     OW33637   3.676   0.738   5.582  0.3725 -0.1859  0.2392
 7392SOL    HW133638   3.632   0.780   5.507  0.5857 -0.8029 -0.2291
 7392SOL    HW233639   3.603   0.743   5.644 -0.4927 -0.6993 -0.7411
 7393SOL     OW33640   4.559   3.824   3.615  0.1625  0.1395  0.3772
 7393SOL    HW133641   4.621   3.756   3.638  0.4615  0.5640  0.8261
 7393SOL    HW233642   4.554   3.786   3.527 -2.7012 -1.6922  1.3503
 7394SOL     OW33643   4.420   0.638  14.464 -0.1640  0.7866  0.1530
 7394SOL    HW133644   4.399   0.557  14.418  2.0652 -0.5623  1.5463
 7394SOL    HW233645   4.358   0.630  14.536 -0.4203 -0.7527 -0.2519
 7395SOL     OW33646   3.551   1.038   7.098 -0.3388  0.1830  0.4508
 7395SOL    HW133647   3.478   0.977   7.087  0.7981 -1.2791  0.8338
 7395SOL    HW233648   3.521   1.115   7.146 -2.7175  0.6916 -1.8622
 7396SOL     OW33649   0.433   3.898   6.747  0.6998 -0.0715  0.3260
 7396SOL    HW133650   0.457   3.955   6.674  0.7810 -1.8235 -1.0138
 7396SOL    HW233651   0.343   3.930   6.754  0.8484  0.3580  0.2593
 7397SOL     OW33652   2.088   4.056   1.706  0.5787  0.3594  0.3026
 7397SOL    HW133653   2.020   4.088   1.647 -1.1210  0.2741  2.1816
 7397SOL    HW233654   2.154   4.051   1.637 -2.7160 -1.4501 -2.7064
 7398SOL     OW33655   4.471   3.539  14.905 -0.1756  0.2827 -0.1431
 7398SOL    HW133656   4.395   3.598  14.895 -1.4775 -1.5875 -1.2883
 7398SOL    HW233657   4.493   3.524  14.813 -2.1668 -1.3982 -0.3553
 7399SOL     OW33658   3.921   2.748  12.390  0.0464  0.2853  0.5697
 7399SOL    HW133659   3.933   2.720  12.481  1.6682 -1.5486 -0.1970
 7399SOL    HW233660   3.926   2.843  12.397 -1.1826  0.4361 -0.7428
 7400SOL     OW33661   0.531   1.095   4.642 -0.3787 -0.1585 -0.2577
 7400SOL    HW133662   0.500   1.143   4.565 -2.4578  1.4566  1.5367
 7400SOL    HW233663   0.556   1.174   4.690 -0.6865 -0.9719  1.2445
 7401SOL     OW33664   1.970   4.049   4.924  0.7011  0.8997 -0.6715
 7401SOL    HW133665   1.999   3.986   4.858 -0.2025  0.6350 -0.8165
 7401SOL    HW233666   1.938   4.122   4.870 -0.4578  2.5708  2.2895
 7402SOL     OW33667   1.791   0.368   5.397 -0.1368 -0.1248 -0.3632
 7402SOL    HW133668   1.852   0.428   5.356  3.2473 -2.0240  1.8817
 7402SOL    HW233669   1.836   0.284   5.391  1.0187  0.3882  1.2601
 7403SOL     OW33670   3.550   1.423   5.126  0.1889 -0.0081 -0.1250
 7403SOL    HW133671   3.618   1.356   5.132 -1.0053 -1.0010  2.3045
 7403SOL    HW233672   3.519   1.397   5.040  0.0143  0.1276 -0.1041
 7404SOL     OW33673   2.306   2.044   5.946  0.3793  0.5547 -0.0985
 7404SOL    HW133674   2.263   2.073   5.866  0.9951 -0.5759 -0.8393
 7404SOL    HW233675   2.325   1.954   5.918 -0.8504 -0.2089  1.5373
 7405SOL     OW33676   0.272   2.517   4.884 -0.4528 -0.0279  0.4641
 7405SOL    HW133677   0.203   2.484   4.826  0.9947 -2.3850  0.1247
 7405SOL    HW233678   0.342   2.453   4.880  0.4041  0.9831 -0.7222
 7406SOL     OW33679   2.133   1.620   3.888  0.2526  0.4867 -0.7514
 7406SOL    HW133680   2.084   1.566   3.950 -0.5867  2.0053 -0.0660
 7406SOL    HW233681   2.183   1.672   3.951  0.8757 -2.2145  1.0041
 7407SOL     OW33682   4.288   2.016   1.334  0.0649 -0.0602 -0.4801
 7407SOL    HW133683   4.247   1.993   1.418  1.2027  1.8071  0.6011
 7407SOL    HW233684   4.214   2.032   1.276  0.1210 -0.2838 -0.6150
 7408SOL     OW33685   2.436   3.898   0.186 -0.2031  0.1349  0.2669
 7408SOL    HW133686   2.362   3.888   0.127  0.0135  1.2346 -0.1848
 7408SOL    HW233687   2.476   3.811   0.184  0.9108  0.6361  0.8475
 7409SOL     OW33688   3.431   0.723   8.539 -0.6383  0.3556  0.1916
 7409SOL    HW133689   3.430   0.796   8.477  1.3339  0.8312  0.7024
 7409SOL    HW233690   3.476   0.657   8.485 -2.3743 -0.8975  0.2791
 7410SOL     OW33691   0.279   4.659   5.216  0.6735  0.1198  0.1118
 7410SOL    HW133692   0.332   0.013   5.239 -1.5421  1.7637 -0.1982
 7410SOL    HW233693   0.229   4.695   5.142 -1.1762 -0.6384  0.9970
 7411SOL     OW33694   3.943   4.003  16.804  0.1523 -0.7674 -0.3803
 7411SOL    HW133695   3.945   4.098  16.793 -0.5282 -0.8592 -1.2195
 7411SOL    HW233696   4.028   3.974  16.770  1.7294  1.7008  1.4902
 7412SOL     OW33697   0.517   0.446  14.654  0.5825 -0.0125  0.4004
 7412SOL    HW133698   0.454   0.465  14.724 -0.6032 -0.9899 -0.3964
 7412SOL    HW233699   0.593   0.407  14.696 -0.2165  1.0364  2.8514
 7413SOL     OW33700   1.334   1.798  10.967  0.1145 -0.0376 -0.0897
 7413SOL    HW133701   1.263   1.843  10.922  1.6494  0.2543 -2.2022
 7413SOL    HW233702   1.301   1.806  11.057  1.4910  0.3589  0.3808
 7414SOL     OW33703   2.970   1.133   3.490  0.1830  0.2137  0.5748
 7414SOL    HW133704   3.040   1.099   3.434  0.2297 -1.7501  1.8216
 7414SOL    HW233705   2.901   1.067   3.490  0.3339  0.0517 -1.4513
 7415SOL     OW33706   1.728   1.010   4.734 -0.0139 -0.2749  0.1900
 7415SOL    HW133707   1.687   0.937   4.688 -1.0345  0.7585 -0.5318
 7415SOL    HW233708   1.665   1.082   4.735  0.6438  0.2693  2.4255
 7416SOL     OW33709   2.238   2.144   1.136  0.2727  0.3214 -0.7471
 7416SOL    HW133710   2.297   2.069   1.138  0.6377  0.5909 -1.3657
 7416SOL    HW233711   2.219   2.141   1.042 -2.2079  2.8843 -0.3566
 7417SOL     OW33712   3.991   2.552   5.219  0.0873  0.3194  0.1641
 7417SOL    HW133713   4.030   2.527   5.136  0.8438  3.4581 -0.4527
 7417SOL    HW233714   3.978   2.462   5.247  0.7103  0.2737  0.2950
 7418SOL     OW33715   4.489   2.036   6.589 -0.0836  0.5529  0.9035
 7418SOL    HW133716   4.425   2.095   6.549 -0.9603 -0.1453  1.2934
 7418SOL    HW233717   4.503   2.083   6.671  3.0822 -2.6147  2.1514
 7419SOL     OW33718   4.703   1.471  17.089  0.2875 -0.6822  0.0945
 7419SOL    HW133719   4.717   1.481  16.995 -0.6410  1.7885  0.2062
 7419SOL    HW233720   4.644   1.397  17.095 -0.4585 -0.0868  0.1029
 7420SOL     OW33721   2.649   0.645   1.141 -0.0055 -0.9346  0.4956
 7420SOL    HW133722   2.558   0.640   1.170 -0.2434 -1.3489 -0.3406
 7420SOL    HW233723   2.684   0.556   1.145 -1.5311 -1.4925  1.1184
 7421SOL     OW33724   1.068   3.327  12.697 -0.2432 -0.2084 -0.0107
 7421SOL    HW133725   1.044   3.256  12.638 -0.2209  0.0690 -0.3487
 7421SOL    HW233726   0.985   3.342  12.744 -0.9966 -0.9590 -1.0934
 7422SOL     OW33727   2.442   1.689   0.215 -0.1050  0.0808 -0.6929
 7422SOL    HW133728   2.519   1.679   0.271 -1.2575  0.4452  0.9407
 7422SOL    HW233729   2.438   1.785   0.208  0.9572  0.1767 -0.1029
 7423SOL     OW33730   1.678   3.740   7.322 -0.1867  0.0398  0.3979
 7423SOL    HW133731   1.588   3.772   7.316  0.6341  2.2936  0.1343
 7423SOL    HW233732   1.660   3.649   7.298 -1.0733  0.6002 -1.0560
 7424SOL     OW33733   0.165   3.983   5.926  0.4470 -0.2002 -0.3516
 7424SOL    HW133734   0.114   4.032   5.861  2.7334 -0.1989 -2.1146
 7424SOL    HW233735   0.229   4.044   5.964 -0.0240 -1.0903  1.8739
 7425SOL     OW33736   2.453   3.708   7.326 -0.0982 -0.0125 -0.0346
 7425SOL    HW133737   2.421   3.690   7.237  0.2272 -1.4218  0.1322
 7425SOL    HW233738   2.540   3.669   7.324  0.0802  0.2851  2.7088
 7426SOL     OW33739   2.628   1.255   3.092 -0.2956  0.0385  0.0758
 7426SOL    HW133740   2.684   1.181   3.115  0.3168 -0.0537 -1.6734
 7426SOL    HW233741   2.578   1.272   3.172 -1.8182 -1.3889 -0.5742
 7427SOL     OW33742   0.595   4.423   9.263  0.1709  0.4868  0.0002
 7427SOL    HW133743   0.553   4.355   9.315  0.5071  1.3708  1.4270
 7427SOL    HW233744   0.569   4.394   9.176  1.5158  1.7554 -0.8383
 7428SOL     OW33745   1.761   0.393   2.845 -0.3435  0.0561 -0.4531
 7428SOL    HW133746   1.764   0.458   2.915 -0.7423 -0.2413 -0.1597
 7428SOL    HW233747   1.693   0.331   2.870 -1.0834  0.5074 -1.3119
 7429SOL     OW33748   0.050   1.442   8.325  0.4414  0.2432 -0.2644
 7429SOL    HW133749   0.111   1.435   8.398  0.7772  0.2894 -0.5370
 7429SOL    HW233750   0.024   1.534   8.324 -1.5727 -0.3123 -0.4774
 7430SOL     OW33751   2.842   1.898   2.467  0.1389  0.3710 -0.2852
 7430SOL    HW133752   2.867   1.988   2.490  2.3693  0.1462 -1.7563
 7430SOL    HW233753   2.763   1.915   2.417 -0.8986  0.3847  1.3677
 7431SOL     OW33754   1.001   1.354   5.532  0.2357 -0.3336 -0.2418
 7431SOL    HW133755   0.975   1.280   5.586  0.4816 -0.4144 -0.2317
 7431SOL    HW233756   0.924   1.367   5.477 -0.8097 -0.5869  1.1799
 7432SOL     OW33757   0.048   3.304   8.223  0.4960 -0.1582 -0.1978
 7432SOL    HW133758   0.034   3.361   8.147  0.1986 -2.3180 -1.7803
 7432SOL    HW233759   0.133   3.338   8.251  0.8316 -2.1938  1.2523
 7433SOL     OW33760   0.763   4.283   2.652 -0.4802  0.3820  0.2052
 7433SOL    HW133761   0.794   4.359   2.602 -0.3122  0.0152 -0.2540
 7433SOL    HW233762   0.852   4.256   2.676 -1.6446 -2.4954  1.2948
 7434SOL     OW33763   3.188   2.638   7.555 -0.1396 -0.3658  0.2596
 7434SOL    HW133764   3.282   2.651   7.564 -0.6716  2.2299  2.2473
 7434SOL    HW233765   3.182   2.552   7.513  1.3823 -0.6278  0.5973
 7435SOL     OW33766   3.960   1.948   6.747  0.6342  0.0963 -0.3419
 7435SOL    HW133767   4.056   1.945   6.754  0.5748  2.6125  1.4862
 7435SOL    HW233768   3.948   2.036   6.713  1.2301 -0.0210 -0.8576
 7436SOL     OW33769   4.088   2.297  16.931  0.2363  0.1366 -0.2337
 7436SOL    HW133770   4.094   2.345  17.013  2.9423 -0.3543 -0.1468
 7436SOL    HW233771   4.005   2.328  16.895  1.5506  2.4243 -1.3078
 7437SOL     OW33772   0.872   2.884   4.676  0.2040  0.4734  0.0644
 7437SOL    HW133773   0.934   2.860   4.607  0.6557  0.1842  0.5661
 7437SOL    HW233774   0.822   2.954   4.635 -0.0149  0.6070  0.5685
 7438SOL     OW33775   1.904   4.480   0.956  0.3636 -0.0474  0.3125
 7438SOL    HW133776   1.989   4.516   0.929  0.2899 -0.3863 -0.3643
 7438SOL    HW233777   1.872   4.558   1.002  3.5627  1.7925 -0.6161
 7439SOL     OW33778   4.098   2.711   8.069  0.2164  0.4699  0.0829
 7439SOL    HW133779   4.151   2.777   8.113  0.5940  0.1971  0.0366
 7439SOL    HW233780   4.018   2.757   8.043  0.0041  1.0652  1.7810
 7440SOL     OW33781   3.590   0.386   3.530  0.2303 -0.0254  0.2500
 7440SOL    HW133782   3.674   0.351   3.499  0.3105  3.7744 -3.8440
 7440SOL    HW233783   3.541   0.305   3.514 -2.3186  1.1969  2.0024
 7441SOL     OW33784   3.846   0.911  11.154 -0.1207 -0.2435 -0.0139
 7441SOL    HW133785   3.810   0.826  11.179 -0.2799  0.0571  0.7638
 7441SOL    HW233786   3.771   0.951  11.109 -0.7393 -1.6613 -0.2224
 7442SOL     OW33787   3.880   0.419  10.266  0.0107  0.0489  0.7373
 7442SOL    HW133788   3.933   0.388  10.340 -0.7211 -0.1421  1.1734
 7442SOL    HW233789   3.947   0.409  10.197  1.4438 -1.1576  2.2861
 7443SOL     OW33790   0.057   1.092   7.149  0.3401 -0.3857  0.1194
 7443SOL    HW133791   0.135   1.146   7.162  0.1934 -0.3951  0.9922
 7443SOL    HW233792   4.716   1.154   7.113 -2.7988 -2.8619  1.4312
 7444SOL     OW33793   0.835   1.562   6.030 -0.0356 -0.2112 -0.3118
 7444SOL    HW133794   0.884   1.619   5.972 -1.9879  0.9254 -0.8484
 7444SOL    HW233795   0.853   1.607   6.112  2.2187 -2.2472  0.2967
 7445SOL     OW33796   3.908   4.340   2.211 -0.0336 -0.1140 -0.1373
 7445SOL    HW133797   3.933   4.341   2.119  1.7467 -1.5555  0.3413
 7445SOL    HW233798   3.940   4.425   2.242 -1.6019  1.1081 -1.8275
 7446SOL     OW33799   4.235   1.080   5.551  0.6679  0.6317 -0.4117
 7446SOL    HW133800   4.303   1.047   5.492 -0.2604 -1.0746 -0.5068
 7446SOL    HW233801   4.225   1.014   5.619 -2.1867 -1.6062 -2.9774
 7447SOL     OW33802   3.200   3.884   2.631  0.1376 -0.4249  0.2700
 7447SOL    HW133803   3.162   3.798   2.612 -2.0219  0.2402  1.5501
 7447SOL    HW233804   3.142   3.913   2.701  0.8515  0.9302  0.2921
 7448SOL     OW33805   3.214   3.598  14.517 -0.1365  0.1878 -0.3677
 7448SOL    HW133806   3.155   3.536  14.561 -2.0689  2.0581 -0.3085
 7448SOL    HW233807   3.155   3.674  14.527 -1.2070 -0.5693 -0.9249
 7449SOL     OW33808   1.317   1.612  16.725  0.3396 -0.4582 -0.4476
 7449SOL    HW133809   1.242   1.560  16.755  1.8329 -0.0714  3.8968
 7449SOL    HW233810   1.339   1.560  16.647  1.4199  1.2803 -1.2847
 7450SOL     OW33811   4.540   1.573   4.706 -0.3785  0.1678 -0.3287
 7450SOL    HW133812   4.531   1.586   4.801  0.0144 -1.8190 -0.0171
 7450SOL    HW233813   4.621   1.620   4.685  0.7315 -0.6792  2.0766
 7451SOL     OW33814   4.630   2.557  16.155 -0.0655  0.4687  0.1122
 7451SOL    HW133815   4.633   2.462  16.170  0.4189  0.4392 -0.1561
 7451SOL    HW233816   4.722   2.583  16.148  0.4255 -0.7967  1.7786
 7452SOL     OW33817   4.170   1.230   7.963  0.2722 -0.6668  0.5078
 7452SOL    HW133818   4.259   1.245   7.933  1.2468 -2.2507  2.6034
 7452SOL    HW233819   4.188   1.248   8.055  0.3515  0.7135  0.2347
 7453SOL     OW33820   4.295   1.690   5.795  0.3880  0.3461 -0.1900
 7453SOL    HW133821   4.206   1.685   5.761 -0.2248 -0.7580  1.5954
 7453SOL    HW233822   4.306   1.779   5.830 -0.0249  0.5697 -0.6371
 7454SOL     OW33823   1.183   0.700   3.633  0.0657 -0.1337  0.0051
 7454SOL    HW133824   1.224   0.734   3.712  0.0124  1.4816 -0.6744
 7454SOL    HW233825   1.120   0.771   3.619  2.1623  1.6259 -0.3957
 7455SOL     OW33826   0.952   3.348   3.839 -0.0694 -0.2373  0.4915
 7455SOL    HW133827   0.948   3.360   3.934 -1.2332 -1.5161  0.6186
 7455SOL    HW233828   0.907   3.426   3.807 -0.1090 -0.4710 -0.0362
 7456SOL     OW33829   4.464   1.036   1.465  0.4596  0.3279  0.2314
 7456SOL    HW133830   4.482   0.942   1.475 -0.3854 -0.0102 -1.4748
 7456SOL    HW233831   4.554   1.068   1.470  1.1854 -1.7893  0.9031
 7457SOL     OW33832   1.391   0.946   3.183  0.1914  0.4895  0.2516
 7457SOL    HW133833   1.331   0.910   3.249 -0.0250 -2.9425 -1.8425
 7457SOL    HW233834   1.450   0.873   3.164  0.4827  0.3322  1.7733
 7458SOL     OW33835   3.568   1.945   8.181  0.5094  0.1771 -0.2085
 7458SOL    HW133836   3.613   1.889   8.244  0.3159 -0.0888 -0.3066
 7458SOL    HW233837   3.502   1.884   8.149 -0.0254  0.7728 -0.2459
 7459SOL     OW33838   0.664   0.431   8.303  0.2590 -0.5375 -0.2207
 7459SOL    HW133839   0.721   0.364   8.265  2.3386  1.7247 -1.1086
 7459SOL    HW233840   0.728   0.469   8.364  0.1176 -1.4759  0.5189
 7460SOL     OW33841   3.506   2.103  10.444 -0.1448 -0.2901 -0.0318
 7460SOL    HW133842   3.443   2.141  10.384  0.2735  1.1330  0.4129
 7460SOL    HW233843   3.504   2.161  10.521 -1.0699  0.7723 -0.8752
 7461SOL     OW33844   3.681   0.312   6.394 -0.4297 -0.1318 -0.4621
 7461SOL    HW133845   3.750   0.366   6.433  0.6275 -0.4097 -1.9331
 7461SOL    HW233846   3.707   0.222   6.413 -1.6078 -0.4463 -0.3641
 7462SOL     OW33847   0.495   4.013   3.002  0.0661  0.4014 -0.4019
 7462SOL    HW133848   0.416   4.002   3.055  1.0896  0.5143  1.1614
 7462SOL    HW233849   0.524   4.102   3.022  2.5749 -0.6928  0.8541
 7463SOL     OW33850   2.291   1.728   2.682  0.2704  0.4395  0.3309
 7463SOL    HW133851   2.196   1.729   2.673  0.3641 -0.5867 -0.8712
 7463SOL    HW233852   2.305   1.710   2.589  0.9986 -3.5787  1.2460
 7464SOL     OW33853   2.586   0.463   8.360 -0.0880 -0.2837 -0.4475
 7464SOL    HW133854   2.591   0.369   8.377  0.4331 -0.5724 -2.1886
 7464SOL    HW233855   2.496   0.478   8.331 -0.6343 -1.6291  0.6080
 7465SOL     OW33856   3.784   1.843   2.990  0.3608  0.2705 -0.1789
 7465SOL    HW133857   3.728   1.816   2.917  0.2542 -0.1873  0.0778
 7465SOL    HW233858   3.756   1.934   3.002 -2.4035 -0.8897  2.1936
 7466SOL     OW33859   2.723   2.036  11.416 -0.6919 -0.3977 -0.0701
 7466SOL    HW133860   2.811   2.073  11.429  0.3482 -2.8422 -0.0524
 7466SOL    HW233861   2.685   2.042  11.504 -2.3446  0.7832 -0.8822
 7467SOL     OW33862   1.334   1.427   3.400 -0.6107 -0.8082 -0.2074
 7467SOL    HW133863   1.248   1.410   3.439 -0.6170  1.4714  0.7812
 7467SOL    HW233864   1.401   1.389   3.458  0.2898 -0.0921 -0.7934
 7468SOL     OW33865   0.595   0.275  12.865  0.6976  0.1183 -0.4330
 7468SOL    HW133866   0.508   0.315  12.862  0.9092  0.4816 -2.2776
 7468SOL    HW233867   0.577   0.182  12.877  0.2626  0.3534  0.7001
 7469SOL     OW33868   1.475   3.634  11.289 -0.4718  0.1117 -0.1510
 7469SOL    HW133869   1.445   3.607  11.203 -0.4890 -1.1514  0.2530
 7469SOL    HW233870   1.502   3.724  11.271  2.3329 -0.4368  1.3349
 7470SOL     OW33871   1.746   2.159   0.766 -0.6478 -0.3868  0.1960
 7470SOL    HW133872   1.657   2.168   0.731 -0.3869  2.1851  0.2347
 7470SOL    HW233873   1.736   2.143   0.860 -0.0075  1.3334  0.5537
 7471SOL     OW33874   4.614   4.164   4.467 -0.2742  0.2138  0.0521
 7471SOL    HW133875   4.541   4.132   4.413 -0.2651  1.7627 -0.8681
 7471SOL    HW233876   4.608   4.259   4.463  1.6686  0.2841 -1.3901
 7472SOL     OW33877   2.650   2.375  16.226 -0.0708  0.1983  0.1511
 7472SOL    HW133878   2.597   2.386  16.305  1.9387 -0.9183  1.6500
 7472SOL    HW233879   2.734   2.412  16.254  0.7822 -1.0021 -0.8203
 7473SOL     OW33880   4.338   2.845   3.076 -0.1973 -0.5627  0.5247
 7473SOL    HW133881   4.375   2.908   3.138  0.1997 -0.0514 -0.2206
 7473SOL    HW233882   4.264   2.808   3.123 -1.6096 -0.1727 -1.3645
 7474SOL     OW33883   2.833   4.583   7.671 -1.1062  0.7323 -0.3045
 7474SOL    HW133884   2.807   4.649   7.607  0.2252  1.6295  0.0955
 7474SOL    HW233885   2.884   4.519   7.623  0.8188  1.5553  0.6491
 7475SOL     OW33886   2.306   0.052  16.226  0.1158 -0.5047  0.2635
 7475SOL    HW133887   2.272   4.705  16.169  0.7848 -0.3357 -0.3431
 7475SOL    HW233888   2.235   0.115  16.233 -1.1851 -1.7297 -2.0643
 7476SOL     OW33889   0.140   1.835  11.977  0.0235 -0.5273  0.2684
 7476SOL    HW133890   0.163   1.743  11.963  1.0196 -0.5824  2.2798
 7476SOL    HW233891   0.107   1.855  11.889  0.4015  0.6400  0.3967
 7477SOL     OW33892   4.054   0.892   6.187 -0.3755 -0.2330  0.1396
 7477SOL    HW133893   4.015   0.887   6.100 -1.1833 -0.0470  0.4945
 7477SOL    HW233894   4.095   0.979   6.188 -0.0153 -0.4027  0.3193
 7478SOL     OW33895   3.774   0.233   6.894 -0.2652 -0.4766  0.7678
 7478SOL    HW133896   3.816   0.283   6.964  1.4672 -2.2739  1.0064
 7478SOL    HW233897   3.703   0.292   6.870 -0.1890 -0.6164  0.2000
 7479SOL     OW33898   1.628   4.334   1.784  0.2279  0.6250  0.2010
 7479SOL    HW133899   1.573   4.313   1.859  1.0479 -0.4809  0.4943
 7479SOL    HW233900   1.617   4.256   1.730  1.1142 -0.3055  1.3830
 7480SOL     OW33901   1.322   2.207   5.024 -0.4703  0.4731  0.0824
 7480SOL    HW133902   1.325   2.113   5.004  1.4729  0.8063 -1.1793
 7480SOL    HW233903   1.288   2.238   4.940 -1.0014  1.3981  0.6394
 7481SOL     OW33904   0.934   1.058   8.756  0.2567  0.4100 -0.1421
 7481SOL    HW133905   0.902   1.064   8.665 -0.0885  1.3161  0.0401
 7481SOL    HW233906   0.855   1.090   8.799 -1.5420 -4.1024 -0.0994
 7482SOL     OW33907   4.091   2.368  13.917 -1.1819  0.0256  0.1127
 7482SOL    HW133908   4.133   2.298  13.867  0.5559 -0.1650  1.8010
 7482SOL    HW233909   4.029   2.400  13.852  1.5120 -0.7984 -2.8441
 7483SOL     OW33910   0.088   4.054   9.401 -0.1757  0.2040  0.2565
 7483SOL    HW133911   0.143   4.015   9.469 -0.2164 -0.2784  0.0163
 7483SOL    HW233912   0.099   4.148   9.415  0.3414  0.0758  0.6895
 7484SOL     OW33913   3.085   1.094  11.465  0.0288  0.4347 -0.0155
 7484SOL    HW133914   3.034   1.172  11.442 -0.9225  0.6697  2.9437
 7484SOL    HW233915   3.177   1.119  11.458  0.1079 -0.1422 -1.0854
 7485SOL     OW33916   0.019   2.833  14.753 -0.3465 -0.3391 -0.2250
 7485SOL    HW133917   0.080   2.818  14.680 -1.6096 -2.5172 -0.8234
 7485SOL    HW233918   0.019   2.751  14.802 -1.9052 -0.1700  0.0554
 7486SOL     OW33919   3.582   3.203   0.735 -0.1405  0.1553  0.1002
 7486SOL    HW133920   3.636   3.141   0.785 -1.4386  1.5823  3.2718
 7486SOL    HW233921   3.646   3.272   0.717  0.1244 -0.3480 -0.9251
 7487SOL     OW33922   3.902   1.494   5.111  0.0349 -0.0255 -0.1745
 7487SOL    HW133923   3.862   1.471   5.026 -0.0594  1.9680 -0.6749
 7487SOL    HW233924   3.978   1.537   5.073 -0.0759  1.2092  1.0201
 7488SOL     OW33925   2.537   3.055   8.835 -0.0870  0.8489 -0.0329
 7488SOL    HW133926   2.583   2.991   8.781 -0.4102  1.3790 -0.9384
 7488SOL    HW233927   2.602   3.063   8.904  2.1469 -0.0783 -2.0036
 7489SOL     OW33928   2.467   3.698   3.396  0.2791  0.0577  0.3081
 7489SOL    HW133929   2.459   3.784   3.355  0.2096 -0.2232 -0.2734
 7489SOL    HW233930   2.478   3.632   3.327 -2.3720 -1.0470  0.9580
 7490SOL     OW33931   3.667   3.293  12.468  0.1426 -0.2175  0.3299
 7490SOL    HW133932   3.727   3.347  12.520 -0.2318 -1.2825  1.8863
 7490SOL    HW233933   3.660   3.336  12.383  0.2829  1.6679  1.2652
 7491SOL     OW33934   3.582   0.323  14.486  0.0029 -0.2353  0.0565
 7491SOL    HW133935   3.660   0.294  14.533 -0.6820 -0.8108  0.8389
 7491SOL    HW233936   3.512   0.297  14.546  0.2882  0.1776  0.5600
 7492SOL     OW33937   3.990   0.369   7.451  0.1839  0.6168  0.2806
 7492SOL    HW133938   3.976   0.414   7.534 -2.3954  0.7033 -0.1920
 7492SOL    HW233939   4.080   0.375   7.419 -0.5817 -3.3982 -2.6356
 7493SOL     OW33940   2.486   3.272   3.744  0.0738  0.6327 -0.8707
 7493SOL    HW133941   2.488   3.352   3.691 -2.1862  1.0955 -0.2496
 7493SOL    HW233942   2.391   3.263   3.749  0.3211 -2.0528 -0.8347
 7494SOL     OW33943   1.812   2.477   7.023  0.0424  0.3160  0.0976
 7494SOL    HW133944   1.802   2.519   6.938  2.0688  3.0329  1.2150
 7494SOL    HW233945   1.864   2.547   7.061  0.9833 -0.4612  0.2504
 7495SOL     OW33946   2.118   3.223   4.829  0.3505  0.3627  0.0657
 7495SOL    HW133947   2.165   3.227   4.745  2.1546  2.0228  1.1534
 7495SOL    HW233948   2.142   3.137   4.863 -1.3723 -0.0459  0.2488
 7496SOL     OW33949   1.154   2.748  15.674  0.0921  0.0834  0.7642
 7496SOL    HW133950   1.134   2.809  15.744  2.7840  1.6267  0.2188
 7496SOL    HW233951   1.187   2.807  15.606  1.2227 -1.2836  0.1083
 7497SOL     OW33952   2.736   3.283   0.621 -0.2165 -0.0119  0.5465
 7497SOL    HW133953   2.644   3.280   0.648 -0.1080 -0.0853  0.9119
 7497SOL    HW233954   2.748   3.377   0.606  0.1020 -0.1278  0.0678
 7498SOL     OW33955   0.046   2.264   6.603 -0.6307  0.1907  0.0572
 7498SOL    HW133956   0.094   2.347   6.593 -0.6924 -0.4167 -5.4366
 7498SOL    HW233957   0.021   2.266   6.695  0.9912 -0.7128  0.5254
 7499SOL     OW33958   3.268   3.287   5.079 -0.4481 -0.4131 -0.5963
 7499SOL    HW133959   3.185   3.254   5.113  0.0221 -0.2587  0.7114
 7499SOL    HW233960   3.239   3.361   5.025  1.1987 -0.3109 -1.3424
 7500SOL     OW33961   1.089   3.487  11.977 -0.3795  0.2949  0.5571
 7500SOL    HW133962   1.153   3.494  12.048  0.2119 -0.0941  0.0583
 7500SOL    HW233963   1.144   3.519  11.905 -0.3326 -1.1124 -0.0141
 7501SOL     OW33964   3.333   0.023   6.399 -0.2889  0.0320  0.1668
 7501SOL    HW133965   3.265   0.090   6.389  0.7244  1.3142  1.9683
 7501SOL    HW233966   3.312   4.709   6.485  0.1989 -1.0770 -0.1775
 7502SOL     OW33967   0.995   0.580  12.684  0.2687  0.6047 -0.0997
 7502SOL    HW133968   1.075   0.560  12.733  1.6745  1.0341 -2.2524
 7502SOL    HW233969   0.934   0.507  12.699  1.0327  0.5138  2.5105
 7503SOL     OW33970   0.697   2.837   8.156 -0.1803 -0.3401 -0.2961
 7503SOL    HW133971   0.762   2.798   8.098 -1.5219 -0.0171 -2.0173
 7503SOL    HW233972   0.621   2.818   8.101  1.0012 -0.1170 -1.9988
 7504SOL     OW33973   2.020   1.987   3.107 -0.0595  0.3418 -0.5027
 7504SOL    HW133974   2.046   2.079   3.115 -1.4691  0.7930 -1.0429
 7504SOL    HW233975   1.962   1.981   3.031  0.7719 -0.0699 -1.1006
 7505SOL     OW33976   2.921   2.891  12.016 -0.0460 -0.0528  0.4617
 7505SOL    HW133977   3.016   2.874  12.023  0.2808  1.0047 -1.5966
 7505SOL    HW233978   2.874   2.834  12.078  0.4357 -1.2398 -0.2672
 7506SOL     OW33979   0.579   3.780   9.578  0.1681  0.7246 -0.1434
 7506SOL    HW133980   0.596   3.868   9.612 -2.5924  1.2652 -0.1201
 7506SOL    HW233981   0.632   3.729   9.639 -0.3448  1.9471  1.3275
 7507SOL     OW33982   1.890   0.085   2.072 -0.3422 -0.0483 -0.0563
 7507SOL    HW133983   1.801   0.112   2.050 -0.4339 -0.4539 -0.1760
 7507SOL    HW233984   1.939   0.085   1.990  1.2772 -0.0008  0.9106
 7508SOL     OW33985   3.332   3.236   4.665  0.5106  0.1771  0.4713
 7508SOL    HW133986   3.287   3.269   4.743  1.4111 -1.9222  1.8804
 7508SOL    HW233987   3.281   3.265   4.590 -0.2638 -1.2378  0.4594
 7509SOL     OW33988   3.658   4.392  15.333  0.1371 -0.6904 -0.1422
 7509SOL    HW133989   3.685   4.402  15.424 -2.0216  0.5118  0.3606
 7509SOL    HW233990   3.614   4.476  15.320 -0.1401 -0.7789  0.2217
 7510SOL     OW33991   1.670   2.388  11.009 -0.3146  0.0478  0.5960
 7510SOL    HW133992   1.636   2.472  11.039 -0.9735 -0.1657  0.4539
 7510SOL    HW233993   1.724   2.421  10.937 -0.5073 -0.6988  0.1065
 7511SOL     OW33994   0.597   1.853   6.790  0.1497  0.2758 -0.2352
 7511SOL    HW133995   0.666   1.808   6.742 -0.8643 -1.8309  0.2917
 7511SOL    HW233996   0.598   1.942   6.753 -1.9961  0.1081 -0.7077
 7512SOL     OW33997   1.138   3.243   7.941  0.1286  0.0057  0.2380
 7512SOL    HW133998   1.174   3.173   7.995 -0.2648 -0.0283  0.4532
 7512SOL    HW233999   1.190   3.316   7.975 -0.6324  0.5043  0.3363
 7513SOL     OW34000   1.558   2.873   2.034  0.0667  0.0186  0.3186
 7513SOL    HW134001   1.617   2.839   1.966  1.0295 -0.6238  1.4822
 7513SOL    HW234002   1.474   2.862   1.989 -0.6700  0.5161  1.5814
 7514SOL     OW34003   2.806   0.118  11.058 -0.1015 -0.0136  0.1959
 7514SOL    HW134004   2.774   0.088  11.143 -1.2128 -2.3612 -1.0505
 7514SOL    HW234005   2.741   0.088  10.995 -0.7158 -0.9992  1.3120
 7515SOL     OW34006   3.470   1.343   8.335 -0.0309  0.2571  0.1176
 7515SOL    HW134007   3.489   1.256   8.371 -3.6800 -0.3519  0.5731
 7515SOL    HW234008   3.550   1.387   8.306 -0.8572  1.6235 -0.1056
 7516SOL     OW34009   3.109   2.983   5.097 -0.0643 -0.8273 -0.0800
 7516SOL    HW134010   3.158   2.937   5.165 -0.4839 -1.5450 -0.2732
 7516SOL    HW234011   3.149   2.954   5.015 -0.0196 -1.4778  0.1775
 7517SOL     OW34012   0.751   3.935  12.363 -0.5132 -0.6628  0.1790
 7517SOL    HW134013   0.846   3.941  12.367 -0.5482 -0.5777  0.8489
 7517SOL    HW234014   0.730   3.972  12.449  2.0256  0.5271  0.2727
 7518SOL     OW34015   1.646   3.167   6.209 -0.7159 -0.0008 -0.0066
 7518SOL    HW134016   1.657   3.253   6.249  0.2545  1.0387 -2.4681
 7518SOL    HW234017   1.669   3.181   6.117  0.7750  1.1015  0.5345
 7519SOL     OW34018   4.601   1.632  13.509 -0.2144  0.5607  0.4645
 7519SOL    HW134019   4.591   1.646  13.603  0.4907 -1.2713  0.7995
 7519SOL    HW234020   4.641   1.715  13.482  1.0951 -0.3010 -0.2131
 7520SOL     OW34021   0.853   1.080   6.823  0.2253  0.1628 -0.3890
 7520SOL    HW134022   0.797   1.133   6.766  2.1906  1.3718 -1.2280
 7520SOL    HW234023   0.794   1.061   6.896  1.1449 -2.5494 -0.3574
 7521SOL     OW34024   2.972   3.075   8.370  0.0990  0.7879 -0.7653
 7521SOL    HW134025   2.938   3.150   8.323  0.1509 -0.0090 -2.0645
 7521SOL    HW234026   2.982   3.113   8.457  2.3783 -0.8764 -0.2766
 7522SOL     OW34027   0.728   1.352   5.022  0.5507 -0.3026  0.2631
 7522SOL    HW134028   0.636   1.325   5.017  0.0714  1.1928  1.2714
 7522SOL    HW234029   0.743   1.409   4.946 -0.0096 -0.5259 -0.0161
 7523SOL     OW34030   3.474   2.222   4.002 -0.8597 -0.1346 -0.0022
 7523SOL    HW134031   3.418   2.267   4.065 -0.9213  1.1859 -1.0126
 7523SOL    HW234032   3.481   2.297   3.943  0.6395 -1.1150 -1.0544
 7524SOL     OW34033   1.270   0.817   9.931 -0.2117 -0.2261 -0.0175
 7524SOL    HW134034   1.230   0.792   9.848 -0.6592 -0.7845  0.3711
 7524SOL    HW234035   1.207   0.872   9.976 -1.0624 -0.8429 -0.4626
 7525SOL     OW34036   4.373   3.752   7.087 -0.1467 -0.1035  0.2988
 7525SOL    HW134037   4.404   3.833   7.046 -1.1054  1.1052  1.9657
 7525SOL    HW234038   4.402   3.689   7.021 -0.5666 -0.2870  0.2917
 7526SOL     OW34039   3.352   1.167   7.389  0.1468  0.4656  0.1672
 7526SOL    HW134040   3.432   1.218   7.398  0.0991  0.5396  0.1705
 7526SOL    HW234041   3.303   1.224   7.330 -1.7815  0.2947  1.6229
 7527SOL     OW34042   4.177   2.441   4.444 -0.6644 -0.2594 -0.0288
 7527SOL    HW134043   4.167   2.484   4.529  0.6866 -0.0956  0.0574
 7527SOL    HW234044   4.087   2.433   4.414 -0.8063 -1.4298  0.6915
 7528SOL     OW34045   2.242   3.476   1.653  0.0750  0.0321 -0.1857
 7528SOL    HW134046   2.258   3.384   1.632  2.5222  0.5169 -0.5382
 7528SOL    HW234047   2.334   3.499   1.672 -0.0967 -1.0852  2.0581
 7529SOL     OW34048   3.304   1.525  11.357 -0.5226  0.3751 -0.2159
 7529SOL    HW134049   3.264   1.528  11.270  1.4930 -2.1934 -1.2089
 7529SOL    HW234050   3.388   1.490  11.330 -0.4041  0.4610  0.0454
 7530SOL     OW34051   3.458   3.620   6.426 -0.1539  0.0485  0.2753
 7530SOL    HW134052   3.367   3.590   6.435 -0.0334 -0.8872 -1.6223
 7530SOL    HW234053   3.475   3.609   6.332 -0.8757  0.8653  0.0481
 7531SOL     OW34054   0.785   3.899   8.586  0.1521 -0.6135 -0.0774
 7531SOL    HW134055   0.698   3.898   8.546  0.4435 -0.9700 -0.7043
 7531SOL    HW234056   0.816   3.809   8.577  1.5207 -0.2252  0.8248
 7532SOL     OW34057   2.280   0.672  12.444  0.2309  0.0220  0.2939
 7532SOL    HW134058   2.235   0.591  12.419  0.5980  0.1352 -0.7217
 7532SOL    HW234059   2.343   0.683  12.373 -1.6318  0.5015 -1.2842
 7533SOL     OW34060   2.756   3.325   3.229  0.2534  0.0189 -0.8250
 7533SOL    HW134061   2.774   3.243   3.275  2.3117  1.2859  0.6524
 7533SOL    HW234062   2.775   3.301   3.138  0.9308  0.7398 -0.8697
 7534SOL     OW34063   2.837   0.836  15.955  0.2680 -0.3968 -0.0950
 7534SOL    HW134064   2.890   0.902  15.910  0.4075  0.2522  1.0227
 7534SOL    HW234065   2.795   0.880  16.029 -3.1480 -0.1166 -2.2064
 7535SOL     OW34066   2.451   3.380   0.118  0.1488  0.2285  0.5248
 7535SOL    HW134067   2.369   3.378   0.168  0.0502  2.0591  0.4615
 7535SOL    HW234068   2.520   3.372   0.184  2.0436  0.4058 -1.4483
 7536SOL     OW34069   0.117   3.313   6.758  0.1356  0.0635  0.1251
 7536SOL    HW134070   0.209   3.328   6.777 -0.0133  2.5293 -1.1146
 7536SOL    HW234071   0.110   3.235   6.702 -1.6866  1.2843 -1.3622
 7537SOL     OW34072   4.458   3.405   3.043 -0.1930 -0.1617 -0.7330
 7537SOL    HW134073   4.483   3.437   2.956  2.6953  0.8598  0.4624
 7537SOL    HW234074   4.380   3.458   3.061  3.5237  4.5133  1.7558
 7538SOL     OW34075   1.435   3.496   9.146  0.0471 -0.5673  0.8202
 7538SOL    HW134076   1.391   3.533   9.222  1.3476  3.8822 -0.5998
 7538SOL    HW234077   1.397   3.409   9.153  0.9597 -1.0451 -0.0452
 7539SOL     OW34078   1.373   4.511   4.894 -0.1086 -0.0984 -0.0474
 7539SOL    HW134079   1.452   4.509   4.948  0.5213  1.5168 -0.8940
 7539SOL    HW234080   1.371   4.600   4.857  1.4853 -0.9432 -2.1320
 7540SOL     OW34081   3.561   1.420  11.503  0.5061  0.5816 -0.0238
 7540SOL    HW134082   3.652   1.417  11.532 -0.2052 -2.2056  1.9067
 7540SOL    HW234083   3.512   1.481  11.558 -1.3476 -0.9554  0.0511
 7541SOL     OW34084   1.527   4.434  13.255 -0.6701 -0.4759  0.1785
 7541SOL    HW134085   1.525   4.363  13.190  1.8860  0.4280 -0.8625
 7541SOL    HW234086   1.596   4.397  13.311  0.6103  0.7687 -0.5886
 7542SOL     OW34087   1.988   2.313   4.671  0.3038 -1.1627  0.1490
 7542SOL    HW134088   1.908   2.316   4.723 -0.0179 -1.5670 -0.3351
 7542SOL    HW234089   2.029   2.239   4.715  0.7277 -0.1855  1.4179
 7543SOL     OW34090   2.187   3.598  11.952  0.7198  0.5677 -0.2091
 7543SOL    HW134091   2.239   3.582  12.031  0.4315  0.0305 -0.1282
 7543SOL    HW234092   2.202   3.693  11.951  0.3996  0.6220  0.1581
 7544SOL     OW34093   0.702   2.606   4.640 -0.3387  0.4539  0.0860
 7544SOL    HW134094   0.671   2.591   4.550  0.2340 -1.3731  0.1858
 7544SOL    HW234095   0.706   2.701   4.638  0.9978  0.4191  1.4324
 7545SOL     OW34096   1.298   4.206   6.994 -0.9267 -0.6982  0.0133
 7545SOL    HW134097   1.247   4.285   6.977 -0.3620 -0.3646 -0.1204
 7545SOL    HW234098   1.357   4.237   7.062 -1.8879  0.0831  0.4968
 7546SOL     OW34099   2.423   4.483   7.936  0.7270 -0.1092 -0.1360
 7546SOL    HW134100   2.454   4.406   7.887  0.7708 -0.6061  0.6706
 7546SOL    HW234101   2.339   4.457   7.974  0.6028 -0.8960 -0.9254
 7547SOL     OW34102   0.724   1.340   8.611  0.5778 -0.2351  0.1230
 7547SOL    HW134103   0.705   1.340   8.704  1.7947 -1.2562  0.3824
 7547SOL    HW234104   0.817   1.317   8.606  0.5494  0.1023 -2.2724
 7548SOL     OW34105   4.121   2.488   4.062  0.1726  0.3151 -0.1709
 7548SOL    HW134106   4.068   2.459   4.136 -1.7107 -0.3424 -1.8083
 7548SOL    HW234107   4.160   2.404   4.039  0.4148  0.6156 -0.8479
 7549SOL     OW34108   0.247   0.830  11.546  0.9171 -0.0541  0.4987
 7549SOL    HW134109   0.251   0.919  11.580 -0.9277  1.0321 -2.1511
 7549SOL    HW234110   0.333   0.790  11.562  0.9701  0.2649  1.0241
 7550SOL     OW34111   3.747   4.601   5.689  0.1252  0.1066  0.3576
 7550SOL    HW134112   3.735   4.528   5.629  2.1358  1.7836 -2.1283
 7550SOL    HW234113   3.691   4.583   5.765 -1.8672 -1.5438 -1.5067
 7551SOL     OW34114   1.265   3.874   0.387  0.3868 -0.0631 -0.0411
 7551SOL    HW134115   1.263   3.953   0.443  0.9540 -1.0026  1.3035
 7551SOL    HW234116   1.179   3.836   0.406 -0.1201  0.7852 -0.6118
 7552SOL     OW34117   0.984   1.355   7.087 -0.1101 -0.0143  0.3518
 7552SOL    HW134118   0.963   1.440   7.125 -1.1284 -1.2755  2.6436
 7552SOL    HW234119   0.896   1.319   7.089  1.0489 -2.9248 -0.5133
 7553SOL     OW34120   1.279   1.905   8.010 -0.1548  0.3815  0.5291
 7553SOL    HW134121   1.319   1.837   7.956 -2.7837  0.6258 -1.7094
 7553SOL    HW234122   1.335   1.900   8.088  2.5083  0.6804 -1.3281
 7554SOL     OW34123   2.288   4.380  11.420 -0.1402 -0.1440  0.4987
 7554SOL    HW134124   2.349   4.367  11.347 -1.2294  1.4819 -0.7109
 7554SOL    HW234125   2.244   4.461  11.393  1.4773  0.8051  0.7676
 7555SOL     OW34126   2.363   3.545   6.228 -0.3065  0.0424  0.2224
 7555SOL    HW134127   2.454   3.566   6.251 -0.3092  0.5573 -0.2497
 7555SOL    HW234128   2.375   3.451   6.215  2.5348  0.2760  1.0164
 7556SOL     OW34129   2.939   3.109   1.576  0.4149  0.1049 -1.2344
 7556SOL    HW134130   2.943   3.107   1.480 -0.0430 -4.2578 -1.1326
 7556SOL    HW234131   2.870   3.170   1.603 -1.5244 -2.1910 -0.9723
 7557SOL     OW34132   3.975   2.632   3.303 -0.0791  0.0453  0.1609
 7557SOL    HW134133   3.977   2.634   3.399  2.0442  0.4663  0.1058
 7557SOL    HW234134   3.883   2.659   3.294 -0.1011  0.4892  1.7003
 7558SOL     OW34135   3.572   2.527  17.611 -0.8204 -0.2646 -0.6073
 7558SOL    HW134136   3.666   2.509  17.603 -0.1181  2.1350  1.9475
 7558SOL    HW234137   3.569   2.595  17.544 -0.0652  1.4500  1.0909
 7559SOL     OW34138   0.170   1.756  13.571  0.1050 -0.3502 -0.1384
 7559SOL    HW134139   0.257   1.790  13.546  0.4599 -1.6747 -0.6856
 7559SOL    HW234140   0.166   1.811  13.649 -0.6177  1.2430 -1.2878
 7560SOL     OW34141   3.398   0.603   7.172  0.3793 -0.1077 -0.7514
 7560SOL    HW134142   3.382   0.691   7.136 -3.9431  0.3196  2.1192
 7560SOL    HW234143   3.311   0.581   7.206  0.1743  3.5184  1.0525
 7561SOL     OW34144   2.032   0.783   3.555  0.1430  0.0422  0.5796
 7561SOL    HW134145   2.033   0.787   3.459 -1.2148  3.4130  0.6857
 7561SOL    HW234146   2.009   0.875   3.571  0.3692  0.0805  0.6884
 7562SOL     OW34147   4.494   2.795   2.105 -0.7599 -0.3863  0.0339
 7562SOL    HW134148   4.579   2.806   2.061 -1.0484  0.1640 -0.3837
 7562SOL    HW234149   4.431   2.788   2.033 -0.8082 -3.2919  0.3641
 7563SOL     OW34150   1.838   1.417   3.993 -0.2090  0.1653  0.6831
 7563SOL    HW134151   1.861   1.439   4.084  0.4015 -0.4900  0.6881
 7563SOL    HW234152   1.838   1.322   3.998  1.6582  0.0699 -1.2621
 7564SOL     OW34153   2.624   1.510   5.311 -0.0585 -0.1862 -0.0019
 7564SOL    HW134154   2.598   1.567   5.383  0.1115  1.8799 -1.5762
 7564SOL    HW234155   2.589   1.427   5.343 -0.6536  0.4323  0.9485
 7565SOL     OW34156   3.103   1.501  11.150  0.5857  0.1851  0.1824
 7565SOL    HW134157   3.028   1.536  11.197  0.3758  2.1297 -1.6298
 7565SOL    HW234158   3.103   1.561  11.076 -1.1764  2.7360  2.2722
 7566SOL     OW34159   3.534   0.163   4.889  0.1328 -0.1716  0.0806
 7566SOL    HW134160   3.501   0.115   4.965  1.0462 -0.6433  0.1861
 7566SOL    HW234161   3.493   0.107   4.823 -2.3334  1.5290  0.1656
 7567SOL     OW34162   3.229   4.456   7.928  0.0849 -0.2581  0.0999
 7567SOL    HW134163   3.224   4.539   7.975  1.0580 -0.6544  0.9091
 7567SOL    HW234164   3.313   4.462   7.884 -1.0307 -0.4568 -2.0855
 7568SOL     OW34165   2.128   1.937  12.027 -0.6334 -0.0214 -0.6360
 7568SOL    HW134166   2.075   1.909  12.103 -0.5095  1.1037 -0.1336
 7568SOL    HW234167   2.088   1.893  11.952 -1.0110 -0.8012  0.0243
 7569SOL     OW34168   3.125   1.363   1.243 -0.1373  0.9086 -0.0947
 7569SOL    HW134169   3.211   1.377   1.281  0.5312 -0.2772 -1.1523
 7569SOL    HW234170   3.131   1.412   1.161 -1.1169  3.6451  1.4579
 7570SOL     OW34171   0.911   0.244   3.712 -0.2500 -0.0473 -0.4827
 7570SOL    HW134172   0.871   0.192   3.643 -2.0805 -2.9605  2.7338
 7570SOL    HW234173   0.855   0.322   3.710  1.0045  0.8142 -1.7853
 7571SOL     OW34174   1.044   0.718  17.018  0.9832  0.5444  0.0015
 7571SOL    HW134175   0.987   0.675  17.083 -1.1036  0.2574 -2.0343
 7571SOL    HW234176   1.134   0.715  17.051  1.0828  1.1044 -0.2279
 7572SOL     OW34177   3.983   0.815   3.365 -0.3556  0.2911  0.2772
 7572SOL    HW134178   3.960   0.801   3.273 -0.5826 -1.1861  0.5568
 7572SOL    HW234179   3.989   0.910   3.359 -0.8566  0.3448  0.6646
 7573SOL     OW34180   3.081   2.891   3.432  0.2132 -0.1377 -0.3603
 7573SOL    HW134181   3.004   2.851   3.392 -0.2780 -0.9314  1.3686
 7573SOL    HW234182   3.144   2.818   3.435 -0.1098 -0.3638  0.8764
 7574SOL     OW34183   0.515   3.852   8.396 -0.3782 -0.0118 -0.4214
 7574SOL    HW134184   0.479   3.928   8.350 -1.9739  0.4373  1.5705
 7574SOL    HW234185   0.599   3.839   8.352  0.1970 -0.4725  0.8350
 7575SOL     OW34186   4.633   2.671  16.412 -0.2986 -0.8419 -0.6115
 7575SOL    HW134187   4.634   2.641  16.321  0.0629 -0.9949 -0.5580
 7575SOL    HW234188   4.595   2.592  16.451  0.5114 -0.4630  0.9111
 7576SOL     OW34189   1.754   3.870   5.031 -0.1234 -0.4114  0.2564
 7576SOL    HW134190   1.786   3.780   5.029  0.2350 -0.2582 -1.9434
 7576SOL    HW234191   1.828   3.919   4.995 -1.0397  0.6435 -0.1857
 7577SOL     OW34192   3.067   2.466  10.637 -0.1534 -0.2930  0.1480
 7577SOL    HW134193   2.995   2.417  10.596 -0.3076  0.1998 -0.1756
 7577SOL    HW234194   3.014   2.514  10.701 -1.1224  0.1034 -0.9522
 7578SOL     OW34195   2.816   3.545   3.842  0.0916 -0.1619  0.4373
 7578SOL    HW134196   2.735   3.591   3.865 -0.4719 -0.9735  0.0715
 7578SOL    HW234197   2.878   3.613   3.868 -1.9317  0.6150  3.2954
 7579SOL     OW34198   4.595   0.421   9.231 -0.4436  0.2400  0.2211
 7579SOL    HW134199   4.506   0.433   9.262 -1.1117 -2.0330 -0.8440
 7579SOL    HW234200   4.625   0.354   9.292 -1.4614 -0.6871 -0.3077
 7580SOL     OW34201   0.917   2.360  10.978  0.6862 -0.0494 -0.3078
 7580SOL    HW134202   0.924   2.298  11.050  2.2615  0.6949  0.1961
 7580SOL    HW234203   0.987   2.333  10.918  0.8034  0.7314 -0.5233
 7581SOL     OW34204   0.116   3.146   5.968 -0.3465  0.1473 -0.6290
 7581SOL    HW134205   0.101   3.209   5.897  1.8977 -0.5807 -1.7421
 7581SOL    HW234206   0.045   3.167   6.029  0.0250 -1.0167  0.2025
 7582SOL     OW34207   4.098   2.210  13.168 -0.2350  1.0783  0.2898
 7582SOL    HW134208   4.122   2.241  13.081 -1.6266  0.5633 -0.2922
 7582SOL    HW234209   4.128   2.120  13.157 -1.7129  0.4365  1.3534
 7583SOL     OW34210   2.898   2.904  14.301  0.0580  0.2119 -0.2519
 7583SOL    HW134211   2.920   2.854  14.380  4.4047 -1.6125 -2.5784
 7583SOL    HW234212   2.829   2.847  14.267 -0.8702  1.6592 -0.7757
 7584SOL     OW34213   1.373   0.389  14.482 -0.0995 -0.1854  0.6581
 7584SOL    HW134214   1.320   0.463  14.452  1.9894  0.7985 -0.6427
 7584SOL    HW234215   1.364   0.323  14.413 -2.8641  1.1011 -0.1935
 7585SOL     OW34216   4.566   0.474   9.786 -0.0892 -0.2786 -0.0335
 7585SOL    HW134217   4.478   0.434   9.789  0.2281 -0.9399  0.4940
 7585SOL    HW234218   4.606   0.428   9.859  0.3717  1.1831  0.6196
 7586SOL     OW34219   0.373   3.692  15.845 -0.0921  0.1328  0.1734
 7586SOL    HW134220   0.421   3.671  15.764 -0.5955 -0.5230  0.0413
 7586SOL    HW234221   0.339   3.606  15.868 -1.2283  0.5776  0.1521
 7587SOL     OW34222   2.820   2.447   5.250 -0.0059 -0.6338  0.3056
 7587SOL    HW134223   2.844   2.540   5.258 -0.7610 -0.1757 -2.5590
 7587SOL    HW234224   2.816   2.440   5.154 -0.9517  0.1335  0.2865
 7588SOL     OW34225   2.371   2.272  14.568 -0.0140 -0.1062  0.3054
 7588SOL    HW134226   2.420   2.268  14.486  0.4487  1.6454  0.4906
 7588SOL    HW234227   2.373   2.366  14.584  3.7305 -0.5556  2.6081
 7589SOL     OW34228   3.529   2.126  15.573  0.3406  0.2315 -0.5294
 7589SOL    HW134229   3.522   2.219  15.591  0.3881  0.2360 -0.5337
 7589SOL    HW234230   3.521   2.133  15.478 -1.8488  0.2663 -0.3376
 7590SOL     OW34231   1.058   2.205   3.073  1.4640  0.1953  0.5741
 7590SOL    HW134232   0.967   2.197   3.101  1.4414  3.0437  1.2520
 7590SOL    HW234233   1.059   2.300   3.078 -0.8856  0.2216  0.5076
 7591SOL     OW34234   0.527   4.355   7.810 -0.3504 -0.1106 -0.3729
 7591SOL    HW134235   0.613   4.392   7.790  0.2333  0.0832  2.4024
 7591SOL    HW234236   0.483   4.421   7.756 -0.1971  0.3107  0.0129
 7592SOL     OW34237   1.931   2.657   1.244  0.1327  0.4108  0.4675
 7592SOL    HW134238   2.026   2.667   1.241  0.1533 -0.1430 -0.6284
 7592SOL    HW234239   1.915   2.608   1.164  0.2697  0.0419  0.6700
 7593SOL     OW34240   4.576   3.372   4.854  0.1643  0.7238  0.3385
 7593SOL    HW134241   4.565   3.398   4.946  2.1290  1.7781  0.2756
 7593SOL    HW234242   4.525   3.438   4.806  0.1042 -1.4939 -2.6115
 7594SOL     OW34243   3.658   2.227   7.089  0.1487 -0.2983 -0.2409
 7594SOL    HW134244   3.676   2.193   7.001  2.9225  0.1514  0.1537
 7594SOL    HW234245   3.658   2.322   7.081 -1.5012 -0.3087 -0.4506
 7595SOL     OW34246   3.121   1.371   1.567  0.2917  0.6825 -0.1275
 7595SOL    HW134247   3.056   1.373   1.637 -1.4962  0.4891 -1.8095
 7595SOL    HW234248   3.195   1.392   1.625 -0.5115 -0.7959  1.4099
 7596SOL     OW34249   1.897   0.024   7.367 -0.1652  0.2618  0.1724
 7596SOL    HW134250   1.841   0.080   7.420 -0.9962 -0.7625  0.3788
 7596SOL    HW234251   1.866   4.660   7.392  0.7414 -0.3549 -0.8469
 7597SOL     OW34252   4.488   2.713   7.690  0.2151 -0.0412 -0.1230
 7597SOL    HW134253   4.572   2.733   7.732 -0.5822  2.3949  0.3543
 7597SOL    HW234254   4.433   2.751   7.759 -0.7661  1.8072 -1.9283
 7598SOL     OW34255   1.026   1.661  15.955  0.2101 -0.2019  0.4454
 7598SOL    HW134256   0.979   1.744  15.964  0.3975 -0.0684  0.1861
 7598SOL    HW234257   1.087   1.676  16.027  2.2438 -1.8147 -0.9558
 7599SOL     OW34258   1.917   1.988  10.431  0.3450  0.2847  0.0145
 7599SOL    HW134259   1.974   1.928  10.384  3.3698  2.1949  1.2714
 7599SOL    HW234260   1.929   1.975  10.525  0.0657  0.5068  0.0812
 7600SOL     OW34261   1.951   2.749   5.858 -0.0355 -0.1356  0.1260
 7600SOL    HW134262   1.859   2.763   5.835 -0.1480 -1.4785 -0.2391
 7600SOL    HW234263   1.959   2.656   5.836 -0.5275  0.3770 -2.2560
 7601SOL     OW34264   1.512   3.215   8.626  0.0704  0.4058  0.2258
 7601SOL    HW134265   1.467   3.299   8.623  0.3621  0.5920  1.0434
 7601SOL    HW234266   1.527   3.194   8.718 -0.5053 -1.7609 -0.1639
 7602SOL     OW34267   1.402   2.880   2.249  0.1768  0.6881  0.2754
 7602SOL    HW134268   1.382   2.968   2.216  0.3661  0.0334 -1.5707
 7602SOL    HW234269   1.472   2.863   2.186  0.9224 -0.6615  1.4686
 7603SOL     OW34270   2.797   3.456   8.663  0.0409  0.0350  0.3771
 7603SOL    HW134271   2.771   3.525   8.602  1.2472  0.4072  0.2849
 7603SOL    HW234272   2.719   3.404   8.678 -1.3998  2.0193 -0.2942
 7604SOL     OW34273   0.681   2.583  16.665 -0.1918 -0.2326  0.3330
 7604SOL    HW134274   0.756   2.621  16.619 -0.2259 -1.2467 -0.5561
 7604SOL    HW234275   0.723   2.531  16.733  1.8439 -0.0479 -0.8009
 7605SOL     OW34276   1.689   1.468   7.348 -0.3240 -0.7815  0.2835
 7605SOL    HW134277   1.698   1.378   7.379  0.7019 -0.9953 -0.6166
 7605SOL    HW234278   1.736   1.455   7.265  1.4020  1.1228  0.9732
 7606SOL     OW34279   1.339   1.867  14.442 -0.3285 -0.3380 -0.1045
 7606SOL    HW134280   1.409   1.877  14.377  2.1572 -3.4745  2.0941
 7606SOL    HW234281   1.368   1.787  14.485 -3.3217 -1.5343 -0.2925
 7607SOL     OW34282   2.384   3.278   6.483  0.4220 -0.2504 -0.6796
 7607SOL    HW134283   2.444   3.339   6.525 -0.3007 -0.3906  0.5699
 7607SOL    HW234284   2.378   3.209   6.549 -2.4400  1.5616  0.9451
 7608SOL     OW34285   2.612   3.612   8.933  0.0159 -0.1221 -0.4090
 7608SOL    HW134286   2.650   3.529   8.961 -0.3478  0.4424  1.7830
 7608SOL    HW234287   2.689   3.669   8.931  0.6259 -1.0321 -2.1682
 7609SOL     OW34288   4.087   3.706   4.117 -0.2723  0.1683  0.5446
 7609SOL    HW134289   4.041   3.622   4.125  1.6210 -1.0188 -1.2962
 7609SOL    HW234290   4.022   3.759   4.071 -2.7063 -1.8524  1.6518
 7610SOL     OW34291   1.822   4.250   9.239  0.3692  0.2924  0.3842
 7610SOL    HW134292   1.731   4.259   9.211  1.1946  2.6697 -1.5381
 7610SOL    HW234293   1.826   4.310   9.313  0.4427  1.5839 -0.6675
 7611SOL     OW34294   1.731   1.887   0.274 -0.1989 -0.5251 -0.1753
 7611SOL    HW134295   1.824   1.871   0.258 -0.1241 -1.3525  1.0664
 7611SOL    HW234296   1.717   1.830   0.349 -1.5409  0.0942  0.0419
 7612SOL     OW34297   1.722   0.042  16.641 -0.8461  0.3968  1.0871
 7612SOL    HW134298   1.726   4.669  16.646 -0.7052  0.3664  0.4904
 7612SOL    HW234299   1.653   0.069  16.701 -2.4276  1.5900 -1.2875
 7613SOL     OW34300   2.044   3.218   8.247  0.2187  0.4949  0.0755
 7613SOL    HW134301   2.039   3.253   8.336  2.8994  0.3014  0.3010
 7613SOL    HW234302   1.965   3.259   8.211  1.6723  3.7653  0.6734
 7614SOL     OW34303   2.956   1.808   2.967  0.6510  0.5412 -0.0767
 7614SOL    HW134304   2.910   1.804   2.883  2.2180 -1.0616 -0.8655
 7614SOL    HW234305   2.889   1.825   3.033  1.8321 -1.5156  1.6703
 7615SOL     OW34306   0.364   0.594   3.694 -0.3251  0.1078 -0.3096
 7615SOL    HW134307   0.325   0.639   3.768  2.0972  1.0042  0.4204
 7615SOL    HW234308   0.279   0.579   3.652 -0.7823 -0.3327  0.7813
 7616SOL     OW34309   3.223   1.450   1.815 -0.4359 -0.5468 -0.3062
 7616SOL    HW134310   3.153   1.504   1.779  1.9651 -0.2645 -4.5282
 7616SOL    HW234311   3.274   1.516   1.863 -1.4188  1.3333 -1.8678
 7617SOL     OW34312   4.017   4.700   3.406 -0.0998  0.5119  0.1675
 7617SOL    HW134313   3.953   0.040   3.373 -0.5054 -0.7739 -1.4730
 7617SOL    HW234314   3.989   4.619   3.364  0.8613  1.1247 -1.6917
 7618SOL     OW34315   3.621   1.058   3.888  0.6749  0.1918  0.0280
 7618SOL    HW134316   3.649   1.085   3.975 -0.7478  2.0290 -0.0837
 7618SOL    HW234317   3.587   0.971   3.907 -1.4171  0.5135 -2.2043
 7619SOL     OW34318   1.983   0.158  16.590 -0.1007 -0.3093  0.4682
 7619SOL    HW134319   1.901   0.110  16.596  0.6254 -1.4645  1.2541
 7619SOL    HW234320   2.044   0.086  16.607 -0.8552 -1.5445 -2.1223
 7620SOL     OW34321   0.464   0.743  10.953  0.0387 -0.6050  0.3325
 7620SOL    HW134322   0.559   0.758  10.958 -0.1851  1.2130 -1.0825
 7620SOL    HW234323   0.454   0.696  11.036 -0.8166  0.8605  1.0557
 7621SOL     OW34324   4.625   1.851  16.921  0.4048  0.6105  0.2725
 7621SOL    HW134325   4.565   1.880  16.852  2.4999  0.4689 -1.6043
 7621SOL    HW234326   4.580   1.903  16.987  2.0694  1.8108  0.4721
 7622SOL     OW34327   2.393   0.688   5.168  0.3762 -0.3576  0.0690
 7622SOL    HW134328   2.486   0.674   5.185  0.7124 -1.2011 -2.3973
 7622SOL    HW234329   2.398   0.781   5.145  2.3968 -0.0595  1.6855
 7623SOL     OW34330   2.779   3.874   2.906  0.5130 -0.1025  0.6704
 7623SOL    HW134331   2.736   3.789   2.915  2.2886 -0.9725  0.7437
 7623SOL    HW234332   2.705   3.916   2.862  1.7597 -1.1299 -2.3902
 7624SOL     OW34333   1.899   2.635   8.322 -0.5603  0.2615  0.7187
 7624SOL    HW134334   1.934   2.712   8.277  0.4053  0.0484  1.0904
 7624SOL    HW234335   1.909   2.656   8.415  0.1703 -0.2304  0.7541
 7625SOL     OW34336   4.280   2.897   8.152  0.4539 -0.2470 -0.0550
 7625SOL    HW134337   4.332   2.917   8.229 -3.0509  0.0710  2.2569
 7625SOL    HW234338   4.259   2.986   8.123 -1.0422 -0.7565 -0.5643
 7626SOL     OW34339   1.364   0.916   9.208  0.2110 -0.5085 -0.1781
 7626SOL    HW134340   1.391   1.008   9.202  0.5168 -0.6223 -0.6078
 7626SOL    HW234341   1.274   0.935   9.235  0.4746 -1.5752  1.4353
 7627SOL     OW34342   4.624   4.058   6.165  0.0629  0.1932  0.3935
 7627SOL    HW134343   4.650   4.149   6.149 -1.1280  0.1709 -1.7149
 7627SOL    HW234344   4.707   4.025   6.199  0.1696  1.0319  0.9710
 7628SOL     OW34345   2.897   0.939   6.014  0.7208  0.1930  0.0480
 7628SOL    HW134346   2.868   1.022   5.976  0.3794 -1.3534 -3.0446
 7628SOL    HW234347   2.990   0.955   6.028  0.6926 -0.6443  1.1711
 7629SOL     OW34348   2.093   4.313   6.435 -0.1088  0.6542 -0.4341
 7629SOL    HW134349   2.048   4.234   6.465  3.2347 -1.6163 -1.3934
 7629SOL    HW234350   2.146   4.346   6.508 -0.9352  1.7349 -0.3256
 7630SOL     OW34351   1.376   3.234   7.619 -0.5243 -0.2131  0.4698
 7630SOL    HW134352   1.289   3.226   7.659  0.2724 -0.8642  2.0261
 7630SOL    HW234353   1.393   3.328   7.621  3.0545 -0.9070  1.5030
 7631SOL     OW34354   0.551   0.901   3.490 -0.1169  0.3722  0.0585
 7631SOL    HW134355   0.530   0.935   3.403  1.9416 -2.4681 -1.5708
 7631SOL    HW234356   0.595   0.974   3.534  0.4957 -0.0480  0.1362
 7632SOL     OW34357   3.846   1.992   0.597  0.7004 -0.6378  0.3803
 7632SOL    HW134358   3.889   2.034   0.672  1.7696  1.3855 -1.3684
 7632SOL    HW234359   3.843   2.057   0.527  1.9970  0.4325  1.3214
 7633SOL     OW34360   0.871   0.239   7.546 -0.0966  0.3533 -0.1344
 7633SOL    HW134361   0.790   0.188   7.536  0.2196 -0.4963  1.6850
 7633SOL    HW234362   0.866   0.278   7.634 -2.1405  1.3170 -0.6664
 7634SOL     OW34363   0.885   1.900   5.347 -0.1113  0.4645 -0.5884
 7634SOL    HW134364   0.890   1.980   5.295 -1.3035  0.9236  0.0128
 7634SOL    HW234365   0.885   1.827   5.284  0.2119  0.6980 -0.8551
 7635SOL     OW34366   1.458   0.143  10.069 -0.0387  1.0577  0.0705
 7635SOL    HW134367   1.436   0.050  10.076  3.5505  0.2351  0.4965
 7635SOL    HW234368   1.446   0.156  10.163 -0.3926  1.0883  0.0223
 7636SOL     OW34369   4.466   3.901   4.886  0.6139  0.5211 -0.2333
 7636SOL    HW134370   4.386   3.856   4.913  1.9975 -1.8970 -0.2128
 7636SOL    HW234371   4.535   3.836   4.897  1.7745  1.7584 -0.1587
 7637SOL     OW34372   0.772   1.886   0.803  0.4914 -0.4730 -0.1515
 7637SOL    HW134373   0.747   1.834   0.879  1.0857 -1.9035 -0.9297
 7637SOL    HW234374   0.765   1.815   0.739 -0.1779 -0.9353  0.4367
 7638SOL     OW34375   0.910   1.322   8.871  0.5369 -0.1069 -0.3076
 7638SOL    HW134376   0.980   1.258   8.885 -0.3518 -1.1452 -0.6874
 7638SOL    HW234377   0.957   1.388   8.820 -1.6793  1.1217 -0.7779
 7639SOL     OW34378   3.928   0.525   6.737 -0.1039  0.4713 -0.2648
 7639SOL    HW134379   4.004   0.583   6.738  0.1975  0.0516  1.1990
 7639SOL    HW234380   3.960   0.457   6.797 -0.3978  0.6745  0.1246
 7640SOL     OW34381   3.918   2.462   7.244 -0.3096  0.6696 -0.1834
 7640SOL    HW134382   3.994   2.486   7.297  1.0348 -0.1024 -1.7186
 7640SOL    HW234383   3.929   2.527   7.175  1.3501 -0.6371 -1.1729
 7641SOL     OW34384   1.858   1.934  16.337 -0.3178  0.7484 -0.4889
 7641SOL    HW134385   1.833   1.877  16.265 -0.9450 -0.3611  0.6158
 7641SOL    HW234386   1.868   2.016  16.289  0.9360  0.8103 -0.1206
 7642SOL     OW34387   4.239   2.037   4.673 -0.5742  0.4944  0.0843
 7642SOL    HW134388   4.321   2.043   4.623 -1.7090 -0.3074 -1.8916
 7642SOL    HW234389   4.222   2.131   4.678  0.4233  0.7256 -0.6861
 7643SOL     OW34390   4.307   3.399   6.821  0.1487 -0.1294  0.3339
 7643SOL    HW134391   4.383   3.367   6.772  0.2437  0.9943 -0.2494
 7643SOL    HW234392   4.253   3.446   6.757  0.6444  0.5669  0.4397
 7644SOL     OW34393   2.676   4.547   4.579 -0.8228 -0.2525 -0.0529
 7644SOL    HW134394   2.624   4.517   4.654 -1.4170 -0.2003 -0.4399
 7644SOL    HW234395   2.607   4.598   4.537 -0.4120  0.7915  0.5622
 7645SOL     OW34396   3.463   2.243  10.706  0.2361  0.5912 -0.0777
 7645SOL    HW134397   3.539   2.276  10.755 -0.5033 -0.4943  1.8018
 7645SOL    HW234398   3.451   2.158  10.748  0.8407 -0.6236 -2.3228
 7646SOL     OW34399   0.688   1.191  17.381 -0.2272  0.1452 -0.1397
 7646SOL    HW134400   0.642   1.130  17.323  0.6728  0.5238 -1.2463
 7646SOL    HW234401   0.659   1.272  17.339 -0.7360  1.1711  2.1865
 7647SOL     OW34402   0.811   3.536   6.021  0.0128 -0.1182 -0.3809
 7647SOL    HW134403   0.883   3.590   5.990  0.5479 -0.2859  0.5877
 7647SOL    HW234404   0.749   3.608   6.034  1.8432  1.3031  0.5242
 7648SOL     OW34405   4.417   1.685   2.541  0.1009 -0.6566 -0.3934
 7648SOL    HW134406   4.460   1.656   2.622  0.4944  0.2327 -0.2778
 7648SOL    HW234407   4.354   1.749   2.575  2.4397  2.1647 -1.4318
 7649SOL     OW34408   0.355   4.265   4.469  0.3688 -0.3891  0.2357
 7649SOL    HW134409   0.332   4.357   4.467 -2.3623 -1.1103 -1.4399
 7649SOL    HW234410   0.356   4.247   4.375 -2.2518  0.0310  0.1336
 7650SOL     OW34411   3.734   1.229  13.892  0.0859 -0.3587  0.0197
 7650SOL    HW134412   3.780   1.165  13.945 -0.3871  0.9588  2.0016
 7650SOL    HW234413   3.717   1.173  13.816  1.4563 -1.5050  0.5520
 7651SOL     OW34414   1.170   1.920   6.168 -0.0177  0.0567  0.0406
 7651SOL    HW134415   1.185   1.918   6.263  0.2369 -2.0870 -0.0386
 7651SOL    HW234416   1.121   1.839   6.159 -0.0396 -0.0061  0.7064
 7652SOL     OW34417   2.867   4.386   4.805  0.5827  0.7171 -0.0647
 7652SOL    HW134418   2.887   4.462   4.859  1.1816  1.9003 -1.9497
 7652SOL    HW234419   2.775   4.381   4.828  0.8792 -0.2704  0.8852
 7653SOL     OW34420   4.713   4.610   8.794 -0.3541 -0.0665 -0.7770
 7653SOL    HW134421   0.075   4.583   8.829  0.3496 -0.6368 -2.9594
 7653SOL    HW234422   0.021   4.685   8.744  2.8792 -1.2133 -0.5176
 7654SOL     OW34423   3.193   3.070   7.788 -0.5124  0.2199 -0.1295
 7654SOL    HW134424   3.220   3.160   7.772 -0.6781  1.2005  5.3342
 7654SOL    HW234425   3.220   3.029   7.706 -0.1869  0.9184 -0.3694
 7655SOL     OW34426   1.573   2.879   9.154 -0.2960 -0.2943  0.3084
 7655SOL    HW134427   1.584   2.973   9.171 -0.8677 -0.3373  0.9070
 7655SOL    HW234428   1.664   2.852   9.169  0.9627  3.7493  0.1138
 7656SOL     OW34429   3.512   1.534   0.698  0.0651 -0.6071  0.0369
 7656SOL    HW134430   3.444   1.536   0.765  1.2297  1.0713  1.1853
 7656SOL    HW234431   3.479   1.600   0.637  2.3056  0.8012  0.3432
 7657SOL     OW34432   0.822   4.218   2.136  0.0791 -0.1883  0.5843
 7657SOL    HW134433   0.745   4.169   2.166 -0.6019  0.0856 -0.7065
 7657SOL    HW234434   0.823   4.300   2.185  0.8941 -1.6241  2.9466
 7658SOL     OW34435   0.860   1.696   5.133 -0.0680 -0.6285 -1.2131
 7658SOL    HW134436   0.883   1.654   5.050  3.0520 -0.1416 -0.5891
 7658SOL    HW234437   0.776   1.729   5.103 -0.4741  0.3836  1.0219
 7659SOL     OW34438   0.790   2.901  11.342  0.2800 -0.3958 -0.8292
 7659SOL    HW134439   0.761   2.885  11.431  2.0615 -2.4758 -0.6306
 7659SOL    HW234440   0.869   2.954  11.353  0.2407 -0.3492 -0.7758
 7660SOL     OW34441   0.466   2.343   4.182  0.2094  0.3031  0.0785
 7660SOL    HW134442   0.446   2.250   4.197 -1.2491  0.3618 -1.4705
 7660SOL    HW234443   0.376   2.373   4.170 -0.0069  0.0540  1.0866
 7661SOL     OW34444   3.233   1.486   7.816  0.5670 -0.3242  0.7748
 7661SOL    HW134445   3.189   1.431   7.750  0.7464 -1.0134  1.2296
 7661SOL    HW234446   3.319   1.486   7.774  0.4680  0.3509  0.5712
 7662SOL     OW34447   3.463   3.024  11.265 -0.1734 -0.4432 -0.1819
 7662SOL    HW134448   3.381   3.045  11.310 -0.9291  0.7907 -2.1680
 7662SOL    HW234449   3.481   3.106  11.220  1.5593 -0.9600 -0.4382
 7663SOL     OW34450   0.652   1.058   2.876 -0.2125  0.2232  0.4480
 7663SOL    HW134451   0.616   0.980   2.919  1.5436 -0.3045  0.9692
 7663SOL    HW234452   0.666   1.022   2.789 -0.1175  0.7864  0.2302
 7664SOL     OW34453   4.360   0.129   6.346 -0.4023 -0.1598  0.8553
 7664SOL    HW134454   4.368   0.042   6.383 -0.0957 -0.6633 -0.3871
 7664SOL    HW234455   4.269   0.155   6.361 -0.6386  0.6907 -2.0105
 7665SOL     OW34456   0.785   4.055   5.016  0.3580 -0.2243  0.0602
 7665SOL    HW134457   0.880   4.052   5.021  0.2091 -4.4663  0.4195
 7665SOL    HW234458   0.780   4.150   5.009  2.3531 -0.0484  1.0319
 7666SOL     OW34459   4.466   2.187   3.005  0.2884  0.4471 -0.4679
 7666SOL    HW134460   4.401   2.212   3.070  0.6079 -2.0768  0.8281
 7666SOL    HW234461   4.405   2.182   2.931 -1.1539  0.3878  0.7235
 7667SOL     OW34462   4.237   0.901   7.956  0.3815  0.0611  0.6291
 7667SOL    HW134463   4.205   0.985   7.989  0.3812  0.8161 -1.3262
 7667SOL    HW234464   4.330   0.907   7.978  0.8259  2.0579 -1.8242
 7668SOL     OW34465   4.015   1.283   7.615 -0.0076 -0.1981 -0.1950
 7668SOL    HW134466   3.977   1.306   7.531  0.2217 -0.5212 -0.3915
 7668SOL    HW234467   4.106   1.265   7.591  0.6919  1.5640  1.1725
 7669SOL     OW34468   0.473   2.437  14.313  0.3717  0.1648  0.1880
 7669SOL    HW134469   0.494   2.530  14.313  3.0509 -0.4384  1.9807
 7669SOL    HW234470   0.379   2.435  14.292  0.6064  0.1066 -0.8713
 7670SOL     OW34471   2.941   0.805   4.522 -0.4323  0.4273  0.5487
 7670SOL    HW134472   2.858   0.843   4.494 -0.8344 -0.2327  0.8357
 7670SOL    HW234473   2.922   0.783   4.614 -0.4605 -1.4522  0.0892
 7671SOL     OW34474   2.964   3.938   1.171 -0.5219  0.1459 -0.3198
 7671SOL    HW134475   2.923   4.006   1.224 -4.1474 -1.9806 -0.3521
 7671SOL    HW234476   3.055   3.967   1.168 -1.1693  2.0162 -1.4878
 7672SOL     OW34477   3.991   0.424   7.718  0.4493 -0.3661  0.4659
 7672SOL    HW134478   3.913   0.458   7.762 -0.3687 -0.8456 -0.6304
 7672SOL    HW234479   4.064   0.484   7.734 -0.5386  1.3639 -1.5714
 7673SOL     OW34480   1.796   3.240   5.323  0.1796 -0.1295  0.0483
 7673SOL    HW134481   1.713   3.227   5.279  0.0827  1.5657 -0.2690
 7673SOL    HW234482   1.856   3.184   5.273  1.7174  2.0562 -0.5704
 7674SOL     OW34483   2.095   3.389   8.918 -0.5014  0.1513  0.3791
 7674SOL    HW134484   2.129   3.350   8.999 -1.2457  2.8115  1.9727
 7674SOL    HW234485   2.001   3.383   8.931 -0.2298 -1.8244  1.3369
 7675SOL     OW34486   2.488   3.700   2.263  0.1086 -0.1643  0.5573
 7675SOL    HW134487   2.532   3.783   2.243 -0.1905 -0.9903 -3.4521
 7675SOL    HW234488   2.409   3.731   2.307  0.2544  1.3587 -0.2434
 7676SOL     OW34489   1.604   0.095   7.802 -0.9283  0.5573 -0.1724
 7676SOL    HW134490   1.556   0.125   7.880  1.3118  3.2501  0.1749
 7676SOL    HW234491   1.642   0.175   7.766 -0.9843  0.1715 -1.0962
 7677SOL     OW34492   3.114   3.175   3.361 -0.5140  0.7213  0.2673
 7677SOL    HW134493   3.136   3.082   3.366  1.4437  1.2300  1.0924
 7677SOL    HW234494   3.019   3.173   3.375 -0.9593 -0.1882 -2.7441
 7678SOL     OW34495   2.027   1.413   1.198 -0.0763  0.1013  0.0049
 7678SOL    HW134496   2.046   1.497   1.239  0.0946 -0.4351  1.0158
 7678SOL    HW234497   2.037   1.346   1.265  0.3849 -0.0396 -0.2082
 7679SOL     OW34498   4.631   0.994   1.874  0.1233  0.6768 -0.1873
 7679SOL    HW134499   4.721   1.014   1.900 -0.7109  0.6656  2.7221
 7679SOL    HW234500   4.573   1.054   1.922 -0.5403 -0.5138  0.5219
 7680SOL     OW34501   2.569   1.517  10.438  0.1311  0.2161 -0.0661
 7680SOL    HW134502   2.563   1.576  10.513 -0.7663 -0.4582  0.3857
 7680SOL    HW234503   2.492   1.464  10.455 -0.6702  1.3209 -0.2656
 7681SOL     OW34504   4.377   3.054   6.622 -0.2333 -0.4386  0.0942
 7681SOL    HW134505   4.291   3.071   6.582 -0.9632  0.0201  1.8964
 7681SOL    HW234506   4.413   3.142   6.631 -0.8405  0.0197 -1.8812
 7682SOL     OW34507   1.624   2.907  11.374  0.2087 -0.1366  0.1526
 7682SOL    HW134508   1.688   2.953  11.429 -1.0349  0.3384  1.2008
 7682SOL    HW234509   1.639   2.826  11.424 -1.3710  0.4010  1.4828
 7683SOL     OW34510   0.861   3.810  10.727 -0.1295  0.2870  0.0733
 7683SOL    HW134511   0.918   3.757  10.782 -0.0501  0.1284 -0.1577
 7683SOL    HW234512   0.930   3.832  10.664  0.1799  0.7736  0.5924
 7684SOL     OW34513   4.533   4.145   5.016 -0.2112  0.4754 -0.8034
 7684SOL    HW134514   4.623   4.139   5.048 -0.7056 -3.5050 -0.2313
 7684SOL    HW234515   4.511   4.063   4.972 -1.3035  0.6257 -0.5341
 7685SOL     OW34516   1.005   0.800  13.198  0.6784 -0.4370  0.2628
 7685SOL    HW134517   0.950   0.722  13.199  0.3954 -0.2612 -0.9953
 7685SOL    HW234518   1.061   0.797  13.276  1.6166 -0.6924 -0.4144
 7686SOL     OW34519   0.285   3.247   5.103 -0.8110  0.2056  0.4514
 7686SOL    HW134520   0.343   3.300   5.157  1.1875 -0.7279 -0.7483
 7686SOL    HW234521   0.244   3.308   5.042  0.2851 -0.0025 -0.5195
 7687SOL     OW34522   1.159   2.639  10.792  0.4532 -0.0601  0.2623
 7687SOL    HW134523   1.221   2.712  10.795  0.8717 -0.3649 -1.1000
 7687SOL    HW234524   1.170   2.617  10.885  2.0973 -0.8697 -0.1189
 7688SOL     OW34525   0.745   0.024   7.760  0.4205 -0.6401  0.5067
 7688SOL    HW134526   0.746   0.065   7.673 -0.3017 -2.3411 -0.3219
 7688SOL    HW234527   0.837   0.035   7.782  0.5435  1.7688 -1.1412
 7689SOL     OW34528   2.611   2.686  14.507  0.2604 -0.0051 -0.1743
 7689SOL    HW134529   2.638   2.749  14.440 -0.9488 -1.4343 -1.9997
 7689SOL    HW234530   2.633   2.600  14.471  2.1809  0.6248 -0.4984
 7690SOL     OW34531   3.635   3.643   1.679 -0.0489 -0.1234  0.0719
 7690SOL    HW134532   3.680   3.662   1.762 -1.1768 -0.5615  0.7915
 7690SOL    HW234533   3.553   3.685   1.705 -0.0609  1.0015 -1.7951
 7691SOL     OW34534   2.067   1.081   6.019  0.1833 -0.2373  0.0267
 7691SOL    HW134535   2.091   1.008   5.961  0.1321 -0.0856 -0.1828
 7691SOL    HW234536   2.154   1.110   6.047  1.2174 -2.9253 -0.3503
 7692SOL     OW34537   0.232   1.603   8.797  0.0504 -0.4487 -0.2782
 7692SOL    HW134538   0.198   1.692   8.792  0.4528 -0.2448  0.5246
 7692SOL    HW234539   0.327   1.613   8.792  0.1594 -0.8352  0.9328
 7693SOL     OW34540   4.216   0.303   4.770  0.1736 -0.3796 -0.3816
 7693SOL    HW134541   4.229   0.363   4.843  0.8861  0.4741 -1.2015
 7693SOL    HW234542   4.231   0.358   4.693  2.1372 -1.5548 -0.8323
 7694SOL     OW34543   4.595   0.599  17.398  0.0744 -0.1267 -0.2649
 7694SOL    HW134544   4.528   0.620  17.334 -1.3296  1.3512  1.7214
 7694SOL    HW234545   4.610   0.504  17.398 -1.6945 -0.3980  0.3956
 7695SOL     OW34546   3.218   1.494   6.464 -0.3580  0.3106  0.2485
 7695SOL    HW134547   3.199   1.402   6.441  2.1789  0.0486 -0.8067
 7695SOL    HW234548   3.132   1.535   6.461  0.6200  2.3593  0.6106
 7696SOL     OW34549   1.276   0.293   5.773 -0.4633 -0.3573  0.4026
 7696SOL    HW134550   1.239   0.382   5.771  0.3465 -0.0660 -1.5892
 7696SOL    HW234551   1.294   0.277   5.681  1.7397 -0.8876  0.9317
 7697SOL     OW34552   4.047   2.597   6.002 -0.6735 -0.0488 -0.1856
 7697SOL    HW134553   4.076   2.688   5.994 -0.5089 -0.0518  0.3783
 7697SOL    HW234554   4.005   2.589   5.917 -0.7381  0.7231 -0.2194
 7698SOL     OW34555   2.727   2.193   0.835  0.0222  0.4888  0.4104
 7698SOL    HW134556   2.750   2.253   0.905 -0.9021  3.5015 -1.8319
 7698SOL    HW234557   2.674   2.255   0.784 -1.1635  0.7223  1.9151
 7699SOL     OW34558   4.190   0.617  14.721  0.7215 -0.3554 -0.2833
 7699SOL    HW134559   4.160   0.540  14.769  0.2701  0.4902  0.7959
 7699SOL    HW234560   4.106   0.629  14.676  0.0412  0.2569  1.1585
 7700SOL     OW34561   2.737   0.483  15.079 -0.7159  0.1928 -0.7947
 7700SOL    HW134562   2.651   0.443  15.093 -0.6696  0.0074 -1.0291
 7700SOL    HW234563   2.770   0.436  15.003  2.8465 -1.1411  1.5633
 7701SOL     OW34564   3.918   1.233   4.098  0.2812 -0.3285 -0.3102
 7701SOL    HW134565   3.947   1.214   4.187 -0.9665  0.6699  0.2919
 7701SOL    HW234566   3.854   1.163   4.087 -0.4510  0.4151 -0.7479
 7702SOL     OW34567   1.817   3.299   8.792  0.2704 -0.5367  0.3952
 7702SOL    HW134568   1.735   3.346   8.806  0.5419 -0.2239  0.9694
 7702SOL    HW234569   1.817   3.299   8.697  0.6897  4.1478  0.3919
 7703SOL     OW34570   3.303   3.337   5.541  0.4842 -1.0484 -0.2135
 7703SOL    HW134571   3.340   3.379   5.463  1.5083  0.2194  0.9478
 7703SOL    HW234572   3.368   3.268   5.554  0.7434 -1.3595 -3.1936
 7704SOL     OW34573   1.295   3.119   2.161 -0.2562 -0.5307  0.0914
 7704SOL    HW134574   1.200   3.129   2.164 -0.0000  1.8089  0.7110
 7704SOL    HW234575   1.324   3.179   2.092 -0.0453 -1.1419 -0.3510
 7705SOL     OW34576   3.419   2.660   9.997  0.5695  0.3756  0.6915
 7705SOL    HW134577   3.389   2.593  10.059 -0.4620 -0.1377 -0.3495
 7705SOL    HW234578   3.473   2.610   9.935  3.2007  1.7460  1.8863
 7706SOL     OW34579   0.148   3.244  11.562 -0.1369 -0.1982 -1.0525
 7706SOL    HW134580   0.218   3.241  11.497  2.0124  0.0969  1.2246
 7706SOL    HW234581   0.157   3.159  11.605  0.2001 -0.0190 -0.7679
 7707SOL     OW34582   0.807   3.639   3.197  0.3619 -0.4185 -0.8562
 7707SOL    HW134583   0.879   3.701   3.214  1.7271 -1.6834 -2.0077
 7707SOL    HW234584   0.762   3.631   3.281  0.0499  1.3620 -0.8473
 7708SOL     OW34585   4.557   0.486   2.206  0.2213  0.3587  0.0720
 7708SOL    HW134586   4.599   0.488   2.119  1.6782  0.7761  0.7877
 7708SOL    HW234587   4.512   0.570   2.205 -0.5126 -0.0332 -0.0345
 7709SOL     OW34588   4.026   3.447   1.958  0.4522 -0.1878  0.1329
 7709SOL    HW134589   3.977   3.512   2.009  0.8779 -0.9403  1.5105
 7709SOL    HW234590   4.005   3.373   2.015 -1.9896 -1.9364 -3.0436
 7710SOL     OW34591   1.797   0.984   3.194  1.0907  0.0389  0.4991
 7710SOL    HW134592   1.802   0.961   3.101 -0.2371  2.7238 -0.2042
 7710SOL    HW234593   1.800   0.898   3.238  2.3772  0.3512  1.0425
 7711SOL     OW34594   2.443   4.720   2.614  0.2662  0.4701 -0.0926
 7711SOL    HW134595   2.429   0.065   2.681 -2.9898 -0.4893  0.1643
 7711SOL    HW234596   2.408   0.053   2.545  2.1373  2.5964  0.6551
 7712SOL     OW34597   2.948   0.049   1.571 -0.0459  0.4480 -0.2248
 7712SOL    HW134598   3.022   0.101   1.540  0.9630 -0.7802  0.1082
 7712SOL    HW234599   2.980   4.719   1.645 -1.4338  0.3486  0.3116
 7713SOL     OW34600   1.980   0.797   8.940  0.6693 -0.0442 -0.3621
 7713SOL    HW134601   1.938   0.712   8.954 -1.4439  1.5308  2.8197
 7713SOL    HW234602   1.933   0.834   8.865  0.0514  0.5553  0.3220
 7714SOL     OW34603   4.054   1.931   4.479  0.2546  0.3120  0.6979
 7714SOL    HW134604   4.114   1.958   4.549  1.2396  0.0018 -0.0131
 7714SOL    HW234605   4.022   2.016   4.449  1.3983  1.2332  2.0599
 7715SOL     OW34606   1.193   1.058   3.465  0.0686  0.0956 -0.3194
 7715SOL    HW134607   1.206   1.148   3.434  1.5356 -0.6481 -1.8912
 7715SOL    HW234608   1.280   1.036   3.497  0.8495  0.3034 -2.2713
 7716SOL     OW34609   0.608   2.499  13.479  0.1959  0.2695  0.1962
 7716SOL    HW134610   0.648   2.581  13.508  0.1174  0.4194 -0.1240
 7716SOL    HW234611   0.684   2.450  13.445 -0.5648 -0.0590 -1.0230
 7717SOL     OW34612   0.664   2.446  12.729  0.0118  0.2731 -0.4270
 7717SOL    HW134613   0.724   2.474  12.798  0.6441  0.8156 -1.1901
 7717SOL    HW234614   0.606   2.521  12.739  0.7122  0.6222  1.0134
 7718SOL     OW34615   1.149   1.664   7.873  0.0332 -0.2138  0.8691
 7718SOL    HW134616   1.110   1.714   7.802  0.8031  1.3303  1.5332
 7718SOL    HW234617   1.070   1.636   7.919  1.9873 -1.8963  3.1962
 7719SOL     OW34618   2.983   2.840   6.309 -0.0261  0.1771 -0.2338
 7719SOL    HW134619   2.899   2.822   6.268 -0.8259  1.1846  0.9679
 7719SOL    HW234620   3.022   2.759   6.340  0.8613  1.0682  0.9617
 7720SOL     OW34621   3.238   2.955   9.961 -0.5321 -0.3549 -0.6223
 7720SOL    HW134622   3.293   3.019  10.006 -0.4579 -1.1503  0.4059
 7720SOL    HW234623   3.229   3.001   9.878  2.1508  1.4549  0.0906
 7721SOL     OW34624   3.196   4.279   1.439  0.4245 -0.1991 -0.0566
 7721SOL    HW134625   3.197   4.194   1.396  0.8711  0.9493 -2.3526
 7721SOL    HW234626   3.284   4.312   1.421  0.0453  1.5877  1.3220
 7722SOL     OW34627   3.876   2.646   3.940 -0.4335 -0.5117  0.1471
 7722SOL    HW134628   3.845   2.558   3.961 -2.7890  0.9913  3.0035
 7722SOL    HW234629   3.965   2.650   3.977 -0.3753 -0.1894 -0.0241
 7723SOL     OW34630   3.316   2.318  17.496 -0.2365 -0.5334  0.0944
 7723SOL    HW134631   3.341   2.247  17.437  0.2587 -1.2196  1.1437
 7723SOL    HW234632   3.350   2.399  17.458 -1.9193 -0.6187 -1.6102
 7724SOL     OW34633   4.218   1.079   5.950 -0.2686  0.1802  0.0247
 7724SOL    HW134634   4.150   1.123   5.898  1.6316  0.9389 -1.7821
 7724SOL    HW234635   4.205   1.124   6.033 -1.6098  1.3168 -0.8023
 7725SOL     OW34636   4.544   4.719  11.390  0.4724 -0.1425 -0.4819
 7725SOL    HW134637   4.535   4.693  11.482  0.4835 -1.0341 -0.7379
 7725SOL    HW234638   4.610   4.655  11.362 -1.1739 -3.0709  2.2821
 7726SOL     OW34639   4.632   3.902   3.181  0.0016  0.0644 -0.1255
 7726SOL    HW134640   4.555   3.952   3.153 -1.1457 -1.8376 -0.3473
 7726SOL    HW234641   4.677   3.887   3.097  2.4315  0.0917  1.1779
 7727SOL     OW34642   2.751   3.432   1.049  0.5627  0.4269 -0.2931
 7727SOL    HW134643   2.785   3.520   1.065  1.1375  0.2397 -0.4776
 7727SOL    HW234644   2.807   3.401   0.978  0.9453 -0.6104  0.4654
 7728SOL     OW34645   1.157   0.911   9.485  0.2012 -0.1258  0.2403
 7728SOL    HW134646   1.197   0.989   9.524  1.4897 -0.3569 -0.6120
 7728SOL    HW234647   1.164   0.851   9.559  0.4053  0.8347  1.0016
 7729SOL     OW34648   3.200   3.277  10.045  0.3875 -0.1861 -0.2500
 7729SOL    HW134649   3.279   3.226  10.066 -0.4227 -0.9056  1.0648
 7729SOL    HW234650   3.193   3.310  10.135 -0.5786 -1.6826  0.2227
 7730SOL     OW34651   1.248   1.764   6.880  0.4768 -0.3116 -0.3098
 7730SOL    HW134652   1.235   1.845   6.930  0.2173  0.7844 -2.1630
 7730SOL    HW234653   1.343   1.756   6.889  0.1653 -1.3187  2.3242
 7731SOL     OW34654   3.314   4.585   8.299  0.2940 -0.0197 -0.5562
 7731SOL    HW134655   3.322   4.647   8.226  2.0830 -1.3693 -1.5027
 7731SOL    HW234656   3.254   4.632   8.356 -0.5263 -1.3906 -0.2933
 7732SOL     OW34657   2.626   2.899  10.835 -0.1019 -0.0845 -0.4970
 7732SOL    HW134658   2.535   2.920  10.815 -0.5778 -1.8257 -0.1834
 7732SOL    HW234659   2.670   2.983  10.852 -0.5998  0.6090 -2.7124
 7733SOL     OW34660   0.262   1.150  14.587 -0.4336 -0.2344 -0.2628
 7733SOL    HW134661   0.185   1.124  14.537 -1.0525 -1.5158  1.3395
 7733SOL    HW234662   0.276   1.066  14.629  0.1430  0.5470  1.1160
 7734SOL     OW34663   1.185   2.194  14.355 -0.2199  0.0528 -0.5258
 7734SOL    HW134664   1.106   2.247  14.366 -1.1632 -2.1036  3.2810
 7734SOL    HW234665   1.245   2.251  14.306 -1.0324 -1.0551 -2.7931
 7735SOL     OW34666   1.749   4.358   2.747 -0.3830  0.2767 -0.4447
 7735SOL    HW134667   1.746   4.405   2.664 -4.4072 -1.1794 -1.1047
 7735SOL    HW234668   1.666   4.310   2.747 -0.6154  0.6881 -1.5872
 7736SOL     OW34669   2.524   0.386  11.696  0.0671  0.0113 -0.2370
 7736SOL    HW134670   2.434   0.417  11.703  0.1070  0.3201 -1.0980
 7736SOL    HW234671   2.526   0.330  11.773  0.5307  1.7553  1.0272
 7737SOL     OW34672   3.968   2.330   1.441 -0.1062 -0.2456  0.4674
 7737SOL    HW134673   3.980   2.320   1.347 -0.7554  0.7059  0.2842
 7737SOL    HW234674   3.887   2.279   1.447 -0.1430 -0.1594  0.6892
 7738SOL     OW34675   0.519   2.978   7.263 -0.1495 -0.0617  0.4693
 7738SOL    HW134676   0.600   2.952   7.220 -0.1213  1.5529 -0.4739
 7738SOL    HW234677   0.553   3.051   7.315  2.6550 -1.1586  0.1449
 7739SOL     OW34678   2.152   1.900  10.804  0.4259 -0.3993  0.2676
 7739SOL    HW134679   2.241   1.870  10.821  0.5883  0.8105  1.4698
 7739SOL    HW234680   2.123   1.830  10.744 -0.4197 -0.4250  0.7087
 7740SOL     OW34681   4.330   3.956   4.039 -0.4400  0.6910  0.4521
 7740SOL    HW134682   4.380   4.038   4.038  2.8186 -1.2933 -0.9637
 7740SOL    HW234683   4.251   3.977   3.990  0.4245 -1.0142 -1.6956
 7741SOL     OW34684   0.136   0.219   8.163 -0.1237  0.2873  0.1043
 7741SOL    HW134685   0.180   0.180   8.087  0.3328  4.1268 -1.6070
 7741SOL    HW234686   0.045   0.213   8.132 -0.4354 -0.1350  1.0989
 7742SOL     OW34687   3.421   4.222   7.661  0.0111 -0.0601  0.3810
 7742SOL    HW134688   3.364   4.177   7.599 -1.7061 -0.7649  2.4786
 7742SOL    HW234689   3.421   4.315   7.639 -0.6463 -0.8380 -2.9071
 7743SOL     OW34690   4.709   0.422   9.547 -0.3013 -0.3708 -0.3955
 7743SOL    HW134691   4.676   0.467   9.625 -0.7072  3.4363 -2.7405
 7743SOL    HW234692   4.628   0.412   9.497 -0.8472  0.2574  0.3579
 7744SOL     OW34693   2.987   0.892   9.238 -0.1682  0.4070  0.3344
 7744SOL    HW134694   2.919   0.955   9.260 -0.4825  0.0988  0.2573
 7744SOL    HW234695   3.045   0.895   9.314 -0.2065 -3.2570  0.5132
 7745SOL     OW34696   0.346   4.496   8.271 -0.1523 -0.2294 -0.2704
 7745SOL    HW134697   0.353   4.406   8.305 -1.0948  0.5597  1.9672
 7745SOL    HW234698   0.282   4.522   8.337 -0.8351 -0.6638 -0.7597
 7746SOL     OW34699   3.731   4.398   5.498  0.0212 -0.5715  0.4654
 7746SOL    HW134700   3.660   4.346   5.460 -1.0328 -0.3948  2.1897
 7746SOL    HW234701   3.783   4.426   5.422 -1.8117 -1.7734 -1.2454
 7747SOL     OW34702   3.205   1.239  11.159  0.2887 -0.5365  0.0328
 7747SOL    HW134703   3.223   1.207  11.071  0.9144  1.5204 -0.5845
 7747SOL    HW234704   3.193   1.333  11.143  1.1502 -0.1787  1.4874
 7748SOL     OW34705   0.127   0.890  10.137 -0.1058  0.4317 -0.4632
 7748SOL    HW134706   0.035   0.917  10.143 -0.8374 -0.9992 -5.2121
 7748SOL    HW234707   0.167   0.966  10.094  0.1413  0.2490 -0.5567
 7749SOL     OW34708   1.247   3.046   2.750 -0.5350 -0.0918 -0.0181
 7749SOL    HW134709   1.276   2.968   2.703  0.0692  0.7719 -1.0632
 7749SOL    HW234710   1.301   3.052   2.829  1.2469 -1.9842 -1.0930
 7750SOL     OW34711   2.065   3.558   1.848  0.7839  0.1535  0.7576
 7750SOL    HW134712   2.070   3.653   1.836 -0.5913  0.0742 -0.5564
 7750SOL    HW234713   2.135   3.522   1.794  2.4009  0.9468  2.3483
 7751SOL     OW34714   2.244   3.097   6.654 -0.1857  0.0547  0.7133
 7751SOL    HW134715   2.184   3.027   6.678 -0.1153 -0.6953 -1.3019
 7751SOL    HW234716   2.243   3.136   6.741  0.8868 -1.1643  1.2709
 7752SOL     OW34717   0.744   2.557   4.980 -0.1841 -0.2680  0.0877
 7752SOL    HW134718   0.797   2.621   5.027  0.6770  0.7505 -2.2806
 7752SOL    HW234719   0.658   2.589   5.007 -0.1924 -1.1688  1.1413
 7753SOL     OW34720   2.227   4.416   6.659  0.4641 -0.5682 -0.1200
 7753SOL    HW134721   2.202   4.484   6.721  0.3483 -1.0657  0.3821
 7753SOL    HW234722   2.302   4.457   6.615 -0.1590  0.7478  0.0401
 7754SOL     OW34723   4.394   3.840   0.294  0.0826 -0.0723 -0.3641
 7754SOL    HW134724   4.343   3.760   0.280 -0.2012 -0.0625  0.6078
 7754SOL    HW234725   4.340   3.897   0.348  2.1728  0.8045  0.8355
 7755SOL     OW34726   2.997   2.561   6.301 -0.5491 -0.5363  0.6181
 7755SOL    HW134727   2.932   2.491   6.300 -0.5370 -0.5425  0.4130
 7755SOL    HW234728   2.977   2.617   6.226  1.5220  1.4789  1.5508
 7756SOL     OW34729   3.655   0.655   3.589  0.4176 -0.2029 -0.0550
 7756SOL    HW134730   3.616   0.569   3.579 -0.6858  0.5351 -2.0430
 7756SOL    HW234731   3.735   0.629   3.543 -0.3787 -1.2705 -0.8073
 7757SOL     OW34732   2.714   0.226   0.384  0.1158  0.0296 -0.3193
 7757SOL    HW134733   2.698   0.218   0.478 -1.1071  2.2243 -0.3433
 7757SOL    HW234734   2.666   0.147   0.359  0.3864  0.9188 -3.6762
 7758SOL     OW34735   0.800   0.157   1.340 -0.0749 -0.2607 -0.0450
 7758SOL    HW134736   0.856   0.230   1.366 -1.0700  0.6383 -0.3939
 7758SOL    HW234737   0.849   0.079   1.366 -0.2934 -0.9390 -1.6377
 7759SOL     OW34738   1.750   2.881   1.305  0.1725  0.0900 -0.3471
 7759SOL    HW134739   1.825   2.851   1.253 -0.4701 -0.3903 -1.0173
 7759SOL    HW234740   1.750   2.971   1.274 -2.4672 -0.0628 -0.7964
 7760SOL     OW34741   2.667   0.900   4.461 -0.0319 -0.0779  0.5129
 7760SOL    HW134742   2.581   0.881   4.423  0.7190  0.9978 -1.7282
 7760SOL    HW234743   2.634   0.972   4.515 -1.6036 -0.3923 -0.0292
 7761SOL     OW34744   2.469   2.515   3.567  0.3657 -0.2349 -0.2559
 7761SOL    HW134745   2.375   2.528   3.554  0.2263 -0.4845  0.4789
 7761SOL    HW234746   2.468   2.426   3.602 -0.1618 -0.9603 -2.1518
 7762SOL     OW34747   0.598   1.125   5.488  0.3728  0.0894 -0.7242
 7762SOL    HW134748   0.687   1.129   5.522 -0.0412 -1.6687  0.6078
 7762SOL    HW234749   0.542   1.176   5.547 -0.3041 -0.7076 -0.6635
 7763SOL     OW34750   2.062   3.256   7.750  0.0087  0.6041  0.1615
 7763SOL    HW134751   2.099   3.202   7.820 -0.3926  1.2486  0.8803
 7763SOL    HW234752   2.144   3.287   7.712 -1.3053  3.2527 -0.5259
 7764SOL     OW34753   2.258   2.806   8.950 -0.0317  0.0314  0.1846
 7764SOL    HW134754   2.196   2.734   8.960  0.0738  0.0088  0.6870
 7764SOL    HW234755   2.328   2.755   8.910 -1.3019 -0.1903 -1.7597
 7765SOL     OW34756   0.228   2.120  13.323  0.3458 -0.1300  0.3771
 7765SOL    HW134757   0.282   2.050  13.360  0.9498  0.3603  0.4149
 7765SOL    HW234758   0.265   2.186  13.381 -1.6287  0.2342  1.2264
 7766SOL     OW34759   0.056   2.393  10.033 -0.2281 -0.4607  0.2466
 7766SOL    HW134760   4.693   2.371   9.995  0.1233  0.3543 -1.0165
 7766SOL    HW234761   0.055   2.335  10.109  3.4096 -1.0064 -0.1470
 7767SOL     OW34762   4.309   2.197   0.048  0.1040 -0.6098  0.6039
 7767SOL    HW134763   4.284   2.280   0.008 -0.8594 -0.2925  1.8629
 7767SOL    HW234764   4.399   2.224   0.067 -0.3616  0.6549  1.0109
 7768SOL     OW34765   2.261   0.940  12.151 -0.0967  0.1465  0.1085
 7768SOL    HW134766   2.297   0.918  12.066 -2.2795 -1.0251 -0.5220
 7768SOL    HW234767   2.321   1.005  12.188 -0.8689  1.2236 -0.5103
 7769SOL     OW34768   4.076   4.491  13.765  0.5162 -0.2980  0.4349
 7769SOL    HW134769   4.085   4.395  13.770 -0.9631 -0.5037 -0.8312
 7769SOL    HW234770   4.025   4.498  13.684  1.0906 -0.5598  0.0508
 7770SOL     OW34771   1.846   1.027   6.207  0.0517  0.1087 -0.6420
 7770SOL    HW134772   1.915   1.056   6.147  1.9005 -2.0274  0.4405
 7770SOL    HW234773   1.886   0.994   6.287 -0.9815  0.6370  0.0901
 7771SOL     OW34774   1.534   3.373   4.367  0.1941  0.2358  0.1744
 7771SOL    HW134775   1.629   3.384   4.367  0.4735 -2.1687  1.2846
 7771SOL    HW234776   1.530   3.333   4.454 -0.5870  0.5053  0.2569
 7772SOL     OW34777   1.457   4.343   1.483 -0.1825  0.4463 -0.5293
 7772SOL    HW134778   1.429   4.252   1.494  1.3968  0.0631  0.3535
 7772SOL    HW234779   1.450   4.363   1.390  0.7171 -0.6127 -0.8426
 7773SOL     OW34780   2.800   0.633   3.251 -0.4199  0.3300 -0.6698
 7773SOL    HW134781   2.717   0.619   3.297  0.2969  3.4899  1.5631
 7773SOL    HW234782   2.862   0.605   3.318  1.4241 -0.0588 -2.5322
 7774SOL     OW34783   4.348   1.589  10.332  0.1602  0.1410  0.5787
 7774SOL    HW134784   4.296   1.600  10.412 -1.8035  0.4297 -0.7456
 7774SOL    HW234785   4.292   1.529  10.283 -0.4395  0.6993  0.5967
 7775SOL     OW34786   0.120   2.290  16.496  0.4055  0.6111  0.2631
 7775SOL    HW134787   0.134   2.349  16.422  1.1941 -0.8262 -0.7368
 7775SOL    HW234788   0.197   2.233  16.488  0.8694  1.1837  0.7253
 7776SOL     OW34789   2.483   0.291   5.353  0.0570 -0.2904  0.2301
 7776SOL    HW134790   2.405   0.325   5.310 -0.7216 -1.9579  0.3009
 7776SOL    HW234791   2.471   0.197   5.335  0.2391 -0.0572 -1.1190
 7777SOL     OW34792   1.351   3.808   4.536 -0.6934  0.1143 -0.2214
 7777SOL    HW134793   1.285   3.876   4.550 -0.8523  0.1923 -1.3549
 7777SOL    HW234794   1.369   3.805   4.442 -2.3505  0.7212 -0.5570
 7778SOL     OW34795   1.529   4.561   2.611  0.6315 -0.8400 -0.1851
 7778SOL    HW134796   1.515   4.567   2.516 -0.3490 -1.2396 -0.0694
 7778SOL    HW234797   1.543   4.467   2.617 -1.5669 -1.1036  0.7997
 7779SOL     OW34798   0.515   1.598   5.464  0.8708 -0.5076 -0.4201
 7779SOL    HW134799   0.419   1.604   5.464  0.6848 -3.3990  1.5740
 7779SOL    HW234800   0.539   1.687   5.489 -1.8822  0.1887 -0.1811
 7780SOL     OW34801   4.562   1.962   6.126  0.8419  0.0811  0.3347
 7780SOL    HW134802   4.652   1.983   6.101  0.8846 -0.4895  0.0158
 7780SOL    HW234803   4.553   2.002   6.213 -0.4971  0.5773 -0.0240
 7781SOL     OW34804   3.105   0.883   0.692 -0.0928  0.3937  0.6783
 7781SOL    HW134805   3.172   0.864   0.626 -0.1076  0.7354  0.5595
 7781SOL    HW234806   3.063   0.798   0.683  3.6239 -1.2211 -1.2582
 7782SOL     OW34807   1.662   2.131   0.365  0.4309  0.0108 -0.3959
 7782SOL    HW134808   1.708   2.052   0.335  0.1723 -0.1203 -0.4429
 7782SOL    HW234809   1.636   2.091   0.448  0.2508  0.1717 -0.3743
 7783SOL     OW34810   2.198   0.353   6.296 -0.0205 -0.6446  0.2011
 7783SOL    HW134811   2.139   0.415   6.252 -0.0829 -0.8710 -0.0354
 7783SOL    HW234812   2.144   0.344   6.375  1.2690 -0.0187  1.1524
 7784SOL     OW34813   4.189   0.092   8.461  0.1168 -0.5856 -0.1569
 7784SOL    HW134814   4.198   0.177   8.505  2.2977 -0.7483 -0.2936
 7784SOL    HW234815   4.116   0.110   8.401  0.1788  0.7987  0.1634
 7785SOL     OW34816   0.764   1.870  15.851 -0.3272  0.4189 -0.1090
 7785SOL    HW134817   0.686   1.825  15.816 -1.1029 -0.3491  2.6040
 7785SOL    HW234818   0.798   1.907  15.769 -1.4800 -1.2653 -1.3693
 7786SOL     OW34819   2.521   1.667   4.207 -0.1736 -0.8576  0.2176
 7786SOL    HW134820   2.528   1.733   4.137 -0.1233 -0.4674  0.5870
 7786SOL    HW234821   2.608   1.668   4.245  0.5608 -1.4808 -1.4673
 7787SOL     OW34822   2.205   0.100   0.393  0.4271  0.0712  0.6976
 7787SOL    HW134823   2.152   0.168   0.353  0.6491 -0.2055 -0.0681
 7787SOL    HW234824   2.271   0.153   0.438  0.0772  0.8694  0.2728
 7788SOL     OW34825   1.007   1.534  11.551 -0.2989 -0.0326 -0.1094
 7788SOL    HW134826   0.999   1.629  11.561 -0.5613 -0.3043  2.1535
 7788SOL    HW234827   0.984   1.505  11.639  1.1102  0.1394  0.3135
 7789SOL     OW34828   2.777   2.102   7.334  0.2653 -0.2218 -0.0140
 7789SOL    HW134829   2.825   2.023   7.360  1.9392  0.8328  0.1140
 7789SOL    HW234830   2.776   2.097   7.238  2.7765  0.6996 -0.0990
 7790SOL     OW34831   2.581   2.797  12.845 -0.0072  0.2721 -0.2127
 7790SOL    HW134832   2.550   2.884  12.820 -2.4362 -0.7299 -0.6652
 7790SOL    HW234833   2.594   2.766  12.755  1.9199 -1.2540  0.6001
 7791SOL     OW34834   4.493   4.375   8.434 -0.1563 -0.2530  0.8982
 7791SOL    HW134835   4.571   4.366   8.489 -0.7461  0.3955  1.8495
 7791SOL    HW234836   4.478   4.468   8.453  0.2000  0.5521 -2.8311
 7792SOL     OW34837   3.684   3.468  17.218 -0.4211 -0.0194  0.5519
 7792SOL    HW134838   3.643   3.490  17.302  1.3900 -0.1403  1.4700
 7792SOL    HW234839   3.764   3.522  17.219 -1.1252  1.0337  0.8981
 7793SOL     OW34840   4.366   3.555   4.832  0.4078  0.3149 -0.4512
 7793SOL    HW134841   4.297   3.622   4.828  0.0759  0.1824  3.3307
 7793SOL    HW234842   4.386   3.553   4.925  2.1873  0.6481 -0.8384
 7794SOL     OW34843   4.422   2.505   9.205  0.2449 -0.4224  0.8484
 7794SOL    HW134844   4.500   2.455   9.231  0.6913  0.4993  1.2919
 7794SOL    HW234845   4.414   2.541   9.294  0.9655 -0.7485  1.0460
 7795SOL     OW34846   0.609   0.554  14.053 -0.0490  0.1613  0.2945
 7795SOL    HW134847   0.617   0.565  14.148  0.7293  1.2577  0.0975
 7795SOL    HW234848   0.622   0.460  14.042  1.7208  0.8157 -3.2326
 7796SOL     OW34849   1.758   2.954  14.347 -0.4597 -0.0214  0.1011
 7796SOL    HW134850   1.696   2.896  14.391  2.0928 -2.6233  0.2499
 7796SOL    HW234851   1.701   2.999  14.284 -0.3898  0.0323  0.0768
 7797SOL     OW34852   1.116   2.749   3.943  0.1588  0.1837  0.2238
 7797SOL    HW134853   1.032   2.704   3.938 -0.9415  2.2453 -0.1323
 7797SOL    HW234854   1.144   2.748   3.851 -1.9983 -0.3132 -0.4405
 7798SOL     OW34855   1.031   3.955  12.357  0.1943  0.4754 -0.1047
 7798SOL    HW134856   1.091   3.918  12.421  0.2796  0.5125 -0.1644
 7798SOL    HW234857   1.082   3.936  12.278  2.9143  0.3849  1.7027
 7799SOL     OW34858   1.037   2.626   6.025 -0.2618 -0.5098  0.1506
 7799SOL    HW134859   0.981   2.614   5.948 -3.0346  2.6413  1.6635
 7799SOL    HW234860   1.018   2.719   6.037  2.0478 -0.1098  0.5366
 7800SOL     OW34861   4.451   3.534  10.448  0.1065  0.5368  0.2407
 7800SOL    HW134862   4.384   3.599  10.469 -0.1212 -0.6490  3.1764
 7800SOL    HW234863   4.489   3.572  10.369  0.4189  1.9821  1.0817
 7801SOL     OW34864   0.436   3.333   1.446 -0.1153 -0.1542  0.2210
 7801SOL    HW134865   0.348   3.342   1.409 -0.5554 -1.1626  1.0314
 7801SOL    HW234866   0.487   3.383   1.382  1.0160 -0.7286  0.6761
 7802SOL     OW34867   1.014   3.579  11.357  0.1667 -0.1273  0.1215
 7802SOL    HW134868   1.011   3.484  11.368  1.9119  0.0107  1.7696
 7802SOL    HW234869   0.929   3.616  11.380  1.0109  0.9700  1.4902
 7803SOL     OW34870   2.850   2.511  16.335 -0.3232 -0.1881 -0.6387
 7803SOL    HW134871   2.919   2.504  16.401 -1.4809 -1.6247  0.4147
 7803SOL    HW234872   2.861   2.601  16.303  1.0064 -0.3523 -0.6114
 7804SOL     OW34873   2.516   3.040   5.760 -0.0718  0.0870 -0.9853
 7804SOL    HW134874   2.430   3.042   5.717 -0.2210  1.1250 -0.6290
 7804SOL    HW234875   2.528   3.122   5.808  1.6440 -1.0955  0.5996
 7805SOL     OW34876   0.697   0.569   7.601  0.1957  0.1570  0.0000
 7805SOL    HW134877   0.615   0.603   7.639  0.5960  0.5587  0.4977
 7805SOL    HW234878   0.716   0.492   7.656 -0.7324  0.4292  0.7178
 7806SOL     OW34879   1.222   2.683   8.677 -0.1090 -0.2234 -0.0288
 7806SOL    HW134880   1.290   2.632   8.720  0.2699 -0.5013 -0.9680
 7806SOL    HW234881   1.268   2.765   8.694 -1.2816  0.3388  0.4849
 7807SOL     OW34882   2.869   3.034  15.595  0.1438  0.3510  0.1564
 7807SOL    HW134883   2.910   3.091  15.660  1.3065 -0.3595  0.0416
 7807SOL    HW234884   2.820   3.093  15.538 -2.4711 -1.0791  0.9134
 7808SOL     OW34885   3.489   2.379   4.865  0.3410  0.1269 -0.0935
 7808SOL    HW134886   3.478   2.442   4.794  0.1041  1.6068  1.2492
 7808SOL    HW234887   3.443   2.416   4.940  0.9611  1.7792 -0.5473
 7809SOL     OW34888   0.696   3.819  15.081 -0.2278 -0.3656 -1.1081
 7809SOL    HW134889   0.690   3.857  15.168  0.7484 -0.2394 -1.1053
 7809SOL    HW234890   0.780   3.850  15.048  0.2316 -0.8017 -0.3261
 7810SOL     OW34891   3.958   0.417   6.210 -0.2756 -0.4798  0.6613
 7810SOL    HW134892   4.043   0.389   6.246 -0.6551  0.5102  2.3166
 7810SOL    HW234893   3.961   0.510   6.232  1.2468 -0.5326  0.7313
 7811SOL     OW34894   3.554   2.921  10.018 -0.0559 -0.0971  0.4723
 7811SOL    HW134895   3.641   2.880  10.025 -0.1952 -0.5987 -0.7412
 7811SOL    HW234896   3.503   2.842  10.037  1.8888 -1.3826  0.4386
 7812SOL     OW34897   1.011   3.570   6.299  0.5043  0.3153 -0.2302
 7812SOL    HW134898   0.993   3.510   6.371  0.1850  0.1084 -0.4825
 7812SOL    HW234899   1.056   3.513   6.236  0.9035  1.3326 -0.8739
 7813SOL     OW34900   4.069   2.584  17.538 -0.0123 -0.5014  0.7563
 7813SOL    HW134901   4.088   2.627  17.621  3.4014 -1.5120  0.4905
 7813SOL    HW234902   4.153   2.539  17.527  0.0173 -0.7284  1.9454
 7814SOL     OW34903   4.705   2.641   3.971 -0.1672  0.2201 -0.6948
 7814SOL    HW134904   4.617   2.606   3.955 -0.4490  0.9729 -0.7620
 7814SOL    HW234905   4.684   2.703   4.040  0.8082 -0.3893  0.1633
 7815SOL     OW34906   3.616   2.446   4.223  0.6921 -0.3748 -0.1451
 7815SOL    HW134907   3.525   2.419   4.219  0.9452 -1.1490 -0.7751
 7815SOL    HW234908   3.619   2.540   4.242  1.2687 -0.1102 -1.4969
 7816SOL     OW34909   3.590   1.978   5.805  0.2736  0.0756  0.1287
 7816SOL    HW134910   3.604   1.885   5.787 -0.9426 -0.0085 -0.3352
 7816SOL    HW234911   3.618   1.982   5.896  0.6565  1.6861 -0.0508
 7817SOL     OW34912   4.359   1.498   3.628 -0.5120  0.1676 -0.3966
 7817SOL    HW134913   4.284   1.511   3.570 -0.3871  0.0065 -0.5957
 7817SOL    HW234914   4.420   1.448   3.573  1.2273  0.9737  0.8141
 7818SOL     OW34915   2.558   0.364   2.856  0.0762 -0.3801 -0.1872
 7818SOL    HW134916   2.646   0.329   2.845  0.5689  1.0132 -0.8287
 7818SOL    HW234917   2.582   0.431   2.920  2.3157 -0.7617 -0.6308
 7819SOL     OW34918   0.741   0.063   3.582  0.6127 -0.2320 -0.0943
 7819SOL    HW134919   0.714   0.116   3.507 -0.1318 -0.5961 -0.0810
 7819SOL    HW234920   0.749   4.700   3.542 -0.7410 -0.7976  0.8371
 7820SOL     OW34921   3.625   2.992  16.004  0.0006  0.0614 -0.0905
 7820SOL    HW134922   3.681   3.066  15.981  0.0627  1.0475  3.1230
 7820SOL    HW234923   3.650   2.937  15.930  1.2288  0.6384 -0.1134
 7821SOL     OW34924   1.898   3.418   2.565 -0.4365  0.0109  0.4595
 7821SOL    HW134925   1.953   3.482   2.611  1.4157 -1.5376  0.4125
 7821SOL    HW234926   1.911   3.339   2.618 -2.1399  1.4644  3.0159
 7822SOL     OW34927   4.579   1.829  13.713 -0.3430  0.1111 -0.4755
 7822SOL    HW134928   4.515   1.900  13.707  0.6818  1.1759  1.1102
 7822SOL    HW234929   4.658   1.883  13.711 -0.9151  0.9225 -1.2596
 7823SOL     OW34930   1.637   3.569   9.325 -0.2612  0.8049  0.0450
 7823SOL    HW134931   1.579   3.645   9.327 -0.6432  0.5238 -0.1757
 7823SOL    HW234932   1.573   3.503   9.298  1.0881 -0.5661  0.1805
 7824SOL     OW34933   2.398   0.453   1.781  0.0253  0.1062  0.5856
 7824SOL    HW134934   2.372   0.542   1.759  0.8126 -0.4302 -2.4535
 7824SOL    HW234935   2.361   0.408   1.705  0.9483  0.7698 -0.2541
 7825SOL     OW34936   4.274   3.500   1.438 -0.6474  0.0991  0.3712
 7825SOL    HW134937   4.251   3.574   1.494 -0.0350 -0.6332  1.5903
 7825SOL    HW234938   4.189   3.455   1.441  0.3162 -1.7667 -0.4995
 7826SOL     OW34939   0.207   1.447   5.307  0.3512  0.1843  0.1836
 7826SOL    HW134940   0.209   1.381   5.376 -0.0405  0.5115  0.5074
 7826SOL    HW234941   0.160   1.519   5.350 -1.3059 -1.7116  1.5787
 7827SOL     OW34942   2.275   4.186   4.183  0.4529 -0.5142 -0.2556
 7827SOL    HW134943   2.325   4.214   4.106  0.6862 -2.6512 -0.8694
 7827SOL    HW234944   2.214   4.121   4.146  1.0794 -1.0550 -0.3314
 7828SOL     OW34945   4.054   3.484   3.237  0.3753  0.7086 -0.0952
 7828SOL    HW134946   4.080   3.392   3.237 -1.8272  0.0757  2.6676
 7828SOL    HW234947   4.076   3.508   3.147  1.0884 -0.8093 -0.3287
 7829SOL     OW34948   0.847   3.606   0.258  0.4867  0.3708 -0.1995
 7829SOL    HW134949   0.820   3.688   0.217 -0.8491 -0.4450 -0.9412
 7829SOL    HW234950   0.792   3.535   0.226 -1.8159  1.0184  2.3679
 7830SOL     OW34951   2.145   3.315  11.586 -0.2041 -0.3400 -0.3123
 7830SOL    HW134952   2.160   3.406  11.613 -2.0619 -0.3418  0.7597
 7830SOL    HW234953   2.214   3.301  11.521  2.7803  1.3727  2.4496
 7831SOL     OW34954   0.983   3.371   5.176 -0.2668  0.2440  0.2968
 7831SOL    HW134955   0.974   3.456   5.220 -1.9217  0.9637 -1.4566
 7831SOL    HW234956   1.014   3.407   5.094  0.7721 -0.8761  0.1925
 7832SOL     OW34957   3.502   3.953   5.799  0.0467  0.2967  0.0812
 7832SOL    HW134958   3.464   3.878   5.845 -1.9495  1.4892  0.3814
 7832SOL    HW234959   3.587   3.956   5.843 -0.4535  0.9812  0.9939
 7833SOL     OW34960   3.755   2.326  14.941 -0.1302  0.3355 -0.1464
 7833SOL    HW134961   3.774   2.331  15.035 -0.9275  2.4810 -0.0950
 7833SOL    HW234962   3.846   2.306  14.919  0.5466  0.5162  2.3630
 7834SOL     OW34963   2.772   2.861  14.958 -0.0176 -0.0597  0.1853
 7834SOL    HW134964   2.693   2.816  14.987 -0.2447  1.3277  1.7334
 7834SOL    HW234965   2.753   2.855  14.864 -2.5232  0.3124  0.6662
 7835SOL     OW34966   4.022   1.101  11.924 -0.1656 -0.7985  0.5615
 7835SOL    HW134967   4.085   1.062  11.984  1.1259 -1.8071 -1.4593
 7835SOL    HW234968   4.068   1.164  11.868  0.4015 -1.5272  0.2104
 7836SOL     OW34969   2.876   2.687   7.957  0.3950 -0.2727 -0.6531
 7836SOL    HW134970   2.902   2.763   8.009  0.1994 -1.5593  1.3200
 7836SOL    HW234971   2.962   2.666   7.919  0.1826 -1.8937 -0.2417
 7837SOL     OW34972   2.616   2.623  10.059 -0.0297 -0.0667 -0.1856
 7837SOL    HW134973   2.579   2.611   9.971 -1.3101 -3.4810  0.8236
 7837SOL    HW234974   2.689   2.682  10.045 -0.4808  0.4651 -0.3051
 7838SOL     OW34975   2.484   4.147  12.531 -0.3073 -0.1137 -0.4124
 7838SOL    HW134976   2.554   4.186  12.478  1.6695  0.0715  2.3179
 7838SOL    HW234977   2.540   4.118  12.603 -1.5631  0.6795  0.8647
 7839SOL     OW34978   3.647   0.881   5.337  0.7836  0.0535  0.0437
 7839SOL    HW134979   3.570   0.851   5.288  1.0197 -0.5082  0.0137
 7839SOL    HW234980   3.622   0.970   5.362  2.2787  0.0202  1.6843
 7840SOL     OW34981   4.423   1.815   9.859  0.1821  0.4085  0.2132
 7840SOL    HW134982   4.456   1.780   9.776 -3.7651  0.8777 -1.5118
 7840SOL    HW234983   4.508   1.832   9.901 -0.2735  2.0696  0.4389
 7841SOL     OW34984   1.713   2.184   3.628 -0.1825  0.2749  0.0227
 7841SOL    HW134985   1.668   2.156   3.549 -0.4781 -2.4679  1.1644
 7841SOL    HW234986   1.696   2.103   3.676 -2.3918  1.8886  1.9596
 7842SOL     OW34987   4.207   1.082   1.923 -0.4326  0.2944  0.6348
 7842SOL    HW134988   4.269   1.015   1.894  1.4335  2.7379 -1.0940
 7842SOL    HW234989   4.212   1.132   1.841  0.7585  0.3860  0.7626
 7843SOL     OW34990   1.385   2.423  14.340 -0.4743  0.4694  0.1968
 7843SOL    HW134991   1.466   2.389  14.377 -1.3502 -1.3120  0.5261
 7843SOL    HW234992   1.407   2.506  14.298  1.5929  0.7048  1.7557
 7844SOL     OW34993   0.211   1.078  11.675 -1.1716  0.4942  0.1263
 7844SOL    HW134994   0.234   1.074  11.768 -1.8255 -1.1136  0.2127
 7844SOL    HW234995   0.257   1.159  11.652  0.9404 -1.2139 -1.7533
 7845SOL     OW34996   2.101   2.376   1.150 -0.2867  0.1839 -0.2637
 7845SOL    HW134997   2.144   2.291   1.155 -1.8339 -0.5821  0.2498
 7845SOL    HW234998   2.167   2.442   1.169  0.1186 -0.8473  1.8441
 7846SOL     OW34999   0.935   1.718   5.800 -0.6445  0.0418 -0.0990
 7846SOL    HW135000   0.938   1.629   5.764  0.4213  0.4439 -0.9833
 7846SOL    HW235001   1.029   1.733   5.808 -0.6423  0.9842 -1.8778
 7847SOL     OW35002   0.697   4.548   7.088  0.3913 -0.5744  0.2477
 7847SOL    HW135003   0.757   4.599   7.143 -0.9736  0.6690  0.5865
 7847SOL    HW235004   0.736   4.465   7.115  0.8728 -1.0954 -2.0793
 7848SOL     OW35005   3.164   3.397   6.957 -0.3296  0.6985  0.3451
 7848SOL    HW135006   3.222   3.473   6.951 -0.2145  0.6991  1.5068
 7848SOL    HW235007   3.186   3.346   6.879  1.0694  0.4106  0.9205
 7849SOL     OW35008   1.884   0.993   2.082  0.2029  0.3069  0.0113
 7849SOL    HW135009   1.828   0.939   2.137  1.9947  0.5705  2.0763
 7849SOL    HW235010   1.811   1.028   2.030 -0.5833 -0.7381  0.3950
 7850SOL     OW35011   2.914   0.254  10.843 -0.1473 -0.3314  0.0237
 7850SOL    HW135012   2.883   0.190  10.908  0.8348 -0.7028  0.1360
 7850SOL    HW235013   2.961   0.316  10.898 -2.1683 -0.1161  1.4833
 7851SOL     OW35014   4.471   2.865  11.559  0.1305  0.2918  0.4324
 7851SOL    HW135015   4.441   2.872  11.650 -0.7482 -0.4060  0.1925
 7851SOL    HW235016   4.400   2.832  11.505  1.6720 -0.8564 -0.8873
 7852SOL     OW35017   0.724   3.028   6.066  0.0015  0.0043 -0.1751
 7852SOL    HW135018   0.646   3.063   6.110 -0.0508  0.0641 -0.3188
 7852SOL    HW235019   0.699   3.040   5.975  0.8478 -0.3336 -0.4505
 7853SOL     OW35020   1.288   4.538  13.974  0.4422  0.2717 -0.4350
 7853SOL    HW135021   1.223   4.468  13.972 -1.9957  2.5819 -0.2786
 7853SOL    HW235022   1.341   4.511  13.898  1.0327  2.6061 -0.8393
 7854SOL     OW35023   2.962   1.797   7.836  0.2798 -0.2800  0.4073
 7854SOL    HW135024   3.011   1.731   7.885 -2.3992 -1.5954  1.3379
 7854SOL    HW235025   2.998   1.881   7.863  0.9237 -0.6736  0.7876
 7855SOL     OW35026   2.805   3.665  12.526  0.2638 -0.3365  0.0304
 7855SOL    HW135027   2.896   3.693  12.518  0.5528 -1.0876  0.7104
 7855SOL    HW235028   2.810   3.579  12.484  1.8908 -0.3221  0.1940
 7856SOL     OW35029   4.449   1.450   5.786  0.1354 -0.4335  0.6643
 7856SOL    HW135030   4.373   1.401   5.758 -0.7694  0.1076  2.1815
 7856SOL    HW235031   4.400   1.532   5.793  0.8135  0.0630 -0.3609
 7857SOL     OW35032   0.857   4.131   7.079  0.5740  0.2598  0.6823
 7857SOL    HW135033   0.776   4.118   7.127 -0.4308  0.9760 -0.8336
 7857SOL    HW235034   0.915   4.082   7.138 -1.0132 -2.4986 -0.0223
 7858SOL     OW35035   3.782   1.635   7.477  0.3794  0.7281 -0.1547
 7858SOL    HW135036   3.836   1.613   7.552 -0.0613  1.1245  0.2836
 7858SOL    HW235037   3.836   1.612   7.401 -1.2583  1.0741 -1.4486
 7859SOL     OW35038   1.823   1.439  12.892 -0.4306 -0.0178  0.0281
 7859SOL    HW135039   1.738   1.396  12.885 -0.4284 -0.3742  2.0772
 7859SOL    HW235040   1.843   1.444  12.799 -0.5079  2.1154  0.1215
 7860SOL     OW35041   2.331   3.187   8.222  0.0002 -0.6428 -0.0287
 7860SOL    HW135042   2.343   3.099   8.186  0.9218 -0.3345 -0.4913
 7860SOL    HW235043   2.280   3.167   8.300  0.6472  0.0548  0.5630
 7861SOL     OW35044   4.621   0.161  11.193 -0.5519  0.4979 -0.7228
 7861SOL    HW135045   4.586   0.112  11.268 -0.4634  0.6448 -0.5848
 7861SOL    HW235046   4.711   0.131  11.181 -1.1887 -0.9640 -1.8262
 7862SOL     OW35047   1.674   3.062  12.913 -0.4292  0.2749 -0.1870
 7862SOL    HW135048   1.677   3.152  12.882  1.2945 -0.0870 -1.1037
 7862SOL    HW235049   1.603   3.066  12.977  1.2872 -0.7658  1.8124
 7863SOL     OW35050   1.603   3.353   1.251 -0.0878  0.0853  0.5199
 7863SOL    HW135051   1.628   3.438   1.214  0.8670 -0.2067  0.4946
 7863SOL    HW235052   1.639   3.370   1.338  0.6926  0.8259  0.0512
 7864SOL     OW35053   2.035   4.175  16.606 -0.5302  0.3538 -0.3616
 7864SOL    HW135054   2.009   4.088  16.578  1.9376  0.2818 -2.4373
 7864SOL    HW235055   1.974   4.192  16.678 -0.4789 -1.6874  0.1492
 7865SOL     OW35056   3.130   2.776  10.144 -0.1229 -0.2776  0.0799
 7865SOL    HW135057   3.186   2.838  10.097 -0.1417 -2.5512 -2.8795
 7865SOL    HW235058   3.189   2.765  10.219 -0.4963  3.7242  0.9850
 7866SOL     OW35059   2.932   2.113   5.870  0.1686  0.2021 -0.3111
 7866SOL    HW135060   2.939   2.032   5.920 -1.2217 -1.5114 -2.8890
 7866SOL    HW235061   2.927   2.170   5.947  1.1417  0.8083 -0.6816
 7867SOL     OW35062   1.183   3.609   8.035  0.0833 -0.3990  0.1707
 7867SOL    HW135063   1.241   3.541   7.999 -0.3549 -0.1961 -0.9142
 7867SOL    HW235064   1.192   3.682   7.973  0.0219 -1.0280 -0.5788
 7868SOL     OW35065   3.273   4.144   6.136 -0.3413 -0.6566  0.1945
 7868SOL    HW135066   3.179   4.151   6.154 -0.7616  1.9513 -2.9660
 7868SOL    HW235067   3.300   4.064   6.181  0.8050 -0.0919  0.5016
 7869SOL     OW35068   2.060   2.387   2.506  0.5644  0.1899  0.3226
 7869SOL    HW135069   2.060   2.305   2.556  0.8751  0.4798  0.8023
 7869SOL    HW235070   2.019   2.362   2.423 -0.2309  1.5243  0.3151
 7870SOL     OW35071   1.939   1.952   3.544  0.4269 -0.9116  0.2542
 7870SOL    HW135072   1.910   1.871   3.501  2.4494 -1.6250  0.2479
 7870SOL    HW235073   1.904   2.015   3.482  1.5085 -1.3191 -0.7629
 7871SOL     OW35074   0.861   1.868   6.542  0.2418 -0.5310  0.5787
 7871SOL    HW135075   0.914   1.811   6.597  1.1666  1.0379  1.3406
 7871SOL    HW235076   0.853   1.939   6.606 -0.3612  2.1763 -2.4295
 7872SOL     OW35077   2.730   0.181   8.131  0.5713  0.2184  0.0936
 7872SOL    HW135078   2.649   0.227   8.110  1.1924  1.4322  0.3756
 7872SOL    HW235079   2.748   0.133   8.050 -1.0673 -1.5622  0.7900
 7873SOL     OW35080   0.174   2.366   7.399  0.0304  0.3486 -0.0921
 7873SOL    HW135081   0.182   2.278   7.434  0.4860  0.5233  0.2381
 7873SOL    HW235082   0.165   2.413   7.482 -1.7418  0.1681 -0.1892
 7874SOL     OW35083   4.305   0.546   5.579 -0.1807 -0.3278  0.0357
 7874SOL    HW135084   4.292   0.465   5.630 -2.1726  0.2499  0.4353
 7874SOL    HW235085   4.331   0.601   5.652 -0.8917 -0.4693  0.4006
 7875SOL     OW35086   2.506   1.773  11.059  0.0049 -0.0056  0.2883
 7875SOL    HW135087   2.504   1.705  11.126 -0.0336  0.2883  0.5907
 7875SOL    HW235088   2.552   1.842  11.108 -0.1153  0.2540  0.0369
 7876SOL     OW35089   0.546   1.462   9.481  0.0477  0.2556  0.0765
 7876SOL    HW135090   0.560   1.557   9.486  0.3649  0.1334  1.4980
 7876SOL    HW235091   0.524   1.453   9.388  0.5519  1.4631 -0.1690
 7877SOL     OW35092   2.985   0.796  13.310  0.7588  0.8623 -0.7610
 7877SOL    HW135093   2.967   0.890  13.300  1.5135  1.2606  1.6523
 7877SOL    HW235094   3.056   0.809  13.372 -0.2134  0.7635  0.3775
 7878SOL     OW35095   1.340   2.920  11.373 -0.2632 -0.3373 -0.1759
 7878SOL    HW135096   1.341   2.973  11.294  1.2874 -1.8209 -1.1623
 7878SOL    HW235097   1.427   2.882  11.383 -0.9991 -1.4349  2.2431
 7879SOL     OW35098   0.385   0.932  12.809  0.3328  0.5817 -0.0294
 7879SOL    HW135099   0.311   0.975  12.851 -0.9678 -1.2770 -0.4657
 7879SOL    HW235100   0.446   0.921  12.882  1.3156  0.7061 -0.8277
 7880SOL     OW35101   0.909   4.694   3.078  0.2766  0.0130  0.1952
 7880SOL    HW135102   0.854   0.049   3.094  1.3866  1.0907 -1.1543
 7880SOL    HW235103   0.887   4.684   2.985  1.0815  0.7521 -0.0793
 7881SOL     OW35104   0.590   1.060   6.241 -0.5956  0.1715  0.6542
 7881SOL    HW135105   0.652   0.987   6.240 -2.2786 -1.2362 -1.5975
 7881SOL    HW235106   0.637   1.130   6.286 -0.9264  0.2116  0.9365
 7882SOL     OW35107   3.081   3.912   5.251 -0.1360  0.0613 -0.4753
 7882SOL    HW135108   3.156   3.907   5.193  0.3254 -2.2136  0.3138
 7882SOL    HW235109   3.087   4.004   5.280 -0.0976 -0.5834  1.5817
 7883SOL     OW35110   0.018   0.722   3.088  0.1428 -0.3678 -0.0093
 7883SOL    HW135111   4.718   0.696   2.998 -0.2328  1.1459 -0.3510
 7883SOL    HW235112   4.679   0.794   3.103  0.1049 -0.0745 -1.4960
 7884SOL     OW35113   1.438   4.343   1.990  0.0068  0.3498 -0.5911
 7884SOL    HW135114   1.375   4.377   1.926  0.0221 -0.2818 -0.9523
 7884SOL    HW235115   1.478   4.426   2.015  2.6461  0.0169 -3.7980
 7885SOL     OW35116   3.730   1.042   7.601  0.2507  0.1731  0.0051
 7885SOL    HW135117   3.640   1.070   7.617  0.8809  1.4687  1.3849
 7885SOL    HW235118   3.766   1.092   7.527 -1.3399  0.5537 -0.5105
 7886SOL     OW35119   1.467   2.408   0.062  0.3414 -0.3059  0.2033
 7886SOL    HW135120   1.430   2.414  17.667  2.4435  0.4378 -0.6503
 7886SOL    HW235121   1.389   2.435   0.110  1.0859 -0.5118  1.5335
 7887SOL     OW35122   3.290   4.132   7.081 -0.0166 -0.3362 -0.3669
 7887SOL    HW135123   3.363   4.190   7.102  0.2403 -0.6890 -0.2845
 7887SOL    HW235124   3.333   4.047   7.079 -1.4387 -1.0582 -0.3585
 7888SOL     OW35125   0.652   4.679   6.815  0.1499  0.2600 -0.4672
 7888SOL    HW135126   0.572   4.626   6.821  1.2672 -1.7185 -3.1924
 7888SOL    HW235127   0.707   4.624   6.871  1.6251  2.0642 -0.1652
 7889SOL     OW35128   1.169   0.696   7.412  0.0115 -0.2118 -0.3958
 7889SOL    HW135129   1.104   0.741   7.465  0.2527  0.1150 -0.3762
 7889SOL    HW235130   1.122   0.613   7.417 -0.3194  0.0440  0.7285
 7890SOL     OW35131   1.595   2.436  13.907 -0.2621  0.7375 -0.1750
 7890SOL    HW135132   1.588   2.359  13.964 -1.6914  0.0425 -1.3046
 7890SOL    HW235133   1.577   2.508  13.969  3.3968  1.4194  0.0948
 7891SOL     OW35134   0.984   4.462   7.635 -0.0233 -0.0757 -0.0621
 7891SOL    HW135135   1.031   4.530   7.587  0.1391  0.1676  0.4433
 7891SOL    HW235136   0.925   4.424   7.569 -0.7243  1.6000 -0.3901
 7892SOL     OW35137   0.832   3.349  11.940 -0.1517 -0.4155 -0.4531
 7892SOL    HW135138   0.919   3.373  11.972 -0.1006 -0.8111 -0.3009
 7892SOL    HW235139   0.812   3.267  11.985  0.2847 -0.1067  0.3068
 7893SOL     OW35140   3.893   1.259   2.606  0.2407  0.0751 -0.1332
 7893SOL    HW135141   3.836   1.186   2.632  2.9346 -1.8468  0.4326
 7893SOL    HW235142   3.915   1.220   2.521 -0.2634 -0.2814 -0.0971
 7894SOL     OW35143   1.781   0.154  11.217 -0.1934  0.0821 -0.1590
 7894SOL    HW135144   1.850   0.200  11.264  0.7648 -0.7759 -0.7068
 7894SOL    HW235145   1.831   0.105  11.151 -0.7890 -1.0230  0.2120
 7895SOL     OW35146   0.020   3.531   9.433  0.3610 -0.6101 -0.3529
 7895SOL    HW135147   0.052   3.617   9.409 -1.2803 -0.1944 -1.0638
 7895SOL    HW235148   4.653   3.564   9.439  0.5454 -0.5502  1.7964
 7896SOL     OW35149   3.879   0.673  10.071  0.4962  0.5290  0.3286
 7896SOL    HW135150   3.948   0.658  10.006 -0.5304 -1.1562 -0.3821
 7896SOL    HW235151   3.804   0.639  10.020 -0.2689  0.1920  1.6718
 7897SOL     OW35152   1.907   0.988   7.823 -0.2806  0.3464  0.4362
 7897SOL    HW135153   1.862   0.979   7.738  0.8821  1.7659 -0.3331
 7897SOL    HW235154   1.827   0.978   7.874 -0.0239 -4.3906 -0.1329
 7898SOL     OW35155   4.132   1.945  12.153  0.3703 -0.0452 -0.3618
 7898SOL    HW135156   4.050   1.927  12.199 -0.3760  0.8311 -1.3471
 7898SOL    HW235157   4.129   1.889  12.076  0.6741  0.7035 -0.9142
 7899SOL     OW35158   3.035   3.177  13.407  0.0301  0.0697  0.0607
 7899SOL    HW135159   3.043   3.249  13.469  0.3943 -0.2824  0.4220
 7899SOL    HW235160   3.119   3.131  13.416  0.2435  0.4403 -0.0168
 7900SOL     OW35161   3.651   4.358   2.334 -0.2584  0.5133 -0.0703
 7900SOL    HW135162   3.713   4.323   2.269 -0.9292  1.7208 -1.3668
 7900SOL    HW235163   3.701   4.358   2.415  1.1350 -1.3718 -0.9245
 7901SOL     OW35164   2.511   4.500   4.810  0.2205 -0.1843  0.4610
 7901SOL    HW135165   2.531   4.591   4.832 -0.9889 -0.0916  1.1645
 7901SOL    HW235166   2.498   4.464   4.897  2.2838  0.6335  1.1045
 7902SOL     OW35167   0.300   2.727  14.703 -0.2282  0.0169  0.2292
 7902SOL    HW135168   0.366   2.750  14.768  0.5658  1.2676 -1.0051
 7902SOL    HW235169   0.321   2.796  14.640 -3.0484 -1.1835 -2.0390
 7903SOL     OW35170   3.200   4.519  15.404 -0.6252 -0.0514  0.0307
 7903SOL    HW135171   3.229   4.535  15.314 -3.1559 -0.1078 -0.7970
 7903SOL    HW235172   3.174   4.607  15.431  0.4716 -0.2109  1.5992
 7904SOL     OW35173   3.933   3.187   2.840  0.0622  0.2789 -0.2015
 7904SOL    HW135174   3.871   3.120   2.870 -1.0388  1.9931  1.3387
 7904SOL    HW235175   4.011   3.149   2.880  1.5723  1.5285 -1.9637
 7905SOL     OW35176   2.848   3.113   3.407 -0.3153  0.3526 -0.1590
 7905SOL    HW135177   2.819   3.134   3.495  0.4441 -1.0180  0.4280
 7905SOL    HW235178   2.832   3.018   3.412 -1.1492  0.6775  3.2551
 7906SOL     OW35179   0.403   4.197   5.651 -0.6039 -0.2608 -0.0665
 7906SOL    HW135180   0.310   4.185   5.669 -0.3194  0.4762  1.8836
 7906SOL    HW235181   0.404   4.158   5.563 -0.4098 -1.6763  0.5550
 7907SOL     OW35182   0.679   0.684   8.701  0.7820  0.3892 -0.2946
 7907SOL    HW135183   0.654   0.775   8.688  0.9663  0.5542  0.4908
 7907SOL    HW235184   0.675   0.680   8.796 -0.3094  0.0259 -0.3630
 7908SOL     OW35185   2.369   2.020  16.183 -0.1617 -0.0956 -0.1332
 7908SOL    HW135186   2.435   2.012  16.253 -0.3034 -1.0630 -0.1091
 7908SOL    HW235187   2.346   2.112  16.188  0.1651 -0.0670  0.9876
 7909SOL     OW35188   4.395   4.176  16.543 -0.0395  0.1881 -0.0369
 7909SOL    HW135189   4.382   4.234  16.468  0.4926 -4.5270 -3.7916
 7909SOL    HW235190   4.485   4.148  16.527 -0.0292 -1.0205  2.1975
 7910SOL     OW35191   1.369   2.444   2.677 -0.3008 -0.3951  0.2329
 7910SOL    HW135192   1.376   2.364   2.728  0.6198 -0.3612  0.1561
 7910SOL    HW235193   1.371   2.411   2.587 -3.0568 -1.5393  0.5900
 7911SOL     OW35194   4.539   3.598   1.406  0.3611 -0.1723 -0.6100
 7911SOL    HW135195   4.453   3.569   1.433  0.4546  1.0538  0.9734
 7911SOL    HW235196   4.601   3.546   1.457  0.0115  1.6335  1.6475
 7912SOL     OW35197   1.629   1.638  15.104 -0.1749  0.1375 -0.0865
 7912SOL    HW135198   1.624   1.565  15.165 -0.7361  0.1270 -0.1390
 7912SOL    HW235199   1.715   1.625  15.066 -0.7297 -1.1743 -0.8967
 7913SOL     OW35200   3.579   3.151   5.579 -0.2443  0.8645 -0.0496
 7913SOL    HW135201   3.622   3.235   5.564 -0.0661  0.7087 -0.4202
 7913SOL    HW235202   3.556   3.132   5.488 -0.5701 -1.2206  0.4656
 7914SOL     OW35203   2.529   2.106   9.540 -0.3033  0.1944 -0.2015
 7914SOL    HW135204   2.512   2.026   9.590 -0.7907  0.3847 -0.0570
 7914SOL    HW235205   2.532   2.169   9.612  0.6693  0.4844 -0.4970
 7915SOL     OW35206   0.268   2.017  12.143 -0.6643  0.5051  0.0066
 7915SOL    HW135207   0.242   1.951  12.078 -0.3324  1.6247 -1.2686
 7915SOL    HW235208   0.238   2.101  12.107  0.3732  0.8399 -0.0699
 7916SOL     OW35209   0.306   4.438   3.149  0.5075 -0.6178 -0.5252
 7916SOL    HW135210   0.254   4.499   3.201 -1.1338 -0.7419 -2.0011
 7916SOL    HW235211   0.277   4.355   3.187  1.4903  0.1195  1.7914
 7917SOL     OW35212   3.553   2.446   0.179 -0.6139  0.2520 -0.0562
 7917SOL    HW135213   3.527   2.356   0.157 -0.6369 -0.1817  1.8042
 7917SOL    HW235214   3.562   2.480   0.090 -1.7845 -2.4127 -1.2240
 7918SOL     OW35215   4.345   0.147  13.561 -0.4024  0.0006 -0.7963
 7918SOL    HW135216   4.277   0.091  13.598 -0.6950  0.5416 -0.5224
 7918SOL    HW235217   4.341   0.131  13.466  1.0659 -0.9083 -0.7175
 7919SOL     OW35218   3.039   3.556   0.101 -0.3323 -0.2615 -0.8953
 7919SOL    HW135219   2.960   3.502   0.100  0.3545 -1.3410  2.3257
 7919SOL    HW235220   3.103   3.490   0.074 -0.2885 -1.2386  1.6162
 7920SOL     OW35221   1.849   3.752  15.949 -0.1099  0.0868  0.3874
 7920SOL    HW135222   1.788   3.812  15.908 -0.0839 -0.6692 -0.7341
 7920SOL    HW235223   1.924   3.812  15.952  0.6683 -0.8721  0.2666
 7921SOL     OW35224   2.197   3.363   3.194 -0.0355  0.3254 -0.5492
 7921SOL    HW135225   2.288   3.363   3.223 -0.5485 -1.6155  1.0806
 7921SOL    HW235226   2.175   3.270   3.186  3.1469 -0.5706  1.1483
 7922SOL     OW35227   0.161   3.247   3.345  0.4383  0.3934  0.4700
 7922SOL    HW135228   0.178   3.166   3.296 -1.8627  0.4138 -0.3792
 7922SOL    HW235229   0.068   3.235   3.363 -0.4727  3.6151 -2.0066
 7923SOL     OW35230   1.708   4.351   3.549  0.6458  0.0397  0.2771
 7923SOL    HW135231   1.757   4.336   3.468 -1.1429  0.4421 -0.8557
 7923SOL    HW235232   1.710   4.447   3.541  2.0287  0.1728  1.9875
 7924SOL     OW35233   3.927   3.524   8.831 -0.6337  0.2344  0.0280
 7924SOL    HW135234   3.926   3.618   8.851  1.2498  0.3801 -0.5712
 7924SOL    HW235235   3.914   3.524   8.736 -2.0298 -0.3639  0.2161
 7925SOL     OW35236   4.444   1.150   8.742 -0.4454 -0.2596  0.4052
 7925SOL    HW135237   4.490   1.100   8.809 -1.3425 -0.5539  0.8035
 7925SOL    HW235238   4.390   1.210   8.793 -0.4022 -0.3042  0.5047
 7926SOL     OW35239   2.179   2.266  15.675 -0.2426 -0.1405 -0.1935
 7926SOL    HW135240   2.137   2.352  15.675  0.4551  0.2038  0.1139
 7926SOL    HW235241   2.234   2.265  15.597 -0.6763  0.3912 -0.4994
 7927SOL     OW35242   3.090   2.151   8.800  0.2502 -0.1364 -0.4745
 7927SOL    HW135243   3.097   2.113   8.713  1.8802  1.4504 -1.0247
 7927SOL    HW235244   3.046   2.072   8.834 -0.4650  0.5812  0.2762
 7928SOL     OW35245   2.899   1.927   7.504 -0.3087 -0.1885  0.1876
 7928SOL    HW135246   2.954   1.862   7.462 -0.8331 -0.3285 -0.2717
 7928SOL    HW235247   2.962   1.981   7.553 -0.4148 -0.5155  0.6900
 7929SOL     OW35248   4.135   3.314   7.016  0.0730 -0.3401  0.2317
 7929SOL    HW135249   4.117   3.342   7.106 -3.0854  1.9160 -1.1254
 7929SOL    HW235250   4.201   3.371   6.976  1.2695 -1.2358  0.9103
 7930SOL     OW35251   0.936   0.542   6.890 -0.2622 -0.4616  0.0575
 7930SOL    HW135252   0.951   0.636   6.882  0.0226 -0.4851  0.3423
 7930SOL    HW235253   0.873   0.531   6.961  0.3442 -1.0461  0.4993
 7931SOL     OW35254   1.743   3.862   6.121 -0.0391 -0.8792  0.3687
 7931SOL    HW135255   1.800   3.802   6.072 -1.4196 -0.7434 -1.3725
 7931SOL    HW235256   1.795   3.851   6.201 -2.3063 -1.1773  1.7796
 7932SOL     OW35257   3.500   3.881   8.310 -0.6691  0.0298  0.2251
 7932SOL    HW135258   3.467   3.888   8.221 -0.8927  0.9870  0.3889
 7932SOL    HW235259   3.426   3.842   8.357 -0.0984  0.6562  1.6358
 7933SOL     OW35260   1.236   0.132  12.059 -0.5939  0.3479 -0.1570
 7933SOL    HW135261   1.232   0.050  12.010  1.1662  0.2961 -0.2387
 7933SOL    HW235262   1.328   0.154  12.044 -0.3375  0.0992  1.0289
 7934SOL     OW35263   1.495   3.175   1.846  0.0620 -0.1107  0.1496
 7934SOL    HW135264   1.480   3.081   1.842 -0.9813  0.0623 -0.0073
 7934SOL    HW235265   1.473   3.197   1.756  0.5142 -0.6059 -0.0800
 7935SOL     OW35266   1.646   3.106  14.144 -0.4858  0.0893  0.1102
 7935SOL    HW135267   1.672   3.196  14.163  1.0584 -0.7181  1.8069
 7935SOL    HW235268   1.597   3.122  14.063 -0.1185 -2.6292 -0.6747
 7936SOL     OW35269   4.005   2.758  17.328  0.0614  0.2040  0.2778
 7936SOL    HW135270   4.089   2.803  17.321  0.7278 -0.9058  1.1078
 7936SOL    HW235271   4.040   2.688  17.383 -0.9301  1.8549  3.0523
 7937SOL     OW35272   4.580   3.965   8.851 -0.3171 -0.2539  1.0333
 7937SOL    HW135273   4.599   3.989   8.942  1.7255  1.0862  0.2420
 7937SOL    HW235274   4.503   4.020   8.837  0.2523  0.8732  2.3003
 7938SOL     OW35275   1.067   4.181   2.623 -0.4293 -0.9536 -0.2759
 7938SOL    HW135276   1.037   4.208   2.536 -0.5330  1.9197  0.6422
 7938SOL    HW235277   1.158   4.162   2.601 -0.0020  0.4558  0.2546
 7939SOL     OW35278   4.028   1.506   5.389 -0.8143 -0.5038  0.1241
 7939SOL    HW135279   3.993   1.480   5.304 -2.5331 -0.6844  0.8889
 7939SOL    HW235280   4.119   1.529   5.371 -0.9671  0.2918  0.3901
 7940SOL     OW35281   2.103   4.507   2.274  0.9045  0.0573  0.3624
 7940SOL    HW135282   2.167   4.498   2.203  1.1754 -0.2398  0.6413
 7940SOL    HW235283   2.121   4.425   2.321 -1.2273 -0.5853  0.0412
 7941SOL     OW35284   0.712   2.771   1.047 -0.0038 -0.2130 -0.2612
 7941SOL    HW135285   0.648   2.756   1.116  0.2409 -0.6685 -0.1327
 7941SOL    HW235286   0.674   2.852   1.012  1.2559  0.7274  0.5450
 7942SOL     OW35287   2.224   3.519   4.590  0.1079  0.4528 -0.4401
 7942SOL    HW135288   2.293   3.456   4.612  0.1957 -0.0446 -2.1386
 7942SOL    HW235289   2.173   3.445   4.557 -0.0325 -0.4830  1.8985
 7943SOL     OW35290   2.873   4.309   5.210  0.0912 -0.1337 -0.3419
 7943SOL    HW135291   2.810   4.303   5.138 -0.5160  1.4596  0.0554
 7943SOL    HW235292   2.817   4.354   5.274  0.3188  0.1455 -0.3418
 7944SOL     OW35293   3.397   1.043   5.421 -0.1898  0.0743 -0.5223
 7944SOL    HW135294   3.335   0.992   5.369  1.0918  0.8810 -2.8218
 7944SOL    HW235295   3.358   1.130   5.412  0.0171  0.4508  2.2636
 7945SOL     OW35296   3.499   1.076   6.288  0.0039 -0.9178  0.2715
 7945SOL    HW135297   3.498   1.119   6.202  1.7260  0.1903  0.7937
 7945SOL    HW235298   3.466   0.988   6.269 -1.7223  0.2032 -1.8996
 7946SOL     OW35299   2.373   4.276   7.478  0.1359  0.2599  0.4502
 7946SOL    HW135300   2.353   4.191   7.440  0.4912 -0.2810  1.4923
 7946SOL    HW235301   2.464   4.286   7.450  0.1079 -1.4964 -0.2572
 7947SOL     OW35302   2.447   0.639  12.181 -0.5866 -0.0243 -0.3254
 7947SOL    HW135303   2.378   0.606  12.124  1.5879 -3.6819 -0.7958
 7947SOL    HW235304   2.449   0.733  12.160 -1.7226  0.4001  1.4206
 7948SOL     OW35305   0.171   3.642   4.339  0.1256  0.3034 -0.5438
 7948SOL    HW135306   0.215   3.727   4.341 -0.3614  0.5836 -1.7505
 7948SOL    HW235307   0.124   3.642   4.423  1.0837  1.3669 -0.0085
 7949SOL     OW35308   4.476   0.618  16.855  0.3584 -0.5557 -0.0569
 7949SOL    HW135309   4.502   0.534  16.891  1.1975 -0.4677 -0.4438
 7949SOL    HW235310   4.388   0.593  16.828 -1.1573  2.9714  1.4847
 7950SOL     OW35311   3.343   0.383   1.162  0.1218 -0.4194  0.9137
 7950SOL    HW135312   3.350   0.458   1.103  1.9948 -1.8915 -0.7467
 7950SOL    HW235313   3.419   0.402   1.217  0.4625  0.5009  0.1192
 7951SOL     OW35314   2.349   4.623   8.411  0.0118 -0.5712 -0.0139
 7951SOL    HW135315   2.432   4.645   8.454 -0.8572  0.2431  1.2733
 7951SOL    HW235316   2.388   4.603   8.326  1.8103  1.1066  0.4255
 7952SOL     OW35317   2.963   4.328   3.071  0.3033 -0.5279 -0.1279
 7952SOL    HW135318   3.038   4.269   3.081  1.1996  0.1875 -2.4447
 7952SOL    HW235319   3.001   4.406   3.112  1.3062  0.2416 -2.4904
 7953SOL     OW35320   4.471   0.232   3.894 -0.2441 -0.0182  0.6510
 7953SOL    HW135321   4.524   0.285   3.835 -0.3270  0.0059  0.5979
 7953SOL    HW235322   4.392   0.223   3.841 -0.0823 -1.3079  0.6217
 7954SOL     OW35323   2.412   0.856  11.924 -0.0362 -0.0227 -0.1179
 7954SOL    HW135324   2.412   0.819  11.836 -0.9446 -1.1612  0.3538
 7954SOL    HW235325   2.493   0.906  11.925  0.6289 -1.1379  3.1951
 7955SOL     OW35326   1.618   0.370  11.616 -0.2309  0.2380  0.6542
 7955SOL    HW135327   1.574   0.454  11.630 -0.2103  0.8398 -2.8041
 7955SOL    HW235328   1.665   0.391  11.535 -0.4128  2.1362  1.0283
 7956SOL     OW35329   4.638   1.259   3.326  0.4297 -0.2919  0.1431
 7956SOL    HW135330   4.594   1.220   3.250 -0.1203 -0.0089  0.3193
 7956SOL    HW235331   4.581   1.335   3.337  0.6783  0.1941 -1.8603
 7957SOL     OW35332   0.144   2.384   2.818  0.1351  0.2854 -0.0728
 7957SOL    HW135333   0.119   2.341   2.736  3.7957  0.1957 -1.1490
 7957SOL    HW235334   0.089   2.462   2.806  0.3312  0.5712  0.9013
 7958SOL     OW35335   3.674   3.308   0.427  0.5176 -0.2652  0.3635
 7958SOL    HW135336   3.745   3.284   0.367  0.1300 -0.9237  0.1707
 7958SOL    HW235337   3.714   3.391   0.454  1.4698 -0.2228 -1.1283
 7959SOL     OW35338   0.453   4.117   0.904  0.2554  0.3780  0.2299
 7959SOL    HW135339   0.510   4.062   0.849  2.3167  2.8099 -0.0487
 7959SOL    HW235340   0.372   4.134   0.857  1.0804 -1.5740 -1.8939
 7960SOL     OW35341   3.052   1.416   5.663 -0.4424  0.3896  0.6800
 7960SOL    HW135342   3.073   1.501   5.623  0.8109 -0.7180 -1.0458
 7960SOL    HW235343   2.968   1.394   5.623  0.7593 -0.2511 -1.4984
 7961SOL     OW35344   2.368   3.217   4.340  0.1000  0.8814 -0.2651
 7961SOL    HW135345   2.375   3.249   4.251  1.2927 -1.6878 -1.0986
 7961SOL    HW235346   2.454   3.177   4.353  0.1474  1.2753  0.6901
 7962SOL     OW35347   0.409   1.126   4.347  0.1766 -0.2727  0.0170
 7962SOL    HW135348   0.473   1.191   4.318 -0.5789 -0.2663 -1.6404
 7962SOL    HW235349   0.324   1.162   4.321  0.2834  0.1020  0.1901
 7963SOL     OW35350   0.471   3.565  15.216 -0.3989 -0.6436 -0.0236
 7963SOL    HW135351   0.474   3.655  15.247 -0.6078 -1.2923  1.9132
 7963SOL    HW235352   0.398   3.569  15.155 -2.7298 -0.7443  2.7513
 7964SOL     OW35353   0.568   0.249   6.026  0.3131 -0.2074 -0.1110
 7964SOL    HW135354   0.595   0.214   5.941 -2.4541 -1.9067 -0.3109
 7964SOL    HW235355   0.599   0.177   6.080 -0.8844  0.0625  0.9493
 7965SOL     OW35356   1.148   1.610   7.312 -0.5269  0.9464 -0.2651
 7965SOL    HW135357   1.204   1.665   7.256  2.7034  0.0253  2.0494
 7965SOL    HW235358   1.200   1.530   7.318 -0.7650  0.8812  0.9356
 7966SOL     OW35359   2.709   4.325   6.548 -0.0800 -0.1002 -0.6659
 7966SOL    HW135360   2.739   4.319   6.639  0.9788 -2.6594 -1.2091
 7966SOL    HW235361   2.708   4.235   6.516 -0.3321 -0.2912 -0.1229
 7967SOL     OW35362   0.875   2.761   5.071  0.5278  0.2646  0.3716
 7967SOL    HW135363   0.890   2.789   5.161  1.2320  1.3628 -0.0776
 7967SOL    HW235364   0.866   2.845   5.025  1.3492  0.7512  1.0874
 7968SOL     OW35365   1.879   1.883  15.904 -0.0129 -0.9324  0.0694
 7968SOL    HW135366   1.965   1.855  15.933 -0.3489 -0.2692  1.6622
 7968SOL    HW235367   1.895   1.949  15.837 -1.7919  0.3475  0.9064
 7969SOL     OW35368   2.391   1.685   7.551 -0.1066  0.6638  0.0239
 7969SOL    HW135369   2.352   1.749   7.610 -0.7236  0.4418 -0.1481
 7969SOL    HW235370   2.476   1.722   7.527  0.0502  0.1433 -0.2222
 7970SOL     OW35371   2.795   2.962   4.174  0.4399 -0.0485  0.3804
 7970SOL    HW135372   2.830   3.043   4.136  0.7677 -0.3454  0.0497
 7970SOL    HW235373   2.749   2.930   4.096  2.1214  1.0199 -1.0784
 7971SOL     OW35374   1.154   1.253   9.606  0.5297 -0.3078  0.0838
 7971SOL    HW135375   1.103   1.190   9.658 -0.2827 -0.6969 -1.2009
 7971SOL    HW235376   1.227   1.265   9.667 -0.2836  0.7026  0.8526
 7972SOL     OW35377   2.686   2.059   5.512 -0.1576 -0.4277  0.2713
 7972SOL    HW135378   2.621   2.085   5.577 -1.0418  0.7265 -1.0679
 7972SOL    HW235379   2.696   2.145   5.470  0.9369 -0.2292  0.9019
 7973SOL     OW35380   3.172   0.427  14.231  0.8145  0.1324 -0.1218
 7973SOL    HW135381   3.139   0.338  14.222  0.3039  0.4974 -1.7481
 7973SOL    HW235382   3.212   0.436  14.145 -0.1999  0.9451 -0.5135
 7974SOL     OW35383   1.953   1.697   6.266  0.5997 -0.8510 -0.0804
 7974SOL    HW135384   1.928   1.701   6.359 -1.3545  1.1986 -0.7155
 7974SOL    HW235385   2.008   1.772   6.247  0.1231 -0.2201  1.0179
 7975SOL     OW35386   4.309   1.644   7.118 -0.0262 -0.2223  0.3792
 7975SOL    HW135387   4.265   1.676   7.039 -0.9059  1.7090  1.6642
 7975SOL    HW235388   4.260   1.691   7.185 -0.5370  0.0246 -0.1636
 7976SOL     OW35389   4.534   0.333   5.466  0.1991  0.3259  0.4612
 7976SOL    HW135390   4.622   0.308   5.435  0.0602 -1.8413  1.8089
 7976SOL    HW235391   4.552   0.311   5.557  0.6516 -3.3034 -0.4692
 7977SOL     OW35392   4.270   0.298   5.739  0.0934 -0.2143  0.6209
 7977SOL    HW135393   4.198   0.235   5.743 -1.7884  1.8089 -1.1276
 7977SOL    HW235394   4.293   0.320   5.829 -0.0473  3.0827 -0.1381
 7978SOL     OW35395   3.344   2.769   4.631 -0.1538  0.4620  0.5606
 7978SOL    HW135396   3.402   2.695   4.649  1.1488  0.9835 -1.5077
 7978SOL    HW235397   3.314   2.764   4.540  0.1734 -0.0188  0.4810
 7979SOL     OW35398   0.909   1.929   4.015 -0.1005 -0.5743  0.5234
 7979SOL    HW135399   0.857   1.878   4.078  0.2360 -1.2069  0.2870
 7979SOL    HW235400   0.998   1.918   4.047 -0.5119 -0.1699  1.7991
 7980SOL     OW35401   3.456   4.173   3.147 -0.5231  0.3496 -0.2968
 7980SOL    HW135402   3.535   4.196   3.098 -1.5572  0.7962 -1.7405
 7980SOL    HW235403   3.477   4.080   3.155  0.2537  0.4803 -0.8275
 7981SOL     OW35404   0.745   2.132   7.681 -0.9672  0.1415  0.2661
 7981SOL    HW135405   0.747   2.134   7.776 -2.6399  4.1526  0.2412
 7981SOL    HW235406   0.704   2.048   7.661  0.5476 -0.6699  0.6076
 7982SOL     OW35407   3.076   3.974   0.904  0.3147 -0.5885  0.2533
 7982SOL    HW135408   3.156   3.924   0.885  1.2864  0.7198  0.9364
 7982SOL    HW235409   3.007   3.907   0.901 -1.5374  1.3265  0.3821
 7983SOL     OW35410   0.827   2.489   9.755  0.1105  0.1713  0.4815
 7983SOL    HW135411   0.763   2.471   9.686 -0.0254  1.3211  0.3123
 7983SOL    HW235412   0.898   2.513   9.696  1.6529  0.1676  2.3193
 7984SOL     OW35413   4.329   3.283  14.785 -0.0219  0.2101 -0.3530
 7984SOL    HW135414   4.345   3.217  14.852  2.5464  0.8907 -0.3066
 7984SOL    HW235415   4.241   3.308  14.814  0.9042  1.3255  1.4316
 7985SOL     OW35416   1.447   2.725   3.149 -0.8891 -0.1671  0.2302
 7985SOL    HW135417   1.428   2.681   3.066 -0.8298  0.3545 -0.0597
 7985SOL    HW235418   1.394   2.804   3.135 -0.2775  0.4777  1.5413
 7986SOL     OW35419   3.332   1.178   3.389 -0.0639  0.9501 -0.1399
 7986SOL    HW135420   3.269   1.236   3.431 -1.3206 -0.5238 -0.0060
 7986SOL    HW235421   3.398   1.241   3.360  0.0088  0.5237 -0.9213
 7987SOL     OW35422   0.840   1.906   9.355 -0.1170 -0.8207  0.5263
 7987SOL    HW135423   0.828   1.860   9.438  1.0431 -1.1517  0.5019
 7987SOL    HW235424   0.751   1.893   9.323 -0.9593  0.3001  2.3789
 7988SOL     OW35425   1.609   3.954   9.324  0.2938  0.4206 -0.3142
 7988SOL    HW135426   1.598   4.002   9.407  2.1520 -1.1113  0.8257
 7988SOL    HW235427   1.522   3.946   9.286 -0.2656  1.2578  0.7818
 7989SOL     OW35428   1.829   0.998   2.927  0.2212 -0.1564  0.1535
 7989SOL    HW135429   1.901   0.985   2.866  1.0291 -3.9895  1.9405
 7989SOL    HW235430   1.823   1.093   2.914 -1.5020 -0.2164  0.4051
 7990SOL     OW35431   3.539   4.550   6.322  0.1871 -0.0047 -0.1083
 7990SOL    HW135432   3.523   4.627   6.377 -1.5568 -0.0416 -0.5573
 7990SOL    HW235433   3.452   4.517   6.300  0.2024 -0.3278  0.3198
 7991SOL     OW35434   2.157   4.027   2.105 -0.1575  0.4313  0.1841
 7991SOL    HW135435   2.146   3.966   2.032  0.5299 -0.6147  0.9389
 7991SOL    HW235436   2.085   4.003   2.163 -0.4411  0.8714  0.0089
 7992SOL     OW35437   1.437   2.908   9.979  0.6364 -0.0418  0.3920
 7992SOL    HW135438   1.514   2.903  10.036 -0.8686 -0.0975  2.4086
 7992SOL    HW235439   1.371   2.878  10.041 -2.4307  1.3652 -2.1808
 7993SOL     OW35440   1.890   1.970   6.402  0.0827  0.7202  0.5189
 7993SOL    HW135441   1.810   1.917   6.404  1.2793 -1.1468 -2.2566
 7993SOL    HW235442   1.874   2.023   6.324  0.1055  1.1737  0.8240
 7994SOL     OW35443   4.049   2.002   0.805  0.1867  0.2413  0.0968
 7994SOL    HW135444   4.076   1.959   0.886  0.7598 -0.5100 -0.4942
 7994SOL    HW235445   3.984   2.060   0.845 -0.8615 -0.6564 -0.2961
 7995SOL     OW35446   1.052   0.644  11.524 -0.9964 -0.1216  0.3910
 7995SOL    HW135447   0.966   0.634  11.483 -0.5979  1.4728 -0.8521
 7995SOL    HW235448   1.060   0.739  11.537 -1.1183  0.0903 -1.1011
 7996SOL     OW35449   4.250   3.498   8.829  0.2322  0.5408  0.5803
 7996SOL    HW135450   4.239   3.495   8.734 -3.4273 -2.8432  1.0774
 7996SOL    HW235451   4.161   3.477   8.857  0.7469 -0.9078  1.1327
 7997SOL     OW35452   3.298   1.802   6.050 -0.3063 -0.1765  0.3126
 7997SOL    HW135453   3.296   1.764   5.962  0.5409 -0.8153  0.5665
 7997SOL    HW235454   3.290   1.896   6.037 -1.5727 -0.0426  2.1188
 7998SOL     OW35455   3.904   3.175   5.415  0.0181 -0.2835 -0.2735
 7998SOL    HW135456   3.922   3.263   5.381  0.0988 -0.8378 -1.6445
 7998SOL    HW235457   3.857   3.134   5.343  0.1147  1.6903 -1.4746
 7999SOL     OW35458   2.947   4.640  13.591 -0.5027  0.2578 -0.0807
 7999SOL    HW135459   3.005   4.651  13.516  0.7510 -1.1147  0.6840
 7999SOL    HW235460   2.999   4.678  13.662  1.2788  1.1084 -1.8642
 8000SOL     OW35461   3.023   4.322   6.112  0.6545  0.4863 -0.1167
 8000SOL    HW135462   3.032   4.276   6.029  1.0223  3.9630 -2.0084
 8000SOL    HW235463   2.973   4.402   6.096 -1.7043 -1.4481 -2.3384
 8001SOL     OW35464   0.224   3.658   2.979 -0.0157 -0.7337  0.2032
 8001SOL    HW135465   0.278   3.706   3.041  1.4921 -1.4280 -0.5631
 8001SOL    HW235466   0.168   3.602   3.032  0.2336 -0.4404  0.7756
 8002SOL     OW35467   3.118   3.714   0.320  0.6159 -0.1386  0.5659
 8002SOL    HW135468   3.184   3.767   0.275  1.1955  0.0379  1.6375
 8002SOL    HW235469   3.105   3.648   0.252 -0.1070 -0.6786  1.2323
 8003SOL     OW35470   2.618   1.621   5.053  0.4143 -0.1139  0.1539
 8003SOL    HW135471   2.645   1.711   5.072 -3.3506  0.5464  2.3789
 8003SOL    HW235472   2.628   1.584   5.141  0.3587 -0.8168 -0.1332
 8004SOL     OW35473   0.913   1.515   6.419  0.1194  0.0266  0.6412
 8004SOL    HW135474   0.867   1.599   6.407 -1.1391 -0.9959 -1.6586
 8004SOL    HW235475   0.859   1.480   6.490  1.2014  0.6772  1.7906
 8005SOL     OW35476   4.497   3.738   2.207 -0.3543 -0.1147 -0.2482
 8005SOL    HW135477   4.416   3.690   2.191 -0.3758 -0.5770  1.2589
 8005SOL    HW235478   4.487   3.828   2.176  1.3233 -0.1750 -0.9667
 8006SOL     OW35479   2.485   2.115   5.674  0.1514  0.6571  0.0684
 8006SOL    HW135480   2.400   2.087   5.638  0.4066  1.0950 -0.8953
 8006SOL    HW235481   2.455   2.192   5.721 -0.0401  0.6494 -0.0400
 8007SOL     OW35482   2.693   2.336   5.452  0.3800 -0.2821 -0.3043
 8007SOL    HW135483   2.760   2.381   5.504 -1.3153  0.0237  1.6331
 8007SOL    HW235484   2.717   2.359   5.363 -0.5370 -0.0559 -0.4936
 8008SOL     OW35485   0.735   4.098  14.141  0.1438 -0.0128  0.3784
 8008SOL    HW135486   0.699   4.060  14.061 -0.4883 -0.0731  0.6916
 8008SOL    HW235487   0.755   4.185  14.108  1.7458 -0.7988 -0.7232
 8009SOL     OW35488   2.369   3.489  11.784  0.0947  0.0245 -0.0633
 8009SOL    HW135489   2.367   3.394  11.790  1.0908 -0.0511 -0.9238
 8009SOL    HW235490   2.284   3.513  11.822  0.5628  0.0167  0.9823
 8010SOL     OW35491   3.863   3.092   2.471  0.1019  0.2809 -0.4815
 8010SOL    HW135492   3.935   3.055   2.522 -0.1842 -1.3250 -1.2313
 8010SOL    HW235493   3.904   3.094   2.385  1.0069  0.0344 -0.0607
 8011SOL     OW35494   3.145   3.125   2.365  0.5710  0.8302 -0.3512
 8011SOL    HW135495   3.221   3.179   2.385  1.2624 -0.0786 -0.5468
 8011SOL    HW235496   3.182   3.074   2.293  1.0716  0.4315  0.1849
 8012SOL     OW35497   4.648   1.001   3.019 -0.0871 -0.4235  0.2033
 8012SOL    HW135498   4.565   0.965   2.989 -0.0576 -0.8988  0.6774
 8012SOL    HW235499   4.610   1.085   3.043  0.4461 -0.1787  0.2016
 8013SOL     OW35500   2.855   2.558   0.447  0.0722 -0.2526 -0.1076
 8013SOL    HW135501   2.822   2.616   0.515 -1.0833  0.4983 -1.3150
 8013SOL    HW235502   2.936   2.599   0.417 -0.0972 -0.4499 -0.8365
 8014SOL     OW35503   1.172   4.006  17.447 -1.2095  0.0245 -0.4949
 8014SOL    HW135504   1.203   4.033  17.533  0.0195 -1.1310 -0.5691
 8014SOL    HW235505   1.080   3.994  17.470 -0.9850 -0.7694  0.0005
 8015SOL     OW35506   0.552   2.926   5.865 -0.7997 -0.1722 -1.0342
 8015SOL    HW135507   0.478   2.980   5.837 -0.5853  1.1108  0.8614
 8015SOL    HW235508   0.546   2.860   5.796  0.2308 -0.6717 -0.6446
 8016SOL     OW35509   2.975   0.832   6.938  0.6531 -0.1509 -0.0486
 8016SOL    HW135510   2.985   0.781   6.858  1.5983 -0.1971  0.1002
 8016SOL    HW235511   2.938   0.912   6.899  0.3434 -0.1867  0.1706
 8017SOL     OW35512   4.512   0.300  17.133 -0.3026  0.1780 -0.1156
 8017SOL    HW135513   4.537   0.358  17.204  0.6101 -1.9782  1.3061
 8017SOL    HW235514   4.489   0.223  17.184  2.2391 -1.0532 -0.8507
 8018SOL     OW35515   1.532   0.175  16.821  0.1195  0.6533  0.2660
 8018SOL    HW135516   1.596   0.245  16.834 -1.7015  2.1397  1.3096
 8018SOL    HW235517   1.450   0.216  16.795  0.1605 -0.1397 -1.0813
 8019SOL     OW35518   2.016   4.070   7.837 -0.0456 -0.3822 -0.3734
 8019SOL    HW135519   1.949   4.073   7.905  1.1578  1.4027  0.7375
 8019SOL    HW235520   2.064   3.992   7.866  1.6207 -0.6095 -3.7437
 8020SOL     OW35521   1.863   3.247   5.943 -0.3006  0.2690  0.5423
 8020SOL    HW135522   1.778   3.283   5.917 -0.3178 -0.3349 -0.2256
 8020SOL    HW235523   1.892   3.328   5.986 -4.5383  1.3361  1.3413
 8021SOL     OW35524   0.249   3.388   1.156  0.1124  0.3927  0.2049
 8021SOL    HW135525   0.192   3.462   1.136 -0.3211  0.3620  1.3560
 8021SOL    HW235526   0.208   3.354   1.235  3.9916 -1.9138  1.2398
 8022SOL     OW35527   4.191   0.716   9.297  0.0374  0.2553 -0.0585
 8022SOL    HW135528   4.123   0.748   9.238 -0.9153 -1.5235  0.0518
 8022SOL    HW235529   4.263   0.778   9.286 -0.9059  1.5173  0.8571
 8023SOL     OW35530   1.380   0.189  13.489 -0.4964 -0.2184 -0.4477
 8023SOL    HW135531   1.340   0.180  13.576 -2.5047 -1.3499 -1.4934
 8023SOL    HW235532   1.470   0.165  13.511 -0.3234  2.0534  1.3802
 8024SOL     OW35533   1.610   2.471   9.822 -0.6115  0.5295 -0.0774
 8024SOL    HW135534   1.666   2.416   9.877  0.2965  1.1443 -0.3857
 8024SOL    HW235535   1.644   2.555   9.853 -1.7835  0.7250  0.6728
 8025SOL     OW35536   4.076   0.612   1.549  0.2995  0.2603  0.2734
 8025SOL    HW135537   4.133   0.678   1.510  0.9914 -1.6064 -1.8666
 8025SOL    HW235538   4.078   0.543   1.483 -1.5214  0.6831 -0.2172
 8026SOL     OW35539   0.999   0.314   3.067  0.1935  0.3031 -0.5564
 8026SOL    HW135540   1.090   0.343   3.071 -0.3265  1.5985  2.4090
 8026SOL    HW235541   1.018   0.220   3.069 -0.7676  0.1175 -0.0377
 8027SOL     OW35542   4.036   3.065  16.313  0.4468  0.1343 -0.2044
 8027SOL    HW135543   3.971   3.046  16.380  1.9462 -1.0702  0.8990
 8027SOL    HW235544   4.079   2.980  16.310 -0.3832 -0.2935 -0.1274
 8028SOL     OW35545   3.583   4.560   7.197  0.4106 -0.3289  0.3052
 8028SOL    HW135546   3.552   4.650   7.184  2.9676  0.4065 -0.8260
 8028SOL    HW235547   3.564   4.545   7.290  0.0525  0.4676  0.3640
 8029SOL     OW35548   4.315   0.991   9.248  0.4582 -0.3925  0.3648
 8029SOL    HW135549   4.299   0.990   9.154 -2.7135  0.4235  0.8770
 8029SOL    HW235550   4.402   0.953   9.251  0.7205  0.2072  0.3424
 8030SOL     OW35551   4.228   0.253   4.335  0.2812 -0.0552  0.4631
 8030SOL    HW135552   4.162   0.319   4.355  1.5450  1.2081  0.4558
 8030SOL    HW235553   4.297   0.268   4.400  1.0956 -0.0953 -0.3968
 8031SOL     OW35554   4.082   0.669   6.330 -0.2935 -0.1956  0.0310
 8031SOL    HW135555   4.092   0.741   6.268  1.9308 -1.7427 -1.4270
 8031SOL    HW235556   4.169   0.651   6.365  0.2844  2.5359 -0.0729
 8032SOL     OW35557   3.831   4.555   6.547  0.1696  0.5785 -0.2695
 8032SOL    HW135558   3.913   4.575   6.593 -0.3493  1.9602  0.0680
 8032SOL    HW235559   3.834   4.460   6.536  0.0678  0.4847  0.5217
 8033SOL     OW35560   4.685   2.879  15.641 -0.1308  0.1752  0.3285
 8033SOL    HW135561   0.034   2.815  15.642 -0.1896  0.1244  1.1796
 8033SOL    HW235562   4.697   2.925  15.557  1.6944 -1.6670 -0.4396
 8034SOL     OW35563   3.017   3.012   8.692  0.1113 -0.4731  0.3314
 8034SOL    HW135564   3.057   2.933   8.655  0.4904 -0.5897  0.9950
 8034SOL    HW235565   3.091   3.070   8.674 -0.3520 -0.3138 -1.0640
 8035SOL     OW35566   3.214   2.291   1.726 -0.1162 -0.6712  0.2770
 8035SOL    HW135567   3.263   2.346   1.665 -0.7318 -1.2001 -0.7001
 8035SOL    HW235568   3.233   2.212   1.677 -1.4561 -1.6748  1.3702
 8036SOL     OW35569   0.427   4.372   2.071  0.4870 -0.1592 -0.1400
 8036SOL    HW135570   0.354   4.412   2.119  0.6272 -3.1252  2.5055
 8036SOL    HW235571   0.401   4.281   2.086  1.5598 -0.5489 -0.6854
 8037SOL     OW35572   0.252   4.219   0.763  0.4419 -0.0666 -0.1081
 8037SOL    HW135573   0.260   4.146   0.702  1.6822  1.1010 -1.3192
 8037SOL    HW235574   0.189   4.186   0.828 -1.1443  3.4930  0.1623
 8038SOL     OW35575   3.337   2.985   2.179  0.7512  0.3292  0.0258
 8038SOL    HW135576   3.430   3.010   2.174  0.8826 -0.4604 -1.6891
 8038SOL    HW235577   3.336   2.979   2.083  2.9299 -0.7527  0.0637
 8039SOL     OW35578   3.077   4.327   3.801 -0.1517  0.2947 -0.6042
 8039SOL    HW135579   3.130   4.252   3.826 -2.4197 -0.2391  2.6075
 8039SOL    HW235580   3.138   4.400   3.792  0.5613 -0.1547  0.6205
 8040SOL     OW35581   1.572   3.301   4.627  0.3193 -0.1751  0.6349
 8040SOL    HW135582   1.658   3.259   4.629  1.3832  1.9648 -0.1012
 8040SOL    HW235583   1.597   3.387   4.663  0.2622  0.4688 -0.8855
 8041SOL     OW35584   3.503   2.363   5.964  0.1436 -0.0617  0.5771
 8041SOL    HW135585   3.430   2.383   5.905 -1.8427  0.5014  3.2357
 8041SOL    HW235586   3.535   2.452   5.980  0.0606 -0.2912  1.9734
 8042SOL     OW35587   1.085   3.814  15.104 -0.3100 -0.1206  0.2123
 8042SOL    HW135588   1.028   3.738  15.108 -0.2552 -0.0972  1.4775
 8042SOL    HW235589   1.019   3.874  15.070  0.7761  1.6164  1.1770
 8043SOL     OW35590   4.457   1.424  16.055  0.3052  0.4104  0.0047
 8043SOL    HW135591   4.449   1.476  16.135  0.7819  0.8188 -0.2059
 8043SOL    HW235592   4.371   1.433  16.014 -0.6665 -0.6052  1.8355
 8044SOL     OW35593   0.119   0.501   3.589  0.4559  0.8016  0.4003
 8044SOL    HW135594   0.167   0.474   3.511 -2.7677 -0.8564 -1.0384
 8044SOL    HW235595   0.054   0.563   3.556  0.6184 -0.7025 -2.7687
 8045SOL     OW35596   2.392   2.640  14.255 -0.4728  0.0916 -0.2981
 8045SOL    HW135597   2.298   2.634  14.243 -0.5794  3.0869 -0.9786
 8045SOL    HW235598   2.398   2.706  14.324  1.0761 -0.1638 -0.1819
 8046SOL     OW35599   0.958   1.484   1.834 -0.1037 -0.0460  0.5098
 8046SOL    HW135600   1.000   1.478   1.920  1.6766 -0.4601 -0.3954
 8046SOL    HW235601   0.867   1.462   1.855  0.6074 -2.6998  0.7641
 8047SOL     OW35602   1.226   1.761   6.413  0.4055 -0.0554  0.6551
 8047SOL    HW135603   1.248   1.673   6.383  0.0194 -0.6435  2.0871
 8047SOL    HW235604   1.191   1.747   6.501  1.9525 -1.4586  1.0435
 8048SOL     OW35605   1.848   1.266   2.860  0.6737  0.2083 -0.2807
 8048SOL    HW135606   1.848   1.298   2.770 -0.7817  1.3376  0.1249
 8048SOL    HW235607   1.765   1.302   2.889 -0.2223 -1.7781 -0.3668
 8049SOL     OW35608   2.543   3.366   4.983  0.2320  0.0395 -0.6057
 8049SOL    HW135609   2.636   3.372   5.004  0.3404 -0.1415 -1.0408
 8049SOL    HW235610   2.532   3.275   5.011 -3.7571  0.3951 -0.8971
 8050SOL     OW35611   4.364   2.577   1.392  0.6803  0.0066  0.1348
 8050SOL    HW135612   4.443   2.541   1.353  0.4564 -1.2254  0.8057
 8050SOL    HW235613   4.316   2.494   1.398 -0.3065  0.5154 -0.5491
 8051SOL     OW35614   0.856   2.502  16.868  0.0087  0.3233 -0.5304
 8051SOL    HW135615   0.930   2.563  16.863 -0.0055  0.4076  0.2320
 8051SOL    HW235616   0.886   2.417  16.837 -1.7714  0.3330 -2.2901
 8052SOL     OW35617   2.435   0.703  13.460  0.2325 -0.5422  0.0537
 8052SOL    HW135618   2.457   0.610  13.468 -0.2313 -0.8411 -2.0648
 8052SOL    HW235619   2.349   0.699  13.500  0.0169 -2.2637 -0.5880
 8053SOL     OW35620   1.491   0.393  11.864 -0.4616  0.2543 -0.2228
 8053SOL    HW135621   1.467   0.485  11.852  2.6259  1.2454  1.1730
 8053SOL    HW235622   1.525   0.351  11.785  0.3979  1.9803 -0.7717
 8054SOL     OW35623   4.684   4.488  10.417 -0.4801  0.0040 -0.0393
 8054SOL    HW135624   0.055   4.507  10.419 -0.8916  1.8741  0.7422
 8054SOL    HW235625   4.682   4.453  10.327  1.5752 -0.7500  0.2079
 8055SOL     OW35626   2.690   2.157   9.034 -0.1936 -0.0662  0.2603
 8055SOL    HW135627   2.741   2.153   9.115  2.0298  2.2228 -1.0319
 8055SOL    HW235628   2.623   2.217   9.067 -2.5850 -2.8439  0.4568
 8056SOL     OW35629   2.972   2.984   5.508  0.2313  0.0682  0.1702
 8056SOL    HW135630   2.881   2.969   5.533  0.2923  0.6481  0.7287
 8056SOL    HW235631   3.016   2.899   5.515 -0.8444 -0.6316 -1.6755
 8057SOL     OW35632   4.292   2.090   8.451 -0.1298  0.4203 -0.2262
 8057SOL    HW135633   4.347   2.068   8.527  0.7176 -0.0836 -0.9795
 8057SOL    HW235634   4.235   2.013   8.451  1.2347 -0.5951 -0.8198
 8058SOL     OW35635   4.118   4.012   0.800  0.4292  0.1535  0.0836
 8058SOL    HW135636   4.164   4.086   0.760 -1.1869  0.9261 -0.3897
 8058SOL    HW235637   4.190   3.960   0.835  1.6856  1.2708 -0.8401
 8059SOL     OW35638   1.651   1.374   5.487 -0.4595 -0.1249 -0.0018
 8059SOL    HW135639   1.575   1.317   5.498  0.7656 -1.6387  0.7217
 8059SOL    HW235640   1.723   1.314   5.505 -0.6390 -0.3562 -0.0577
 8060SOL     OW35641   2.176   0.469  15.770 -0.0840 -0.2691 -0.3308
 8060SOL    HW135642   2.124   0.389  15.778  2.5005 -2.0174 -1.0754
 8060SOL    HW235643   2.125   0.525  15.828  2.0926  0.7726  0.5782
 8061SOL     OW35644   1.319   1.586  10.145  0.6114 -0.5315  0.1913
 8061SOL    HW135645   1.226   1.583  10.165  0.3348 -1.4360 -1.2394
 8061SOL    HW235646   1.355   1.531  10.215 -0.7264  0.6089  1.7837
 8062SOL     OW35647   3.399   3.493  16.878  0.4350 -0.2988  0.7419
 8062SOL    HW135648   3.489   3.489  16.909  0.7860  0.3829 -0.1957
 8062SOL    HW235649   3.365   3.573  16.918  0.7904 -0.6043  1.6559
 8063SOL     OW35650   2.830   4.657   8.971  0.3744  0.3662 -0.1822
 8063SOL    HW135651   2.786   4.639   9.054 -0.1228 -0.0587 -0.5370
 8063SOL    HW235652   2.839   4.563   8.956 -0.3877  0.7147 -2.8181
 8064SOL     OW35653   1.929   3.926  16.544 -0.3883 -0.3305 -0.2257
 8064SOL    HW135654   1.869   3.866  16.588  1.0746 -0.1509  2.0137
 8064SOL    HW235655   2.011   3.880  16.561  0.7148  1.9879  0.8878
 8065SOL     OW35656   3.168   4.699   4.621 -0.3603 -0.5034  0.0614
 8065SOL    HW135657   3.098   4.639   4.597 -3.6952  3.1373  0.7499
 8065SOL    HW235658   3.143   0.054   4.571 -1.9198  0.0166  1.6348
 8066SOL     OW35659   0.445   1.536   2.496  0.3316 -0.0119  0.5822
 8066SOL    HW135660   0.370   1.495   2.538 -0.7567 -1.8956 -3.1620
 8066SOL    HW235661   0.517   1.477   2.517  1.0262  0.8296  0.5863
 8067SOL     OW35662   2.035   2.652   0.353 -0.7357 -0.5950 -0.0060
 8067SOL    HW135663   1.956   2.705   0.363 -1.2622 -0.9363 -2.2733
 8067SOL    HW235664   2.039   2.601   0.434  2.5358 -0.0500  0.1719
 8068SOL     OW35665   3.915   2.781  12.120 -0.1416 -0.1079  0.6576
 8068SOL    HW135666   3.954   2.845  12.180  0.1580 -0.5043  0.8873
 8068SOL    HW235667   3.883   2.718  12.184  0.8713  1.1551  2.3906
 8069SOL     OW35668   3.655   1.657   6.989 -0.4779  0.4462 -0.1661
 8069SOL    HW135669   3.644   1.734   7.045 -0.1965 -0.5956  1.3276
 8069SOL    HW235670   3.622   1.691   6.906 -1.0257 -1.0331 -0.5459
 8070SOL     OW35671   2.120   3.082   3.137  0.5306  0.4783 -0.0603
 8070SOL    HW135672   2.209   3.048   3.133  0.7066  0.7844  1.0449
 8070SOL    HW235673   2.091   3.022   3.206  1.0622  1.4987  1.0505
 8071SOL     OW35674   2.209   0.798  10.196  0.1680  0.2951 -0.1929
 8071SOL    HW135675   2.287   0.796  10.252 -0.6470  0.3993  0.9405
 8071SOL    HW235676   2.179   0.888  10.212 -1.3703 -0.1644 -0.5221
 8072SOL     OW35677   0.011   4.368   4.176 -0.1514  0.6080  0.1989
 8072SOL    HW135678   0.102   4.394   4.158  0.1993  0.3595  1.6468
 8072SOL    HW235679   4.721   4.390   4.268 -0.5938 -1.4576  0.6421
 8073SOL     OW35680   0.564   0.662   6.885  0.0100  0.0473  0.1020
 8073SOL    HW135681   0.503   0.593   6.861  0.1316  0.0963 -0.3553
 8073SOL    HW235682   0.626   0.620   6.944 -0.6351 -1.7138 -0.4812
 8074SOL     OW35683   3.409   1.365   9.012 -0.0514  0.1484  0.1787
 8074SOL    HW135684   3.346   1.358   8.940 -2.9146 -0.6129  2.7516
 8074SOL    HW235685   3.401   1.276   9.047  1.0284  0.1429  0.4199
 8075SOL     OW35686   1.093   0.514   5.791 -0.3010 -0.1201 -0.3053
 8075SOL    HW135687   1.109   0.607   5.776 -2.1952  0.1742 -0.5111
 8075SOL    HW235688   1.055   0.520   5.879 -0.3155  0.7447 -0.3646
 8076SOL     OW35689   3.869   0.948  17.057  0.0775  0.3803  0.3790
 8076SOL    HW135690   3.856   1.006  16.983  1.1050  0.0538 -0.0705
 8076SOL    HW235691   3.934   0.885  17.025  0.6620 -0.9922  4.2108
 8077SOL     OW35692   2.043   1.761   7.827  0.4995  0.0785  0.7470
 8077SOL    HW135693   2.073   1.801   7.746 -1.6508 -0.4244 -0.2992
 8077SOL    HW235694   1.948   1.769   7.820  0.7342  1.5419 -0.8103
 8078SOL     OW35695   0.637   3.237   0.391  0.7449 -0.4110  0.2268
 8078SOL    HW135696   0.732   3.225   0.385  0.4114 -2.4200 -0.8409
 8078SOL    HW235697   0.620   3.173   0.461  0.5899 -0.1111  0.4647
 8079SOL     OW35698   2.027   0.413  13.978 -0.3193 -0.0914  0.3864
 8079SOL    HW135699   2.060   0.462  14.053  0.3182  0.3303 -0.1780
 8079SOL    HW235700   2.043   0.476  13.909 -2.0260  1.2731  1.2375
 8080SOL     OW35701   0.566   0.543   3.098 -0.1113 -0.5521  0.8217
 8080SOL    HW135702   0.557   0.470   3.037 -0.4181  1.2819 -1.3135
 8080SOL    HW235703   0.476   0.577   3.095 -0.6894 -1.9803  1.8088
 8081SOL     OW35704   1.889   0.416   5.821  0.1079 -0.1682 -0.1575
 8081SOL    HW135705   1.979   0.400   5.794  0.4242  2.0328 -0.3909
 8081SOL    HW235706   1.864   0.477   5.751 -2.3975 -0.2919  0.6210
 8082SOL     OW35707   4.160   0.749   0.589  0.2293  0.4550 -0.5678
 8082SOL    HW135708   4.142   0.667   0.634 -0.9245  0.4826 -0.9769
 8082SOL    HW235709   4.151   0.710   0.503 -1.7623  1.2127 -0.7113
 8083SOL     OW35710   1.435   2.190   6.191 -0.2445  0.0531  0.0072
 8083SOL    HW135711   1.490   2.221   6.262  1.9550 -2.1450 -0.7424
 8083SOL    HW235712   1.453   2.253   6.122  2.3438 -0.7981 -0.0859
 8084SOL     OW35713   1.012   4.278  12.739  0.0923  0.1028  0.0614
 8084SOL    HW135714   0.981   4.324  12.818  1.2939 -0.2760  0.7508
 8084SOL    HW235715   1.107   4.285  12.745  0.1854 -0.3929 -0.8729
 8085SOL     OW35716   3.881   3.092   4.396 -0.0283 -0.3593 -0.4785
 8085SOL    HW135717   3.908   3.090   4.487 -0.1690  1.6974 -0.3734
 8085SOL    HW235718   3.815   3.162   4.395  1.0541  0.6503 -0.0765
 8086SOL     OW35719   1.580   1.942   7.678 -0.3574 -0.2709  0.3737
 8086SOL    HW135720   1.512   1.924   7.612  0.9335 -3.3922 -0.0668
 8086SOL    HW235721   1.595   2.034   7.657 -0.2328  0.0441  1.8568
 8087SOL     OW35722   0.145   4.167  15.254 -0.2599  0.0128 -0.2296
 8087SOL    HW135723   0.124   4.150  15.162 -2.2805 -1.5897  0.5097
 8087SOL    HW235724   0.161   4.261  15.247 -2.3575  0.3599 -0.3573
 8088SOL     OW35725   0.596   0.830   5.347 -0.0343 -0.0205  0.0781
 8088SOL    HW135726   0.637   0.910   5.381 -0.7957  0.9042 -1.1927
 8088SOL    HW235727   0.556   0.863   5.266  1.0822  3.3834  0.9000
 8089SOL     OW35728   0.982   3.741  10.934  0.6828  0.0149 -0.3437
 8089SOL    HW135729   1.031   3.820  10.913  0.2807  0.5839  0.9016
 8089SOL    HW235730   0.970   3.750  11.028  0.8130  0.8666 -0.4139
 8090SOL     OW35731   4.188   3.865   6.445 -0.7138  0.3155  0.2388
 8090SOL    HW135732   4.222   3.786   6.485 -0.3506  0.4626  0.2209
 8090SOL    HW235733   4.174   3.907   6.530  1.5245 -0.9441  1.2152
 8091SOL     OW35734   0.776   3.842   1.255  0.2632 -0.2604  0.4655
 8091SOL    HW135735   0.860   3.805   1.231 -1.5664 -1.5809 -3.8694
 8091SOL    HW235736   0.780   3.919   1.198  1.4127 -1.2169 -0.7369
 8092SOL     OW35737   2.847   1.109   6.894  0.0224  0.2541  0.2855
 8092SOL    HW135738   2.876   1.182   6.949  1.9791  0.2295 -0.6979
 8092SOL    HW235739   2.773   1.071   6.941  0.4352  0.7628  1.3355
 8093SOL     OW35740   3.915   2.783   0.546  0.5111  0.0856  0.0819
 8093SOL    HW135741   3.977   2.712   0.529 -2.0257 -2.0552 -0.1880
 8093SOL    HW235742   3.974   2.844   0.591 -1.9595  0.8574  2.2490
 8094SOL     OW35743   0.718   1.827   8.893 -0.3844  0.1203 -0.0861
 8094SOL    HW135744   0.726   1.922   8.886  0.4251  0.2020  1.9730
 8094SOL    HW235745   0.807   1.795   8.883 -1.2273 -2.0284 -0.9134
 8095SOL     OW35746   1.109   0.359  12.130  0.1445 -0.2349 -0.2842
 8095SOL    HW135747   1.141   0.269  12.124 -1.1168 -0.6504 -0.7759
 8095SOL    HW235748   1.105   0.376  12.224 -0.2171  0.4971 -0.4356
 8096SOL     OW35749   2.249   1.723   4.102  0.3959 -0.5237 -0.6884
 8096SOL    HW135750   2.337   1.755   4.122  1.4583 -2.6595 -1.9432
 8096SOL    HW235751   2.200   1.803   4.121  1.6992  0.3627 -1.0648
 8097SOL     OW35752   1.336   4.619   3.688 -0.0316  0.0702 -0.0654
 8097SOL    HW135753   1.349   4.637   3.595 -0.1501 -0.6230 -0.2148
 8097SOL    HW235754   1.242   4.637   3.697  0.3171  1.5584  0.6037
 8098SOL     OW35755   1.355   3.594   8.336  0.3397 -0.2377 -0.0838
 8098SOL    HW135756   1.386   3.656   8.270  1.7115  0.7602  1.5137
 8098SOL    HW235757   1.425   3.529   8.331  0.9629  0.2958  1.5322
 8099SOL     OW35758   1.046   0.668   7.833 -0.2749  0.5076  0.1232
 8099SOL    HW135759   1.107   0.698   7.900  0.0544 -0.3885  0.2372
 8099SOL    HW235760   0.967   0.676   7.885 -0.9928  0.2834 -0.9337
 8100SOL     OW35761   0.547   1.737   6.118  0.1546 -0.5884 -0.1215
 8100SOL    HW135762   0.453   1.728   6.102  0.3620 -0.3468 -1.5264
 8100SOL    HW235763   0.575   1.648   6.097 -2.9846 -1.8658  1.1482
 8101SOL     OW35764   0.762   2.954   1.768 -0.5546  0.3472 -0.1039
 8101SOL    HW135765   0.728   3.001   1.844 -1.4446 -0.9641  0.2938
 8101SOL    HW235766   0.723   2.997   1.691  0.5607  1.8492  0.1572
 8102SOL     OW35767   2.699   0.991   9.737  0.4954 -0.0674 -0.0720
 8102SOL    HW135768   2.682   1.054   9.668 -1.4631 -2.2357 -1.5575
 8102SOL    HW235769   2.715   1.042   9.817  0.9831 -0.5477  0.1404
 8103SOL     OW35770   1.172   1.181  10.133 -0.3673  0.7395 -0.1031
 8103SOL    HW135771   1.104   1.233  10.088 -3.4974 -1.9532  1.5095
 8103SOL    HW235772   1.186   1.242  10.205 -2.6377  1.5673 -0.3444
 8104SOL     OW35773   4.265   4.341   8.153  0.0088  0.0388 -0.4327
 8104SOL    HW135774   4.246   4.338   8.247 -1.4952 -0.5313 -0.7430
 8104SOL    HW235775   4.185   4.305   8.114 -1.1713  2.2111 -0.0753
 8105SOL     OW35776   0.632   2.288   4.572 -0.0366 -0.9856  0.4544
 8105SOL    HW135777   0.613   2.374   4.535 -0.7907 -0.7959  1.2865
 8105SOL    HW235778   0.551   2.239   4.558 -1.8877  1.6712  1.8882
 8106SOL     OW35779   3.731   3.958   5.932  0.1296 -0.0302 -0.2836
 8106SOL    HW135780   3.758   4.048   5.953 -1.1025  0.4277 -0.6793
 8106SOL    HW235781   3.780   3.902   5.993 -0.5143 -0.8464 -0.5249
 8107SOL     OW35782   2.932   3.149  17.549 -0.3585  0.2520  0.0189
 8107SOL    HW135783   2.934   3.245  17.547 -0.0553  0.2640  0.9799
 8107SOL    HW235784   2.886   3.115  17.472  1.2968 -3.5086  0.6856
 8108SOL     OW35785   0.920   1.014  14.038  0.2465  0.2781 -0.0172
 8108SOL    HW135786   0.979   0.945  14.007  2.2404  1.8566  0.2818
 8108SOL    HW235787   0.978   1.059  14.100 -1.0054  2.2148 -0.2451
 8109SOL     OW35788   3.619   0.511   0.284 -0.3192 -0.0572  0.1949
 8109SOL    HW135789   3.670   0.452   0.228 -0.7488  0.3036 -0.5663
 8109SOL    HW235790   3.569   0.558   0.218 -0.4864 -1.6441 -0.8289
 8110SOL     OW35791   0.215   1.025  13.256 -0.6898 -0.6889 -0.0660
 8110SOL    HW135792   0.202   1.029  13.162  1.2108  1.1354 -0.2529
 8110SOL    HW235793   0.134   1.070  13.281 -1.6304 -1.3421 -1.9402
 8111SOL     OW35794   2.652   3.169   6.339 -0.1359  0.1094  0.2014
 8111SOL    HW135795   2.726   3.218   6.376  0.8786 -0.4335 -1.1275
 8111SOL    HW235796   2.642   3.102   6.407 -0.6308  0.5183  0.5315
 8112SOL     OW35797   1.827   0.632  10.653  1.2705  0.4012  0.5165
 8112SOL    HW135798   1.769   0.595  10.587  0.2244 -0.4466  1.9016
 8112SOL    HW235799   1.898   0.670  10.601 -0.1165  0.7279 -1.1352
 8113SOL     OW35800   4.508   3.606  17.488  0.0078  0.2603 -0.3151
 8113SOL    HW135801   4.433   3.665  17.502  0.3976  0.9042 -0.9552
 8113SOL    HW235802   4.465   3.523  17.509  0.2396  1.3721  4.7261
 8114SOL     OW35803   3.888   1.130   1.786  0.0270 -0.1565  0.2130
 8114SOL    HW135804   3.910   1.190   1.715  0.1250  1.3351  1.5031
 8114SOL    HW235805   3.919   1.185   1.859  2.8911 -1.6589  0.1559
 8115SOL     OW35806   2.106   3.516   5.911 -0.0544 -0.1552  0.1942
 8115SOL    HW135807   2.129   3.434   5.955  2.5103  2.3306  3.5077
 8115SOL    HW235808   2.100   3.480   5.823 -2.4312 -0.3443  0.4451
 8116SOL     OW35809   0.840   1.142   5.612  0.5197  0.1855  0.1039
 8116SOL    HW135810   0.801   1.207   5.669  0.3549  1.1757 -1.1513
 8116SOL    HW235811   0.859   1.069   5.672 -0.6312  0.2176  0.5006
 8117SOL     OW35812   2.006   1.654  13.289 -0.4144 -0.0396  0.5837
 8117SOL    HW135813   1.964   1.664  13.374 -1.4319 -1.0849  0.2166
 8117SOL    HW235814   1.949   1.586  13.252  1.7608 -3.1153  2.8813
 8118SOL     OW35815   0.524   1.083   6.586  0.4883 -0.4508 -0.1269
 8118SOL    HW135816   0.540   0.990   6.603  1.5292 -0.3163 -0.3581
 8118SOL    HW235817   0.535   1.071   6.492  2.4542 -0.6421  0.1376
 8119SOL     OW35818   0.197   2.454   8.362  0.0003 -0.2294 -0.7026
 8119SOL    HW135819   0.225   2.462   8.453  0.6329 -0.3906 -0.8847
 8119SOL    HW235820   0.148   2.536   8.363  1.0687  0.3649  1.9282
 8120SOL     OW35821   3.854   2.891   5.180  0.6423  0.3404  0.0192
 8120SOL    HW135822   3.866   2.984   5.162  0.4513  0.3030 -0.3032
 8120SOL    HW235823   3.879   2.856   5.095  0.1666  2.6994 -1.0746
 8121SOL     OW35824   2.226   2.092   1.507  0.1093  0.2044  0.2828
 8121SOL    HW135825   2.294   2.031   1.480 -0.8177 -1.4378  1.6627
 8121SOL    HW235826   2.168   2.030   1.551  0.4347 -0.6450 -0.4868
 8122SOL     OW35827   3.191   2.137  13.602 -0.3516  0.2309 -0.5642
 8122SOL    HW135828   3.253   2.112  13.534  0.3225  0.7366 -0.1362
 8122SOL    HW235829   3.113   2.102  13.560  1.1023 -0.3284 -2.8058
 8123SOL     OW35830   0.390   3.326   6.800  0.1534  0.0694 -0.3207
 8123SOL    HW135831   0.418   3.345   6.711 -2.2881 -0.0825 -1.1298
 8123SOL    HW235832   0.432   3.400   6.844  0.2584 -1.5758  2.3358
 8124SOL     OW35833   1.934   0.459   8.213  0.0669  0.1935 -0.8205
 8124SOL    HW135834   1.869   0.504   8.160 -0.1878  1.5565  0.6550
 8124SOL    HW235835   1.974   0.539   8.246 -0.9030  1.0314 -1.6829
 8125SOL     OW35836   1.574   3.179   9.194  0.5114 -0.7939 -0.2582
 8125SOL    HW135837   1.646   3.223   9.149  1.6302 -0.4037  1.8984
 8125SOL    HW235838   1.584   3.202   9.286  0.5927 -0.7169 -0.2860
 8126SOL     OW35839   3.935   0.888   5.919  0.5383  0.0528  0.1814
 8126SOL    HW135840   3.875   0.816   5.902 -1.4635  1.2515  2.1030
 8126SOL    HW235841   3.882   0.963   5.946 -0.4448 -0.8020  0.6292
 8127SOL     OW35842   3.275   4.437   6.073  0.3724  0.5925 -0.4198
 8127SOL    HW135843   3.215   4.370   6.106 -2.0132  3.0573  0.2203
 8127SOL    HW235844   3.299   4.408   5.985 -1.9096 -0.4810 -0.6917
 8128SOL     OW35845   2.941   4.541   2.473 -0.4091 -0.2716  0.0142
 8128SOL    HW135846   2.882   4.558   2.546 -1.2927 -0.1987 -0.7053
 8128SOL    HW235847   3.030   4.532   2.505 -0.9480  0.3847  1.7123
 8129SOL     OW35848   4.418   1.744   5.538 -0.1517  0.2997 -0.7938
 8129SOL    HW135849   4.506   1.737   5.574 -0.5831 -1.6687 -0.1468
 8129SOL    HW235850   4.363   1.713   5.609  0.6813 -0.1649 -0.3512
 8130SOL     OW35851   0.275   3.058   1.331 -0.2172 -0.3624 -0.5269
 8130SOL    HW135852   0.220   3.135   1.318  0.2059 -0.2475 -1.6942
 8130SOL    HW235853   0.350   3.075   1.274  0.5913  1.9999  1.2479
 8131SOL     OW35854   1.265   2.483   9.317  0.4287 -0.1581 -0.2003
 8131SOL    HW135855   1.353   2.517   9.329 -0.3256  1.4988  0.6700
 8131SOL    HW235856   1.251   2.422   9.390  0.3624 -0.2764 -0.3128
 8132SOL     OW35857   1.590   2.413   4.242 -0.1847  0.3434  0.0206
 8132SOL    HW135858   1.592   2.320   4.220 -0.1028  0.3342  0.0681
 8132SOL    HW235859   1.680   2.434   4.219  0.5143  1.4549  3.6763
 8133SOL     OW35860   3.279   0.566   8.763 -0.5718  0.0263  0.0771
 8133SOL    HW135861   3.338   0.592   8.692 -1.1878 -0.2463 -0.5362
 8133SOL    HW235862   3.309   0.627   8.831  0.0137 -0.7079  0.4659
 8134SOL     OW35863   1.816   0.321   0.003 -0.3155  0.0647 -0.7240
 8134SOL    HW135864   1.759   0.265  17.642 -1.1416 -0.7033  0.9411
 8134SOL    HW235865   1.841   0.265   0.076  0.8345  3.0227  1.1195
 8135SOL     OW35866   0.791   2.903   8.679 -1.0315  0.3632  1.2366
 8135SOL    HW135867   0.712   2.957   8.677 -0.1044  1.6388 -2.5429
 8135SOL    HW235868   0.792   2.887   8.584 -4.3881 -1.6468  1.5434
 8136SOL     OW35869   3.550   3.072  12.519  0.3043  0.0972 -0.4259
 8136SOL    HW135870   3.636   3.043  12.552  1.3032  2.6186 -0.7821
 8136SOL    HW235871   3.569   3.162  12.492 -0.4891 -0.0926 -1.5765
 8137SOL     OW35872   2.490   1.871   4.014 -0.7844 -0.2677  0.2985
 8137SOL    HW135873   2.475   1.960   4.046  0.2412  0.7786 -2.1100
 8137SOL    HW235874   2.451   1.864   3.926  0.8789 -2.4060 -0.2676
 8138SOL     OW35875   2.763   2.101   4.694  0.1599 -0.1459 -0.1450
 8138SOL    HW135876   2.786   2.159   4.621 -0.3663 -1.3452 -1.2724
 8138SOL    HW235877   2.769   2.019   4.646 -0.6191  0.0409 -0.5627
 8139SOL     OW35878   2.423   1.977   7.177  0.3033 -0.8588 -0.8100
 8139SOL    HW135879   2.380   2.061   7.192 -0.7442 -1.2386 -1.6817
 8139SOL    HW235880   2.439   1.961   7.270 -0.4634 -1.4934 -0.7890
 8140SOL     OW35881   2.617   2.644   1.850  0.1754  0.4994 -0.6342
 8140SOL    HW135882   2.667   2.658   1.770  0.6155  1.1700 -0.2347
 8140SOL    HW235883   2.528   2.635   1.817  0.0854 -1.0005 -0.0207
 8141SOL     OW35884   0.895   1.244   3.682  0.0225 -0.7597 -0.0248
 8141SOL    HW135885   0.850   1.320   3.719  1.5378  1.1165 -2.0183
 8141SOL    HW235886   0.984   1.273   3.701  0.1950 -1.9768  1.0413
 8142SOL     OW35887   0.478   1.545  11.390 -0.1315  0.3580  0.3345
 8142SOL    HW135888   0.502   1.522  11.301 -0.3654 -0.7388  0.5571
 8142SOL    HW235889   0.566   1.562  11.425  1.0982  0.4306 -2.7974
 8143SOL     OW35890   4.588   2.558  14.824 -0.7287 -0.1339 -0.0332
 8143SOL    HW135891   4.545   2.473  14.832  1.1448 -1.1708 -0.7845
 8143SOL    HW235892   4.590   2.580  14.917 -0.1315  1.4992 -0.4238
 8144SOL     OW35893   1.288   2.933   2.487  0.4471 -0.6634 -0.3619
 8144SOL    HW135894   1.199   2.902   2.506  0.0831  0.7295  0.1899
 8144SOL    HW235895   1.306   2.910   2.396  0.1132  2.7488 -1.3149
 8145SOL     OW35896   0.499   1.686   2.810  0.9935 -1.2496  0.1416
 8145SOL    HW135897   0.463   1.626   2.745  0.7907  2.1866 -2.9414
 8145SOL    HW235898   0.588   1.690   2.776  0.4437 -2.9299 -1.4471
 8146SOL     OW35899   0.490   4.081  13.694 -0.5351 -0.5049  0.1239
 8146SOL    HW135900   0.461   3.990  13.703 -0.2328 -0.5800  0.3190
 8146SOL    HW235901   0.430   4.124  13.633  0.3093  2.7191  1.5749
 8147SOL     OW35902   1.115   0.171  16.559  0.2011 -0.1896 -0.1815
 8147SOL    HW135903   1.182   0.166  16.626 -0.0408 -1.3574 -0.0143
 8147SOL    HW235904   1.032   0.155  16.606 -0.5267  3.3543 -0.3094
 8148SOL     OW35905   3.965   3.157   7.635  0.2298  0.4947  0.1444
 8148SOL    HW135906   4.047   3.206   7.630 -0.8886  2.1593 -2.0253
 8148SOL    HW235907   3.991   3.099   7.707 -1.2655 -1.1636 -0.6574
 8149SOL     OW35908   1.383   0.528   4.986 -0.5933 -0.2294  0.5351
 8149SOL    HW135909   1.308   0.585   5.005  0.1405  0.3082  1.8165
 8149SOL    HW235910   1.389   0.480   5.069  0.4910 -1.1320 -0.0653
 8150SOL     OW35911   4.707   0.863  11.450 -0.4710 -0.0312  0.1721
 8150SOL    HW135912   4.709   0.860  11.546  0.5863 -0.7916  0.1348
 8150SOL    HW235913   0.072   0.896  11.431 -0.2284  0.9315  2.9663
 8151SOL     OW35914   1.367   0.428  13.341 -0.6772 -0.2551  0.2170
 8151SOL    HW135915   1.404   0.472  13.417  1.6606 -1.6392 -0.1312
 8151SOL    HW235916   1.382   0.345  13.386 -0.0208 -1.4597 -2.2380
 8152SOL     OW35917   1.099   0.469  11.161  0.0180  0.3993  0.1052
 8152SOL    HW135918   1.176   0.429  11.202 -1.1391 -1.1576  0.7610
 8152SOL    HW235919   1.059   0.533  11.220  1.2339  1.3611 -0.1097
 8153SOL     OW35920   2.968   0.115   2.708  0.3728 -0.7684  0.1038
 8153SOL    HW135921   2.932   0.031   2.736  1.5640 -0.9340  1.1890
 8153SOL    HW235922   3.025   0.088   2.636  1.8381  0.3071  0.8496
 8154SOL     OW35923   1.133   0.124  12.619  0.2599 -0.1993  0.1955
 8154SOL    HW135924   1.157   0.104  12.528 -0.5908  2.2040 -0.5704
 8154SOL    HW235925   1.191   0.192  12.651  0.3242 -1.2513  2.2961
 8155SOL     OW35926   0.520   2.722  16.813 -0.0510 -0.5008 -0.1821
 8155SOL    HW135927   0.570   2.723  16.895 -1.1544  2.9081  0.4395
 8155SOL    HW235928   0.582   2.670  16.762  0.2720  1.4318 -1.7572
 8156SOL     OW35929   4.264   4.088  15.596 -0.5479  0.0051 -0.1726
 8156SOL    HW135930   4.290   4.180  15.595 -1.0448  0.1676  0.8846
 8156SOL    HW235931   4.174   4.083  15.629 -1.1511  1.3530 -1.6291
 8157SOL     OW35932   1.700   0.840   2.271 -0.5493  0.1407  0.1913
 8157SOL    HW135933   1.689   0.843   2.366 -3.5703  2.1921 -0.2286
 8157SOL    HW235934   1.634   0.906   2.250 -0.2628 -0.2598 -1.9805
 8158SOL     OW35935   2.457   2.863   3.654  0.4206  0.2031 -0.4544
 8158SOL    HW135936   2.480   2.911   3.733 -0.4028 -0.5681  0.2484
 8158SOL    HW235937   2.363   2.880   3.646  0.2126 -0.2979  1.0179
 8159SOL     OW35938   4.511   1.546   7.974  0.0624  0.2233  0.1140
 8159SOL    HW135939   4.582   1.521   7.915 -2.8298 -0.9980 -2.8697
 8159SOL    HW235940   4.526   1.485   8.046 -1.4962  1.5896  1.6055
 8160SOL     OW35941   2.042   3.829   0.732 -0.4265 -0.1782 -0.4595
 8160SOL    HW135942   2.002   3.865   0.653  0.7482  1.7973 -0.1352
 8160SOL    HW235943   2.124   3.796   0.696  0.0241  1.0738 -0.5774
 8161SOL     OW35944   1.492   1.438  10.976  0.0558  0.3230  0.4074
 8161SOL    HW135945   1.416   1.484  10.939  0.6764  0.3206 -0.8628
 8161SOL    HW235946   1.562   1.492  10.940 -0.5719  0.9991  0.2143
 8162SOL     OW35947   3.033   0.561  16.933 -0.2072 -0.2925 -0.2832
 8162SOL    HW135948   2.962   0.592  16.989  0.0227  1.0512 -0.7274
 8162SOL    HW235949   2.987   0.576  16.850  1.2577  0.8269 -0.8804
 8163SOL     OW35950   0.634   0.944  11.835 -0.4075  0.0843  0.5616
 8163SOL    HW135951   0.573   0.895  11.780  1.6946  1.0346 -2.6199
 8163SOL    HW235952   0.671   0.868  11.879 -0.8817 -0.1987  0.4680
 8164SOL     OW35953   2.701   3.380   0.314  0.2529  0.7134 -0.1225
 8164SOL    HW135954   2.792   3.351   0.308 -0.2473 -0.8191 -0.2607
 8164SOL    HW235955   2.689   3.413   0.404  2.3725  1.7441 -0.2254
 8165SOL     OW35956   4.231   3.609   3.828  0.0715  0.8067 -0.0707
 8165SOL    HW135957   4.231   3.692   3.780 -0.4424 -0.3855 -2.1504
 8165SOL    HW235958   4.285   3.635   3.903 -0.0625 -1.9319  0.9690
 8166SOL     OW35959   1.480   2.523  13.343 -0.1619  0.0571  0.1041
 8166SOL    HW135960   1.392   2.522  13.381 -0.4772 -0.7109 -0.6466
 8166SOL    HW235961   1.534   2.506  13.420  1.0860 -1.5851 -1.1302
 8167SOL     OW35962   1.512   1.438   7.815  0.8616  0.0600  0.0435
 8167SOL    HW135963   1.417   1.435   7.819  0.7630  1.2628 -1.6697
 8167SOL    HW235964   1.520   1.445   7.911 -1.6556 -0.1066  0.2628
 8168SOL     OW35965   3.416   4.120   8.068  0.3990 -0.1296 -0.0893
 8168SOL    HW135966   3.491   4.129   8.009 -0.0870  1.2713 -0.5177
 8168SOL    HW235967   3.409   4.209   8.104 -0.0155 -0.5792  0.9232
 8169SOL     OW35968   0.179   1.920   0.427  0.1171  0.1989  0.7598
 8169SOL    HW135969   0.094   1.926   0.470 -0.3093 -2.2531  0.2616
 8169SOL    HW235970   0.171   2.004   0.381 -0.4749 -1.2257 -1.7742
 8170SOL     OW35971   3.902   3.121  11.013  0.2349  0.4297  0.2422
 8170SOL    HW135972   3.826   3.065  11.026 -1.8418  3.7167  2.4209
 8170SOL    HW235973   3.980   3.077  11.047  0.1619  2.5451  3.1544
 8171SOL     OW35974   0.358   0.251   4.584  0.1805 -0.3215 -0.2477
 8171SOL    HW135975   0.444   0.233   4.547 -0.8409 -4.0269 -0.8054
 8171SOL    HW235976   0.344   0.180   4.647  1.5584  0.0161  0.4360
 8172SOL     OW35977   2.693   0.073   2.172  0.2899 -0.5764  0.7181
 8172SOL    HW135978   2.652   0.158   2.186 -0.4579 -0.2415 -3.3156
 8172SOL    HW235979   2.786   0.093   2.181  0.7092 -0.4804 -3.5283
 8173SOL     OW35980   1.703   3.002   4.518 -0.0984 -0.2656  0.2525
 8173SOL    HW135981   1.708   2.997   4.422 -2.3464  2.6395  0.0170
 8173SOL    HW235982   1.775   3.062   4.538 -0.1160  0.6671 -2.4650
 8174SOL     OW35983   2.918   0.976   2.447 -0.5015 -0.3263 -0.2880
 8174SOL    HW135984   3.004   1.016   2.432 -0.5925  0.2062  0.6663
 8174SOL    HW235985   2.918   0.923   2.367 -0.2821  1.1121 -1.2345
 8175SOL     OW35986   4.401   1.629   6.824  0.5744  0.1299  0.8194
 8175SOL    HW135987   4.446   1.691   6.881 -1.7960  0.9627  1.8276
 8175SOL    HW235988   4.313   1.666   6.833  0.8040  0.7717  0.4467
 8176SOL     OW35989   1.888   0.755   4.600 -0.3347  0.4958 -0.4180
 8176SOL    HW135990   1.831   0.827   4.574  0.5260  0.6343 -1.9344
 8176SOL    HW235991   1.970   0.779   4.557 -0.5454  0.5472 -0.7928
 8177SOL     OW35992   3.554   2.912   2.598  0.0733 -0.4023 -0.3321
 8177SOL    HW135993   3.566   3.006   2.613 -3.3494 -0.2462  1.4537
 8177SOL    HW235994   3.644   2.880   2.589 -0.6989 -2.3949 -1.0518
 8178SOL     OW35995   3.712   1.394  15.881  0.2449 -0.2322 -0.5607
 8178SOL    HW135996   3.629   1.423  15.918  2.5078  1.9589  2.8601
 8178SOL    HW235997   3.686   1.311  15.841 -1.0810  1.8129 -3.9268
 8179SOL     OW35998   2.171   1.070   8.423  0.1577  0.0760  0.1859
 8179SOL    HW135999   2.263   1.088   8.403 -0.1577  0.5591 -0.8491
 8179SOL    HW236000   2.133   1.150   8.460  0.7417  1.1381 -1.5023
 8180SOL     OW36001   3.227   1.167   4.755 -0.0791  0.0763 -1.1121
 8180SOL    HW136002   3.218   1.123   4.671  0.5626  0.8520 -1.5846
 8180SOL    HW236003   3.141   1.207   4.767  0.4959  0.1870  2.8217
 8181SOL     OW36004   4.704   1.608   7.701 -0.0870  0.1779 -0.1398
 8181SOL    HW136005   0.074   1.633   7.704 -0.4571  1.1886  2.8865
 8181SOL    HW236006   4.702   1.530   7.757  0.6658  0.3731  0.1588
 8182SOL     OW36007   2.410   0.507   0.458 -0.2254 -0.0884  0.0453
 8182SOL    HW136008   2.445   0.596   0.465  1.2486 -0.7575  1.2756
 8182SOL    HW236009   2.459   0.469   0.385 -0.2681  1.9511 -1.0619
 8183SOL     OW36010   2.938   4.588  10.488  0.3216  0.6843 -0.3189
 8183SOL    HW136011   2.928   4.495  10.509  2.1361  0.8117  1.0390
 8183SOL    HW236012   2.859   4.613  10.438 -0.0350 -1.7653 -0.9811
 8184SOL     OW36013   2.777   3.713   1.156 -0.0687 -0.6667  0.2227
 8184SOL    HW136014   2.720   3.749   1.088  0.2952 -0.2311  0.1556
 8184SOL    HW236015   2.839   3.784   1.168 -2.3053  1.6514 -2.0580
 8185SOL     OW36016   1.481   2.259   8.486  0.1598  0.0343 -0.0209
 8185SOL    HW136017   1.447   2.191   8.427 -0.9278  0.1520  0.4759
 8185SOL    HW236018   1.420   2.247   8.559 -1.1543  1.3646 -0.9052
 8186SOL     OW36019   4.129   2.373   0.474  0.3831 -0.6971  0.2091
 8186SOL    HW136020   4.161   2.447   0.526 -1.2990  1.2722 -1.5682
 8186SOL    HW236021   4.052   2.348   0.526 -0.4144  5.5668  2.0753
 8187SOL     OW36022   3.695   4.094   7.241  0.5896  0.7496 -0.6793
 8187SOL    HW136023   3.653   4.037   7.306 -2.3330  2.0015 -1.4364
 8187SOL    HW236024   3.744   4.030   7.190 -0.4833 -0.5479 -0.0939
 8188SOL     OW36025   2.961   2.776   9.349 -0.4425 -0.5196  0.1098
 8188SOL    HW136026   2.976   2.839   9.420  0.5820 -0.7736  0.1153
 8188SOL    HW236027   2.922   2.832   9.282  0.9135  3.2286  2.4533
 8189SOL     OW36028   4.574   4.490  11.164  0.1309  0.2537  0.0655
 8189SOL    HW136029   4.564   4.571  11.115  0.7262  1.3879  1.8262
 8189SOL    HW236030   4.631   4.515  11.236  0.0372  3.0464 -0.8357
 8190SOL     OW36031   0.625   3.092   3.729 -0.2053  0.1008  0.1159
 8190SOL    HW136032   0.533   3.117   3.739 -1.0438 -1.5834 -3.2102
 8190SOL    HW236033   0.621   2.997   3.716  0.9379  0.1290 -0.4095
 8191SOL     OW36034   4.504   2.566  14.569 -0.2012  0.3787 -0.0363
 8191SOL    HW136035   4.584   2.565  14.516 -0.1333  4.7218 -0.0014
 8191SOL    HW236036   4.546   2.551  14.654  0.9698 -0.6839 -0.7892
 8192SOL     OW36037   3.899   2.192   4.724 -0.1334 -0.5500 -0.6341
 8192SOL    HW136038   3.848   2.227   4.650  2.1178  1.3343 -1.2955
 8192SOL    HW236039   3.983   2.235   4.706 -0.5313  0.3475 -0.3371
 8193SOL     OW36040   1.166   0.001   4.630 -0.2473  0.3194 -0.4468
 8193SOL    HW136041   1.157   4.629   4.621 -1.6391  0.2915  1.1893
 8193SOL    HW236042   1.083   0.028   4.670  0.7070  1.0514  1.0242
 8194SOL     OW36043   4.483   1.182   6.993  0.3899  0.6927  0.1544
 8194SOL    HW136044   4.444   1.219   7.073  0.3509  1.3625 -0.1702
 8194SOL    HW236045   4.540   1.252   6.962  1.4521 -0.2621 -0.0355
 8195SOL     OW36046   1.914   3.085   5.129 -0.4680 -0.0088  0.0462
 8195SOL    HW136047   1.973   3.044   5.066 -0.9790 -0.2471 -0.2800
 8195SOL    HW236048   1.831   3.077   5.082  0.1341 -0.3406 -0.9568
 8196SOL     OW36049   3.787   1.064   7.913 -0.2378 -0.3489 -0.9079
 8196SOL    HW136050   3.851   1.135   7.908  0.3384 -0.6394  2.2413
 8196SOL    HW236051   3.787   1.046   7.819  2.1722 -0.4796 -0.8728
 8197SOL     OW36052   3.443   2.623   2.537 -0.4242  0.4383 -0.3432
 8197SOL    HW136053   3.403   2.578   2.462 -1.6825  1.2924 -0.1852
 8197SOL    HW236054   3.477   2.703   2.496  0.2984  0.7431  0.8563
 8198SOL     OW36055   1.128   2.301   2.291  0.1321  0.3220  0.1450
 8198SOL    HW136056   1.177   2.274   2.213 -0.0069  1.9509 -0.5188
 8198SOL    HW236057   1.088   2.386   2.268 -1.4157 -0.0002  1.6679
 8199SOL     OW36058   1.607   3.560   6.948 -0.4876 -0.1706  0.3242
 8199SOL    HW136059   1.694   3.596   6.931 -0.8927  0.3360 -0.6471
 8199SOL    HW236060   1.556   3.638   6.927  1.3689  1.0857  0.4315
 8200SOL     OW36061   0.231   2.970  10.572 -0.7694 -0.9016 -0.4936
 8200SOL    HW136062   0.153   2.955  10.626 -0.6544 -1.2552 -0.4241
 8200SOL    HW236063   0.245   3.060  10.603 -1.1666 -1.0796  0.2095
 8201SOL     OW36064   0.297   1.765   8.353 -0.1543 -0.0925  0.1010
 8201SOL    HW136065   0.327   1.839   8.299 -2.9274  0.3691 -0.8134
 8201SOL    HW236066   0.202   1.758   8.345  0.1281 -2.1614 -1.3366
 8202SOL     OW36067   4.319   0.132   6.828  0.0037 -0.3113 -0.1415
 8202SOL    HW136068   4.355   0.187   6.898  1.4435 -1.2691 -0.1291
 8202SOL    HW236069   4.399   0.125   6.776  1.8493  1.4572  2.4331
 8203SOL     OW36070   3.609   0.736   9.125 -0.1978  0.0667  0.3440
 8203SOL    HW136071   3.669   0.662   9.122 -0.0991  0.1897 -0.7661
 8203SOL    HW236072   3.641   0.801   9.062 -1.4439  0.3760  0.0449
 8204SOL     OW36073   2.706   2.554  16.032 -0.1865  0.0254  0.0646
 8204SOL    HW136074   2.654   2.625  16.071  0.9512  1.3546 -0.8390
 8204SOL    HW236075   2.666   2.483  16.082  0.8269  0.7678  1.9303
 8205SOL     OW36076   2.862   3.807   2.324  0.2198  0.6932  0.4088
 8205SOL    HW136077   2.865   3.712   2.337  0.7313  0.6736  0.1483
 8205SOL    HW236078   2.768   3.820   2.334  0.4663  2.1651  0.8727
 8206SOL     OW36079   3.845   1.027   3.048 -0.5393  0.2021  0.1694
 8206SOL    HW136080   3.816   1.039   2.957  0.5848 -0.6045 -0.2879
 8206SOL    HW236081   3.937   1.054   3.049  0.2993 -2.6856  0.7281
 8207SOL     OW36082   3.316   2.648   9.742  0.2528 -0.2302  0.0345
 8207SOL    HW136083   3.262   2.583   9.786 -0.8875  1.1832  0.7272
 8207SOL    HW236084   3.351   2.702   9.813 -1.5790  2.2478 -0.9376
 8208SOL     OW36085   1.073   2.962   8.773  0.2188 -0.1543  0.0517
 8208SOL    HW136086   1.077   3.010   8.691  1.0175  0.4965  0.4667
 8208SOL    HW236087   0.982   2.932   8.774  0.2657 -0.3409 -1.2760
 8209SOL     OW36088   4.409   2.008   7.850 -0.5592 -1.0048 -0.1003
 8209SOL    HW136089   4.326   2.056   7.851 -0.2549 -0.5233  1.6738
 8209SOL    HW236090   4.384   1.918   7.871 -1.2277 -0.6744  0.5215
 8210SOL     OW36091   1.709   4.015  15.820  0.1250 -0.1068 -0.3840
 8210SOL    HW136092   1.669   4.051  15.741  0.1816  0.7609 -0.0200
 8210SOL    HW236093   1.795   4.057  15.818  0.0946 -0.0285 -0.0257
 8211SOL     OW36094   4.635   2.335  10.890  0.3976  0.3359 -0.3307
 8211SOL    HW136095   4.681   2.415  10.916 -1.4507  1.9349 -2.0003
 8211SOL    HW236096   4.706   2.276  10.863  0.4737 -0.0339  0.6805
 8212SOL     OW36097   2.005   2.245   3.390 -0.2675  0.2665 -0.1475
 8212SOL    HW136098   1.934   2.274   3.332  0.7438 -0.2104 -1.6049
 8212SOL    HW236099   2.075   2.240   3.325  0.0626 -0.7956  0.2975
 8213SOL     OW36100   1.991   2.389   1.601 -0.1149  0.2276  0.3387
 8213SOL    HW136101   1.933   2.436   1.541  2.8961 -0.0053 -2.7691
 8213SOL    HW236102   1.947   2.306   1.619 -1.1749 -0.0622 -3.4468
 8214SOL     OW36103   2.351   0.578   4.311  0.3121  0.2586  0.2073
 8214SOL    HW136104   2.306   0.536   4.238  1.0360  0.9272 -0.6229
 8214SOL    HW236105   2.287   0.573   4.382 -0.5211  1.0610 -0.4953
 8215SOL     OW36106   4.321   3.772  15.859  0.4878 -0.0221 -0.3127
 8215SOL    HW136107   4.312   3.682  15.890 -1.2145 -0.5413 -2.2936
 8215SOL    HW236108   4.237   3.811  15.884 -0.4283 -1.7505 -0.6671
 8216SOL     OW36109   3.841   2.972   3.746  0.2901  0.1446  0.5302
 8216SOL    HW136110   3.904   2.913   3.785  3.0470  1.4208 -2.0050
 8216SOL    HW236111   3.847   2.954   3.652 -2.7140  2.5982 -0.1666
 8217SOL     OW36112   1.521   1.238  16.236 -0.0087  0.1130 -0.2115
 8217SOL    HW136113   1.559   1.183  16.305 -0.0728  1.0368  0.5662
 8217SOL    HW236114   1.440   1.189  16.221  0.9760 -1.3826 -0.6712
 8218SOL     OW36115   1.692   0.039   6.170  0.2106  0.2036  0.5983
 8218SOL    HW136116   1.745   4.713   6.106  0.6854 -0.5950  1.5879
 8218SOL    HW236117   1.646   0.099   6.112 -0.9042 -0.5818  0.6654
 8219SOL     OW36118   3.559   2.000   3.880  0.8639 -0.5533  0.2253
 8219SOL    HW136119   3.521   2.078   3.920 -0.0780 -1.2792  0.7489
 8219SOL    HW236120   3.607   2.040   3.807 -1.0088 -1.1622 -1.3254
 8220SOL     OW36121   4.179   1.820   9.974 -0.2453  0.2597 -0.0411
 8220SOL    HW136122   4.264   1.816   9.931 -0.1873  2.2327 -0.0732
 8220SOL    HW236123   4.119   1.793   9.904 -2.8207  1.9905  1.4933
 8221SOL     OW36124   0.842   1.095   8.006  0.2676 -0.5529 -0.3891
 8221SOL    HW136125   0.928   1.057   7.989  0.5225 -0.4106  0.5903
 8221SOL    HW236126   0.832   1.102   8.101  0.8874 -0.3481 -0.3373
 8222SOL     OW36127   3.269   1.198  15.235 -0.1608  0.2824 -0.3422
 8222SOL    HW136128   3.334   1.154  15.290  0.4868  1.7170  0.0411
 8222SOL    HW236129   3.252   1.124  15.177  2.5531  0.1432 -0.9622
 8223SOL     OW36130   0.347   2.507  10.309  0.1263 -0.9939  0.1960
 8223SOL    HW136131   0.321   2.583  10.360  2.6769 -0.6158  0.9323
 8223SOL    HW236132   0.382   2.549  10.230 -0.5498 -1.4440 -0.3499
 8224SOL     OW36133   1.815   1.308   8.329  0.1131  0.6282  0.2494
 8224SOL    HW136134   1.843   1.259   8.252  1.6414 -0.3645  1.4107
 8224SOL    HW236135   1.732   1.263   8.346 -0.1669  0.6444 -1.1044
 8225SOL     OW36136   2.670   0.899   7.604 -0.5556  0.0187  0.2997
 8225SOL    HW136137   2.581   0.924   7.628 -0.6317  0.3610 -0.3322
 8225SOL    HW236138   2.684   0.815   7.649  0.6494 -0.0680 -0.2181
 8226SOL     OW36139   2.311   4.058   6.429  0.6585  0.3548 -0.7849
 8226SOL    HW136140   2.281   4.083   6.517  1.4938  0.0805 -0.4177
 8226SOL    HW236141   2.240   4.094   6.377  0.3544  0.5593 -0.2346
 8227SOL     OW36142   3.164   0.048   8.477 -0.1365  0.2285 -0.1039
 8227SOL    HW136143   3.109   0.125   8.487  3.3501  2.4981  1.3905
 8227SOL    HW236144   3.101   4.703   8.503 -0.2438  0.4496  0.2056
 8228SOL     OW36145   3.891   4.447   5.289  0.0831 -0.1905  0.3431
 8228SOL    HW136146   3.961   4.513   5.297 -0.8559  0.9608 -0.8317
 8228SOL    HW236147   3.895   4.433   5.195 -0.9209  0.9997  0.1137
 8229SOL     OW36148   2.287   2.563   4.198  0.0899 -0.1159 -0.7832
 8229SOL    HW136149   2.244   2.624   4.139 -1.1676 -1.5177 -1.3085
 8229SOL    HW236150   2.261   2.608   4.278 -0.1562  0.4072 -1.1620
 8230SOL     OW36151   0.607   1.071   9.033  0.0939 -0.1265 -0.3033
 8230SOL    HW136152   0.539   1.099   9.094  0.3940  0.6140 -0.3110
 8230SOL    HW236153   0.685   1.111   9.069  1.2587  0.6007 -3.5935
 8231SOL     OW36154   4.716   2.223  14.521  0.2854 -1.0079  0.0929
 8231SOL    HW136155   0.051   2.287  14.562 -0.0805 -1.4638  1.3002
 8231SOL    HW236156   4.692   2.166  14.593 -2.0648 -0.8124 -0.5476
 8232SOL     OW36157   1.473   3.336   8.235 -0.1617  0.3154  0.1448
 8232SOL    HW136158   1.469   3.247   8.271  1.6176  0.7665  1.4711
 8232SOL    HW236159   1.544   3.327   8.170  0.1101  0.4243  0.4290
 8233SOL     OW36160   4.429   3.080   7.481 -0.1388  0.2727  0.2755
 8233SOL    HW136161   4.399   3.170   7.470  4.4631  1.4692 -2.1571
 8233SOL    HW236162   4.346   3.035   7.498 -2.2102  4.2832  0.7806
 8234SOL     OW36163   4.490   3.910   1.564 -0.0218 -0.1725 -0.5476
 8234SOL    HW136164   4.515   3.836   1.619 -0.7114  0.9052  1.1854
 8234SOL    HW236165   4.529   3.885   1.480 -0.9922  1.4501 -1.4700
 8235SOL     OW36166   1.007   2.378  16.085  0.5404 -0.3271  0.3889
 8235SOL    HW136167   1.040   2.322  16.156 -0.9713  1.3150  2.4070
 8235SOL    HW236168   1.087   2.429  16.070 -0.4986  1.6173  1.4574
 8236SOL     OW36169   3.081   4.355   5.559 -0.0746  0.1807 -0.5577
 8236SOL    HW136170   3.053   4.446   5.570  1.8375  0.9077 -1.6042
 8236SOL    HW236171   3.093   4.329   5.650  4.2081  2.5628 -0.4184
 8237SOL     OW36172   2.371   3.319  10.666  0.1082 -0.1252 -0.3308
 8237SOL    HW136173   2.278   3.306  10.646 -0.2519  1.1576  0.5725
 8237SOL    HW236174   2.379   3.268  10.746  1.0868 -0.6124 -0.7393
 8238SOL     OW36175   1.075   1.528  10.266  0.0176  0.0021  0.1095
 8238SOL    HW136176   0.988   1.496  10.291 -0.2236  0.6642  0.1183
 8238SOL    HW236177   1.135   1.461  10.299 -0.3989 -1.8198 -2.8394
 8239SOL     OW36178   2.208   1.715   3.280  0.6138 -0.2117 -0.7084
 8239SOL    HW136179   2.143   1.661   3.235 -0.2672  1.6043 -1.6467
 8239SOL    HW236180   2.174   1.712   3.369 -1.1489  0.3284 -1.3624
 8240SOL     OW36181   0.514   3.325   1.131 -0.5021  0.1576  0.1432
 8240SOL    HW136182   0.421   3.339   1.149 -0.3477  2.2051 -0.6681
 8240SOL    HW236183   0.550   3.384   1.197 -1.1876 -0.3724  0.9924
 8241SOL     OW36184   3.697   0.392   1.582 -0.3819  0.7247 -0.1889
 8241SOL    HW136185   3.781   0.394   1.627  0.4437 -2.5587 -1.5971
 8241SOL    HW236186   3.648   0.459   1.629  1.9908  2.7409 -0.6122
 8242SOL     OW36187   4.221   2.625   6.895  0.0972  0.6347 -0.3373
 8242SOL    HW136188   4.280   2.597   6.964 -0.3019 -2.0249 -1.0667
 8242SOL    HW236189   4.242   2.555   6.833 -0.1627 -1.4127  1.8898
 8243SOL     OW36190   0.344   0.039   4.779  0.1827 -0.2787  0.2515
 8243SOL    HW136191   0.286   4.687   4.792  0.5609 -0.3054  1.8187
 8243SOL    HW236192   0.396   0.037   4.859  1.0285  1.9224 -0.2401
 8244SOL     OW36193   4.604   0.581   1.900 -0.0022  0.2315 -0.2695
 8244SOL    HW136194   4.508   0.589   1.902  0.0042  0.4721 -0.9225
 8244SOL    HW236195   4.629   0.647   1.836  0.9356  0.5443  0.4240
 8245SOL     OW36196   0.292   1.680   3.786  0.1642 -0.5814  0.2228
 8245SOL    HW136197   0.229   1.632   3.733  0.1625 -0.3588  0.0276
 8245SOL    HW236198   0.336   1.607   3.830  1.7592  0.1081 -0.2200
 8246SOL     OW36199   4.538   0.402   8.486 -0.3321 -0.4767 -0.0022
 8246SOL    HW136200   4.600   0.375   8.553  0.8942 -3.2970 -2.2595
 8246SOL    HW236201   4.459   0.381   8.536  0.2074 -0.7527  0.7322
 8247SOL     OW36202   3.055   2.569   9.096  0.0849 -0.4320  0.4463
 8247SOL    HW136203   3.113   2.617   9.155  0.1277  1.2522 -0.9639
 8247SOL    HW236204   3.014   2.646   9.055 -1.0013 -1.1161  0.2510
 8248SOL     OW36205   4.058   1.077  17.249  0.1852  0.6787  0.3085
 8248SOL    HW136206   3.986   1.032  17.204 -1.3553  1.2629  2.1677
 8248SOL    HW236207   4.062   1.024  17.328 -0.5690  1.2577  0.7335
 8249SOL     OW36208   1.527   3.049   3.186 -0.8019 -0.1505  0.0202
 8249SOL    HW136209   1.534   3.116   3.253 -0.0866 -1.1990  1.0000
 8249SOL    HW236210   1.492   2.982   3.245 -0.3060 -1.5111 -1.2133
 8250SOL     OW36211   0.111   3.265   4.839  0.1196 -0.3523  0.4059
 8250SOL    HW136212   0.146   3.316   4.765  1.0087  0.3430  1.3126
 8250SOL    HW236213   0.018   3.286   4.852 -0.1064 -0.4735 -0.9885
 8251SOL     OW36214   1.772   0.756   1.063  0.3480  0.3350  0.2053
 8251SOL    HW136215   1.862   0.725   1.052 -0.9977 -4.3925  2.5257
 8251SOL    HW236216   1.730   0.699   0.999  0.1137  0.5516  0.1645
 8252SOL     OW36217   4.617   4.448   4.427 -0.6337 -0.0357 -0.6614
 8252SOL    HW136218   4.528   4.461   4.458 -0.4080 -1.6026  0.6384
 8252SOL    HW236219   4.666   4.516   4.473 -1.3284  1.1234 -1.6380
 8253SOL     OW36220   3.396   3.901   3.116 -0.0503  0.2195  0.2392
 8253SOL    HW136221   3.371   3.885   3.025  0.3665 -1.1648  0.3615
 8253SOL    HW236222   3.309   3.893   3.155 -0.0135 -2.9443 -0.2811
 8254SOL     OW36223   0.893   0.171  10.129  0.4994  0.3832 -0.0950
 8254SOL    HW136224   0.864   0.253  10.171 -0.6918 -0.7464  1.3006
 8254SOL    HW236225   0.973   0.155  10.179  0.3749 -0.7980 -0.2752
 8255SOL     OW36226   3.636   4.533  17.035  0.4979  0.1642  0.1673
 8255SOL    HW136227   3.655   4.543  17.128 -0.4999  1.2260  0.2533
 8255SOL    HW236228   3.599   4.618  17.012 -0.5313 -0.5321 -0.7405
 8256SOL     OW36229   1.860   3.242   4.690  0.2883 -0.4070  0.1557
 8256SOL    HW136230   1.911   3.281   4.619  1.1554 -2.0588 -0.1232
 8256SOL    HW236231   1.932   3.235   4.751  1.5223  1.9823 -1.0157
 8257SOL     OW36232   3.151   3.098  16.965 -0.1634  0.1819 -0.3261
 8257SOL    HW136233   3.077   3.069  17.018 -0.0166 -0.1406 -0.3017
 8257SOL    HW236234   3.132   3.037  16.895 -0.5593 -1.5242  1.2753
 8258SOL     OW36235   4.102   3.423   7.803 -0.4327  0.5398 -0.3530
 8258SOL    HW136236   4.109   3.376   7.720  0.6707  0.6606 -0.3235
 8258SOL    HW236237   4.192   3.423   7.835  0.2027 -0.5026 -2.1216
 8259SOL     OW36238   4.368   2.505   7.909  0.0116 -0.2380 -0.4206
 8259SOL    HW136239   4.297   2.514   7.845  0.6248 -0.3312 -1.1139
 8259SOL    HW236240   4.322   2.485   7.990 -1.8736 -0.1532 -1.4798
 8260SOL     OW36241   3.340   1.913   2.386  0.3568 -0.0086  0.6133
 8260SOL    HW136242   3.285   1.859   2.330 -0.5322  2.1714 -0.6296
 8260SOL    HW236243   3.271   1.973   2.415  1.9550  1.7030  0.8947
 8261SOL     OW36244   0.292   2.531  10.604  0.5418  0.1540  0.0744
 8261SOL    HW136245   0.253   2.448  10.631  2.8839 -0.6947  0.8651
 8261SOL    HW236246   0.213   2.577  10.575 -0.1703 -1.2930 -0.2702
 8262SOL     OW36247   4.540   1.981   0.268 -0.2664  0.5498  0.3352
 8262SOL    HW136248   4.528   1.962   0.361 -1.3077  0.5276  0.1965
 8262SOL    HW236249   4.578   2.068   0.274  2.7585 -0.7928  0.8315
 8263SOL     OW36250   3.675   0.689   3.161 -0.1519 -0.1616  0.6264
 8263SOL    HW136251   3.658   0.765   3.216  1.7591  1.0038 -0.3787
 8263SOL    HW236252   3.612   0.711   3.092 -0.1422  1.1320  1.0255
 8264SOL     OW36253   1.641   4.076   1.265 -0.2012 -0.7167 -0.1141
 8264SOL    HW136254   1.554   4.060   1.228 -0.9408 -2.1885  2.2164
 8264SOL    HW236255   1.685   4.138   1.207 -1.1148 -1.1729 -1.2759
 8265SOL     OW36256   2.116   2.743   2.836 -0.2294  0.0121 -0.4461
 8265SOL    HW136257   2.088   2.706   2.753 -0.9587 -0.2396 -0.0808
 8265SOL    HW236258   2.036   2.766   2.883 -0.2833  0.8676 -0.9523
 8266SOL     OW36259   2.309   3.266   1.273 -0.3704  0.0355  0.1824
 8266SOL    HW136260   2.257   3.299   1.200 -0.2116 -2.8055 -1.2026
 8266SOL    HW236261   2.392   3.308   1.249 -0.5391  0.9417  1.1877
 8267SOL     OW36262   4.047   1.584  15.569 -0.1403  0.9301 -0.2676
 8267SOL    HW136263   4.019   1.676  15.560 -0.1726  1.1247  1.8205
 8267SOL    HW236264   4.082   1.575  15.481 -0.8954 -2.0698 -0.2490
 8268SOL     OW36265   2.380   0.095  14.381 -0.1134 -0.2756 -0.4780
 8268SOL    HW136266   2.461   0.046  14.395  0.8830  0.6513 -3.0984
 8268SOL    HW236267   2.309   0.042  14.417 -0.0966  1.6010  2.3230
 8269SOL     OW36268   0.324   2.994  12.657 -0.0075  0.2733 -0.4551
 8269SOL    HW136269   0.336   3.071  12.600 -0.1401  2.3313  2.3269
 8269SOL    HW236270   0.367   2.922  12.611  0.0923  0.3593 -0.4978
 8270SOL     OW36271   0.108   3.530   3.239 -0.4923  0.4638 -0.4147
 8270SOL    HW136272   0.104   3.463   3.307  1.5099  1.8691  1.0970
 8270SOL    HW236273   0.103   3.467   3.167  1.4771  0.6947 -0.7685
 8271SOL     OW36274   1.139   4.038   5.401  0.2166 -0.4539  0.1796
 8271SOL    HW136275   1.139   4.022   5.307  0.0593 -1.6224  0.3787
 8271SOL    HW236276   1.216   4.095   5.404  0.1476 -0.3500 -0.0620
 8272SOL     OW36277   0.954   0.816  17.591 -0.2246 -0.0194  0.1334
 8272SOL    HW136278   0.957   0.721  17.603  1.6848 -0.2824 -2.2714
 8272SOL    HW236279   0.884   0.831  17.529  0.5844  1.2119 -0.4794
 8273SOL     OW36280   0.600   2.187   6.372  0.1916 -0.4200 -0.3695
 8273SOL    HW136281   0.532   2.197   6.439  0.4826  2.5123 -0.5051
 8273SOL    HW236282   0.549   2.142   6.304 -1.5307 -0.0346  0.6510
 8274SOL     OW36283   3.266   0.307   0.026  0.2681  0.1308 -0.2975
 8274SOL    HW136284   3.260   0.232  17.660  1.6879  0.0447 -0.3116
 8274SOL    HW236285   3.359   0.322   0.038  0.2822  0.8541 -1.3346
 8275SOL     OW36286   1.318   2.596   2.332  0.1719 -0.3113  0.0022
 8275SOL    HW136287   1.342   2.687   2.314  1.3290 -0.6611 -0.1999
 8275SOL    HW236288   1.397   2.543   2.323  1.7736  1.9201  0.8858
 8276SOL     OW36289   4.025   3.590   3.486  0.9353 -0.5291 -0.1903
 8276SOL    HW136290   4.100   3.646   3.462  0.4470  0.4810  0.6395
 8276SOL    HW236291   3.999   3.567   3.397 -1.8071  2.8759 -0.2524
 8277SOL     OW36292   2.723   1.894   8.951 -0.1866 -0.1101  0.0336
 8277SOL    HW136293   2.700   1.986   8.958 -0.0471 -0.1113  0.4975
 8277SOL    HW236294   2.688   1.856   9.032  1.1056 -1.9322 -0.2613
 8278SOL     OW36295   1.402   2.524   4.038 -0.0561  0.2395  0.0446
 8278SOL    HW136296   1.399   2.475   3.956 -1.2051 -0.1739  0.3340
 8278SOL    HW236297   1.421   2.444   4.087  0.7964  1.0187  0.9647
 8279SOL     OW36298   0.355   0.256  15.633  0.4090  0.4234  0.3809
 8279SOL    HW136299   0.307   0.190  15.683 -0.1087  1.8222  1.6884
 8279SOL    HW236300   0.290   0.325  15.639 -2.0194 -1.8149 -0.1202
 8280SOL     OW36301   2.945   2.824   8.986 -0.5029 -0.0389  0.1213
 8280SOL    HW136302   2.930   2.890   9.053 -0.0007  0.6085 -0.4094
 8280SOL    HW236303   2.999   2.879   8.929  0.2002 -1.8741 -0.9691
 8281SOL     OW36304   0.445   4.681  15.878  0.0383 -0.3996  0.0310
 8281SOL    HW136305   0.377   4.678  15.811 -0.6334  0.0073  0.6948
 8281SOL    HW236306   0.393   4.684  15.958  0.3575  0.1769  0.2132
 8282SOL     OW36307   0.714   1.355   2.957 -0.0720  0.6271 -0.9468
 8282SOL    HW136308   0.706   1.265   2.925  1.9930  0.2099 -0.2680
 8282SOL    HW236309   0.741   1.327   3.044  1.4133 -0.4091 -1.7361
 8283SOL     OW36310   1.914   0.189  17.429  1.0930  0.1217  0.0403
 8283SOL    HW136311   1.913   0.277  17.392 -0.2924 -0.8698 -2.3043
 8283SOL    HW236312   1.933   0.226  17.515 -2.8345  0.9437  0.5360
 8284SOL     OW36313   2.635   4.379   2.935 -0.0268 -0.1320 -0.0504
 8284SOL    HW136314   2.679   4.353   2.854 -2.9772 -1.3382 -1.2904
 8284SOL    HW236315   2.600   4.464   2.909 -0.2965 -0.9926 -2.4979
 8285SOL     OW36316   2.180   2.937   1.899 -0.4427 -0.7307  0.0909
 8285SOL    HW136317   2.230   3.018   1.907 -2.7329  0.5023  2.1416
 8285SOL    HW236318   2.212   2.885   1.973 -1.3064 -1.7825 -0.2772
 8286SOL     OW36319   0.459   1.623   1.915  0.3702  0.4475  0.6924
 8286SOL    HW136320   0.518   1.682   1.869  1.0994  0.3495  1.4896
 8286SOL    HW236321   0.416   1.669   1.987  1.9740  1.8970  0.7384
 8287SOL     OW36322   2.140   3.799   6.467  0.3406  0.6979  0.5925
 8287SOL    HW136323   2.056   3.756   6.454  0.7869  0.2388 -0.7768
 8287SOL    HW236324   2.149   3.838   6.380 -0.2661  1.8179  1.0336
 8288SOL     OW36325   2.067   3.829   2.816  0.5192 -0.3580  0.0964
 8288SOL    HW136326   2.145   3.851   2.867  0.6679 -0.2714 -0.1740
 8288SOL    HW236327   2.038   3.917   2.791  0.4860 -0.2862  0.3794
 8289SOL     OW36328   4.252   0.462  13.287 -0.7972  0.5682 -0.4451
 8289SOL    HW136329   4.303   0.425  13.216 -0.6091 -0.9726  0.5025
 8289SOL    HW236330   4.166   0.475  13.247 -1.7567 -1.1060  1.0461
 8290SOL     OW36331   2.734   3.684   9.776 -0.5482  0.2868 -0.2548
 8290SOL    HW136332   2.761   3.723   9.692 -0.6326  1.5701  0.3154
 8290SOL    HW236333   2.666   3.745   9.802 -1.5613  0.4026 -3.1546
 8291SOL     OW36334   3.925   2.941   5.568 -0.3401  0.3420 -0.3932
 8291SOL    HW136335   3.950   3.021   5.521 -1.2501 -0.1323 -1.6814
 8291SOL    HW236336   3.949   2.885   5.493  1.6808  0.3461  0.2363
 8292SOL     OW36337   0.593   0.003   6.169  0.1120  0.1281  0.4995
 8292SOL    HW136338   0.600   4.695   6.259  0.6567 -0.0876  0.3849
 8292SOL    HW236339   0.673   4.677   6.149  0.6195  0.5675  1.5169
 8293SOL     OW36340   0.636   4.215   0.594 -0.1085 -0.0240 -0.1649
 8293SOL    HW136341   0.662   4.166   0.673 -0.4505 -0.3668 -0.2640
 8293SOL    HW236342   0.646   4.307   0.616 -0.9557  0.1224 -0.4195
 8294SOL     OW36343   2.825   1.172   9.546  0.3618 -0.0646 -0.6496
 8294SOL    HW136344   2.766   1.244   9.563  1.5182  1.0156 -1.2215
 8294SOL    HW236345   2.910   1.211   9.526 -0.1834  1.5376  0.1910
 8295SOL     OW36346   3.412   0.509   2.890  0.3331  0.2543  0.4647
 8295SOL    HW136347   3.393   0.493   2.983  1.0678 -0.3330  0.5179
 8295SOL    HW236348   3.485   0.570   2.890  0.5821 -0.0539  4.9081
 8296SOL     OW36349   4.119   1.145   6.249 -0.3564 -0.2944  0.1010
 8296SOL    HW136350   4.062   1.222   6.250 -0.8107 -0.6444  1.1818
 8296SOL    HW236351   4.165   1.155   6.332 -1.0184  0.0929  0.4212
 8297SOL     OW36352   2.158   1.101   3.877  0.2561  0.3032 -0.3413
 8297SOL    HW136353   2.189   1.010   3.885 -0.7626  0.1348  1.9083
 8297SOL    HW236354   2.154   1.105   3.782  1.3237  0.5355 -0.3687
 8298SOL     OW36355   2.296   3.084   7.727  0.5104 -0.0568 -0.9035
 8298SOL    HW136356   2.329   3.117   7.811  0.1173  0.8117 -1.0797
 8298SOL    HW236357   2.327   3.155   7.670  0.5150  1.7857  1.3737
 8299SOL     OW36358   3.305   1.503   7.304 -0.2476 -0.9171 -0.4415
 8299SOL    HW136359   3.277   1.463   7.222 -1.0977  0.0793 -0.6444
 8299SOL    HW236360   3.398   1.485   7.293 -0.3245 -1.8859  0.5386
 8300SOL     OW36361   0.385   2.385   6.169 -0.5062 -0.1694 -0.1782
 8300SOL    HW136362   0.391   2.379   6.264  0.6278  0.7383 -0.1949
 8300SOL    HW236363   0.326   2.456   6.145  1.7632  1.7677  0.0132
 8301SOL     OW36364   1.863   0.378   2.604 -0.5308 -0.5259 -0.2666
 8301SOL    HW136365   1.955   0.405   2.615 -0.9216  1.2581 -1.2729
 8301SOL    HW236366   1.814   0.412   2.679 -0.4949 -0.6824 -0.1708
 8302SOL     OW36367   3.343   3.572   7.842 -0.1574 -0.1580  0.1853
 8302SOL    HW136368   3.425   3.614   7.815  0.7739 -0.8960  1.8061
 8302SOL    HW236369   3.278   3.637   7.816  1.8662  0.8677 -2.2006
 8303SOL     OW36370   1.833   3.897   6.879  0.4075  0.2821 -0.3096
 8303SOL    HW136371   1.779   3.918   6.955  1.0034  2.4969 -0.4862
 8303SOL    HW236372   1.907   3.849   6.915 -0.0694 -0.8798 -0.8957
 8304SOL     OW36373   4.250   4.719  13.763 -0.5904  0.0077  0.0403
 8304SOL    HW136374   4.213   4.638  13.726  0.4814 -0.3274 -0.2784
 8304SOL    HW236375   4.171   0.045  13.790 -1.0394 -1.2966  1.0742
 8305SOL     OW36376   0.358   2.305  16.026  0.3397  0.2925 -0.1814
 8305SOL    HW136377   0.399   2.388  16.000 -0.3530  0.3609 -1.0747
 8305SOL    HW236378   0.420   2.245  15.985 -0.1325 -0.5926  0.4107
 8306SOL     OW36379   4.269   0.024   2.071  0.2308 -0.5935 -0.1560
 8306SOL    HW136380   4.272   4.692   2.149  2.7110  0.3338  0.3766
 8306SOL    HW236381   4.189   4.720   2.024 -2.5568  1.3642  3.5172
 8307SOL     OW36382   3.105   3.316   6.515 -0.2679 -0.0064 -0.0281
 8307SOL    HW136383   3.186   3.304   6.465 -0.7666  0.1952 -0.8906
 8307SOL    HW236384   3.125   3.320   6.608 -2.4275  0.8026  0.3989
 8308SOL     OW36385   4.514   2.926  14.592 -0.4532  0.2872  0.7873
 8308SOL    HW136386   4.586   2.894  14.646 -0.4431 -0.1259  0.5244
 8308SOL    HW236387   4.493   2.846  14.544  2.2987 -1.5577  2.6715
 8309SOL     OW36388   1.853   4.719   7.835 -0.1095 -0.4916 -0.5821
 8309SOL    HW136389   1.871   0.044   7.915  0.6361 -0.8382 -0.5457
 8309SOL    HW236390   1.764   0.024   7.810  0.4207  0.9837 -0.7871
 8310SOL     OW36391   1.757   2.202   0.057  0.7917  0.1022 -0.3973
 8310SOL    HW136392   1.825   2.212  17.682  0.0940 -0.7029 -1.2219
 8310SOL    HW236393   1.675   2.198   0.007  0.9398  0.2099 -0.6510
 8311SOL     OW36394   4.174   1.933   8.044 -0.1017 -0.0905  0.2750
 8311SOL    HW136395   4.224   1.865   8.090  0.6864  0.2594 -0.0791
 8311SOL    HW236396   4.202   2.002   8.105 -0.8223  0.0887  0.3982
 8312SOL     OW36397   3.690   4.002  12.369 -0.4117  0.0942  0.2173
 8312SOL    HW136398   3.649   3.989  12.283  0.7754  0.0342 -0.3448
 8312SOL    HW236399   3.606   4.026  12.408 -1.3740 -2.0110 -0.5537
 8313SOL     OW36400   2.782   2.735  10.645  0.5262 -0.0652  0.0949
 8313SOL    HW136401   2.726   2.796  10.693 -1.4470 -1.4306 -0.5207
 8313SOL    HW236402   2.814   2.684  10.719  0.7204  0.5936  0.4677
 8314SOL     OW36403   2.058   0.619  14.213 -0.1881 -0.3069 -0.1079
 8314SOL    HW136404   1.997   0.659  14.275  0.1940  2.2832 -1.3885
 8314SOL    HW236405   2.055   0.671  14.133  0.1673  0.6645  0.5091
 8315SOL     OW36406   3.793   3.967  14.813  0.0175  0.0048  0.1155
 8315SOL    HW136407   3.829   3.946  14.899  0.9960  0.2921 -0.2252
 8315SOL    HW236408   3.771   3.876  14.793 -2.2209  0.6751 -0.5144
 8316SOL     OW36409   3.653   3.463   2.076 -0.3723  0.0024 -0.3676
 8316SOL    HW136410   3.728   3.494   2.126  1.8901 -0.4471 -3.4279
 8316SOL    HW236411   3.688   3.385   2.032  2.5738  1.6612 -0.9913
 8317SOL     OW36412   2.734   2.001   3.211  0.3122  0.2041 -0.3324
 8317SOL    HW136413   2.782   2.083   3.219  0.6575  0.0869 -1.1866
 8317SOL    HW236414   2.715   1.999   3.117 -1.9185 -2.1180  0.1655
 8318SOL     OW36415   2.623   3.918   1.342 -0.0378 -0.3144 -0.1304
 8318SOL    HW136416   2.619   3.920   1.438  1.2795  1.2374 -0.1059
 8318SOL    HW236417   2.679   3.993   1.322  0.7949 -0.4074  1.7948
 8319SOL     OW36418   0.066   2.826   4.567  0.4769  0.0618 -0.2446
 8319SOL    HW136419   0.027   2.891   4.508  2.4615  0.1984 -1.4425
 8319SOL    HW236420   0.102   2.888   4.630 -2.0323  0.8049  0.4257
 8320SOL     OW36421   1.660   4.250   5.705  1.0063  0.0835 -0.4512
 8320SOL    HW136422   1.577   4.251   5.754 -0.0372  2.2529 -2.2577
 8320SOL    HW236423   1.635   4.267   5.614  1.8411 -1.2480 -0.9208
 8321SOL     OW36424   2.343   3.291  17.558 -0.9409 -0.1378 -0.4125
 8321SOL    HW136425   2.249   3.271  17.552 -1.3082  1.0999  1.1285
 8321SOL    HW236426   2.352   3.322  17.648  0.9797  0.0318 -0.6697
 8322SOL     OW36427   2.095   3.575   0.020 -0.1814 -0.8974  0.3925
 8322SOL    HW136428   2.001   3.589   0.012  0.1275  0.9652 -0.0203
 8322SOL    HW236429   2.102   3.540   0.109  1.0543 -1.4289  0.0886
 8323SOL     OW36430   4.417   0.773  15.879  0.3655  0.3831  0.4033
 8323SOL    HW136431   4.371   0.846  15.837 -0.4689  0.1033  0.8339
 8323SOL    HW236432   4.361   0.752  15.953  0.7518  1.5678  1.0218
 8324SOL     OW36433   4.381   1.487  13.521  0.0264 -0.4662  0.1782
 8324SOL    HW136434   4.472   1.517  13.516 -0.1972  0.1130 -0.4933
 8324SOL    HW236435   4.321   1.558  13.495  0.9760  0.3856  0.3268
 8325SOL     OW36436   0.896   3.697   2.808  0.4778  0.2629 -0.0348
 8325SOL    HW136437   0.832   3.679   2.876  1.3602 -0.2296  0.6666
 8325SOL    HW236438   0.878   3.790   2.804 -0.5389  0.0237 -0.9516
 8326SOL     OW36439   2.563   2.852  10.370  0.8929 -0.1032 -0.6321
 8326SOL    HW136440   2.530   2.933  10.408  0.3178 -0.4797 -0.3084
 8326SOL    HW236441   2.486   2.807  10.333  0.4060  0.8268 -0.7438
 8327SOL     OW36442   4.438   1.438  14.506 -0.2469 -0.0107  1.1893
 8327SOL    HW136443   4.458   1.377  14.578  0.5498  2.1904  2.8262
 8327SOL    HW236444   4.457   1.383  14.430  1.3736 -0.3543  1.8286
 8328SOL     OW36445   1.312   2.108   3.126 -0.1348  0.2384  0.3279
 8328SOL    HW136446   1.219   2.132   3.127  0.0455  0.8514  3.6041
 8328SOL    HW236447   1.346   2.185   3.172  0.9841 -0.2889  0.3864
 8329SOL     OW36448   4.064   1.641   4.497 -0.4401 -0.3351 -0.0318
 8329SOL    HW136449   4.062   1.732   4.468  0.6024 -0.7885 -1.4992
 8329SOL    HW236450   4.154   1.644   4.529 -0.7055 -1.4219  0.8486
 8330SOL     OW36451   4.657   2.751   7.471 -0.4533 -0.2047 -0.1272
 8330SOL    HW136452   4.604   2.688   7.422  2.9851 -1.6169 -2.0303
 8330SOL    HW236453   4.605   2.762   7.550  0.8743  0.8974  0.6075
 8331SOL     OW36454   4.286   4.207   0.661  0.3344  0.4586 -0.4551
 8331SOL    HW136455   4.282   4.302   0.672 -0.5127  0.1757  1.7249
 8331SOL    HW236456   4.370   4.193   0.706 -0.3471 -0.9060  0.4111
 8332SOL     OW36457   3.942   4.462  10.044  0.2277  0.0627  0.2717
 8332SOL    HW136458   3.868   4.419  10.001 -0.0884 -1.0504  1.9404
 8332SOL    HW236459   3.906   4.551  10.050 -0.6537 -0.2320 -0.6159
 8333SOL     OW36460   2.360   0.784   2.157  0.1301 -0.2373  0.1770
 8333SOL    HW136461   2.294   0.789   2.089  1.5571  0.2576 -1.1529
 8333SOL    HW236462   2.326   0.845   2.223  2.8760  0.7019  0.7405
 8334SOL     OW36463   3.348   0.506   2.538 -0.1150  0.0341 -0.4724
 8334SOL    HW136464   3.262   0.470   2.559 -0.3078  1.5566  1.2713
 8334SOL    HW236465   3.367   0.561   2.613  0.8090  0.3660 -0.9517
 8335SOL     OW36466   2.930   2.571   6.623  0.3220  0.3735  0.3735
 8335SOL    HW136467   2.902   2.663   6.619 -1.0416 -0.0082  1.0379
 8335SOL    HW236468   2.868   2.520   6.571 -1.0599  0.8528  1.5332
 8336SOL     OW36469   1.934   0.763   6.989 -0.3365  0.0350 -0.4235
 8336SOL    HW136470   1.968   0.738   7.074 -1.8029 -2.1517 -0.4853
 8336SOL    HW236471   1.999   0.830   6.963 -0.5254  0.3127 -0.1766
 8337SOL     OW36472   1.202   2.881   8.442 -0.1107  0.0308  0.2842
 8337SOL    HW136473   1.150   2.810   8.479  0.1027 -0.3057 -0.0602
 8337SOL    HW236474   1.276   2.870   8.501 -0.6076  2.1331  1.2820
 8338SOL     OW36475   1.292   3.841   3.144  0.7384 -0.0672  0.1208
 8338SOL    HW136476   1.342   3.800   3.073  0.9024  0.0670  0.1582
 8338SOL    HW236477   1.226   3.892   3.097  0.3365 -0.3944  0.3377
 8339SOL     OW36478   0.969   0.872   5.433  0.5209 -0.8846 -0.2393
 8339SOL    HW136479   1.052   0.842   5.395  1.3952 -2.1904  2.7669
 8339SOL    HW236480   0.944   0.942   5.372  0.5032  0.1639  0.9919
 8340SOL     OW36481   1.641   0.733   7.726 -0.0244  0.2421  0.2040
 8340SOL    HW136482   1.680   0.653   7.762  1.5405  1.2898  0.8256
 8340SOL    HW236483   1.562   0.696   7.686 -0.8667  1.0504  1.1531
 8341SOL     OW36484   2.176   3.148   5.942  0.2074  0.6021 -0.6524
 8341SOL    HW136485   2.202   3.095   5.867  0.6732  1.0873 -0.8345
 8341SOL    HW236486   2.085   3.163   5.916  0.3218  0.1865 -1.2946
 8342SOL     OW36487   3.716   0.996   3.526 -0.0508 -1.0754 -0.1592
 8342SOL    HW136488   3.748   0.921   3.576  0.8096  0.5327  1.7375
 8342SOL    HW236489   3.778   1.066   3.548 -1.5490  0.0734  0.5002
 8343SOL     OW36490   0.364   3.855   3.969  0.0225  0.5995 -0.0623
 8343SOL    HW136491   0.315   3.775   3.947 -0.8185  1.3218 -0.7927
 8343SOL    HW236492   0.332   3.907   3.895  1.2432  0.7972 -0.4518
 8344SOL     OW36493   2.052   3.601   9.510  1.1096 -0.3160 -0.2106
 8344SOL    HW136494   1.994   3.668   9.472  0.6969  0.6168  2.0618
 8344SOL    HW236495   2.027   3.604   9.602  0.2905  0.3369 -0.4530
 8345SOL     OW36496   3.901   2.481   6.436  0.0101  0.0312 -0.9552
 8345SOL    HW136497   3.895   2.475   6.341  1.3772 -1.5857 -0.9409
 8345SOL    HW236498   3.829   2.539   6.461  0.5691  0.3237 -0.0048
 8346SOL     OW36499   1.117   3.871  12.100  0.2129  0.3195  0.1066
 8346SOL    HW136500   1.206   3.904  12.110  0.1512  0.8794 -1.2201
 8346SOL    HW236501   1.076   3.939  12.047 -1.0355 -0.4640  0.0624
 8347SOL     OW36502   3.368   2.287   4.526 -0.0194  0.3524  0.4755
 8347SOL    HW136503   3.393   2.203   4.564 -1.5921 -0.3340 -0.0324
 8347SOL    HW236504   3.446   2.333   4.557 -0.6705  1.6915  0.1067
 8348SOL     OW36505   0.851   1.011  13.075  0.2014 -0.0314 -0.6741
 8348SOL    HW136506   0.897   0.928  13.088  1.0783  0.3860 -1.1201
 8348SOL    HW236507   0.931   1.064  13.075 -0.0218  0.3033 -0.8641
 8349SOL     OW36508   1.517   2.098   4.480 -0.3485 -0.1333 -0.6197
 8349SOL    HW136509   1.513   2.166   4.548 -0.2529  1.6406 -2.3786
 8349SOL    HW236510   1.548   2.023   4.531  0.8533 -0.5110 -1.9188
 8350SOL     OW36511   3.043   2.784  10.533  0.2156 -0.3980  0.1584
 8350SOL    HW136512   2.955   2.772  10.569 -0.6690  1.8600 -1.2364
 8350SOL    HW236513   3.026   2.864  10.483  1.9025 -0.7502 -0.9892
 8351SOL     OW36514   3.878   3.479   2.415 -0.5086 -0.7478  0.1728
 8351SOL    HW136515   3.814   3.493   2.484 -0.3499 -2.6905  0.7223
 8351SOL    HW236516   3.931   3.418   2.465 -1.1975 -0.2067  1.5441
 8352SOL     OW36517   1.057   2.639   9.636  0.2213  0.2088 -0.1615
 8352SOL    HW136518   1.149   2.619   9.619  0.4418 -0.0491  1.4032
 8352SOL    HW236519   1.053   2.725   9.594 -0.9326 -0.3805 -1.2406
 8353SOL     OW36520   4.670   0.692   0.860  0.4016 -0.2288  0.3724
 8353SOL    HW136521   4.644   0.632   0.790 -0.3867  1.0047 -0.3833
 8353SOL    HW236522   0.027   0.721   0.815 -0.5623  1.5269 -0.1924
 8354SOL     OW36523   0.598   0.668   3.585  0.4789  0.5856 -0.3190
 8354SOL    HW136524   0.523   0.634   3.633  0.3385  0.1956 -0.8220
 8354SOL    HW236525   0.567   0.758   3.570 -2.7537 -0.6723 -1.2058
 8355SOL     OW36526   0.264   3.911   2.292 -0.9682 -0.4253  0.3875
 8355SOL    HW136527   0.269   3.819   2.321  0.8106  0.3185  2.4627
 8355SOL    HW236528   0.345   3.941   2.331 -1.0045  1.5196 -1.0870
 8356SOL     OW36529   0.968   1.253   5.971 -0.0178 -0.1369  0.0611
 8356SOL    HW136530   0.988   1.299   6.052  0.2188  1.8906 -1.1588
 8356SOL    HW236531   0.973   1.324   5.907  3.8967  0.8617  1.4632
 8357SOL     OW36532   3.649   4.700  14.521 -0.2577 -0.0298  0.2459
 8357SOL    HW136533   3.578   4.705  14.585  1.4012 -0.5676  2.1443
 8357SOL    HW236534   3.700   0.053  14.553  1.2486 -1.1684  0.5525
 8358SOL     OW36535   4.071   0.798   7.067  0.7878 -0.3047  0.1458
 8358SOL    HW136536   4.052   0.841   7.150  1.7391  0.2271  0.0921
 8358SOL    HW236537   4.160   0.830   7.049  0.3234 -0.1748 -1.9402
 8359SOL     OW36538   3.851   0.788   1.517 -0.1002  0.3802  0.1757
 8359SOL    HW136539   3.852   0.807   1.611  0.9177  1.5621 -0.0768
 8359SOL    HW236540   3.892   0.702   1.523  0.9050  0.8633  0.4315
 8360SOL     OW36541   3.932   2.198   6.626  0.0293  1.1759  0.1231
 8360SOL    HW136542   3.879   2.202   6.546  0.0062 -1.9772 -0.0244
 8360SOL    HW236543   3.993   2.268   6.602 -0.2143  0.9593 -1.1370
 8361SOL     OW36544   0.661   3.792   6.860 -0.4856 -0.1348  0.2846
 8361SOL    HW136545   0.579   3.842   6.852  0.9854  2.2252  0.0267
 8361SOL    HW236546   0.685   3.805   6.769  0.6920 -0.5145  0.5453
 8362SOL     OW36547   1.087   0.693   4.687  0.1307 -0.1487  0.1622
 8362SOL    HW136548   1.039   0.759   4.637  1.6548  0.0819 -0.9980
 8362SOL    HW236549   1.160   0.677   4.627 -0.0249 -2.9271  0.7226
 8363SOL     OW36550   2.929   3.223   4.544  0.1757 -0.1109 -0.3468
 8363SOL    HW136551   2.975   3.140   4.556 -0.5526 -0.3262  0.9695
 8363SOL    HW236552   2.852   3.201   4.597  0.2618 -0.6526 -0.4477
 8364SOL     OW36553   4.625   1.223  16.006  0.1479 -0.7945  0.1761
 8364SOL    HW136554   4.591   1.312  16.019 -3.1013 -2.3464  2.3798
 8364SOL    HW236555   4.559   1.189  15.946  0.3963 -0.0984 -0.4834
 8365SOL     OW36556   0.435   2.037  12.594 -0.0889  0.1005  0.2011
 8365SOL    HW136557   0.428   2.072  12.505 -1.2191 -0.5286  0.0421
 8365SOL    HW236558   0.405   1.947  12.583 -0.2388 -0.1040  2.3694
 8366SOL     OW36559   3.330   0.876   7.088  0.0639  0.3777 -0.2506
 8366SOL    HW136560   3.265   0.894   7.020 -0.9419  1.6402  1.0509
 8366SOL    HW236561   3.276   0.856   7.164 -0.1296 -1.8841 -0.9854
 8367SOL     OW36562   1.618   1.049   3.766 -0.1684 -0.3133  0.1855
 8367SOL    HW136563   1.628   0.966   3.813  0.4129 -1.6847 -2.3593
 8367SOL    HW236564   1.706   1.049   3.729 -1.1239 -2.4861 -2.1274
 8368SOL     OW36565   0.261   0.203  15.960  0.2217  0.6719  0.1701
 8368SOL    HW136566   0.239   0.143  15.889 -0.8429  1.7570 -0.4129
 8368SOL    HW236567   0.244   0.148  16.037  1.1241  1.7636  1.1506
 8369SOL     OW36568   0.114   4.350   9.882 -0.3984 -0.0503  0.3196
 8369SOL    HW136569   0.114   4.276   9.943 -0.7516 -0.1672  0.1797
 8369SOL    HW236570   0.037   4.335   9.826  0.4579 -2.4077 -0.2636
 8370SOL     OW36571   1.151   4.021   6.512 -0.0380  0.1353  0.5897
 8370SOL    HW136572   1.195   4.106   6.507 -0.8181  0.4445 -1.1625
 8370SOL    HW236573   1.227   3.965   6.498 -1.2317 -1.1515 -0.8257
 8371SOL     OW36574   1.860   0.865   9.190  0.4167 -0.2236  0.0565
 8371SOL    HW136575   1.843   0.773   9.207  3.0341 -0.5797  0.7063
 8371SOL    HW236576   1.912   0.852   9.110  0.6786 -1.0594  0.3620
 8372SOL     OW36577   2.573   2.850   7.960  0.0076  0.6401  0.0745
 8372SOL    HW136578   2.633   2.778   7.983  0.8427  1.1339 -0.5805
 8372SOL    HW236579   2.623   2.930   7.976 -2.1322  1.4358  2.6109
 8373SOL     OW36580   1.800   0.710   3.311 -0.6021 -0.6345  0.6915
 8373SOL    HW136581   1.776   0.619   3.292 -0.2553 -0.3259 -1.2638
 8373SOL    HW236582   1.740   0.732   3.382 -1.8564  2.3995 -1.2901
 8374SOL     OW36583   3.443   0.419   5.901  0.2049  0.5651 -0.4859
 8374SOL    HW136584   3.492   0.436   5.981 -0.5364 -1.3556  0.3842
 8374SOL    HW236585   3.499   0.459   5.835 -1.5764  2.4284 -0.8635
 8375SOL     OW36586   0.962   3.426   4.117 -0.0547 -0.0067 -0.2922
 8375SOL    HW136587   0.951   3.470   4.202  1.5455 -1.3793  0.6316
 8375SOL    HW236588   1.050   3.395   4.137  0.2101  0.5723 -0.5503
 8376SOL     OW36589   2.179   2.623   2.230 -0.1649 -0.1942  0.1490
 8376SOL    HW136590   2.129   2.624   2.311  1.3009  0.2126  1.0532
 8376SOL    HW236591   2.198   2.717   2.223  2.0267 -0.6758 -0.1536
 8377SOL     OW36592   2.220   0.119  17.323  0.3217 -0.5420 -0.2427
 8377SOL    HW136593   2.186   0.084  17.241 -0.1618 -1.7926  0.5067
 8377SOL    HW236594   2.154   0.093  17.387  0.2002  1.1652  0.3355
 8378SOL     OW36595   4.560   0.776  11.675  0.2280 -0.4053  0.3536
 8378SOL    HW136596   4.547   0.740  11.587 -0.2030 -0.6257  0.5072
 8378SOL    HW236597   4.538   0.697  11.724  0.2325 -1.7037 -1.7577
 8379SOL     OW36598   3.377   3.134  15.720  0.2741  0.1814  0.2919
 8379SOL    HW136599   3.438   3.204  15.743 -1.6776  2.1621 -0.6193
 8379SOL    HW236600   3.437   3.062  15.697 -0.6013 -0.3131 -0.4393
 8380SOL     OW36601   3.926   0.080   6.710 -0.0343 -0.0816  0.2083
 8380SOL    HW136602   3.966   0.035   6.784 -0.7373 -0.3836  0.4050
 8380SOL    HW236603   3.864   0.139   6.753  2.1296  2.3828 -0.0530
 8381SOL     OW36604   3.886   0.261  15.253  0.3651  0.6177 -0.0994
 8381SOL    HW136605   3.896   0.263  15.349 -2.6088  0.7695  0.1982
 8381SOL    HW236606   3.818   0.195  15.240 -0.0722  0.8444  1.0336
 8382SOL     OW36607   0.242   4.691  16.129  0.3529 -0.2371 -0.0718
 8382SOL    HW136608   0.161   0.009  16.161  0.4905 -1.1793  1.4465
 8382SOL    HW236609   0.256   4.604  16.168 -1.6519 -0.5194  0.0342
 8383SOL     OW36610   4.492   2.204   8.036  0.2897  0.3626 -0.4653
 8383SOL    HW136611   4.407   2.170   8.064  0.4186 -0.0473 -0.5729
 8383SOL    HW236612   4.520   2.124   7.991  0.9115 -0.4319  1.3419
 8384SOL     OW36613   2.557   1.936   3.637 -0.1140 -0.0200  0.9456
 8384SOL    HW136614   2.556   1.929   3.542  1.7359 -1.1117  0.9917
 8384SOL    HW236615   2.497   1.868   3.667 -2.9022  1.6923 -0.7855
 8385SOL     OW36616   1.549   3.235   5.916  0.2993 -0.3246 -0.2065
 8385SOL    HW136617   1.493   3.300   5.957  0.9538  0.0786  0.0476
 8385SOL    HW236618   1.496   3.155   5.923 -0.1090  0.0458  0.8395
 8386SOL     OW36619   2.288   2.695   4.448 -0.3268 -0.3911  0.1371
 8386SOL    HW136620   2.235   2.641   4.507 -1.2951 -0.0954 -0.4641
 8386SOL    HW236621   2.371   2.698   4.496 -0.0192  0.9335 -0.4828
 8387SOL     OW36622   3.219   0.215  11.666  0.0249  0.0926 -0.3715
 8387SOL    HW136623   3.162   0.138  11.661 -1.7978  1.2930  1.6530
 8387SOL    HW236624   3.310   0.189  11.680 -0.0128 -0.1052 -0.4899
 8388SOL     OW36625   0.145   4.612  10.053  0.1694 -0.0468  0.2114
 8388SOL    HW136626   0.116   4.521  10.069 -1.3181  0.3700 -0.0740
 8388SOL    HW236627   0.239   4.595  10.050  0.0589 -1.2149  3.2132
 8389SOL     OW36628   0.143   1.737   6.552  0.1859 -0.3830  0.4451
 8389SOL    HW136629   0.138   1.823   6.594  0.4639 -0.4013  0.5224
 8389SOL    HW236630   0.077   1.741   6.484 -0.6386  2.3230  1.4109
 8390SOL     OW36631   4.444   0.466   5.237 -0.1278  0.3558 -0.1085
 8390SOL    HW136632   4.464   0.435   5.325  0.1792 -0.0091 -0.3066
 8390SOL    HW236633   4.447   0.386   5.184  0.1929 -0.0632  0.5450
 8391SOL     OW36634   1.749   1.293   7.747  0.0596  0.4730  0.0854
 8391SOL    HW136635   1.707   1.253   7.671  2.3552 -1.0506 -0.4104
 8391SOL    HW236636   1.677   1.318   7.803 -1.1998 -1.7607 -0.5215
 8392SOL     OW36637   4.597   0.688   5.197 -0.8207 -0.0059  0.4558
 8392SOL    HW136638   4.640   0.698   5.282 -1.1401 -1.5101  0.7970
 8392SOL    HW236639   4.531   0.619   5.207 -2.6070  1.6159 -0.1139
 8393SOL     OW36640   3.382   3.422   0.397  0.0550 -0.2808  0.4218
 8393SOL    HW136641   3.460   3.367   0.391  0.1256 -0.2811  1.3537
 8393SOL    HW236642   3.358   3.389   0.484  0.0876 -0.0306  0.5236
 8394SOL     OW36643   4.719   2.179  13.188 -0.3034  0.0039 -0.0261
 8394SOL    HW136644   0.024   2.259  13.144  0.6912  1.3258  2.9871
 8394SOL    HW236645   0.076   2.140  13.224 -1.0585 -1.0092  0.5579
 8395SOL     OW36646   3.496   4.197   0.430  0.3542 -0.5980 -0.2140
 8395SOL    HW136647   3.460   4.120   0.474 -0.1140  0.1353  0.6950
 8395SOL    HW236648   3.493   4.256   0.505  0.5667 -2.3605  1.1658
 8396SOL     OW36649   4.186   3.142   8.080  0.2248  0.1826  0.3167
 8396SOL    HW136650   4.254   3.191   8.034  1.6017 -1.1211  0.9374
 8396SOL    HW236651   4.119   3.208   8.097 -1.1042 -0.9830 -0.4749
 8397SOL     OW36652   4.588   4.607   1.540  0.3697  0.1941  0.4695
 8397SOL    HW136653   4.548   4.529   1.577  2.1135  0.0496  2.0277
 8397SOL    HW236654   4.641   4.645   1.610 -0.6073 -0.3482  1.4979
 8398SOL     OW36655   3.640   0.436   7.283 -0.0103  0.2987  0.3164
 8398SOL    HW136656   3.668   0.512   7.334  1.8345  0.1385 -0.4423
 8398SOL    HW236657   3.646   0.462   7.191 -2.1161  1.7507  0.6043
 8399SOL     OW36658   0.274   0.938   6.184 -0.0623  0.2973  0.0336
 8399SOL    HW136659   0.268   0.886   6.104 -0.9519 -0.5950  0.6746
 8399SOL    HW236660   0.364   0.970   6.179  0.1986 -0.3408  0.5920
 8400SOL     OW36661   0.470   4.561   4.271 -0.1552  0.1936  0.5348
 8400SOL    HW136662   0.421   4.563   4.353  0.7078  1.1247  1.0229
 8400SOL    HW236663   0.499   4.652   4.278 -2.0209  0.7966  0.3956
 8401SOL     OW36664   0.658   2.296   5.148 -0.0284  0.3319 -0.4137
 8401SOL    HW136665   0.617   2.329   5.229  0.2441 -1.0342  0.2770
 8401SOL    HW236666   0.731   2.359   5.145 -0.7282  1.1790  0.3814
 8402SOL     OW36667   0.400   2.915  16.663  0.1942 -0.6747 -0.5124
 8402SOL    HW136668   0.383   2.994  16.715  1.9607 -0.8289  0.3124
 8402SOL    HW236669   0.422   2.855  16.734 -2.1365  0.4283  1.1885
 8403SOL     OW36670   2.140   4.607  10.829 -0.2984 -0.6987  0.3006
 8403SOL    HW136671   2.113   4.683  10.776  1.6170 -1.0339 -1.1475
 8403SOL    HW236672   2.167   4.540  10.766  0.0238 -1.4444  1.2520
 8404SOL     OW36673   0.348   4.534   5.714  0.3292  0.1758 -0.4699
 8404SOL    HW136674   0.434   4.491   5.710 -0.4391 -1.3866 -0.4229
 8404SOL    HW236675   0.295   4.471   5.763  1.2284  0.2806  0.6278
 8405SOL     OW36676   2.990   3.346  12.581 -0.1230  0.3784  0.4750
 8405SOL    HW136677   2.995   3.437  12.611  1.1947 -0.1506  1.8332
 8405SOL    HW236678   3.020   3.291  12.653 -0.6649  1.1275  1.2801
 8406SOL     OW36679   2.261   0.887  12.654 -0.2690  0.1592  0.3078
 8406SOL    HW136680   2.319   0.963  12.647 -0.6911  0.3915 -0.7486
 8406SOL    HW236681   2.300   0.807  12.621 -1.1661  0.2853 -1.0359
 8407SOL     OW36682   1.745   0.419  13.470 -0.3816  0.1517  0.5628
 8407SOL    HW136683   1.789   0.338  13.496  0.2753  0.3289  0.0135
 8407SOL    HW236684   1.685   0.386  13.403  1.1350 -0.8752 -0.2946
 8408SOL     OW36685   1.609   4.636  10.242 -0.6511 -0.0613 -0.4204
 8408SOL    HW136686   1.654   4.618  10.324 -0.1892 -0.7989 -0.8229
 8408SOL    HW236687   1.643   4.569  10.182  2.2915  0.8438  0.2525
 8409SOL     OW36688   2.967   3.770   6.655 -0.4028  0.0697 -0.2762
 8409SOL    HW136689   3.048   3.807   6.619  1.2956 -1.6909  1.6914
 8409SOL    HW236690   2.918   3.762   6.574  0.1632  0.5565 -0.6642
 8410SOL     OW36691   1.507   0.565   7.967  0.2704  0.5312  0.2356
 8410SOL    HW136692   1.447   0.632   7.936 -1.1300 -1.1696 -0.6887
 8410SOL    HW236693   1.490   0.562   8.061  0.2020  2.3016  0.2732
 8411SOL     OW36694   1.737   3.822   2.198 -0.4003  0.2312  0.6262
 8411SOL    HW136695   1.661   3.868   2.164 -0.4065  0.7887  1.4001
 8411SOL    HW236696   1.734   3.748   2.137  0.2689  1.3613 -0.7881
 8412SOL     OW36697   4.639   0.563   8.758 -0.4649  0.3224 -0.1898
 8412SOL    HW136698   4.660   0.584   8.849  0.4016 -1.5705  0.0410
 8412SOL    HW236699   4.650   0.468   8.754  0.1075  0.3298  1.3428
 8413SOL     OW36700   3.880   1.285   1.215 -0.3086  0.0632  0.0750
 8413SOL    HW136701   3.856   1.286   1.308 -1.8518  1.0424 -0.3225
 8413SOL    HW236702   3.943   1.215   1.202 -1.3358 -0.5885 -1.3263
 8414SOL     OW36703   4.430   1.339  10.591  0.1207 -0.1361 -0.0152
 8414SOL    HW136704   4.348   1.314  10.635 -0.2584 -2.0495 -1.8158
 8414SOL    HW236705   4.467   1.254  10.570  2.1191  0.8515 -0.4431
 8415SOL     OW36706   3.285   2.750   2.729  0.4538 -0.1561  0.3789
 8415SOL    HW136707   3.281   2.807   2.652 -1.0755  1.3738  1.5986
 8415SOL    HW236708   3.335   2.684   2.681  0.0412 -0.9686  1.0853
 8416SOL     OW36709   0.744   0.937  12.178 -0.8147  0.7123 -0.2742
 8416SOL    HW136710   0.732   0.994  12.102 -1.1265  0.8003 -0.1590
 8416SOL    HW236711   0.673   0.874  12.170 -0.8685  0.7565 -0.1591
 8417SOL     OW36712   1.911   4.515   4.778 -0.0375  0.3307 -0.1130
 8417SOL    HW136713   1.834   4.481   4.822 -0.1023 -0.3779 -0.7710
 8417SOL    HW236714   1.941   4.585   4.835 -2.1759  2.3961 -1.5148
 8418SOL     OW36715   2.082   0.978   9.475 -0.3570 -0.1181 -0.1992
 8418SOL    HW136716   2.157   1.037   9.469  0.2258 -0.7459  0.9295
 8418SOL    HW236717   2.104   0.916   9.405 -1.1710 -0.8757  0.2185
 8419SOL     OW36718   3.690   3.447   2.673  0.5341  0.6760 -0.4785
 8419SOL    HW136719   3.653   3.536   2.673 -0.7249  0.1608  0.1664
 8419SOL    HW236720   3.721   3.437   2.763  0.5606  0.5028 -0.5068
 8420SOL     OW36721   4.588   1.927   8.119 -0.0180  0.6998  0.2669
 8420SOL    HW136722   4.502   1.887   8.130  0.5391 -0.0869  1.9294
 8420SOL    HW236723   4.596   1.982   8.197 -0.1070 -0.9513  1.4448
 8421SOL     OW36724   2.050   1.572   0.517  0.0657 -0.4503 -0.0941
 8421SOL    HW136725   1.981   1.520   0.474 -0.7424 -1.3339  2.2954
 8421SOL    HW236726   2.101   1.581   0.437  0.1195  0.6863  0.0811
 8422SOL     OW36727   0.658   1.050   5.159 -0.0061  0.0998  0.4002
 8422SOL    HW136728   0.602   0.998   5.101 -0.1173 -0.4064  0.9630
 8422SOL    HW236729   0.599   1.126   5.159 -0.7272 -0.4624 -2.9323
 8423SOL     OW36730   2.513   0.634   4.010  0.5112  0.2559  0.4829
 8423SOL    HW136731   2.506   0.654   4.103 -0.4836 -1.5203  0.7862
 8423SOL    HW236732   2.561   0.713   3.982 -0.8243  1.5861  1.9177
 8424SOL     OW36733   2.803   1.837  10.503 -0.4230  0.0885 -0.5239
 8424SOL    HW136734   2.722   1.883  10.527 -1.2914 -1.5463 -0.3132
 8424SOL    HW236735   2.806   1.763  10.563  0.9573 -0.4444 -1.2558
 8425SOL     OW36736   0.160   3.714  15.509 -0.0267  0.3725  0.1432
 8425SOL    HW136737   0.187   3.806  15.504  3.2392 -0.7793 -3.5700
 8425SOL    HW236738   0.152   3.705  15.414 -1.5347  1.4392  0.1658
 8426SOL     OW36739   4.426   2.900   8.361  0.4428 -0.2929  0.2151
 8426SOL    HW136740   4.439   2.987   8.400 -3.6505  1.2079 -1.7094
 8426SOL    HW236741   4.479   2.854   8.427  1.7314  0.0469 -0.5805
 8427SOL     OW36742   3.573   4.522   4.030  0.2986 -0.1993  0.0218
 8427SOL    HW136743   3.581   4.527   4.125  2.9503  0.7122 -0.2356
 8427SOL    HW236744   3.653   4.477   4.003 -0.4444  0.0675 -2.5991
 8428SOL     OW36745   2.166   1.797   8.097 -0.3432  0.6285 -0.3982
 8428SOL    HW136746   2.229   1.860   8.062  1.0853 -2.1474 -2.8618
 8428SOL    HW236747   2.107   1.778   8.024  2.9469 -2.9959 -2.1836
 8429SOL     OW36748   0.165   3.315   5.738 -0.3976 -0.9611 -0.0534
 8429SOL    HW136749   0.153   3.408   5.720  0.0437 -1.1132 -1.1082
 8429SOL    HW236750   0.145   3.279   5.652 -3.8756  1.7262 -0.3846
 8430SOL     OW36751   2.370   3.594   4.257  0.3494  0.2196  0.0947
 8430SOL    HW136752   2.407   3.514   4.295 -2.8705 -1.1625  0.3168
 8430SOL    HW236753   2.324   3.630   4.333 -2.0206 -2.6462  0.0547
 8431SOL     OW36754   0.264   1.610   5.581 -0.4063 -0.2078 -0.1583
 8431SOL    HW136755   0.206   1.556   5.635  0.7326 -1.7756 -0.5028
 8431SOL    HW236756   0.218   1.694   5.583  1.1673  0.6520  0.2248
 8432SOL     OW36757   4.362   0.752   6.385 -0.4468  0.0362  0.4796
 8432SOL    HW136758   4.429   0.772   6.450 -0.6009 -0.6167  0.8364
 8432SOL    HW236759   4.391   0.812   6.316 -0.0941 -2.5060 -1.5986
 8433SOL     OW36760   1.854   1.548  13.508  0.4603 -0.0268  0.0675
 8433SOL    HW136761   1.878   1.631  13.548  1.6898 -0.7321  0.8119
 8433SOL    HW236762   1.786   1.519  13.567  0.0649  0.3467 -0.2080
 8434SOL     OW36763   2.991   2.958   0.825 -0.3702 -0.1834 -0.3644
 8434SOL    HW136764   2.929   2.981   0.756  0.5177  1.8254 -0.4898
 8434SOL    HW236765   3.058   3.024   0.808 -1.3711  1.3610  1.6851
 8435SOL     OW36766   2.581   1.717   1.425 -0.4059 -0.1799 -0.0574
 8435SOL    HW136767   2.582   1.621   1.422  0.0889 -0.1628 -0.5663
 8435SOL    HW236768   2.627   1.729   1.509  2.3735  0.9035 -1.7239
 8436SOL     OW36769   2.570   2.308   7.940  0.1006  0.3994 -0.3686
 8436SOL    HW136770   2.539   2.278   7.854  1.1905 -1.1671 -0.2118
 8436SOL    HW236771   2.569   2.224   7.986 -1.1807  0.2694 -0.6295
 8437SOL     OW36772   1.996   1.390   3.046 -0.9643  0.4080  0.2642
 8437SOL    HW136773   2.072   1.401   2.988 -0.3140 -1.5994  0.7417
 8437SOL    HW236774   1.958   1.317   2.997 -0.6544 -0.6019  1.5449
 8438SOL     OW36775   1.991   3.370   2.321 -0.2481 -0.1225  0.6804
 8438SOL    HW136776   1.900   3.380   2.290 -0.1621  0.6022  0.6623
 8438SOL    HW236777   1.980   3.396   2.412 -1.1771  0.0106  0.5354
 8439SOL     OW36778   4.685   1.291   4.303  0.1864  0.2002  0.1925
 8439SOL    HW136779   0.047   1.305   4.260  0.6155 -1.1264  0.5932
 8439SOL    HW236780   4.626   1.350   4.257  0.5775  0.9099  0.5969
 8440SOL     OW36781   3.485   1.020   1.792 -0.0496 -0.0003  0.0657
 8440SOL    HW136782   3.520   1.107   1.813  0.0225 -0.2455  0.9595
 8440SOL    HW236783   3.405   1.034   1.742  1.5770 -1.5589 -2.9825
 8441SOL     OW36784   1.147   0.107   4.041 -0.1312 -0.1010 -0.0642
 8441SOL    HW136785   1.155   0.029   3.985 -1.9273  0.2105 -0.7609
 8441SOL    HW236786   1.231   0.151   4.030  0.7230 -1.3964  1.2481
 8442SOL     OW36787   0.870   0.824   3.392  0.1582  0.5886 -0.3139
 8442SOL    HW136788   0.910   0.858   3.472 -1.2549  0.8792  0.2764
 8442SOL    HW236789   0.776   0.817   3.411 -0.4807  0.1808 -3.6916
 8443SOL     OW36790   1.471   0.624  11.607  0.0997 -0.0351 -0.4724
 8443SOL    HW136791   1.446   0.637  11.698  1.8619 -1.5572  0.2332
 8443SOL    HW236792   1.459   0.709  11.564 -0.4814  0.3214  0.4095
 8444SOL     OW36793   3.092   1.021   5.649 -0.3104 -0.1323  0.2664
 8444SOL    HW136794   3.093   0.925   5.651 -1.6914 -0.1208  1.6009
 8444SOL    HW236795   3.138   1.044   5.729 -1.7505 -1.0729  1.3579
 8445SOL     OW36796   3.112   4.356   4.387 -0.3343  0.3146  0.1085
 8445SOL    HW136797   3.072   4.371   4.301 -0.9160 -1.3712  0.0903
 8445SOL    HW236798   3.084   4.433   4.436 -0.0708  0.8885 -0.6500
 8446SOL     OW36799   3.056   2.994  16.729 -0.0733  0.2305  0.3230
 8446SOL    HW136800   3.049   3.024  16.639 -2.2066  0.8162  0.6950
 8446SOL    HW236801   2.973   3.026  16.763 -1.1830 -0.4382 -1.7555
 8447SOL     OW36802   3.204   2.019   4.339 -0.1671  0.1761  0.1120
 8447SOL    HW136803   3.256   1.940   4.354 -0.5552 -0.2467 -0.7937
 8447SOL    HW236804   3.188   2.028   4.246  2.0213 -1.9381 -0.4691
 8448SOL     OW36805   4.604   4.363  14.392  0.6726 -0.3791 -0.2910
 8448SOL    HW136806   4.693   4.379  14.361  0.5809  1.1407  0.2238
 8448SOL    HW236807   4.554   4.402  14.320  0.1696 -0.7344 -0.1343
 8449SOL     OW36808   2.744   3.302   2.877  0.7305  0.0833  0.4816
 8449SOL    HW136809   2.663   3.274   2.835  0.6502 -0.1988  0.8226
 8449SOL    HW236810   2.799   3.225   2.865 -1.3888 -1.0345 -1.9564
 8450SOL     OW36811   1.058   2.170   4.398  0.2419 -0.3072 -0.7641
 8450SOL    HW136812   1.132   2.111   4.381  1.3111  1.6408 -2.9962
 8450SOL    HW236813   1.089   2.213   4.478  0.6483  2.8509 -2.6040
 8451SOL     OW36814   1.927   3.212   6.667  0.4332  0.0209 -0.0607
 8451SOL    HW136815   1.884   3.296   6.684 -0.6084 -0.5984  0.4031
 8451SOL    HW236816   1.982   3.233   6.591  0.0375  1.6473  0.0922
 8452SOL     OW36817   2.591   3.030   8.418 -0.2163 -0.3723  0.1026
 8452SOL    HW136818   2.528   2.965   8.450  1.2782 -2.9514 -2.1021
 8452SOL    HW236819   2.651   3.039   8.491 -0.7089 -1.9419  0.7019
 8453SOL     OW36820   1.897   0.356  11.452  0.4715 -0.3041 -0.3475
 8453SOL    HW136821   1.884   0.412  11.375  2.2841 -0.6486 -0.8913
 8453SOL    HW236822   1.968   0.304  11.415  1.1338  0.6977 -0.4977
 8454SOL     OW36823   1.722   4.414   4.952  0.2598  0.1292  0.4305
 8454SOL    HW136824   1.691   4.325   4.967 -0.9538  0.5765  0.5947
 8454SOL    HW236825   1.723   4.458   5.037  0.7101  1.8408 -0.4459
 8455SOL     OW36826   3.611   0.434   5.670  0.2604  0.2570 -0.2528
 8455SOL    HW136827   3.704   0.414   5.657  0.0921 -0.3623 -0.4646
 8455SOL    HW236828   3.597   0.480   5.587  0.9822  1.8195  0.4754
 8456SOL     OW36829   4.425   1.433   1.798  0.0400 -0.9967 -0.3609
 8456SOL    HW136830   4.416   1.517   1.753 -0.0876 -0.2737  1.0087
 8456SOL    HW236831   4.509   1.443   1.843  0.1992 -1.1229 -0.6326
 8457SOL     OW36832   3.801   1.604   7.785  0.3543 -0.1937 -0.3924
 8457SOL    HW136833   3.890   1.619   7.818  1.0608 -1.2687 -1.8119
 8457SOL    HW236834   3.784   1.692   7.752 -0.1304  0.0778  0.5972
 8458SOL     OW36835   2.546   4.200   2.294  0.0312  0.0817 -0.2371
 8458SOL    HW136836   2.458   4.234   2.306 -0.1104 -0.4791  0.3247
 8458SOL    HW236837   2.525   4.146   2.217 -0.2105 -0.2518  0.0654
 8459SOL     OW36838   0.025   0.534   0.380  0.3213 -0.1772  0.1006
 8459SOL    HW136839   0.092   0.602   0.381  1.1492 -1.0200  1.3293
 8459SOL    HW236840   0.005   0.503   0.291 -0.0412  0.1088  0.0813
 8460SOL     OW36841   4.418   0.216   8.875 -0.2182  0.2132 -0.0211
 8460SOL    HW136842   4.379   0.290   8.827 -0.4727  1.4045  2.0077
 8460SOL    HW236843   4.341   0.159   8.871  0.4503 -0.8250  2.1979
 8461SOL     OW36844   1.609   4.180   7.382  0.1735 -0.4730  0.3715
 8461SOL    HW136845   1.622   4.106   7.441  0.8186 -0.3728  0.3570
 8461SOL    HW236846   1.665   4.245   7.424 -1.0994  0.5593  0.4702
 8462SOL     OW36847   3.786   3.406   2.939 -0.2181 -0.3411 -0.1261
 8462SOL    HW136848   3.832   3.325   2.914  1.6475  0.3643  1.0917
 8462SOL    HW236849   3.855   3.470   2.953  1.3934 -2.5247  1.9447
 8463SOL     OW36850   2.201   2.941   3.660 -0.1862 -0.1234  0.5243
 8463SOL    HW136851   2.127   2.998   3.638  1.1350  2.0711  1.6911
 8463SOL    HW236852   2.166   2.856   3.634 -0.7835  0.8584 -1.8096
 8464SOL     OW36853   1.835   2.095  12.622 -0.1262 -0.6264 -0.0648
 8464SOL    HW136854   1.890   2.131  12.692 -0.8444 -2.3538  1.3766
 8464SOL    HW236855   1.900   2.032  12.593  1.6844  0.8322  0.7985
 8465SOL     OW36856   2.402   0.309  12.374  0.2241  0.3901  0.0654
 8465SOL    HW136857   2.312   0.340  12.371  0.1979  0.5837  3.4819
 8465SOL    HW236858   2.415   0.292  12.467  2.3876  0.6680 -0.1739
 8466SOL     OW36859   3.297   3.761   0.930 -0.1056  0.4157 -0.6042
 8466SOL    HW136860   3.282   3.728   1.019  2.8517  0.8415  0.0503
 8466SOL    HW236861   3.255   3.689   0.883 -0.4360 -0.5981  1.2117
 8467SOL     OW36862   3.914   0.819   2.814  0.1008 -0.6000 -0.1393
 8467SOL    HW136863   3.828   0.846   2.783 -0.3086 -1.1771  0.4970
 8467SOL    HW236864   3.931   0.755   2.745  1.3413 -1.0754  0.5964
 8468SOL     OW36865   3.150   2.421   8.163 -0.5363  0.4266  0.1789
 8468SOL    HW136866   3.120   2.512   8.168  0.8068  0.9769 -1.6477
 8468SOL    HW236867   3.170   2.391   8.252 -0.4522  0.5340  0.1970
 8469SOL     OW36868   0.709   2.636   8.784  0.4049 -0.5901  0.3479
 8469SOL    HW136869   0.707   2.722   8.743  1.2166 -1.3873 -1.3470
 8469SOL    HW236870   0.792   2.602   8.750  1.6418  1.0242  1.7307
 8470SOL     OW36871   2.959   1.611   7.082  0.3187  0.1176  0.0722
 8470SOL    HW136872   2.879   1.632   7.034 -0.9541  0.5796  2.3757
 8470SOL    HW236873   2.951   1.518   7.062 -0.6901  0.7934 -2.5997
 8471SOL     OW36874   3.874   0.654  16.765 -0.4942 -0.2172  0.1496
 8471SOL    HW136875   3.822   0.734  16.771 -0.4847 -0.0479 -2.0569
 8471SOL    HW236876   3.934   0.667  16.838 -2.5758  0.2317  1.7802
 8472SOL     OW36877   0.007   1.874  13.394 -0.0123 -0.0248 -0.0192
 8472SOL    HW136878   0.051   1.956  13.369  1.7463 -0.7569  0.7059
 8472SOL    HW236879   0.067   1.822  13.446 -0.2790  1.3824  1.7062
 8473SOL     OW36880   0.162   4.389   9.119  0.0689 -0.3297  0.0265
 8473SOL    HW136881   0.124   4.333   9.051 -1.3080  2.3558 -1.3868
 8473SOL    HW236882   0.214   4.320   9.160  0.0952 -1.5101 -1.9859
 8474SOL     OW36883   4.273   1.376  17.103 -0.2812  0.5762 -0.1241
 8474SOL    HW136884   4.277   1.281  17.096 -0.8649  0.5989 -0.7674
 8474SOL    HW236885   4.364   1.400  17.120 -0.2271  0.8338 -0.7847
 8475SOL     OW36886   3.014   4.094   4.859  0.7120  0.4294  0.3019
 8475SOL    HW136887   3.031   4.110   4.766 -2.1864 -1.0563 -0.4893
 8475SOL    HW236888   2.919   4.096   4.857  0.7022  1.1922  1.4705
 8476SOL     OW36889   0.534   0.862  14.038  0.4440 -0.1820  0.3505
 8476SOL    HW136890   0.564   0.919  14.108 -2.7664  2.3513 -0.3846
 8476SOL    HW236891   0.506   0.930  13.978 -0.9787  0.6908  2.0136
 8477SOL     OW36892   0.882   2.115   4.828  0.5647 -0.3916 -0.3731
 8477SOL    HW136893   0.978   2.110   4.825  0.4598 -2.6948 -0.1594
 8477SOL    HW236894   0.875   2.195   4.776 -1.9901  1.6331  3.0864
 8478SOL     OW36895   3.617   3.657  16.644 -0.0187 -0.4487 -0.0257
 8478SOL    HW136896   3.679   3.611  16.588  0.8491 -0.9198  1.3197
 8478SOL    HW236897   3.681   3.697  16.703  0.1780 -0.2042 -0.4050
 8479SOL     OW36898   1.729   0.034  10.882 -0.2458 -0.1353 -0.2777
 8479SOL    HW136899   1.813   0.030  10.928 -0.6666 -0.8958  0.4101
 8479SOL    HW236900   1.657   0.012  10.942  0.1065  1.1595  0.6335
 8480SOL     OW36901   3.084   2.512  17.536 -0.6318  0.1440  0.2861
 8480SOL    HW136902   2.998   2.513  17.493  1.0768 -2.2126 -3.1663
 8480SOL    HW236903   3.132   2.468  17.466  1.7991  1.4201  1.1517
 8481SOL     OW36904   0.685   0.982   5.797  0.3680 -0.2136 -0.5870
 8481SOL    HW136905   0.633   0.948   5.870 -0.2377  0.0111 -0.9183
 8481SOL    HW236906   0.676   0.911   5.733 -2.0681 -0.7962  0.4171
 8482SOL     OW36907   2.513   1.383   3.367 -0.2308 -0.3038 -0.1616
 8482SOL    HW136908   2.600   1.367   3.404 -1.1999 -1.8097  1.4789
 8482SOL    HW236909   2.506   1.477   3.347  1.4698  0.1033  1.2059
 8483SOL     OW36910   0.088   2.557  16.697 -0.3536  0.4221 -0.0664
 8483SOL    HW136911   0.171   2.583  16.657  0.2669 -1.0086  0.2888
 8483SOL    HW236912   0.037   2.637  16.712  2.5024  2.2466  0.0463
 8484SOL     OW36913   0.920   0.879   3.908  0.8468  0.4313 -0.4041
 8484SOL    HW136914   0.898   0.789   3.882 -3.0394  1.2101  0.1961
 8484SOL    HW236915   1.005   0.867   3.949  0.2358  1.4148  1.1739
 8485SOL     OW36916   1.366   4.338  15.287 -0.3564  0.1050 -0.6671
 8485SOL    HW136917   1.270   4.343  15.297 -0.2454  0.4380  0.2353
 8485SOL    HW236918   1.378   4.423  15.246 -0.0261  0.5547  0.3594
 8486SOL     OW36919   0.359   3.037  14.888 -0.1153  0.0763 -0.3053
 8486SOL    HW136920   0.365   2.943  14.902 -1.7482 -0.0655 -0.6619
 8486SOL    HW236921   0.439   3.059  14.937 -0.8408 -0.8088  1.2563
 8487SOL     OW36922   1.617   0.915   2.529 -0.2430  0.3429 -0.0779
 8487SOL    HW136923   1.523   0.908   2.517 -0.4426  2.5483  0.2222
 8487SOL    HW236924   1.624   1.006   2.557 -0.6321  0.4320 -0.2737
 8488SOL     OW36925   4.224   0.543   4.946  0.6528  0.0241 -0.0731
 8488SOL    HW136926   4.191   0.522   5.034 -2.4495  0.8721 -1.0037
 8488SOL    HW236927   4.270   0.623   4.971  0.4202 -0.7970  2.9865
 8489SOL     OW36928   2.808   0.687   5.910  0.2028  1.2619 -0.3491
 8489SOL    HW136929   2.852   0.765   5.944 -2.0280  2.7979 -0.9528
 8489SOL    HW236930   2.744   0.670   5.979 -1.1975  2.0806 -1.4464
 8490SOL     OW36931   4.413   4.214   8.863  0.2972 -0.5812  0.1945
 8490SOL    HW136932   4.444   4.303   8.882  1.5976 -1.1965  0.9707
 8490SOL    HW236933   4.404   4.198   8.769 -0.5590  0.2055  0.1470
 8491SOL     OW36934   3.659   1.130  16.092 -0.0055  0.3007 -0.3016
 8491SOL    HW136935   3.699   1.182  16.162  2.2407 -1.5648 -0.2228
 8491SOL    HW236936   3.578   1.179  16.073 -1.2999 -1.6833  0.0651
 8492SOL     OW36937   2.659   0.035   4.920  0.4562 -0.1802 -0.2537
 8492SOL    HW136938   2.586   0.035   4.981  0.9115 -0.5431  0.2877
 8492SOL    HW236939   2.636   0.105   4.859  0.1765 -0.3450 -0.3371
 8493SOL     OW36940   2.201   2.680   8.029 -0.4344 -0.5360 -0.2393
 8493SOL    HW136941   2.234   2.628   7.956 -0.2016  0.3437 -0.7667
 8493SOL    HW236942   2.216   2.639   8.114 -2.1765 -0.9647 -0.1395
 8494SOL     OW36943   2.191   1.456   4.139 -0.0115  0.5275  0.4689
 8494SOL    HW136944   2.121   1.451   4.204  0.0647 -0.5542  0.4643
 8494SOL    HW236945   2.206   1.551   4.130 -2.5551  0.9054 -0.0280
 8495SOL     OW36946   4.620   4.243   5.833  0.3052  0.1961 -0.2254
 8495SOL    HW136947   4.544   4.211   5.786 -0.3670  1.9672 -0.3508
 8495SOL    HW236948   4.575   4.300   5.895  1.1395  0.6415 -0.0205
 8496SOL     OW36949   2.749   4.398   7.858  0.5757  0.0329  0.2012
 8496SOL    HW136950   2.674   4.352   7.822  0.4328  0.7297 -0.3947
 8496SOL    HW236951   2.771   4.461   7.789  0.6354  2.5668  2.5144
 8497SOL     OW36952   0.895   3.142   2.297  0.4113  0.2438 -0.4529
 8497SOL    HW136953   0.816   3.117   2.249 -0.0106 -0.2435  0.4900
 8497SOL    HW236954   0.957   3.147   2.224  1.9272  2.4138  0.9779
 8498SOL     OW36955   2.463   2.097   6.180  0.1334  0.5159 -0.1651
 8498SOL    HW136956   2.428   2.085   6.092  2.0887 -1.0767 -0.7235
 8498SOL    HW236957   2.422   2.181   6.203  1.9000  1.5427 -0.7130
 8499SOL     OW36958   2.107   1.313   6.350  0.1686 -0.1255  0.6566
 8499SOL    HW136959   2.139   1.402   6.360 -1.9764  0.5294  1.5213
 8499SOL    HW236960   2.013   1.329   6.354  0.2470  1.3110 -3.5465
 8500SOL     OW36961   4.504   0.157  12.338 -0.1576 -0.0258  0.2719
 8500SOL    HW136962   4.511   0.097  12.412 -1.6970 -0.2214  0.2573
 8500SOL    HW236963   4.440   0.221  12.369  0.0724  1.5664 -2.4967
 8501SOL     OW36964   0.075   1.013   7.653 -0.4927  0.0292  0.1676
 8501SOL    HW136965   0.161   1.052   7.670 -1.7083  1.4779  2.9290
 8501SOL    HW236966   0.087   0.987   7.562 -0.8055  0.2294  0.0697
 8502SOL     OW36967   4.321   0.837   1.857 -0.0042  0.0456  0.3761
 8502SOL    HW136968   4.247   0.780   1.879 -1.2057  1.1434 -0.8297
 8502SOL    HW236969   4.356   0.801   1.775 -1.2115 -1.3196  0.4585
 8503SOL     OW36970   0.305   2.986   8.438  0.2315  0.2361 -0.5380
 8503SOL    HW136971   0.287   2.947   8.524 -2.0469  1.3204 -0.4965
 8503SOL    HW236972   0.350   3.066   8.466  3.4003 -1.9646  0.6564
 8504SOL     OW36973   0.837   2.929  13.720 -0.2110  0.0745 -0.3559
 8504SOL    HW136974   0.873   2.913  13.807 -0.1641 -0.0454 -0.3977
 8504SOL    HW236975   0.849   3.024  13.715  0.3615 -0.1095 -2.5177
 8505SOL     OW36976   4.103   1.574   8.601  0.1993  0.0535 -0.2146
 8505SOL    HW136977   4.166   1.560   8.671  0.9924 -0.0626 -0.9559
 8505SOL    HW236978   4.021   1.570   8.651  0.4024 -0.2501  0.0897
 8506SOL     OW36979   3.522   0.235   9.086  0.4115  0.2277 -0.1171
 8506SOL    HW136980   3.595   0.173   9.084 -0.5932 -0.9547 -0.1718
 8506SOL    HW236981   3.459   0.188   9.031 -0.0316  0.3261  0.3080
 8507SOL     OW36982   0.062   0.141  16.235 -0.0353  0.1313  0.2806
 8507SOL    HW136983   0.077   0.236  16.235 -3.3968  0.6511  1.2236
 8507SOL    HW236984   4.711   0.125  16.175 -1.6632  1.7591  1.8230
 8508SOL     OW36985   0.933   0.575   9.785  0.3356  0.0191 -0.4706
 8508SOL    HW136986   1.004   0.515   9.807 -0.6015 -0.7772  0.4209
 8508SOL    HW236987   0.879   0.512   9.737  0.3168 -1.0660  0.9496
 8509SOL     OW36988   4.139   2.390  15.207  0.4562  0.2757  0.1258
 8509SOL    HW136989   4.190   2.313  15.184 -0.6302  0.2754 -2.2908
 8509SOL    HW236990   4.154   2.452  15.135  1.2623  0.7422  0.6889
 8510SOL     OW36991   1.987   0.579   8.474 -0.2041  0.0629 -0.4606
 8510SOL    HW136992   1.952   0.552   8.559  1.6491  0.5001  0.4470
 8510SOL    HW236993   2.060   0.639   8.490 -3.0371  2.9328  1.5825
 8511SOL     OW36994   2.552   1.077  11.560  0.3699 -0.1550  0.4274
 8511SOL    HW136995   2.562   1.149  11.498 -0.0445 -0.7076 -0.2866
 8511SOL    HW236996   2.458   1.083  11.578  0.3905 -1.1275  0.8668
 8512SOL     OW36997   3.046   2.976   4.597 -0.1614 -0.1570  0.1009
 8512SOL    HW136998   2.975   2.922   4.632 -0.5817  0.1864 -0.2253
 8512SOL    HW236999   3.099   2.899   4.574  1.5282  0.2839  2.4269
 8513SOL     OW37000   1.226   2.063  15.290 -0.1274  0.4074  0.5706
 8513SOL    HW137001   1.141   2.063  15.247 -0.9273 -0.0544  2.1629
 8513SOL    HW237002   1.229   1.979  15.336  1.6550 -0.7935 -1.7180
 8514SOL     OW37003   2.663   4.107   9.568  0.0423  0.2118  0.1856
 8514SOL    HW137004   2.595   4.127   9.633  0.0166  1.7645 -0.3158
 8514SOL    HW237005   2.619   4.035   9.523  0.9784 -0.7077  0.7343
 8515SOL     OW37006   2.962   2.125  15.992 -0.5315  0.4577  0.4600
 8515SOL    HW137007   2.875   2.086  15.997 -1.5943  2.9415  1.9222
 8515SOL    HW237008   2.924   2.213  15.984 -1.7112 -0.1036 -0.0466
 8516SOL     OW37009   3.391   2.350  10.397 -0.2149  0.4945  0.1110
 8516SOL    HW137010   3.378   2.366  10.303  0.3005 -0.8687 -0.1836
 8516SOL    HW237011   3.479   2.386  10.399 -0.5483  1.4009 -1.0452
 8517SOL     OW37012   3.024   3.975   2.810 -0.3174  0.3426 -0.1484
 8517SOL    HW137013   2.988   4.018   2.733  0.7796  1.1077 -0.2258
 8517SOL    HW237014   2.945   3.948   2.858 -0.8269  1.7907 -0.1839
 8518SOL     OW37015   3.707   2.087   3.283 -0.4515 -0.2242  0.4061
 8518SOL    HW137016   3.649   2.041   3.344 -0.2477  1.0452  1.5581
 8518SOL    HW237017   3.680   2.171   3.322 -0.5469 -0.9707  1.9396
 8519SOL     OW37018   3.677   3.516  16.962 -0.4421  0.0966  0.4135
 8519SOL    HW137019   3.653   3.608  16.969  3.9341  1.2862 -0.1914
 8519SOL    HW237020   3.699   3.493  17.053 -1.4098  1.1599  0.9180
 8520SOL     OW37021   3.385   3.056  16.107 -0.3770 -0.5422 -0.3943
 8520SOL    HW137022   3.473   3.023  16.086 -0.6631 -1.5304 -0.0113
 8520SOL    HW237023   3.399   3.142  16.147  1.4304 -0.2606 -1.6254
 8521SOL     OW37024   2.040   3.572   2.728 -0.2828 -0.6826 -0.3863
 8521SOL    HW137025   2.038   3.531   2.815 -1.7966 -0.0184 -0.1093
 8521SOL    HW237026   1.990   3.647   2.760 -1.4634 -2.6550  2.4061
 8522SOL     OW37027   1.819   1.860   8.398  0.7265  0.1537 -0.0363
 8522SOL    HW137028   1.883   1.789   8.396  1.3767  0.7010  1.1297
 8522SOL    HW237029   1.812   1.890   8.308  1.0647 -0.2065 -0.1834
 8523SOL     OW37030   1.301   4.519   2.992  0.3667 -0.1488 -0.5249
 8523SOL    HW137031   1.229   4.505   3.053 -0.2253 -0.9792 -1.4120
 8523SOL    HW237032   1.269   4.463   2.921  1.2970 -0.9476 -0.3311
 8524SOL     OW37033   1.095   4.461   4.644  0.0953  0.0532  0.0642
 8524SOL    HW137034   1.005   4.457   4.676 -0.6510  0.5383 -2.0301
 8524SOL    HW237035   1.097   4.396   4.574 -1.4335  1.1489 -0.9911
 8525SOL     OW37036   3.709   0.151   1.168 -0.7658 -0.7020  0.0213
 8525SOL    HW137037   3.622   0.123   1.139 -1.0173  2.3670 -2.2547
 8525SOL    HW237038   3.760   0.105   1.101  0.7643  1.5760 -0.3899
 8526SOL     OW37039   4.664   0.039   3.665  0.1470  0.1640 -0.3283
 8526SOL    HW137040   4.619   0.093   3.601 -2.3924 -0.3582  1.0200
 8526SOL    HW237041   4.693   0.113   3.719  0.3323  0.8290 -1.3446
 8527SOL     OW37042   0.984   2.334   1.702  0.8085 -0.3489  0.4116
 8527SOL    HW137043   0.907   2.332   1.759 -0.7996  0.3503 -1.7443
 8527SOL    HW237044   0.944   2.381   1.629 -0.5867 -1.5477  0.3997
 8528SOL     OW37045   4.038   3.226   4.228 -0.2878 -0.5990 -0.0332
 8528SOL    HW137046   4.103   3.246   4.295 -2.7168  0.4211  2.0394
 8528SOL    HW237047   3.986   3.158   4.270 -0.7777 -0.7208 -0.8278
 8529SOL     OW37048   4.068   3.462  10.977 -0.3763  0.1365  0.0300
 8529SOL    HW137049   4.086   3.419  10.893  2.1762 -0.5978  0.9719
 8529SOL    HW237050   3.972   3.462  10.978 -0.3719 -1.3890 -0.3960
 8530SOL     OW37051   3.968   4.089   3.290  0.0355 -0.1500 -0.3921
 8530SOL    HW137052   4.060   4.068   3.308  0.0596  0.0884 -0.2442
 8530SOL    HW237053   3.956   4.047   3.204 -0.2707 -0.9974  0.0664
 8531SOL     OW37054   2.161   1.235   6.761  0.5996  0.2055  0.3471
 8531SOL    HW137055   2.230   1.175   6.731 -0.1081 -0.3590 -0.1352
 8531SOL    HW237056   2.185   1.283   6.841  0.7292 -0.9619  1.0133
 8532SOL     OW37057   4.552   4.202   4.036  0.0939 -0.4903 -0.2023
 8532SOL    HW137058   4.602   4.187   3.956 -1.5828  0.4347 -1.4354
 8532SOL    HW237059   4.611   4.256   4.087 -0.7428  0.8157 -0.6045
 8533SOL     OW37060   4.286   0.673  13.453 -0.3053  0.4963  0.6327
 8533SOL    HW137061   4.296   0.606  13.385 -0.2598  0.3020  0.8343
 8533SOL    HW237062   4.190   0.680  13.455 -0.1339  3.0937  0.6074
 8534SOL     OW37063   2.131   3.839   3.520  0.5294  0.6890  0.6532
 8534SOL    HW137064   2.158   3.926   3.549 -0.4795  1.3641 -0.4336
 8534SOL    HW237065   2.190   3.840   3.444 -1.3318  1.5916 -0.7797
 8535SOL     OW37066   1.375   3.662   9.347  0.8668  0.4564 -0.0384
 8535SOL    HW137067   1.321   3.646   9.424 -0.7051  1.1017 -1.0229
 8535SOL    HW237068   1.340   3.749   9.329 -0.6512  0.2091  1.7225
 8536SOL     OW37069   4.202   3.296   7.574  0.4108  0.2475  0.4213
 8536SOL    HW137070   4.291   3.332   7.567 -0.0961  1.0658 -2.2275
 8536SOL    HW237071   4.160   3.348   7.505 -1.7323 -1.1014  0.7250
 8537SOL     OW37072   0.582   0.795   9.221  0.1276  0.3919 -0.6220
 8537SOL    HW137073   0.599   0.870   9.278  1.7873 -0.3577 -0.1263
 8537SOL    HW237074   0.489   0.785   9.240  0.0482 -0.4429 -1.4772
 8538SOL     OW37075   2.626   3.754   6.673 -0.6767 -0.3406 -0.3866
 8538SOL    HW137076   2.645   3.787   6.761 -1.6461 -2.2379  0.5478
 8538SOL    HW237077   2.532   3.770   6.664 -0.5883  0.7776  0.6982
 8539SOL     OW37078   3.890   4.351   3.724 -0.8073  0.2355 -0.0513
 8539SOL    HW137079   3.985   4.341   3.714 -0.4909  1.4740  1.6636
 8539SOL    HW237080   3.871   4.432   3.676 -2.3347  0.3957  0.8116
 8540SOL     OW37081   4.028   2.577   1.630 -0.1880  0.5450  0.0608
 8540SOL    HW137082   3.962   2.645   1.638 -0.4520  0.5101 -1.9564
 8540SOL    HW237083   3.981   2.512   1.577  1.5790 -0.7486  0.0743
 8541SOL     OW37084   2.039   1.698   1.215 -0.7735 -0.4206  0.0022
 8541SOL    HW137085   2.025   1.720   1.123 -0.4197  1.4984  0.4006
 8541SOL    HW237086   2.132   1.715   1.223 -0.3205 -2.3862 -1.2763
 8542SOL     OW37087   2.416   0.479   6.275 -0.4123  0.3183 -0.1171
 8542SOL    HW137088   2.336   0.428   6.264  0.4092 -0.8650 -0.5720
 8542SOL    HW237089   2.457   0.414   6.332 -0.3844  0.8555  0.4819
 8543SOL     OW37090   0.349   3.121   3.719 -0.6109 -0.3127 -0.1635
 8543SOL    HW137091   0.295   3.164   3.786  0.5741 -0.7772  1.0940
 8543SOL    HW237092   0.316   3.032   3.732  0.1291 -1.2529 -4.7077
 8544SOL     OW37093   4.409   1.408   4.529 -0.0479 -1.0116  0.6682
 8544SOL    HW137094   4.325   1.391   4.571 -0.3730 -1.8587 -0.3138
 8544SOL    HW237095   4.438   1.477   4.588 -2.9930  0.9319 -0.1620
 8545SOL     OW37096   4.355   3.970   2.805 -0.7347  0.6789  0.0356
 8545SOL    HW137097   4.385   4.042   2.861 -0.7153 -1.1818  2.4544
 8545SOL    HW237098   4.419   3.975   2.734 -0.9748 -0.0424 -0.2376
 8546SOL     OW37099   0.708   2.424  17.263  0.4964 -0.1816 -0.1267
 8546SOL    HW137100   0.629   2.427  17.317  0.9679  1.8350  0.4398
 8546SOL    HW237101   0.689   2.494  17.200 -1.1198 -0.2408  0.2900
 8547SOL     OW37102   4.013   1.539   8.194  0.5410 -0.6832 -0.0930
 8547SOL    HW137103   4.073   1.502   8.129 -0.4804  0.1833 -1.5294
 8547SOL    HW237104   3.984   1.620   8.153  0.8743 -0.8469 -0.6572
 8548SOL     OW37105   2.114   3.267  10.610 -0.1331 -0.0459 -0.1345
 8548SOL    HW137106   2.023   3.297  10.610  0.0383  0.4720  0.9406
 8548SOL    HW237107   2.096   3.179  10.642  1.5576 -0.6593 -0.8707
 8549SOL     OW37108   1.299   1.992   9.156  0.3455  0.4783  0.5787
 8549SOL    HW137109   1.244   2.070   9.167 -2.1371 -0.9748 -1.4350
 8549SOL    HW237110   1.239   1.929   9.196  1.0535  0.0307  0.9393
 8550SOL     OW37111   0.470   0.574   4.924 -0.1771  0.0567  0.3709
 8550SOL    HW137112   0.418   0.505   4.966  0.1415 -0.6583 -0.4153
 8550SOL    HW237113   0.542   0.578   4.987 -0.3847  3.4940  0.3622
 8551SOL     OW37114   2.783   2.736   9.686 -0.4941 -0.2184 -0.4791
 8551SOL    HW137115   2.736   2.729   9.603 -0.7514  1.7210 -0.5028
 8551SOL    HW237116   2.846   2.804   9.662 -0.3391 -0.2553 -0.1731
 8552SOL     OW37117   1.635   2.893   4.752  0.0758  0.1098 -0.0468
 8552SOL    HW137118   1.615   2.802   4.732 -0.7126  0.1573  0.5129
 8552SOL    HW237119   1.646   2.925   4.663 -0.1046 -0.3189 -0.2239
 8553SOL     OW37120   1.583   0.724  16.888  0.2953 -0.7276  0.0023
 8553SOL    HW137121   1.547   0.802  16.930  1.5745  0.0972 -0.4379
 8553SOL    HW237122   1.506   0.666  16.893  3.1444 -4.5676 -0.6301
 8554SOL     OW37123   1.251   3.208  17.226 -0.4385 -0.1355  0.4323
 8554SOL    HW137124   1.334   3.167  17.201  0.2348  0.5267  1.6163
 8554SOL    HW237125   1.289   3.284  17.270  1.2751 -1.4668  1.2216
 8555SOL     OW37126   3.188   2.162   9.528  0.1805  0.7190  0.6162
 8555SOL    HW137127   3.105   2.152   9.576  0.2535 -0.0651  0.5709
 8555SOL    HW237128   3.171   2.135   9.438 -0.2071 -1.7514  1.4363
 8556SOL     OW37129   0.201   0.194  12.605 -0.0469  0.0556 -0.8971
 8556SOL    HW137130   0.196   0.264  12.671  1.4461 -0.5499 -0.1415
 8556SOL    HW237131   0.280   0.145  12.629 -1.0731 -0.6092  1.1889
 8557SOL     OW37132   3.179   3.008  16.264  0.1644  0.0935 -0.2103
 8557SOL    HW137133   3.220   2.936  16.313  0.2704  1.3452  1.5475
 8557SOL    HW237134   3.238   3.028  16.192  0.9859 -0.7826  0.2074
 8558SOL     OW37135   3.460   0.988   3.602  0.3157  0.2361 -0.2626
 8558SOL    HW137136   3.549   0.986   3.567  0.0941 -0.1313 -0.7996
 8558SOL    HW237137   3.415   1.051   3.545 -2.6923 -1.0835  0.6750
 8559SOL     OW37138   2.147   4.468   7.617  0.3746 -0.1460  0.3778
 8559SOL    HW137139   2.096   4.471   7.536  0.6318 -2.0217  0.1344
 8559SOL    HW237140   2.222   4.410   7.604 -0.1937  0.2055 -4.2466
 8560SOL     OW37141   4.041   3.141  12.533  0.0636 -0.2904  0.1879
 8560SOL    HW137142   4.122   3.092  12.544  0.0761 -0.0920  1.0468
 8560SOL    HW237143   4.029   3.176  12.622 -0.9820 -2.3069  0.8331
 8561SOL     OW37144   3.815   0.634  15.268 -0.3370  0.3277  0.1424
 8561SOL    HW137145   3.727   0.636  15.306 -0.1421 -1.0218  0.6591
 8561SOL    HW237146   3.866   0.653  15.347  0.5577 -2.8985  0.3450
 8562SOL     OW37147   0.442   0.571   3.363  0.0268  0.2645  0.0838
 8562SOL    HW137148   0.482   0.558   3.277 -1.2451 -4.5009  0.2194
 8562SOL    HW237149   0.512   0.591   3.425 -1.0566  2.2384  0.6851
 8563SOL     OW37150   1.303   0.258   8.378  0.0116 -0.4742 -0.8355
 8563SOL    HW137151   1.208   0.248   8.374 -0.0539 -0.7658  1.1800
 8563SOL    HW237152   1.311   0.324   8.310 -0.8901  0.9200  0.3990
 8564SOL     OW37153   2.062   4.187  14.923  0.1234 -0.1143  0.8516
 8564SOL    HW137154   2.003   4.256  14.953  1.1060  0.8482  0.5672
 8564SOL    HW237155   2.083   4.214  14.833  1.4147 -0.4512  1.0407
 8565SOL     OW37156   0.496   1.058  13.845  0.3357  0.8528 -0.3189
 8565SOL    HW137157   0.508   1.153  13.848 -2.8025  1.2306  0.0724
 8565SOL    HW237158   0.401   1.047  13.843  0.2063  1.9962 -0.1267
 8566SOL     OW37159   1.833   2.863   6.874  0.4292  0.1188  0.1402
 8566SOL    HW137160   1.848   2.923   6.947  1.4049 -3.3787  2.7637
 8566SOL    HW237161   1.739   2.864   6.858  0.8842  0.7242 -2.5096
 8567SOL     OW37162   0.707   1.912  13.412 -0.1986 -0.4301 -0.3843
 8567SOL    HW137163   0.663   1.830  13.434  3.2316 -1.7215  1.5934
 8567SOL    HW237164   0.716   1.908  13.317  0.2716  2.0868 -0.4540
 8568SOL     OW37165   0.647   2.992  14.896  0.2570  0.3837 -0.2824
 8568SOL    HW137166   0.700   3.049  14.952  1.2696  0.5324 -1.3954
 8568SOL    HW237167   0.664   3.020  14.806  0.8133 -1.7233 -0.8404
 8569SOL     OW37168   0.706   2.951   7.541 -0.1793  0.1721 -0.4537
 8569SOL    HW137169   0.612   2.969   7.537 -0.2115  0.0278 -0.3274
 8569SOL    HW237170   0.724   2.950   7.635  1.2163 -1.2258 -0.7275
 8570SOL     OW37171   1.920   1.402   4.251 -0.4100 -0.6215  0.1123
 8570SOL    HW137172   1.941   1.475   4.310  1.1966 -1.7887  0.9781
 8570SOL    HW237173   1.871   1.334   4.297 -2.7745  0.8582 -0.1956
 8571SOL     OW37174   2.814   1.651   6.333  0.9148  0.3783  0.2708
 8571SOL    HW137175   2.844   1.727   6.283  0.1260  0.3370 -0.2636
 8571SOL    HW237176   2.896   1.633   6.378  0.2397  1.1294  1.7920
 8572SOL     OW37177   4.204   0.265   8.140  0.1688 -0.5227  0.1868
 8572SOL    HW137178   4.224   0.184   8.187  3.7146  1.0493  1.4102
 8572SOL    HW237179   4.149   0.223   8.074 -3.0129  1.2925  1.6585
 8573SOL     OW37180   3.035   1.247  14.910  0.1697 -0.2964 -0.6929
 8573SOL    HW137181   2.968   1.242  14.978  3.0550  3.2931  2.3780
 8573SOL    HW237182   2.974   1.277  14.842  0.7914  1.0720 -0.6410
 8574SOL     OW37183   3.748   0.566   5.377 -0.3420 -0.0808 -0.0885
 8574SOL    HW137184   3.668   0.539   5.332  0.4958 -0.5030 -1.3157
 8574SOL    HW237185   3.713   0.638   5.429 -1.6428 -0.6223 -0.2056
 8575SOL     OW37186   1.352   0.407   7.712 -0.0683  0.0839 -0.3121
 8575SOL    HW137187   1.332   0.336   7.772 -2.2966  1.5286  0.6464
 8575SOL    HW237188   1.266   0.448   7.706 -1.4313 -2.7159  0.1096
 8576SOL     OW37189   0.737   1.136  12.417  0.0750  0.4104 -0.0582
 8576SOL    HW137190   0.718   1.048  12.385  1.1694 -0.2628  1.1535
 8576SOL    HW237191   0.722   1.129  12.512 -1.4305 -0.0316 -0.3178
 8577SOL     OW37192   3.184   2.153  10.540 -0.1216 -0.0729 -0.7227
 8577SOL    HW137193   3.094   2.125  10.551  0.1193  0.0988  1.6521
 8577SOL    HW237194   3.211   2.107  10.461  1.5117 -0.1700 -0.1107
 8578SOL     OW37195   0.056   2.447   2.293  0.1782 -0.0272  0.1176
 8578SOL    HW137196   0.127   2.510   2.303  0.4037 -0.2619  0.0087
 8578SOL    HW237197   4.710   2.513   2.298 -0.9787 -1.1811 -0.5022
 8579SOL     OW37198   2.290   0.079   4.464  0.2527 -0.2835  0.1042
 8579SOL    HW137199   2.381   0.105   4.454  0.2058  0.3217  1.2257
 8579SOL    HW237200   2.280   0.022   4.388 -0.4215 -0.0734  0.0384
 8580SOL     OW37201   3.503   0.363   7.932  0.0031  0.1342  0.2773
 8580SOL    HW137202   3.498   0.455   7.956 -0.0849 -0.3692  2.1922
 8580SOL    HW237203   3.513   0.313   8.013  0.2442  2.5149  1.7197
 8581SOL     OW37204   1.376   4.030   1.167 -0.1272 -0.8994 -0.1091
 8581SOL    HW137205   1.365   3.966   1.096 -1.1137  1.9966 -2.5696
 8581SOL    HW237206   1.284   4.055   1.178 -0.1130  0.0894 -2.1908
 8582SOL     OW37207   4.301   1.198   6.438  0.2730 -0.3506  0.5274
 8582SOL    HW137208   4.353   1.272   6.407  0.0475 -0.8157 -0.9636
 8582SOL    HW237209   4.366   1.130   6.424 -0.2602 -0.7026 -0.2530
 8583SOL     OW37210   0.283   4.631   6.474  0.2225  0.5119 -0.0876
 8583SOL    HW137211   0.357   4.616   6.416 -1.5685  2.8412 -3.0142
 8583SOL    HW237212   0.274   0.004   6.475 -2.1066  0.2941  0.5906
 8584SOL     OW37213   2.563   2.142  11.647 -0.4414  0.3349 -0.0119
 8584SOL    HW137214   2.639   2.199  11.636 -1.6647  2.0863  0.7126
 8584SOL    HW237215   2.555   2.152  11.742 -0.7419  1.2516 -0.1367
 8585SOL     OW37216   3.779   2.699   3.689 -0.3014  0.0072 -0.1709
 8585SOL    HW137217   3.725   2.778   3.697  0.5643  0.4121  1.4994
 8585SOL    HW237218   3.823   2.690   3.773 -2.4872 -1.5371  0.7953
 8586SOL     OW37219   0.867   2.185   6.342 -0.1832 -0.1369  0.2511
 8586SOL    HW137220   0.773   2.190   6.359 -0.4116 -0.5532 -0.8972
 8586SOL    HW237221   0.879   2.268   6.296 -0.5029  0.3435  1.0376
 8587SOL     OW37222   4.613   3.342   6.957  0.4612 -0.0498  0.1900
 8587SOL    HW137223   4.683   3.313   6.899 -0.5269 -2.4123  0.1549
 8587SOL    HW237224   4.574   3.259   6.986 -1.1522  0.3719 -0.7882
 8588SOL     OW37225   0.551   4.278  14.783 -0.5778  0.7589 -0.5137
 8588SOL    HW137226   0.609   4.354  14.774  1.6806 -0.6128  2.5312
 8588SOL    HW237227   0.470   4.317  14.749 -1.4084 -0.4074  0.0991
 8589SOL     OW37228   0.836   2.587  16.304  0.1310 -0.0738 -0.1152
 8589SOL    HW137229   0.849   2.624  16.217 -1.5273 -1.3364 -0.9099
 8589SOL    HW237230   0.800   2.503  16.276  0.7951 -0.0352 -1.0616
 8590SOL     OW37231   2.808   1.349   8.784  0.0401 -0.0976  0.1995
 8590SOL    HW137232   2.897   1.370   8.812  0.7576 -1.7737 -0.8328
 8590SOL    HW237233   2.778   1.288   8.851  1.2102 -0.0638  0.7646
 8591SOL     OW37234   2.748   1.898   1.295 -0.0340  0.2669 -0.1140
 8591SOL    HW137235   2.683   1.853   1.350  2.7157 -0.8488  2.2281
 8591SOL    HW237236   2.767   1.824   1.237 -0.1471 -0.3768  0.6734
 8592SOL     OW37237   2.113   1.400   0.875 -0.4939  0.4194 -0.2981
 8592SOL    HW137238   2.103   1.406   0.970  1.2160  0.4784 -0.1370
 8592SOL    HW237239   2.207   1.400   0.858 -0.2166 -0.1130  1.2359
 8593SOL     OW37240   3.691   0.787   6.823  0.1265 -0.1373 -0.1184
 8593SOL    HW137241   3.764   0.842   6.796 -1.1728  0.3934 -2.4826
 8593SOL    HW237242   3.673   0.736   6.745 -2.0058  2.1799 -1.1332
 8594SOL     OW37243   3.369   1.307   2.058  0.5546 -0.0148  0.0501
 8594SOL    HW137244   3.398   1.322   1.968 -0.3159 -1.8188 -0.5322
 8594SOL    HW237245   3.290   1.361   2.061  0.4483 -0.1373 -0.5369
 8595SOL     OW37246   3.635   3.889  16.080 -0.5420 -0.1290  0.1427
 8595SOL    HW137247   3.670   3.933  16.157 -0.6813 -0.6496  0.5040
 8595SOL    HW237248   3.596   3.963  16.033 -0.6164 -0.2062  0.0833
 8596SOL     OW37249   0.149   1.396   5.740 -0.6807  0.2125 -0.6210
 8596SOL    HW137250   0.236   1.391   5.781 -0.3555  0.6674 -1.2533
 8596SOL    HW237251   0.098   1.359   5.813  0.5614  2.1298  1.2265
 8597SOL     OW37252   0.117   1.520  13.430  0.4690 -0.0564 -0.1066
 8597SOL    HW137253   0.028   1.554  13.444  0.4420 -0.4996  0.7502
 8597SOL    HW237254   0.170   1.569  13.493  0.9383  3.6793 -3.3308
 8598SOL     OW37255   1.955   2.854   6.477 -0.3949 -0.1505 -0.1029
 8598SOL    HW137256   1.951   2.922   6.545 -0.5562  1.4423 -1.7203
 8598SOL    HW237257   2.048   2.862   6.461  0.0343  2.2488  3.5408
 8599SOL     OW37258   1.428   3.723   5.443  0.1332 -0.0187 -0.5373
 8599SOL    HW137259   1.480   3.774   5.381  1.7677 -0.7439  0.2302
 8599SOL    HW237260   1.501   3.687   5.494 -1.3536 -1.3492  0.6629
 8600SOL     OW37261   1.502   0.957   6.866 -0.4905  0.0554 -0.3329
 8600SOL    HW137262   1.577   0.990   6.816 -0.0434 -0.8223 -0.2387
 8600SOL    HW237263   1.545   0.935   6.949  1.2599 -0.9990 -1.5012
 8601SOL     OW37264   0.274   2.315   0.889 -0.1524  0.0264 -0.0950
 8601SOL    HW137265   0.258   2.252   0.959 -1.2638  2.0759  1.4729
 8601SOL    HW237266   0.228   2.274   0.816 -0.6138 -0.7939  0.6603
 8602SOL     OW37267   0.030   1.717   8.346  0.0460 -0.5978 -0.4279
 8602SOL    HW137268   4.674   1.756   8.385  2.0788  0.6133  2.4637
 8602SOL    HW237269   0.027   1.765   8.263  1.7814 -0.8878 -0.6479
 8603SOL     OW37270   1.707   2.559  13.059 -0.3260  0.5644  0.4335
 8603SOL    HW137271   1.722   2.598  12.973 -0.9654 -0.5858 -0.2025
 8603SOL    HW237272   1.612   2.554  13.068 -0.1632 -2.6013  0.4987
 8604SOL     OW37273   1.807   0.525  13.695  0.1602 -0.1143  0.4484
 8604SOL    HW137274   1.777   0.483  13.614  1.6108  0.1796 -0.2507
 8604SOL    HW237275   1.900   0.520  13.673  0.6955  1.7248  2.3220
 8605SOL     OW37276   4.260   0.772   3.155  0.1039  0.1309 -0.1769
 8605SOL    HW137277   4.167   0.751   3.148  0.7142 -2.4528 -0.4424
 8605SOL    HW237278   4.292   0.705   3.215 -0.1678 -1.0777 -1.3882
 8606SOL     OW37279   3.556   2.187   7.693 -0.0052 -0.2451  0.2940
 8606SOL    HW137280   3.537   2.127   7.766  1.0575 -2.7514 -1.4899
 8606SOL    HW237281   3.526   2.271   7.729  1.4977  1.1872 -1.8256
 8607SOL     OW37282   1.725   3.157   7.472  0.6677 -0.4889  0.0899
 8607SOL    HW137283   1.806   3.174   7.424  0.2763 -1.4848 -0.9267
 8607SOL    HW237284   1.744   3.188   7.561  0.7992  0.6987 -0.3538
 8608SOL     OW37285   1.891   0.344   2.307  0.0238  0.1349  0.2891
 8608SOL    HW137286   1.800   0.353   2.277  0.8571  1.5108 -1.8219
 8608SOL    HW237287   1.884   0.357   2.401  1.6440 -0.1711  0.4442
 8609SOL     OW37288   3.568   1.527   3.784  0.6008  0.2740  0.1909
 8609SOL    HW137289   3.543   1.526   3.876 -1.0541 -0.1600 -0.2636
 8609SOL    HW237290   3.585   1.435   3.763 -3.4979 -0.3520 -0.3877
 8610SOL     OW37291   0.307   2.604   4.326  0.2850  0.3431 -0.2689
 8610SOL    HW137292   0.298   2.687   4.374  1.6204 -0.9864  2.2663
 8610SOL    HW237293   0.282   2.626   4.236  0.0648 -0.7795 -0.4760
 8611SOL     OW37294   1.144   2.619  16.823  0.2950  0.0739 -0.3299
 8611SOL    HW137295   1.225   2.587  16.863  1.3065  1.6224 -1.1641
 8611SOL    HW237296   1.161   2.601  16.731 -0.1802  0.5763 -0.5136
 8612SOL     OW37297   1.437   2.007   4.055  0.1155  0.4556  0.4545
 8612SOL    HW137298   1.435   1.971   4.143 -1.0249 -1.6728 -0.4462
 8612SOL    HW237299   1.434   1.927   4.002  1.6633  0.0940  0.9332
 8613SOL     OW37300   2.393   2.739   3.929 -0.4071 -0.0237 -0.1486
 8613SOL    HW137301   2.408   2.783   4.013  1.3260  0.3010 -0.6228
 8613SOL    HW237302   2.300   2.718   3.933 -0.5603  0.8560  0.8644
 8614SOL     OW37303   4.655   3.742   4.154  0.2680  0.1357 -0.2966
 8614SOL    HW137304   0.014   3.709   4.192  0.6846  1.1113 -0.3562
 8614SOL    HW237305   4.603   3.764   4.232 -0.2978  1.8847 -1.1821
 8615SOL     OW37306   2.242   4.142   6.686  0.9603  0.5802  0.5228
 8615SOL    HW137307   2.241   4.237   6.680 -2.0502  0.4404 -1.2608
 8615SOL    HW237308   2.159   4.136   6.733  1.4451  1.7353  1.5176
 8616SOL     OW37309   1.304   3.667   3.741 -0.2210 -0.0852 -0.0588
 8616SOL    HW137310   1.360   3.744   3.752  1.2016 -0.9786 -0.9446
 8616SOL    HW237311   1.339   3.631   3.659  0.7559 -2.0750  1.2375
 8617SOL     OW37312   3.558   0.087  13.426 -0.7610  0.2155  0.4194
 8617SOL    HW137313   3.574   0.118  13.516 -0.2275 -0.8941  0.7013
 8617SOL    HW237314   3.476   0.126  13.395  0.0148  2.2595  0.8686
 8618SOL     OW37315   2.908   3.786  14.520  0.0719 -0.4952  0.2253
 8618SOL    HW137316   2.913   3.760  14.612 -1.4134 -1.2672  0.0794
 8618SOL    HW237317   2.859   3.717  14.475  0.6275 -0.9001  0.2345
 8619SOL     OW37318   3.573   2.783   2.325  0.1921 -0.0639  0.0597
 8619SOL    HW137319   3.607   2.770   2.237 -0.6348  0.4039 -0.3233
 8619SOL    HW237320   3.570   2.879   2.324  2.9905  0.0138 -1.8798
 8620SOL     OW37321   0.237   3.255  10.599  0.2833  0.4706  0.3870
 8620SOL    HW137322   0.307   3.299  10.550  0.6144 -0.3270  0.1463
 8620SOL    HW237323   0.280   3.234  10.682  2.1739 -2.1413 -1.2519
 8621SOL     OW37324   1.224   2.518   8.329 -0.4482 -0.0791  0.6338
 8621SOL    HW137325   1.209   2.572   8.251  3.7176  2.8524  1.8692
 8621SOL    HW237326   1.314   2.542   8.350 -0.7460  0.7543  0.9674
 8622SOL     OW37327   4.033   3.562   2.960  0.0917 -0.0100 -0.2915
 8622SOL    HW137328   3.992   3.645   2.939  0.0092 -0.1537 -0.6865
 8622SOL    HW237329   4.125   3.581   2.942 -0.0082  2.1648  1.5214
 8623SOL     OW37330   0.079   0.228   2.290  0.4643 -0.3940 -0.3329
 8623SOL    HW137331   0.085   0.301   2.228 -0.4370 -1.1123 -1.2752
 8623SOL    HW237332   0.161   0.244   2.336  1.1667 -0.6628 -1.4841
 8624SOL     OW37333   0.180   2.160   0.344  0.5285  0.2786  0.1901
 8624SOL    HW137334   0.182   2.145   0.250 -0.9487  2.5325 -0.1868
 8624SOL    HW237335   0.267   2.191   0.369 -0.0239  3.5034 -1.8884
 8625SOL     OW37336   4.047   3.869  16.003  0.1140  0.3966  0.0642
 8625SOL    HW137337   4.084   3.839  16.087 -0.0950  2.5988  0.9400
 8625SOL    HW237338   4.031   3.962  16.018  1.3142  0.9599 -2.0730
 8626SOL     OW37339   0.585   1.813   3.289 -0.0831 -0.4041  0.2260
 8626SOL    HW137340   0.548   1.870   3.221 -0.2674  0.4636  1.0549
 8626SOL    HW237341   0.563   1.725   3.259 -0.5049  0.4605 -1.9911
 8627SOL     OW37342   4.122   2.399   6.553  0.2560  0.4472 -0.5882
 8627SOL    HW137343   4.043   2.420   6.503  0.2733  0.9196 -0.4136
 8627SOL    HW237344   4.178   2.359   6.486  0.8762 -0.2379  0.3448
 8628SOL     OW37345   2.319   4.563   7.280  0.5671 -0.6450 -0.0982
 8628SOL    HW137346   2.312   4.469   7.271 -0.2785 -0.8342  2.5278
 8628SOL    HW237347   2.347   4.588   7.191  0.7448  0.6485  0.3097
 8629SOL     OW37348   0.318   0.476   4.455 -0.8028  0.1583 -0.3711
 8629SOL    HW137349   0.334   0.511   4.542  0.1422  2.5758 -1.5264
 8629SOL    HW237350   0.334   0.383   4.469  4.4237  1.1353 -0.1238
 8630SOL     OW37351   4.200   4.388   7.544 -0.2689 -0.2312  0.0066
 8630SOL    HW137352   4.147   4.465   7.563 -0.3443 -0.1827 -0.3859
 8630SOL    HW237353   4.285   4.426   7.525 -1.2836  1.2452 -1.5479
 8631SOL     OW37354   3.812   2.120  12.865 -0.1689 -0.1166  0.6319
 8631SOL    HW137355   3.793   2.166  12.946  0.6508 -0.2073  0.8844
 8631SOL    HW237356   3.728   2.078  12.845 -0.5706  0.7366  0.5536
 8632SOL     OW37357   0.503   4.591  11.372 -0.0884 -0.4885  0.5103
 8632SOL    HW137358   0.503   4.622  11.282 -0.6275 -0.9147  0.3660
 8632SOL    HW237359   0.411   4.565  11.380  0.2461 -2.0982 -0.9518
 8633SOL     OW37360   2.825   3.008   0.622 -0.1491 -0.5593  0.0225
 8633SOL    HW137361   2.905   3.056   0.600  0.5841 -0.9408  1.8079
 8633SOL    HW237362   2.760   3.077   0.633  0.4332 -0.1031  0.6016
 8634SOL     OW37363   1.683   4.442   0.756  0.1991  0.4978  0.5105
 8634SOL    HW137364   1.748   4.412   0.819 -0.5939 -1.1622  0.5443
 8634SOL    HW237365   1.751   4.455   0.689  1.0495  1.4480  1.5604
 8635SOL     OW37366   2.476   2.669   8.787 -0.1789 -0.2418  0.1470
 8635SOL    HW137367   2.489   2.574   8.794  1.0517 -0.0575  0.2766
 8635SOL    HW237368   2.546   2.705   8.840 -0.6843  2.6713 -1.1981
 8636SOL     OW37369   1.174   2.270   1.513  0.1256  0.4172  0.1952
 8636SOL    HW137370   1.096   2.287   1.565  1.2262  0.2744  1.8840
 8636SOL    HW237371   1.158   2.342   1.452  2.9032  1.0266  0.1913
 8637SOL     OW37372   3.310   2.394   5.212 -0.1194  0.0034 -0.6044
 8637SOL    HW137373   3.362   2.367   5.288  1.5507 -0.4003 -1.8863
 8637SOL    HW237374   3.290   2.312   5.167  0.2551  0.9348 -2.4895
 8638SOL     OW37375   4.684   2.054   3.124 -0.4221 -0.4083 -0.6650
 8638SOL    HW137376   4.616   2.110   3.086  1.0222  1.2972 -0.7296
 8638SOL    HW237377   0.034   2.109   3.095  0.1374 -2.0557 -2.3979
 8639SOL     OW37378   3.602   1.448   5.733 -0.1454 -0.0023  0.2172
 8639SOL    HW137379   3.663   1.375   5.748  0.7878  0.3439 -1.7846
 8639SOL    HW237380   3.555   1.410   5.659 -1.1303 -1.4184  1.5794
 8640SOL     OW37381   4.294   3.999   7.728 -0.3491  0.2319  0.0688
 8640SOL    HW137382   4.365   4.050   7.689  0.5937  0.3136  1.8946
 8640SOL    HW237383   4.265   4.054   7.801  2.0660 -0.6185  1.6773
 8641SOL     OW37384   1.958   2.180   9.716 -0.1286  0.7014 -0.3102
 8641SOL    HW137385   2.040   2.217   9.683  0.8952 -0.5901  0.7206
 8641SOL    HW237386   1.918   2.261   9.748 -1.7202 -0.2696  0.1705
 8642SOL     OW37387   0.758   4.490   7.803 -0.2165 -0.1837  0.4281
 8642SOL    HW137388   0.765   4.584   7.783  3.2171 -0.2425  1.2981
 8642SOL    HW237389   0.844   4.450   7.791  0.7310  2.0939 -0.3206
 8643SOL     OW37390   4.503   1.030  12.831 -0.1684  0.2134  0.3363
 8643SOL    HW137391   4.516   1.079  12.912 -0.6980  1.8801 -0.5873
 8643SOL    HW237392   4.523   0.945  12.870  2.6421 -0.2303 -2.0986
 8644SOL     OW37393   0.472   3.759   9.112 -0.0199 -0.0102  0.2190
 8644SOL    HW137394   0.515   3.674   9.106  2.1169  1.0249  0.6333
 8644SOL    HW237395   0.405   3.745   9.045  0.2693  0.7787 -0.2392
 8645SOL     OW37396   1.701   0.755   4.117 -0.3094 -0.4362 -0.5249
 8645SOL    HW137397   1.745   0.690   4.063  0.3253  0.2985 -0.8995
 8645SOL    HW237398   1.634   0.776   4.051 -0.5108 -0.4297 -0.3173
 8646SOL     OW37399   1.118   2.913   7.700  0.2177 -0.3349 -0.1986
 8646SOL    HW137400   1.119   2.927   7.795  0.7696 -0.4381 -0.1859
 8646SOL    HW237401   1.052   2.844   7.704  1.0645 -1.1641 -0.2569
 8647SOL     OW37402   4.137   0.613   8.548 -0.4786 -0.0894 -0.1769
 8647SOL    HW137403   4.186   0.692   8.571  2.5935 -1.9833 -0.1549
 8647SOL    HW237404   4.054   0.655   8.524 -0.2257  1.7194  2.1586
 8648SOL     OW37405   2.071   2.543  12.365 -0.0443 -0.0136 -0.5307
 8648SOL    HW137406   2.138   2.611  12.376 -1.7654  1.5676  0.3554
 8648SOL    HW237407   2.121   2.472  12.325  0.1886  0.7451 -1.5657
 8649SOL     OW37408   2.637   0.677   5.256  0.3520  0.6647  0.8569
 8649SOL    HW137409   2.671   0.588   5.252  1.2960  1.1517 -1.8051
 8649SOL    HW237410   2.704   0.715   5.312  0.0909  0.5661  1.2397
 8650SOL     OW37411   2.249   3.926  11.700  0.1085  0.2850 -0.2604
 8650SOL    HW137412   2.189   3.865  11.656 -0.5200  1.2042 -0.6939
 8650SOL    HW237413   2.246   3.902  11.792  1.1463 -0.1790 -0.3502
 8651SOL     OW37414   4.684   3.951  10.507 -0.2527 -0.0628  0.1363
 8651SOL    HW137415   0.023   3.983  10.573 -1.2091 -0.8457  1.4001
 8651SOL    HW237416   4.631   3.885  10.551 -0.9660 -0.1928 -0.9076
 8652SOL     OW37417   1.921   4.190   3.335  0.1118  0.2548  0.2263
 8652SOL    HW137418   1.977   4.170   3.260 -2.1044  0.2316 -1.4060
 8652SOL    HW237419   1.893   4.278   3.310  0.7813  0.3649 -0.1473
 8653SOL     OW37420   2.448   2.129   3.175  0.0202 -0.6107 -0.1355
 8653SOL    HW137421   2.526   2.185   3.172 -0.8494  0.5068 -1.6550
 8653SOL    HW237422   2.396   2.184   3.235 -0.8464  0.0886 -1.5374
 8654SOL     OW37423   2.001   3.393  11.969  0.6349 -0.2442  0.2745
 8654SOL    HW137424   2.062   3.463  11.950  0.6361 -0.7226 -1.4931
 8654SOL    HW237425   2.038   3.344  12.043 -1.7462 -1.0230  0.9558
 8655SOL     OW37426   2.611   4.536  11.868  0.0647  0.3991  0.0644
 8655SOL    HW137427   2.559   4.455  11.864 -0.6717  0.8009  1.6382
 8655SOL    HW237428   2.551   4.598  11.908 -0.5291 -1.8875  2.7107
 8656SOL     OW37429   4.302   1.250   2.320 -0.2396 -0.0424  0.0164
 8656SOL    HW137430   4.344   1.336   2.316  1.2521 -0.7011  1.8277
 8656SOL    HW237431   4.310   1.232   2.413  1.6762  2.0165  0.2484
 8657SOL     OW37432   2.010   0.713   4.171  0.4323  0.5113  0.0403
 8657SOL    HW137433   1.999   0.622   4.199  0.9607  0.4770  0.1357
 8657SOL    HW237434   1.928   0.725   4.122  0.6465  0.4739 -0.3287
 8658SOL     OW37435   1.780   2.654   7.508 -0.0165 -0.0961  1.0505
 8658SOL    HW137436   1.788   2.700   7.591  0.6497 -2.4054  2.2765
 8658SOL    HW237437   1.871   2.652   7.478 -0.0703 -1.3753  0.9647
 8659SOL     OW37438   1.462   3.061  17.166 -0.0798  0.1244 -0.5319
 8659SOL    HW137439   1.526   3.039  17.098 -0.2102  0.9548 -0.9269
 8659SOL    HW237440   1.472   2.987  17.226  0.9563  0.2346 -0.5816
 8660SOL     OW37441   3.349   2.618   5.028  0.2565 -0.2379  0.0975
 8660SOL    HW137442   3.323   2.553   5.093 -0.9173  0.0723 -0.0605
 8660SOL    HW237443   3.423   2.653   5.076  1.1457 -0.3880 -1.1575
 8661SOL     OW37444   2.853   4.625  12.770 -0.0022 -0.2089 -0.4050
 8661SOL    HW137445   2.897   4.546  12.802  1.2728 -0.0333 -1.7680
 8661SOL    HW237446   2.832   4.675  12.849  0.7540 -1.0459  0.3261
 8662SOL     OW37447   2.994   3.167   9.857  0.0038  0.2705  0.7444
 8662SOL    HW137448   3.072   3.137   9.810 -0.2965 -3.4241  2.5732
 8662SOL    HW237449   3.014   3.155   9.950  2.1548 -1.7366  0.0058
 8663SOL     OW37450   3.783   4.425   1.471  0.8022  0.3020  0.1493
 8663SOL    HW137451   3.863   4.444   1.520  1.4225  0.1415 -0.7999
 8663SOL    HW237452   3.730   4.385   1.540  0.8729 -0.1353 -0.0493
 8664SOL     OW37453   2.317   2.955  15.203 -0.3425  0.5282 -0.0067
 8664SOL    HW137454   2.286   2.903  15.278  1.1165 -0.2979  0.0140
 8664SOL    HW237455   2.300   2.898  15.128  0.6985  0.4918 -0.2082
 8665SOL     OW37456   2.888   2.080   7.087  0.1825  0.7279  0.5803
 8665SOL    HW137457   2.951   2.013   7.116  0.4637  1.0031  0.6085
 8665SOL    HW237458   2.812   2.026   7.066  0.4905  0.2301  0.7337
 8666SOL     OW37459   1.646   1.140   8.736 -0.0728  0.6300 -0.2026
 8666SOL    HW137460   1.622   1.215   8.682  1.9275  1.4319  0.0186
 8666SOL    HW237461   1.572   1.141   8.796  0.3690 -1.6247  0.3876
 8667SOL     OW37462   4.438   4.280   2.181 -0.3789  0.2380  0.1745
 8667SOL    HW137463   4.482   4.336   2.245 -0.0356  0.5477 -0.3380
 8667SOL    HW237464   4.381   4.341   2.133 -1.6207 -1.0580  0.0077
 8668SOL     OW37465   2.529   2.492  16.460 -0.7581  0.1177  0.2253
 8668SOL    HW137466   2.522   2.572  16.513  0.3211 -0.4316  1.1741
 8668SOL    HW237467   2.479   2.423  16.504 -1.5714 -1.0236 -2.5050
 8669SOL     OW37468   3.763   3.581   0.511 -0.1276  0.2533 -0.2686
 8669SOL    HW137469   3.742   3.673   0.524 -0.9914 -0.0081  0.2799
 8669SOL    HW237470   3.823   3.589   0.437  1.8384  0.6719  1.3796
 8670SOL     OW37471   3.911   2.196   1.971 -0.1838 -0.2284  0.1504
 8670SOL    HW137472   3.902   2.148   2.054 -0.9875 -0.4255 -0.0436
 8670SOL    HW237473   3.846   2.262   1.993 -1.3744 -0.9386 -1.2402
 8671SOL     OW37474   2.144   0.363   7.240  0.3152  0.7574  0.3224
 8671SOL    HW137475   2.133   0.270   7.258 -1.9511  1.4221  2.3535
 8671SOL    HW237476   2.232   0.368   7.203  0.3679 -0.0230  0.3332
 8672SOL     OW37477   4.164   1.520   4.060 -0.2900  0.1508  0.2490
 8672SOL    HW137478   4.199   1.590   4.005 -0.6635 -0.6417 -0.9988
 8672SOL    HW237479   4.235   1.524   4.124 -0.5564  2.8467  0.3788
 8673SOL     OW37480   0.281   1.189   2.384  0.2636  0.3456 -0.4102
 8673SOL    HW137481   0.288   1.096   2.364 -1.1864 -0.1035  1.1295
 8673SOL    HW237482   0.307   1.244   2.310  0.0573 -0.5540 -1.1620
 8674SOL     OW37483   0.702   1.009   1.343 -0.3931  0.4131 -0.2449
 8674SOL    HW137484   0.667   0.971   1.424  0.2934 -0.5263 -0.3941
 8674SOL    HW237485   0.761   0.937   1.321 -1.6437 -0.9914  0.9698
 8675SOL     OW37486   2.788   3.622   3.367 -0.4255  0.0453 -0.2432
 8675SOL    HW137487   2.797   3.539   3.321  0.0417  0.5611 -1.0851
 8675SOL    HW237488   2.696   3.647   3.358 -1.5423 -3.3289  1.7549
 8676SOL     OW37489   0.157   3.326   6.399 -0.0839  0.5119 -0.9103
 8676SOL    HW137490   0.148   3.231   6.394  0.0430  0.4413  0.1253
 8676SOL    HW237491   0.229   3.343   6.339  1.2012  0.5041  0.6468
 8677SOL     OW37492   0.018   2.539   9.595  0.6123  0.3429 -0.5956
 8677SOL    HW137493   0.023   2.550   9.690 -2.4415 -0.2372 -0.3670
 8677SOL    HW237494   4.713   2.448   9.584 -1.0237  0.9156 -1.3443
 8678SOL     OW37495   3.844   2.901   9.894  0.1608 -0.5579 -0.0209
 8678SOL    HW137496   3.829   2.945   9.811  0.9390  0.9801  0.6523
 8678SOL    HW237497   3.884   2.975   9.939 -2.7301  0.0001  1.6046
 8679SOL     OW37498   1.640   4.220  16.645 -0.8028  0.4102 -0.1424
 8679SOL    HW137499   1.680   4.234  16.560  2.3219 -0.9864  1.0991
 8679SOL    HW237500   1.711   4.162  16.673 -1.1845 -0.2555 -0.5676
 8680SOL     OW37501   2.729   2.494  12.344 -0.1181 -0.0242 -0.2005
 8680SOL    HW137502   2.788   2.550  12.395  1.1920 -0.0114 -1.7205
 8680SOL    HW237503   2.719   2.417  12.399  0.7425  0.9596  1.3282
 8681SOL     OW37504   0.891   3.894   9.837 -0.0597  0.1828 -0.4315
 8681SOL    HW137505   0.838   3.972   9.854 -1.7707 -0.6173 -2.0215
 8681SOL    HW237506   0.966   3.907   9.894 -1.7073  1.5345  1.4527
 8682SOL     OW37507   1.135   3.111  12.858 -0.3735 -0.3492  0.3046
 8682SOL    HW137508   1.126   3.204  12.838 -2.3269 -0.8570 -1.2086
 8682SOL    HW237509   1.214   3.107  12.911  1.3497  1.6579 -2.1650
 8683SOL     OW37510   2.572   4.340   7.067  0.1004 -0.0139 -0.0724
 8683SOL    HW137511   2.582   4.434   7.051  0.0667  0.1538  0.8836
 8683SOL    HW237512   2.654   4.318   7.110  0.5479  0.9596 -0.4333
 8684SOL     OW37513   3.653   3.648   3.920  0.3386 -0.1205 -0.6644
 8684SOL    HW137514   3.570   3.669   3.878  0.9500  1.6482 -1.0093
 8684SOL    HW237515   3.703   3.623   3.843  0.3002 -3.8232  0.5080
 8685SOL     OW37516   0.521   1.528  10.222 -0.1607 -0.0246  0.2320
 8685SOL    HW137517   0.527   1.623  10.223 -3.0616  0.1700 -2.0699
 8685SOL    HW237518   0.590   1.507  10.158  0.2762  2.4046 -0.1075
 8686SOL     OW37519   2.451   1.023   3.331 -0.2750 -0.0867 -0.5627
 8686SOL    HW137520   2.406   0.945   3.366 -1.2961  0.4830 -0.6236
 8686SOL    HW237521   2.542   0.996   3.317 -0.8037 -2.7234  0.8539
 8687SOL     OW37522   3.655   1.139  13.620 -0.6548  0.0852  0.0601
 8687SOL    HW137523   3.571   1.094  13.608  0.6577 -2.0877 -0.9778
 8687SOL    HW237524   3.710   1.079  13.570 -0.5142  0.0170  0.2982
 8688SOL     OW37525   1.691   3.967   4.155  0.1559 -0.3690 -0.1595
 8688SOL    HW137526   1.768   3.995   4.205 -1.5609 -0.5796  2.5784
 8688SOL    HW237527   1.662   4.040   4.101  0.9209 -0.5696 -0.8511
 8689SOL     OW37528   1.048   0.194   4.899  0.1755 -0.6615 -0.5539
 8689SOL    HW137529   1.081   0.277   4.865 -1.1869 -0.4020 -1.2441
 8689SOL    HW237530   0.974   0.181   4.840 -0.9218  0.1349  0.6469
 8690SOL     OW37531   1.778   2.860   6.249  0.0515  0.1202  0.5306
 8690SOL    HW137532   1.838   2.854   6.324 -1.8725 -1.2795  1.9740
 8690SOL    HW237533   1.784   2.954   6.237 -0.4651  0.4948  3.2645
 8691SOL     OW37534   0.281   3.417   3.551  0.1917  0.2629  0.4853
 8691SOL    HW137535   0.308   3.465   3.473  2.3249 -3.8766 -1.3053
 8691SOL    HW237536   0.281   3.328   3.518  3.1500  0.7159 -0.6975
 8692SOL     OW37537   0.251   1.258  12.263 -0.3603  0.3675  0.2793
 8692SOL    HW137538   0.326   1.256  12.323  0.0568  0.5372 -0.2343
 8692SOL    HW237539   0.248   1.168  12.231 -2.7753  0.5557 -0.0616
 8693SOL     OW37540   1.286   0.827  12.517  0.5970 -0.7178  0.4747
 8693SOL    HW137541   1.288   0.872  12.601  0.6044 -0.8666  0.5530
 8693SOL    HW237542   1.191   0.813  12.524  0.8161 -1.5065  1.8059
 8694SOL     OW37543   1.820   3.067  11.000 -0.0541  0.4148 -0.2319
 8694SOL    HW137544   1.870   2.986  11.010 -1.1735 -0.0639  1.3702
 8694SOL    HW237545   1.845   3.097  10.913  0.5274  1.0915  0.1679
 8695SOL     OW37546   2.682   1.346   7.847 -0.2930 -0.2296 -0.0937
 8695SOL    HW137547   2.594   1.341   7.887  0.4216 -1.8408  1.2694
 8695SOL    HW237548   2.715   1.402   7.918  1.0588 -0.4175 -0.5803
 8696SOL     OW37549   3.212   2.913  15.920 -0.4983 -0.2977 -0.1980
 8696SOL    HW137550   3.271   2.919  15.845  0.5041 -1.3780  0.5085
 8696SOL    HW237551   3.248   2.971  15.987 -0.3807 -0.3239 -0.2389
 8697SOL     OW37552   0.990   0.734   8.636  0.0173 -0.2536 -0.2785
 8697SOL    HW137553   1.000   0.820   8.595  0.4064 -0.2826 -0.2493
 8697SOL    HW237554   0.975   0.753   8.729  1.2305  0.0536 -0.1346
 8698SOL     OW37555   0.765   2.768   7.352  0.1038  0.2253  0.1178
 8698SOL    HW137556   0.724   2.794   7.269 -1.0321  0.2771  0.6935
 8698SOL    HW237557   0.754   2.847   7.404 -0.5166  0.4979 -0.4298
 8699SOL     OW37558   4.273   0.905   3.941 -0.3347 -0.1766 -0.3485
 8699SOL    HW137559   4.311   0.817   3.940 -1.4964 -0.7324  3.5058
 8699SOL    HW237560   4.181   0.890   3.963  0.1005  0.9601  2.2181
 8700SOL     OW37561   3.559   3.673  13.391  0.2987 -0.0211  0.2515
 8700SOL    HW137562   3.576   3.582  13.415 -1.2130 -0.5653 -0.7474
 8700SOL    HW237563   3.613   3.728  13.448  2.6428  0.4033 -2.3604
 8701SOL     OW37564   1.883   2.093   2.085  0.1620  0.5967 -0.1384
 8701SOL    HW137565   1.973   2.067   2.066 -0.5551 -0.1022 -2.6784
 8701SOL    HW237566   1.850   2.068   1.998  1.2130 -0.2935 -0.2864
 8702SOL     OW37567   0.215   0.782   1.708  0.6819  0.0732 -0.3118
 8702SOL    HW137568   0.213   0.686   1.715  2.3905  0.0178 -0.5952
 8702SOL    HW237569   0.304   0.807   1.734  0.4481 -0.1579  0.7167
 8703SOL     OW37570   0.131   0.195   3.133  0.6962 -0.2846  0.2697
 8703SOL    HW137571   0.061   0.242   3.179  0.2788 -0.0455 -0.5902
 8703SOL    HW237572   0.086   0.203   3.049  1.6939 -1.6445 -0.3828
 8704SOL     OW37573   1.908   0.610   6.399  0.5503  0.4692 -0.2559
 8704SOL    HW137574   1.831   0.643   6.352  0.3279 -0.1164 -0.3073
 8704SOL    HW237575   1.974   0.627   6.331 -0.5982  0.3638 -1.4069
 8705SOL     OW37576   1.404   0.663  11.857  0.4220  0.0821  0.1266
 8705SOL    HW137577   1.321   0.627  11.889  0.3105  1.6329  1.5675
 8705SOL    HW237578   1.435   0.707  11.936  0.5180  0.1568  0.0467
 8706SOL     OW37579   1.942   3.256   1.787 -0.0515 -0.1376  0.0648
 8706SOL    HW137580   1.974   3.209   1.710 -0.0033  3.1309 -1.9199
 8706SOL    HW237581   1.868   3.302   1.747  1.2627  0.3862 -1.7322
 8707SOL     OW37582   4.016   0.526  13.199  0.1243  0.2468  0.1922
 8707SOL    HW137583   4.003   0.601  13.258  0.3741 -0.2702  0.9049
 8707SOL    HW237584   4.027   0.584  13.124 -0.8841 -0.2233 -0.3280
 8708SOL     OW37585   4.085   0.288  14.895 -0.1747  0.6032 -0.3748
 8708SOL    HW137586   4.037   0.286  14.812  0.3666 -2.1453 -0.6213
 8708SOL    HW237587   4.171   0.251  14.875  0.2933  1.0696  0.7775
 8709SOL     OW37588   1.658   0.002   2.780 -0.2985  0.0944 -0.2232
 8709SOL    HW137589   1.627   4.656   2.721  0.1242 -0.3970  0.1247
 8709SOL    HW237590   1.745   0.025   2.748 -0.8563 -0.8146 -2.3834
 8710SOL     OW37591   0.724   3.033  11.704 -0.3124  0.1696  0.5839
 8710SOL    HW137592   0.772   2.954  11.676 -0.4442  0.1597  0.3936
 8710SOL    HW237593   0.651   3.017  11.645  0.9019 -0.0071 -0.8801
 8711SOL     OW37594   2.577   1.987  10.549  0.2311 -0.4035  0.3743
 8711SOL    HW137595   2.612   2.061  10.499 -1.0355 -1.1313 -1.5965
 8711SOL    HW237596   2.538   2.034  10.623  0.6381 -2.0327  1.6076
 8712SOL     OW37597   2.023   4.598   2.929 -0.2710  0.7054  0.0816
 8712SOL    HW137598   2.072   4.644   2.860 -2.2546  2.9656  0.2180
 8712SOL    HW237599   2.013   4.668   2.993  0.3068  0.0375  0.8868
 8713SOL     OW37600   1.786   1.671   4.565  0.2420 -0.0192 -0.2653
 8713SOL    HW137601   1.828   1.586   4.574 -0.6985 -0.4543  0.0191
 8713SOL    HW237602   1.860   1.726   4.590 -0.7372  0.7397  0.9745
 8714SOL     OW37603   0.102   3.770   7.726 -0.3627  0.0458 -0.1821
 8714SOL    HW137604   0.092   3.736   7.815  0.2604  1.6428  0.5187
 8714SOL    HW237605   0.064   3.858   7.718 -0.8146  0.1597  3.1856
 8715SOL     OW37606   0.098   2.408  13.087 -0.4558  0.5904  0.6025
 8715SOL    HW137607   0.061   2.454  13.163 -0.6564  1.1080  0.1958
 8715SOL    HW237608   0.178   2.460  13.078 -0.0084 -0.4795 -1.6243
 8716SOL     OW37609   3.892   0.560  17.510  0.0249 -0.0974  0.2894
 8716SOL    HW137610   3.931   0.474  17.524  0.5373  0.1144  0.1822
 8716SOL    HW237611   3.877   0.553  17.416 -1.3009 -1.0119  0.5712
 8717SOL     OW37612   3.815   0.962   7.074  0.0313 -0.3717  0.1822
 8717SOL    HW137613   3.723   0.979   7.052  0.3444  1.3156  0.1831
 8717SOL    HW237614   3.862   0.936   6.995  1.8126  3.0252  0.1098
 8718SOL     OW37615   0.185   1.670   9.248  0.2319 -0.0969  0.5932
 8718SOL    HW137616   0.147   1.663   9.336  1.5625 -0.4566  1.1407
 8718SOL    HW237617   0.183   1.765   9.241  1.3612 -0.0213  1.3835
 8719SOL     OW37618   2.333   0.487   8.271 -0.4549 -0.3870 -0.0952
 8719SOL    HW137619   2.286   0.428   8.329  1.1879 -1.7050 -0.1048
 8719SOL    HW237620   2.279   0.566   8.274 -1.1574 -0.9050  0.8656
 8720SOL     OW37621   0.691   3.428   8.696 -0.1535  0.0986  0.6223
 8720SOL    HW137622   0.678   3.381   8.614 -1.4855 -1.0869  1.5154
 8720SOL    HW237623   0.607   3.467   8.720  0.3856  2.0244 -0.6172
 8721SOL     OW37624   3.895   4.042   4.988 -0.1341 -0.1571  0.7457
 8721SOL    HW137625   3.908   3.997   5.072 -0.7182  0.6979  1.2986
 8721SOL    HW237626   3.915   3.973   4.925 -3.1342 -1.7390  1.5714
 8722SOL     OW37627   0.850   1.198  11.360 -1.2344 -0.1078 -0.2443
 8722SOL    HW137628   0.849   1.171  11.268  0.0713 -0.9428 -0.0035
 8722SOL    HW237629   0.795   1.276  11.352  3.2699  3.1580  0.7438
 8723SOL     OW37630   1.966   4.204   6.154 -0.0408 -0.2293 -0.2670
 8723SOL    HW137631   2.027   4.143   6.194  1.1706  1.5869  0.6388
 8723SOL    HW237632   1.893   4.202   6.216 -1.3195  1.7274 -1.7198
 8724SOL     OW37633   4.297   1.175  12.693  0.3569 -0.1117  0.3448
 8724SOL    HW137634   4.271   1.267  12.689 -2.9418 -1.0729 -0.2689
 8724SOL    HW237635   4.378   1.174  12.743  0.6248  0.6608 -0.0797
 8725SOL     OW37636   0.615   3.156   1.464  0.0095  0.0447  0.1618
 8725SOL    HW137637   0.650   3.207   1.537 -0.0204  2.0956 -1.2667
 8725SOL    HW237638   0.536   3.207   1.446  0.0056  0.1314  0.4212
 8726SOL     OW37639   3.347   0.472  14.446 -0.0918  0.1139  0.1506
 8726SOL    HW137640   3.335   0.385  14.483  0.0690  1.2137  2.8177
 8726SOL    HW237641   3.273   0.462  14.386 -0.0535 -2.2467  0.4867
 8727SOL     OW37642   4.329   0.531   4.319  0.0096  0.2705  0.4503
 8727SOL    HW137643   4.296   0.481   4.244 -1.1519  0.7066  0.6630
 8727SOL    HW237644   4.347   0.618   4.283  0.0600 -0.3774 -1.0818
 8728SOL     OW37645   0.509   3.366   6.547  0.4415  0.5370 -0.2156
 8728SOL    HW137646   0.471   3.338   6.464  0.5629 -4.5473  1.4499
 8728SOL    HW237647   0.603   3.351   6.532 -0.2261 -2.7664 -0.9759
 8729SOL     OW37648   0.828   0.929   7.747  0.6363  0.0859  0.6260
 8729SOL    HW137649   0.742   0.962   7.719  1.7908  1.4538 -1.2462
 8729SOL    HW237650   0.802   0.863   7.812 -0.0891  1.5293  1.8025
 8730SOL     OW37651   1.499   0.235  12.092  0.1588 -0.1842 -0.6965
 8730SOL    HW137652   1.485   0.288  12.013  1.9762  2.4524  0.7803
 8730SOL    HW237653   1.594   0.224  12.099  0.0810  0.1319  0.7039
 8731SOL     OW37654   3.904   1.320  15.633 -0.0002  0.2834  0.4013
 8731SOL    HW137655   3.904   1.268  15.552  1.8529 -0.2258  0.7230
 8731SOL    HW237656   3.944   1.403  15.605 -0.7504 -0.4884 -3.0205
 8732SOL     OW37657   2.676   0.588   6.213 -0.1132 -0.8332  0.6280
 8732SOL    HW137658   2.586   0.588   6.246 -0.5390 -1.4084 -0.5459
 8732SOL    HW237659   2.716   0.670   6.241 -1.1760  0.2164 -0.8771
 8733SOL     OW37660   1.491   3.557   2.401  0.2779  0.4834  0.2757
 8733SOL    HW137661   1.558   3.624   2.386  2.6206 -1.7464  0.7991
 8733SOL    HW237662   1.458   3.543   2.312  1.6701 -0.0842 -0.1490
 8734SOL     OW37663   1.611   4.374   6.049 -0.1100  0.3692  0.3485
 8734SOL    HW137664   1.632   4.280   6.046 -4.2295 -0.5383 -0.5989
 8734SOL    HW237665   1.601   4.387   6.144 -0.2597 -1.5885  0.6126
 8735SOL     OW37666   1.266   1.829   8.315 -0.4837 -0.0025 -0.6038
 8735SOL    HW137667   1.278   1.784   8.399 -3.4653  1.4651  0.6046
 8735SOL    HW237668   1.263   1.758   8.250 -0.3112 -1.4094  0.9248
 8736SOL     OW37669   2.883   3.066   6.937  0.0995 -0.3628 -0.8110
 8736SOL    HW137670   2.955   3.015   6.899  2.0458  1.7302  0.0523
 8736SOL    HW237671   2.896   3.025   7.023  1.6122  3.9099  1.0049
 8737SOL     OW37672   1.413   0.496   2.210 -0.6500 -0.6207 -0.3451
 8737SOL    HW137673   1.329   0.455   2.190 -0.5751 -0.5960 -0.7066
 8737SOL    HW237674   1.393   0.588   2.230  0.4484 -0.1857 -1.2687
 8738SOL     OW37675   1.338   3.289   1.195  0.0647 -0.3362  0.0349
 8738SOL    HW137676   1.432   3.300   1.208 -0.2354  1.8051  0.2948
 8738SOL    HW237677   1.313   3.320   1.282 -1.8604 -1.8336  0.0144
 8739SOL     OW37678   0.359   4.214   4.210  0.0368  0.1813 -0.0745
 8739SOL    HW137679   0.421   4.170   4.151  0.1550 -1.4298  1.2630
 8739SOL    HW237680   0.275   4.171   4.192 -1.0535  1.6067  1.6065
 8740SOL     OW37681   0.202   1.440   8.608 -0.0732 -0.0820  0.5457
 8740SOL    HW137682   0.285   1.472   8.572 -1.0432  0.9233 -0.7910
 8740SOL    HW237683   0.177   1.513   8.664 -0.4297  0.5865 -0.4813
 8741SOL     OW37684   3.762   4.085  17.410 -0.2057 -0.0939  0.5781
 8741SOL    HW137685   3.805   4.106  17.493  0.2343 -1.4703  0.6986
 8741SOL    HW237686   3.801   4.160  17.367  0.2297 -0.7884 -0.2475
 8742SOL     OW37687   2.384   2.553  14.622 -0.0156  0.0263  0.0680
 8742SOL    HW137688   2.379   2.612  14.698 -0.1962 -0.9157  0.7809
 8742SOL    HW237689   2.445   2.609  14.574 -0.5470  1.1678  0.7068
 8743SOL     OW37690   1.559   4.167  16.157 -0.0620 -0.0181 -0.0333
 8743SOL    HW137691   1.511   4.108  16.098 -2.0041  3.1639 -1.6657
 8743SOL    HW237692   1.482   4.211  16.194 -1.0222 -1.3778 -0.3923
 8744SOL     OW37693   1.140   3.439  15.427 -0.2119 -0.0741 -0.4334
 8744SOL    HW137694   1.214   3.389  15.392 -0.4874 -3.0774  3.2742
 8744SOL    HW237695   1.181   3.525  15.431  0.0599 -0.0872 -2.8392
 8745SOL     OW37696   4.475   3.783  10.693 -0.2398  0.1820 -0.3312
 8745SOL    HW137697   4.463   3.775  10.787 -0.4093 -0.5082 -0.4093
 8745SOL    HW237698   4.392   3.742  10.667 -0.9904  0.3138  1.9108
 8746SOL     OW37699   2.200   1.268   5.663 -0.0507 -0.3572 -0.0583
 8746SOL    HW137700   2.180   1.276   5.756 -1.9735  0.4424 -0.5303
 8746SOL    HW237701   2.139   1.331   5.624  0.9587  0.0643 -0.9716
 8747SOL     OW37702   1.808   0.068   4.711 -0.3168 -0.0075  0.0055
 8747SOL    HW137703   1.883   0.052   4.653  0.3760  1.8386  0.3855
 8747SOL    HW237704   1.736   0.072   4.648 -0.5188  1.8816  0.3338
 8748SOL     OW37705   1.996   1.944   5.459 -0.2127 -0.0358  0.4311
 8748SOL    HW137706   1.987   1.904   5.372  1.8206  1.5027 -0.4900
 8748SOL    HW237707   1.947   2.024   5.442  0.4207  0.0587 -0.9882
 8749SOL     OW37708   3.030   2.056   8.193 -0.4191 -0.0426  0.0035
 8749SOL    HW137709   3.054   2.104   8.272 -1.4468 -0.5080  0.6089
 8749SOL    HW237710   3.110   2.061   8.141  0.7334  1.1035  1.8869
 8750SOL     OW37711   1.017   3.918   7.671  0.7712  0.1320  0.5351
 8750SOL    HW137712   0.927   3.934   7.700 -0.0113  0.8849 -2.3719
 8750SOL    HW237713   1.016   3.829   7.637  1.3348  0.7325 -1.0339
 8751SOL     OW37714   3.072   0.965  11.946 -0.2283 -0.0392  0.4990
 8751SOL    HW137715   3.085   0.875  11.916  1.4215  0.3171  0.1526
 8751SOL    HW237716   3.016   0.996  11.874 -0.9305 -1.2965  0.5104
 8752SOL     OW37717   2.787   2.721   8.589  0.1107 -0.5631 -0.1115
 8752SOL    HW137718   2.881   2.734   8.581 -0.1162 -0.8311 -3.1486
 8752SOL    HW237719   2.784   2.629   8.616  0.1800 -0.5215  0.0347
 8753SOL     OW37720   0.550   2.691   6.994 -0.3686  0.1886  0.7452
 8753SOL    HW137721   0.540   2.597   6.984  1.5290  0.1152 -0.4106
 8753SOL    HW237722   0.490   2.728   6.930  0.2183  0.1037  0.1471
 8754SOL     OW37723   2.929   0.418   1.386  0.4530  0.2903  0.2864
 8754SOL    HW137724   3.014   0.391   1.420  0.4297 -0.5435 -0.3011
 8754SOL    HW237725   2.928   0.511   1.410 -1.4228  0.3283  0.0637
 8755SOL     OW37726   2.748   1.193  16.980 -0.0045  0.0286 -0.4774
 8755SOL    HW137727   2.811   1.241  16.926 -0.6663  1.2053 -0.1887
 8755SOL    HW237728   2.699   1.271  17.005  2.6071  0.6821  2.6720
 8756SOL     OW37729   4.237   2.649   8.343  0.0908 -0.7400 -0.4633
 8756SOL    HW137730   4.256   2.692   8.426 -2.2051  1.6236 -1.1635
 8756SOL    HW237731   4.257   2.713   8.275 -0.9249  0.4310  0.3587
 8757SOL     OW37732   2.624   3.230   4.213 -0.2819  0.3984  0.1374
 8757SOL    HW137733   2.608   3.253   4.121  3.1405  0.2850 -0.4697
 8757SOL    HW237734   2.646   3.311   4.257  1.4248  0.5807 -1.0444
 8758SOL     OW37735   2.653   2.482   4.572  0.1377 -0.2443  0.2925
 8758SOL    HW137736   2.718   2.413   4.561  0.2619 -0.2513  1.0723
 8758SOL    HW237737   2.656   2.501   4.666  0.8913  0.2656  0.1641
 8759SOL     OW37738   2.482   1.194   8.022  0.0079  0.6316  0.6721
 8759SOL    HW137739   2.391   1.221   8.016 -0.3646 -0.4337  1.4749
 8759SOL    HW237740   2.489   1.198   8.118  2.5459  0.7178  0.4988
 8760SOL     OW37741   0.805   4.030   4.071  0.5857 -0.2724  0.1646
 8760SOL    HW137742   0.861   3.973   4.123  0.7936  0.9733  1.3228
 8760SOL    HW237743   0.856   4.050   3.993 -0.7054  0.1578 -0.5597
 8761SOL     OW37744   2.687   0.409   5.219 -0.0717 -0.1007 -0.2611
 8761SOL    HW137745   2.611   0.358   5.245 -0.3649 -0.1396 -1.1972
 8761SOL    HW237746   2.751   0.340   5.238  0.1410  0.1527 -0.0612
 8762SOL     OW37747   4.622   0.250  12.626  0.2980  0.0037  0.0794
 8762SOL    HW137748   4.715   0.258  12.605  0.4636 -1.0533  0.4484
 8762SOL    HW237749   4.600   0.158  12.612  2.5507 -0.5223  0.0709
 8763SOL     OW37750   1.540   2.963   1.519 -0.6497  0.7283 -0.2896
 8763SOL    HW137751   1.565   2.935   1.432  0.8429  0.6712  0.1662
 8763SOL    HW237752   1.625   2.984   1.556  0.4026 -2.4029 -0.9593
 8764SOL     OW37753   1.074   2.652   6.546 -0.2575 -0.4772  0.3191
 8764SOL    HW137754   1.086   2.721   6.480 -1.8046  0.8368  1.4054
 8764SOL    HW237755   1.093   2.705   6.623  0.7102 -0.3613  0.0024
 8765SOL     OW37756   3.516   3.854   0.753  0.2382  0.1400 -0.2238
 8765SOL    HW137757   3.510   3.767   0.715 -0.6937 -0.2043  0.6961
 8765SOL    HW237758   3.477   3.840   0.839  1.9680 -0.9290  0.3907
 8766SOL     OW37759   1.547   1.369   4.072 -0.2333  0.1404  0.3527
 8766SOL    HW137760   1.469   1.388   4.021 -0.3172 -1.8407 -0.2707
 8766SOL    HW237761   1.620   1.391   4.014  0.1532 -0.4432  0.6177
 8767SOL     OW37762   3.848   0.625   4.847  0.8089 -0.0607  0.2532
 8767SOL    HW137763   3.873   0.535   4.868 -0.0129 -1.3214 -4.1983
 8767SOL    HW237764   3.787   0.647   4.917  0.6813 -1.7357  0.6734
 8768SOL     OW37765   3.547   0.058   3.945  0.0320  0.4924  0.6777
 8768SOL    HW137766   3.618   0.045   3.882  1.4829  1.9558  2.0185
 8768SOL    HW237767   3.533   4.693   3.981  0.3843 -1.0152 -2.9105
 8769SOL     OW37768   2.948   2.568   4.821  0.0629  0.3338  0.2774
 8769SOL    HW137769   2.878   2.627   4.847 -1.6323 -1.9050  0.8036
 8769SOL    HW237770   3.026   2.611   4.856  0.6772  0.6514 -1.4877
 8770SOL     OW37771   2.565   2.272   9.996 -0.6300  0.0311 -0.0085
 8770SOL    HW137772   2.584   2.188  10.037 -3.4595 -0.4509  0.3108
 8770SOL    HW237773   2.594   2.331  10.066 -1.4417  1.2088 -0.6562
 8771SOL     OW37774   3.478   2.632   7.520 -0.2506 -0.2404  0.4360
 8771SOL    HW137775   3.488   2.701   7.454  0.6763 -0.5051  0.3093
 8771SOL    HW237776   3.500   2.556   7.466  2.2567  1.8909 -1.5047
 8772SOL     OW37777   2.894   2.631  14.406 -0.3151  0.1477  0.1062
 8772SOL    HW137778   2.854   2.546  14.423 -1.8864  1.2894  2.1738
 8772SOL    HW237779   2.956   2.617  14.335  1.8471 -1.3218  2.3212
 8773SOL     OW37780   3.321   1.230   3.699  0.2209 -0.0840 -0.5040
 8773SOL    HW137781   3.409   1.239   3.664 -0.4891  0.7479 -2.0908
 8773SOL    HW237782   3.329   1.151   3.752 -0.1436 -0.2005 -0.6197
 8774SOL     OW37783   0.301   2.323   3.507 -0.4171 -0.2959 -0.1940
 8774SOL    HW137784   0.362   2.298   3.437 -0.8391  0.6097 -0.8947
 8774SOL    HW237785   0.313   2.418   3.505 -0.5630 -0.2748 -0.0656
 8775SOL     OW37786   2.114   3.629   5.432  0.4916  0.2798  0.2197
 8775SOL    HW137787   2.033   3.594   5.394  1.7316  1.0256 -3.0659
 8775SOL    HW237788   2.120   3.713   5.388  0.1608  1.2338  2.0126
 8776SOL     OW37789   3.446   3.224   5.912 -0.2114 -0.2619 -0.0660
 8776SOL    HW137790   3.371   3.165   5.913  0.7003 -1.4087  0.9381
 8776SOL    HW237791   3.401   3.307   5.900 -0.8482 -0.5177  0.5720
 8777SOL     OW37792   1.244   0.354  15.182  0.1105 -0.6343  0.0862
 8777SOL    HW137793   1.226   0.264  15.154  2.1476 -0.7948 -0.6883
 8777SOL    HW237794   1.184   0.373  15.254 -1.3286 -0.5438 -1.1185
 8778SOL     OW37795   0.025   3.724   9.941  0.4289  0.1562  0.9207
 8778SOL    HW137796   0.037   3.634   9.908 -1.2928  0.3911 -0.3233
 8778SOL    HW237797   0.072   3.717  10.024 -0.0680 -0.2597  1.1709
 8779SOL     OW37798   4.271   4.617   1.552  0.2004  0.2034  0.4658
 8779SOL    HW137799   4.291   4.702   1.590  2.0914  0.6052 -1.4007
 8779SOL    HW237800   4.212   4.644   1.482 -1.0896 -0.1516  1.4206
 8780SOL     OW37801   0.586   0.045   1.423 -0.4918 -0.1638  0.2753
 8780SOL    HW137802   0.535   0.086   1.493  0.1960  1.5493 -0.2430
 8780SOL    HW237803   0.662   0.102   1.411 -0.7033  0.2824  1.0484
 8781SOL     OW37804   0.937   1.487   7.461 -0.0855 -0.3088  0.7176
 8781SOL    HW137805   1.004   1.540   7.419  0.7523 -0.0920  2.3363
 8781SOL    HW237806   0.896   1.556   7.513  1.9849  1.6670 -0.2853
 8782SOL     OW37807   1.148   3.038   8.198 -0.3618 -0.0759 -0.3306
 8782SOL    HW137808   1.164   2.986   8.276 -0.1305  0.2062 -0.1899
 8782SOL    HW237809   1.164   3.125   8.234  1.5518 -0.7414  0.4213
 8783SOL     OW37810   2.830   1.511  17.071 -0.1919 -0.0954  0.1159
 8783SOL    HW137811   2.742   1.476  17.053  0.1519 -0.2156 -1.3031
 8783SOL    HW237812   2.881   1.466  17.004  1.1764  0.2413  0.9368
 8784SOL     OW37813   3.030   2.322   7.008  0.4844  0.3313 -0.2190
 8784SOL    HW137814   2.969   2.373   6.956  1.4163  3.9958  2.2780
 8784SOL    HW237815   2.977   2.242   7.012  3.6467 -1.8327 -1.0935
 8785SOL     OW37816   1.055   1.998   6.433  0.0905 -0.4299  0.0232
 8785SOL    HW137817   0.990   2.067   6.419  0.1313 -0.1491  1.1542
 8785SOL    HW237818   0.990   1.943   6.476  1.1253 -1.3982  0.3444
 8786SOL     OW37819   0.789   2.912  15.754 -0.7168  0.7160 -0.0015
 8786SOL    HW137820   0.777   2.961  15.835  0.0086  2.4932 -0.9747
 8786SOL    HW237821   0.874   2.874  15.779 -0.7971 -2.1107 -3.9753
 8787SOL     OW37822   1.625   4.492   6.299  0.0435  0.2583 -0.2676
 8787SOL    HW137823   1.689   4.475   6.368  1.1348 -1.5415 -1.7259
 8787SOL    HW237824   1.673   4.564   6.258 -1.0349  1.0317 -0.1475
 8788SOL     OW37825   3.491   1.527   4.046 -0.5877 -0.1187  0.3074
 8788SOL    HW137826   3.466   1.618   4.061 -0.0739  0.1218 -0.3183
 8788SOL    HW237827   3.449   1.490   4.124 -0.4655 -1.7003 -0.3891
 8789SOL     OW37828   3.135   0.416  16.590  0.2948 -0.5205  0.0564
 8789SOL    HW137829   3.219   0.462  16.592  0.4073 -0.8371  2.7618
 8789SOL    HW237830   3.076   0.480  16.629  1.4775  0.1190  0.7761
 8790SOL     OW37831   3.052   0.395   3.884 -0.3675  0.3675 -0.3617
 8790SOL    HW137832   3.059   0.474   3.938 -2.1631  2.2355 -2.8516
 8790SOL    HW237833   3.144   0.390   3.858 -1.1482 -0.6388 -2.9396
 8791SOL     OW37834   0.696   2.320  12.424 -0.0948 -0.3052  0.0564
 8791SOL    HW137835   0.785   2.316  12.458 -0.1413 -3.4204 -0.1967
 8791SOL    HW237836   0.654   2.278  12.499  2.7774 -2.4957  0.4360
 8792SOL     OW37837   1.756   0.466  16.235  0.2174  0.0503  0.5468
 8792SOL    HW137838   1.766   0.473  16.140  0.9584 -0.4875  0.5904
 8792SOL    HW237839   1.803   0.386  16.258 -1.4926 -1.0013  0.4219
 8793SOL     OW37840   2.970   2.049   0.867  0.0622  0.3303 -0.5062
 8793SOL    HW137841   2.958   2.083   0.955 -0.9508  1.1349 -0.9497
 8793SOL    HW237842   2.878   2.061   0.841  0.4049  1.7192 -1.0413
 8794SOL     OW37843   2.838   1.858  10.234 -0.1172  0.3154  0.1822
 8794SOL    HW137844   2.923   1.817  10.215 -0.5776 -1.2356  1.4414
 8794SOL    HW237845   2.829   1.866  10.329  2.8919 -0.7202  0.5512
 8795SOL     OW37846   0.548   4.086   4.082  0.3498 -0.0228 -0.0704
 8795SOL    HW137847   0.520   3.994   4.081 -1.4137  0.5257 -2.7458
 8795SOL    HW237848   0.641   4.076   4.061  0.0780  0.6487 -1.6352
 8796SOL     OW37849   1.778   4.486   2.997  0.3172  0.0269 -0.2502
 8796SOL    HW137850   1.761   4.423   2.927 -0.4075 -0.3089  0.2245
 8796SOL    HW237851   1.841   4.544   2.954 -0.0163  0.4288 -0.2021
 8797SOL     OW37852   3.039   4.089   7.670 -0.2243 -0.6618 -0.1919
 8797SOL    HW137853   3.055   4.160   7.607 -0.4578 -1.8030 -1.5231
 8797SOL    HW237854   3.079   4.130   7.747 -0.6425 -3.0915  1.3097
 8798SOL     OW37855   0.285   0.899   3.573  0.1604 -0.2244 -0.2723
 8798SOL    HW137856   0.377   0.904   3.550  0.3577  1.9017  0.9605
 8798SOL    HW237857   0.246   0.864   3.493  2.2746 -0.7320 -1.0712
 8799SOL     OW37858   4.215   1.855   4.942  0.0564 -0.2323 -0.2027
 8799SOL    HW137859   4.235   1.945   4.970 -0.2437 -0.4898  0.8161
 8799SOL    HW237860   4.183   1.872   4.853  0.9918 -1.0005 -0.6841
 8800SOL     OW37861   1.573   3.070  11.147 -0.5632  0.1674 -0.4437
 8800SOL    HW137862   1.593   3.007  11.216  1.2126 -0.3541 -1.4443
 8800SOL    HW237863   1.648   3.056  11.089  0.6148 -0.1441  1.1669
 8801SOL     OW37864   2.892   3.392  10.487  0.1710  0.0044  0.7265
 8801SOL    HW137865   2.870   3.383  10.394 -1.2651  0.8239  0.9900
 8801SOL    HW237866   2.819   3.354  10.535  1.3711  0.3050  2.7480
 8802SOL     OW37867   1.793   0.272   5.060 -0.0846  0.1555  0.2099
 8802SOL    HW137868   1.827   0.239   5.144 -1.8722 -2.0765  0.0511
 8802SOL    HW237869   1.700   0.278   5.081  0.4037  1.3493  2.0888
 8803SOL     OW37870   2.717   2.689   9.426 -0.0737 -0.0748  0.2907
 8803SOL    HW137871   2.809   2.674   9.402  0.0732  1.2663  0.0227
 8803SOL    HW237872   2.676   2.729   9.350 -2.0328 -0.3009  1.2358
 8804SOL     OW37873   1.405   4.110   5.937  0.5292  0.3133  0.5024
 8804SOL    HW137874   1.341   4.068   5.994 -0.6328  1.7647  0.2728
 8804SOL    HW237875   1.477   4.047   5.941 -0.0046 -0.4595 -1.5086
 8805SOL     OW37876   0.352   1.990  10.787 -0.6067 -0.6659 -0.1620
 8805SOL    HW137877   0.392   1.965  10.871  1.2526 -0.2759 -0.9335
 8805SOL    HW237878   0.264   2.008  10.821 -0.7077 -0.8822 -0.3066
 8806SOL     OW37879   2.231   1.742   6.627 -0.1202  0.4035 -0.6925
 8806SOL    HW137880   2.148   1.786   6.644  0.3048  1.0433 -0.2916
 8806SOL    HW237881   2.289   1.818   6.620 -0.5708  0.8733  0.7765
 8807SOL     OW37882   2.845   3.326   6.478 -0.3575  0.1341  0.2319
 8807SOL    HW137883   2.940   3.313   6.484 -0.5454 -1.0989  0.5272
 8807SOL    HW237884   2.824   3.385   6.551 -0.9030  1.0375 -0.6536
 8808SOL     OW37885   0.920   0.297   3.999 -0.6010  0.4111 -0.1852
 8808SOL    HW137886   0.999   0.244   3.986  0.2298  1.7635 -0.6392
 8808SOL    HW237887   0.885   0.283   3.911 -2.1694 -0.2180  0.5427
 8809SOL     OW37888   0.217   4.051   6.742  0.2785  0.0271 -0.4399
 8809SOL    HW137889   0.187   4.121   6.684  0.8199 -0.5777 -1.4425
 8809SOL    HW237890   0.138   4.016   6.784  0.0777 -1.2133 -1.8849
 8810SOL     OW37891   3.677   2.095   6.838  0.5699 -0.3704  0.1064
 8810SOL    HW137892   3.606   2.054   6.887  1.7990 -0.5038  1.7639
 8810SOL    HW237893   3.758   2.053   6.865  0.4834  0.6402  1.9230
 8811SOL     OW37894   0.822   2.692   3.899 -0.1163 -0.1293  0.0970
 8811SOL    HW137895   0.749   2.725   3.846 -0.5267 -0.1230  0.6668
 8811SOL    HW237896   0.813   2.597   3.902 -0.1602 -0.1542 -0.8346
 8812SOL     OW37897   0.134   1.506  16.413 -0.4408 -0.1338 -0.2577
 8812SOL    HW137898   0.186   1.581  16.384 -0.0524 -0.0465  0.6485
 8812SOL    HW237899   0.174   1.427  16.375  1.4384  1.4753 -1.6324
 8813SOL     OW37900   1.254   4.346   7.523  0.0497  0.1434 -0.1423
 8813SOL    HW137901   1.230   4.374   7.435  1.0047 -3.2908 -1.4938
 8813SOL    HW237902   1.205   4.399   7.585  0.0742 -0.8569  0.7341
 8814SOL     OW37903   2.519   3.956   5.994 -0.0229 -0.4549  0.1641
 8814SOL    HW137904   2.506   4.048   6.020  1.0146 -0.3413  0.2815
 8814SOL    HW237905   2.468   3.966   5.914 -1.5016  1.7723  1.3546
 8815SOL     OW37906   1.183   3.542  11.014 -0.0592 -0.2062 -0.1180
 8815SOL    HW137907   1.270   3.572  10.990 -0.7760  0.7298 -1.5830
 8815SOL    HW237908   1.133   3.620  11.039  1.3519  0.1719  1.4905
 8816SOL     OW37909   0.866   1.680   5.537  0.5904 -0.3470  0.2114
 8816SOL    HW137910   0.892   1.746   5.602  0.8757 -0.3450  0.0946
 8816SOL    HW237911   0.827   1.739   5.473  1.1998  2.5629  2.5113
 8817SOL     OW37912   1.780   2.021   1.838 -0.1530 -0.3196 -0.3244
 8817SOL    HW137913   1.686   2.035   1.835 -0.0040  0.3549 -2.4052
 8817SOL    HW237914   1.798   1.949   1.777  1.5226 -1.6598  1.7840
 8818SOL     OW37915   0.369   3.910   2.579 -0.0740 -0.3170 -1.3012
 8818SOL    HW137916   0.457   3.883   2.551  0.3250  0.8838 -1.2058
 8818SOL    HW237917   0.356   3.843   2.646 -0.4244  0.9609 -0.0903
 8819SOL     OW37918   0.687   2.919   2.443  0.3843 -0.1437 -0.1674
 8819SOL    HW137919   0.763   2.868   2.413  0.2733 -1.3068  1.5332
 8819SOL    HW237920   0.731   3.002   2.460  0.9816 -0.0960 -1.9093
 8820SOL     OW37921   4.606   3.920   7.577 -0.0328 -0.0301  0.1074
 8820SOL    HW137922   4.567   4.003   7.552 -1.5988  0.5643  4.5414
 8820SOL    HW237923   4.607   3.867   7.497 -1.4250 -0.2215  0.2292
 8821SOL     OW37924   3.948   1.964   5.144  0.1032 -0.3316 -0.3422
 8821SOL    HW137925   3.885   1.899   5.176 -1.5805  0.8054 -1.3186
 8821SOL    HW237926   3.915   2.009   5.066 -0.5043  0.9878  0.6548
 8822SOL     OW37927   3.132   3.001   2.683  0.4634  0.4819 -0.0304
 8822SOL    HW137928   3.210   3.041   2.721  0.6573  0.3259 -0.2615
 8822SOL    HW237929   3.163   2.968   2.598  0.7059  1.2758 -0.2444
 8823SOL     OW37930   2.165   1.699   2.996 -0.0202 -0.2095 -0.1399
 8823SOL    HW137931   2.099   1.750   2.949  1.6929  1.5006 -0.7235
 8823SOL    HW237932   2.207   1.761   3.056 -1.0725  0.1044  0.2599
 8824SOL     OW37933   2.050   1.561   6.052 -0.2330  0.1538  0.2339
 8824SOL    HW137934   1.969   1.534   6.008 -1.2851  0.9676  1.6772
 8824SOL    HW237935   2.023   1.601   6.135  0.9213  1.6674 -0.1105
 8825SOL     OW37936   0.238   4.134   2.582 -0.5003 -0.0921 -0.0230
 8825SOL    HW137937   0.310   4.180   2.625 -0.6312  0.6542 -0.6036
 8825SOL    HW237938   0.280   4.049   2.571  1.6583  1.1379 -1.1874
 8826SOL     OW37939   1.301   3.080  11.155 -0.9184  0.5200  0.5448
 8826SOL    HW137940   1.387   3.062  11.115 -0.0768 -0.5966  2.8422
 8826SOL    HW237941   1.246   3.129  11.094  2.0148 -1.8305 -4.0163
 8827SOL     OW37942   1.400   0.510  16.930 -0.0202  0.5834 -0.1081
 8827SOL    HW137943   1.331   0.564  16.969  0.4369  1.9679 -1.2079
 8827SOL    HW237944   1.356   0.495  16.846  1.0720 -0.4204 -0.4886
 8828SOL     OW37945   1.644   3.530   4.766  0.2118  0.0178 -0.7242
 8828SOL    HW137946   1.605   3.616   4.783 -0.3328 -0.2619 -0.5483
 8828SOL    HW237947   1.734   3.562   4.757  0.7004 -0.7941  1.2345
 8829SOL     OW37948   4.453   0.011   5.577 -0.5756  0.7656  0.2565
 8829SOL    HW137949   4.396   0.074   5.533 -2.2029  0.1230  1.4232
 8829SOL    HW237950   4.502   0.068   5.637 -0.2133  1.3656 -0.6192
 8830SOL     OW37951   3.688   0.673   5.053  0.0737 -0.0375 -0.3900
 8830SOL    HW137952   3.652   0.626   5.129 -1.3570 -1.4334 -1.9287
 8830SOL    HW237953   3.636   0.751   5.072 -0.2885 -0.4434  0.2815
 8831SOL     OW37954   1.978   0.980   4.830  0.4205  0.1050  0.1902
 8831SOL    HW137955   1.994   0.936   4.747 -0.0877 -0.2448  0.2764
 8831SOL    HW237956   1.890   1.012   4.809  0.4625  0.5533  0.6834
 8832SOL     OW37957   4.112   2.274  11.413  0.6245  0.7864  0.3357
 8832SOL    HW137958   4.183   2.259  11.351 -0.5349  2.2553 -1.3464
 8832SOL    HW237959   4.097   2.359  11.370 -2.4576 -0.2092 -0.5993
 8833SOL     OW37960   2.295   3.337   4.062  0.4236  0.2450 -0.0151
 8833SOL    HW137961   2.273   3.300   3.976  0.4319  2.8432 -1.1529
 8833SOL    HW237962   2.295   3.433   4.053 -0.8912  0.2264 -0.2699
 8834SOL     OW37963   3.772   0.363   8.992 -0.2605  0.4824  0.4003
 8834SOL    HW137964   3.690   0.323   9.022  0.8867 -1.2325  1.2213
 8834SOL    HW237965   3.788   0.426   9.063 -0.9524  2.4567 -1.1889
 8835SOL     OW37966   2.503   0.593   5.810  0.0570  0.1088 -0.5992
 8835SOL    HW137967   2.561   0.656   5.768 -1.7817  1.8505 -0.4932
 8835SOL    HW237968   2.558   0.516   5.797 -1.3801 -0.5585 -2.6513
 8836SOL     OW37969   4.232   1.121  15.089  0.0128 -0.3171 -0.4932
 8836SOL    HW137970   4.255   1.209  15.116  1.5897 -0.6690 -0.6546
 8836SOL    HW237971   4.226   1.069  15.169  0.9816  1.3474  0.6410
 8837SOL     OW37972   3.269   1.683   6.956  0.6202  0.0929 -0.2494
 8837SOL    HW137973   3.277   1.610   6.895  0.4727  0.6487 -0.9319
 8837SOL    HW237974   3.178   1.710   6.944  0.7806  0.7351 -0.0595
 8838SOL     OW37975   0.172   4.414   2.887  0.1291  0.7843  0.4583
 8838SOL    HW137976   0.234   4.420   2.959  0.6965  1.4619 -0.0828
 8838SOL    HW237977   0.193   4.499   2.849 -2.1800  1.3444  0.4661
 8839SOL     OW37978   2.210   3.301   8.690 -0.1361 -0.5206  0.6779
 8839SOL    HW137979   2.232   3.212   8.719  0.1160 -1.0719 -1.2344
 8839SOL    HW237980   2.166   3.338   8.766  1.4806 -2.1651  2.4294
 8840SOL     OW37981   0.488   4.287   7.373  0.3817 -0.0607  0.6805
 8840SOL    HW137982   0.448   4.261   7.290  1.3288 -1.0091  0.5284
 8840SOL    HW237983   0.459   4.216   7.429  1.5950 -0.6965  0.4967
 8841SOL     OW37984   0.377   4.548   3.517 -0.4286 -0.4923 -0.3423
 8841SOL    HW137985   0.340   4.566   3.430  0.8732  1.8607 -0.3959
 8841SOL    HW237986   0.384   4.629   3.566  0.3991  0.1356 -1.4955
 8842SOL     OW37987   1.749   3.086  11.589  0.0967  0.0791  0.2733
 8842SOL    HW137988   1.697   3.103  11.667  2.0907 -3.0010  2.2719
 8842SOL    HW237989   1.833   3.073  11.634 -0.9633  0.7038  2.4296
 8843SOL     OW37990   1.765   1.156   7.028  0.0673  0.2334  0.4950
 8843SOL    HW137991   1.717   1.075   7.049  0.8786 -1.0555 -2.5937
 8843SOL    HW237992   1.709   1.200   6.964 -0.0372 -0.6138  0.0028
 8844SOL     OW37993   3.024   2.460   5.898  0.9550  0.0616  0.3970
 8844SOL    HW137994   3.013   2.551   5.922 -0.9105 -0.3518  1.1128
 8844SOL    HW237995   2.999   2.405   5.973 -1.3529 -0.6099 -0.8501
 8845SOL     OW37996   0.283   4.395   6.041  0.4233  0.4182  0.6818
 8845SOL    HW137997   0.315   4.313   6.004  5.1456  2.9226 -0.8422
 8845SOL    HW237998   0.214   4.424   5.982 -0.1045 -0.7429  0.7499
 8846SOL     OW37999   1.953   0.475   4.958 -0.6240 -0.0704  0.4244
 8846SOL    HW138000   1.911   0.390   4.976  1.9367 -1.5318 -0.4525
 8846SOL    HW238001   1.885   0.532   4.924  0.2892  0.8110  0.0785
 8847SOL     OW38002   1.877   3.247   9.151 -0.2977  0.0073  0.5508
 8847SOL    HW138003   1.869   3.343   9.155 -2.5909 -0.2965  2.9047
 8847SOL    HW238004   1.887   3.225   9.243  1.8978 -0.3903  0.2072
 8848SOL     OW38005   3.033   1.939   9.441  0.9805 -0.0362  0.6312
 8848SOL    HW138006   3.121   1.913   9.468  0.7409 -0.0558  1.3773
 8848SOL    HW238007   3.047   1.961   9.349 -0.3124 -1.6607  0.0425
 8849SOL     OW38008   1.481   2.041   2.396 -0.1853  0.3971  0.0862
 8849SOL    HW138009   1.396   1.998   2.388 -0.6524  1.2998  0.1416
 8849SOL    HW238010   1.484   2.071   2.487 -0.0128 -1.8092  0.7960
 8850SOL     OW38011   0.638   0.205   3.112  0.0459 -0.2459  0.1871
 8850SOL    HW138012   0.678   0.252   3.038  0.9485  1.3921  1.7079
 8850SOL    HW238013   0.564   0.156   3.077  0.5685 -0.3318 -0.8075
 8851SOL     OW38014   0.955   3.007   3.464  0.1701  0.3461 -0.7544
 8851SOL    HW138015   1.010   3.017   3.541 -2.5282 -0.2843  1.2712
 8851SOL    HW238016   0.884   2.953   3.500 -0.7261  0.6085 -2.0950
 8852SOL     OW38017   1.872   4.209   1.973 -0.0852  0.1290 -0.5296
 8852SOL    HW138018   1.921   4.137   2.014 -1.3087 -0.5987 -0.3449
 8852SOL    HW238019   1.783   4.183   1.996 -0.2784  2.5582  1.4092
 8853SOL     OW38020   1.738   1.261   3.463  0.0288 -0.7130 -1.0649
 8853SOL    HW138021   1.815   1.297   3.418 -0.0286  0.4032 -0.2482
 8853SOL    HW238022   1.693   1.217   3.391  1.3148 -1.8367 -1.1875
 8854SOL     OW38023   3.468   0.966   2.086  0.4352  0.1603  0.2256
 8854SOL    HW138024   3.386   0.920   2.064  0.9647  0.2053 -1.8628
 8854SOL    HW238025   3.507   0.990   2.002  0.6236 -3.0122 -0.5903
 8855SOL     OW38026   1.540   0.365   8.778  0.1283 -0.3085 -0.5629
 8855SOL    HW138027   1.614   0.312   8.806  1.6049  3.2813  2.3254
 8855SOL    HW238028   1.487   0.296   8.738 -1.4857 -0.3059  1.5225
 8856SOL     OW38029   2.295   0.525   5.641  0.0438  0.0611  0.2504
 8856SOL    HW138030   2.311   0.593   5.576  0.2276 -0.0074  0.2237
 8856SOL    HW238031   2.365   0.546   5.703  1.8675 -0.2625 -1.6792
 8857SOL     OW38032   1.290   0.943  12.251  0.1640 -0.2772 -0.2920
 8857SOL    HW138033   1.195   0.939  12.248  0.1781 -0.8014 -0.0661
 8857SOL    HW238034   1.304   0.929  12.345 -0.8007  2.8160  0.2922
 8858SOL     OW38035   0.279   2.588   2.392  0.0852  0.3317 -0.4119
 8858SOL    HW138036   0.358   2.641   2.387  0.0249  0.4620 -0.0513
 8858SOL    HW238037   0.214   2.658   2.405  1.4433  1.4741  0.2173
 8859SOL     OW38038   2.202   1.563  14.159 -0.0151 -0.1541  0.8283
 8859SOL    HW138039   2.150   1.623  14.106  0.7058 -1.5228 -1.4386
 8859SOL    HW238040   2.242   1.509  14.090 -0.8772  0.4448 -0.1422
 8860SOL     OW38041   3.400   3.943  17.284 -0.1137  0.0407  0.2877
 8860SOL    HW138042   3.422   3.971  17.196  0.2396 -2.7115 -0.5043
 8860SOL    HW238043   3.307   3.925  17.273 -0.2478 -0.0460  1.5110
 8861SOL     OW38044   3.926   0.548   0.872 -0.8576 -0.4952 -0.1596
 8861SOL    HW138045   3.873   0.628   0.881 -0.2579  0.1096 -2.0155
 8861SOL    HW238046   3.950   0.541   0.780 -1.3270 -1.6386 -0.1862
 8862SOL     OW38047   0.948   1.595   3.563  0.6292  0.0453 -0.0719
 8862SOL    HW138048   0.899   1.583   3.644  1.1836  4.8528  0.9699
 8862SOL    HW238049   0.933   1.688   3.550  0.3920  0.1473  0.9311
 8863SOL     OW38050   1.434   3.475   8.671 -0.1212 -0.0379  0.2913
 8863SOL    HW138051   1.420   3.565   8.642 -1.5165 -0.7409 -1.1973
 8863SOL    HW238052   1.495   3.477   8.745  0.3181 -0.2951 -0.0644
 8864SOL     OW38053   1.630   2.561   8.573  0.0359  1.2565  0.1860
 8864SOL    HW138054   1.719   2.560   8.608  0.5936 -0.4169 -1.2977
 8864SOL    HW238055   1.625   2.655   8.554 -1.2748  0.9253 -1.1145
 8865SOL     OW38056   1.096   0.857   5.147 -0.7093  0.2218 -0.1875
 8865SOL    HW138057   1.116   0.813   5.065  1.1995 -1.3018  1.1018
 8865SOL    HW238058   1.006   0.886   5.131 -0.4953  2.0696  1.8894
 8866SOL     OW38059   3.957   3.817   2.693 -0.0481 -0.5418 -0.2158
 8866SOL    HW138060   4.017   3.747   2.668  1.6916  1.2724 -1.1191
 8866SOL    HW238061   3.891   3.800   2.626 -1.0395  2.2588  0.0429
 8867SOL     OW38062   1.421   2.929   3.412  0.4643 -0.0795 -0.0479
 8867SOL    HW138063   1.335   2.895   3.385  0.8179 -1.4871  0.5889
 8867SOL    HW238064   1.400   2.976   3.493 -0.1475 -0.0061 -0.2499
 8868SOL     OW38065   2.099   3.995   4.002 -0.3185 -0.0489 -0.0063
 8868SOL    HW138066   2.157   3.939   3.950  1.5459  0.5580  1.4103
 8868SOL    HW238067   2.012   3.959   3.985 -0.7715  0.7623  0.6429
 8869SOL     OW38068   0.734   0.470   3.708  0.2558 -0.2633 -0.3689
 8869SOL    HW138069   0.804   0.525   3.742  0.2160 -0.0047 -0.7022
 8869SOL    HW238070   0.697   0.536   3.649 -0.1914  0.0055  0.2203
 8870SOL     OW38071   0.028   3.632   3.688 -0.3701 -0.1413 -0.0113
 8870SOL    HW138072   0.002   3.543   3.666 -0.0863 -0.3619  0.5610
 8870SOL    HW238073   0.106   3.647   3.634  1.2498 -1.5579  1.9618
 8871SOL     OW38074   1.054   2.839   4.492  0.0211 -0.0306  0.3193
 8871SOL    HW138075   1.069   2.803   4.405 -1.0855 -0.2988  0.2461
 8871SOL    HW238076   1.142   2.862   4.522  0.3562 -0.7431 -0.1244
 8872SOL     OW38077   1.008   3.807   6.156 -0.1633 -0.0518  0.1799
 8872SOL    HW138078   1.021   3.754   6.078 -1.4649  0.7640 -0.5881
 8872SOL    HW238079   1.020   3.731   6.213 -2.2358 -1.3420 -1.0805
 8873SOL     OW38080   1.184   3.089   6.951 -0.3971 -0.4113  0.2696
 8873SOL    HW138081   1.153   3.007   6.989  1.8638 -0.9316  0.9828
 8873SOL    HW238082   1.242   3.069   6.878 -3.1795 -2.7731 -1.3048
 8874SOL     OW38083   3.327   2.341   4.225  0.0335 -0.1412  0.8907
 8874SOL    HW138084   3.241   2.308   4.198 -1.1645  2.6699  1.3137
 8874SOL    HW238085   3.336   2.319   4.318  1.7884  2.3826  1.3181
 8875SOL     OW38086   2.381   0.358   2.557 -0.3037  0.4443 -0.4565
 8875SOL    HW138087   2.460   0.368   2.504  0.6120  2.0391  1.1909
 8875SOL    HW238088   2.337   0.283   2.517  1.4130 -0.4667 -0.6350
 8876SOL     OW38089   0.847   4.642   6.204 -0.4875  0.1789 -0.2926
 8876SOL    HW138090   0.877   4.635   6.294  0.9569  2.6613 -0.5717
 8876SOL    HW238091   0.930   4.663   6.160 -0.8684  1.4942 -0.4061
 8877SOL     OW38092   4.301   0.401   8.709 -0.1361 -0.1851  0.2848
 8877SOL    HW138093   4.234   0.449   8.660 -1.7918  0.2737  2.9867
 8877SOL    HW238094   4.322   0.475   8.767  0.6765  0.8830 -1.3580
 8878SOL     OW38095   0.437   4.239   9.373 -0.2429  0.0252  0.2310
 8878SOL    HW138096   0.382   4.206   9.302  1.8736 -0.4928 -1.1708
 8878SOL    HW238097   0.378   4.227   9.447  1.2802  0.2012  1.4617
 8879SOL     OW38098   2.833   1.580   9.563 -0.1864  0.4160 -0.0229
 8879SOL    HW138099   2.899   1.581   9.494  0.4250 -4.0206  0.4771
 8879SOL    HW238100   2.828   1.663   9.610  1.3520  0.9996 -0.8912
 8880SOL     OW38101   1.955   3.330  10.929  0.0394  0.2933 -0.3383
 8880SOL    HW138102   1.871   3.369  10.953  1.4708  1.5592  2.6172
 8880SOL    HW238103   1.924   3.256  10.876  0.5588 -0.1602 -0.0118
 8881SOL     OW38104   4.099   0.305  11.794  0.8535  0.7273 -0.1130
 8881SOL    HW138105   4.162   0.377  11.784  3.3224 -1.3512  0.2327
 8881SOL    HW238106   4.101   0.265  11.707  0.0206 -1.8649  1.0824
 8882SOL     OW38107   3.874   4.147   6.895 -0.1480  0.2242 -0.2566
 8882SOL    HW138108   3.844   4.238   6.900  1.6004  0.8185 -0.6001
 8882SOL    HW238109   3.888   4.128   6.988  0.8898  0.1760 -0.4219
 8883SOL     OW38110   3.372   2.979   4.775 -0.0066 -0.0952  0.5589
 8883SOL    HW138111   3.368   2.915   4.704  0.5319  2.0027 -1.3567
 8883SOL    HW238112   3.356   3.063   4.733  0.2228  0.0388  0.7333
 8884SOL     OW38113   0.461   0.355   7.200 -0.5827  0.2318  0.2612
 8884SOL    HW138114   0.465   0.261   7.184  2.7012  0.4976 -0.5680
 8884SOL    HW238115   0.450   0.395   7.114 -0.2355 -0.6597 -0.1950
 8885SOL     OW38116   1.428   2.816   7.893  0.3255 -0.2159 -0.1781
 8885SOL    HW138117   1.451   2.880   7.826 -0.1479 -1.0895 -1.1712
 8885SOL    HW238118   1.510   2.772   7.915  1.2289  1.0969 -0.9129
 8886SOL     OW38119   1.773   3.866   1.743  0.5497 -0.2447 -0.0456
 8886SOL    HW138120   1.678   3.875   1.747  0.2495 -2.9256 -1.1058
 8886SOL    HW238121   1.801   3.949   1.704  2.8569 -0.2848  1.4965
 8887SOL     OW38122   2.835   2.283   6.341  0.5622  0.5385 -0.6222
 8887SOL    HW138123   2.897   2.239   6.399 -0.9114  2.1870  2.1824
 8887SOL    HW238124   2.754   2.266   6.390  0.0926  3.1130 -0.5360
 8888SOL     OW38125   1.914   2.184   5.323 -0.9229 -0.3905 -0.1094
 8888SOL    HW138126   1.895   2.184   5.229 -0.6195  0.7443 -0.1636
 8888SOL    HW238127   1.833   2.229   5.345 -1.8600 -0.7721 -2.7310
 8889SOL     OW38128   4.160   2.340   4.771  0.9551 -0.2896 -0.3043
 8889SOL    HW138129   4.098   2.408   4.798  0.1859 -1.0651 -0.0975
 8889SOL    HW238130   4.242   2.375   4.804  0.6045  2.1692 -2.0186
 8890SOL     OW38131   1.953   3.036   3.541 -0.0352 -0.2517  0.0331
 8890SOL    HW138132   1.927   3.089   3.617 -2.1134 -1.7829  0.4049
 8890SOL    HW238133   1.866   3.020   3.503  0.2138  0.0424 -0.6600
 8891SOL     OW38134   3.212   3.027   8.989 -0.7443 -0.0131 -0.5476
 8891SOL    HW138135   3.252   3.094   8.933 -1.2862  0.0049 -0.9109
 8891SOL    HW238136   3.142   3.080   9.028  1.0568 -0.2417  3.0164
 8892SOL     OW38137   1.223   0.491  16.721  0.5173 -0.6121  0.0420
 8892SOL    HW138138   1.270   0.443  16.653 -1.6933 -0.8531 -1.3358
 8892SOL    HW238139   1.177   0.557  16.669  0.6581 -1.4168 -1.0986
 8893SOL     OW38140   4.656   3.353   3.659 -0.0554 -0.4315 -0.2877
 8893SOL    HW138141   4.660   3.284   3.592 -2.5802  0.4828 -1.3910
 8893SOL    HW238142   4.564   3.355   3.685  0.0784 -0.7276  0.2207
 8894SOL     OW38143   0.375   4.376   0.136 -0.2408  0.2696  0.1421
 8894SOL    HW138144   0.397   4.363   0.228  0.0340 -1.4874 -0.1891
 8894SOL    HW238145   0.412   4.463   0.119 -1.3259  0.2817 -2.1298
 8895SOL     OW38146   1.038   1.171  11.563 -0.1185 -0.0188 -0.3047
 8895SOL    HW138147   0.968   1.163  11.497 -2.0791  4.0528  1.3143
 8895SOL    HW238148   1.008   1.233  11.630  2.0390 -0.8742  1.4500
 8896SOL     OW38149   1.591   3.840   5.246 -0.2720 -0.5378 -0.0842
 8896SOL    HW138150   1.554   3.927   5.255 -2.1135 -1.0524 -2.6651
 8896SOL    HW238151   1.674   3.853   5.198 -1.6361  0.3144 -2.2061
 8897SOL     OW38152   1.132   1.120  14.159 -0.1311 -0.6465 -0.0073
 8897SOL    HW138153   1.190   1.163  14.222  1.1867 -0.1815 -1.5576
 8897SOL    HW238154   1.173   1.034  14.162  0.8234 -0.2035 -0.2919
 8898SOL     OW38155   0.918   3.342   5.843  0.6386  0.0605  0.2878
 8898SOL    HW138156   0.868   3.357   5.762  0.0764  1.5718  0.9186
 8898SOL    HW238157   0.886   3.416   5.895  0.2295  1.0295 -1.3198
 8899SOL     OW38158   0.240   3.683   4.908 -0.9948 -0.7138  0.2487
 8899SOL    HW138159   0.291   3.609   4.876  0.8579  1.3660 -1.5650
 8899SOL    HW238160   0.263   3.749   4.842  1.5149 -1.2571  0.6152
 8900SOL     OW38161   3.682   1.624   1.307  0.0491 -0.2745  0.1262
 8900SOL    HW138162   3.662   1.652   1.218  2.1350 -0.6804 -0.4795
 8900SOL    HW238163   3.601   1.652   1.349  0.1630 -0.8638  0.7492
 8901SOL     OW38164   2.883   3.847   1.727 -0.1980 -0.0619 -0.2943
 8901SOL    HW138165   2.806   3.819   1.776 -1.2371  0.7967 -1.4325
 8901SOL    HW238166   2.827   3.900   1.670  0.5900  0.2178 -0.8053
 8902SOL     OW38167   2.325   4.693   5.661 -0.0110 -0.4923  0.4802
 8902SOL    HW138168   2.385   0.042   5.679 -2.8122  1.5678  1.7046
 8902SOL    HW238169   2.369   4.617   5.700  2.6582  1.1835  0.6730
 8903SOL     OW38170   4.276   4.717  11.318  0.0311 -0.2162 -0.2040
 8903SOL    HW138171   4.367   0.003  11.347 -0.3204  1.8509  0.3139
 8903SOL    HW238172   4.261   4.635  11.365 -0.6477 -0.7264 -1.3076
 8904SOL     OW38173   0.218   0.611   2.607 -0.0159  0.7920  1.0790
 8904SOL    HW138174   0.273   0.609   2.529 -2.6710  0.4778 -0.7800
 8904SOL    HW238175   0.186   0.700   2.594 -0.2234  0.5028 -0.3890
 8905SOL     OW38176   3.383   4.627   3.681  0.3914  0.1699  0.0336
 8905SOL    HW138177   3.301   4.580   3.662 -0.0036  0.4168  1.0903
 8905SOL    HW238178   3.356   4.699   3.739  1.9265 -0.2926  1.3075
 8906SOL     OW38179   2.799   0.478  10.234  0.1167  0.5061 -0.3205
 8906SOL    HW138180   2.810   0.393  10.192 -0.8680  0.3844 -0.3328
 8906SOL    HW238181   2.796   0.542  10.163  1.7331  0.9492  0.0129
 8907SOL     OW38182   1.418   3.928   8.930  0.2864  0.2282  0.0905
 8907SOL    HW138183   1.373   3.852   8.892  0.2820  1.0335 -1.5206
 8907SOL    HW238184   1.402   3.997   8.866  0.3194 -0.6069 -0.8191
 8908SOL     OW38185   3.870   3.147   5.095 -0.3137  0.3831 -0.0519
 8908SOL    HW138186   3.927   3.221   5.076 -0.2608 -0.3750 -2.8214
 8908SOL    HW238187   3.815   3.148   5.017 -0.8326 -0.7649  0.2855
 8909SOL     OW38188   0.176   1.589   1.066 -0.1195 -0.1970 -0.6039
 8909SOL    HW138189   0.113   1.623   1.129 -0.3720  0.1452 -1.0435
 8909SOL    HW238190   0.123   1.517   1.031  1.8121 -1.5323 -0.8065
 8910SOL     OW38191   3.834   2.201   4.234 -0.9413  0.1389 -0.3048
 8910SOL    HW138192   3.909   2.165   4.281  0.4313  1.4004 -1.5536
 8910SOL    HW238193   3.806   2.128   4.179  0.1799 -0.2449 -0.3653
 8911SOL     OW38194   3.614   2.371  12.908  0.4765 -0.2910  0.0702
 8911SOL    HW138195   3.542   2.326  12.864 -1.1207 -0.6469  3.0754
 8911SOL    HW238196   3.580   2.460  12.899 -0.7356 -0.8332 -0.7577
 8912SOL     OW38197   0.990   3.139  17.319  0.2072  0.3766  0.3336
 8912SOL    HW138198   1.076   3.174  17.293  0.3295 -0.0975  0.1079
 8912SOL    HW238199   1.005   3.045  17.326 -1.2113 -0.0454 -2.6489
 8913SOL     OW38200   0.043   3.351   2.795 -0.3454 -0.0455 -0.0177
 8913SOL    HW138201   0.086   3.361   2.879 -0.0195 -0.7839 -0.1006
 8913SOL    HW238202   0.060   3.262   2.764 -0.7799 -0.7804  1.8456
 8914SOL     OW38203   0.429   2.910   4.158 -0.0404 -0.0309  0.0963
 8914SOL    HW138204   0.416   2.917   4.253 -0.2774 -1.0587  0.1440
 8914SOL    HW238205   0.522   2.916   4.139 -0.2017 -1.0127 -1.0047
 8915SOL     OW38206   3.795   4.414   2.546  0.2165  0.0364 -0.2521
 8915SOL    HW138207   3.728   4.423   2.614  0.3769  1.1603 -0.2460
 8915SOL    HW238208   3.869   4.440   2.602  0.8850  0.1995 -1.2184
 8916SOL     OW38209   3.271   0.987   7.558 -0.2205 -0.5287 -0.5484
 8916SOL    HW138210   3.361   0.962   7.581 -0.8302 -1.6462  0.6458
 8916SOL    HW238211   3.288   1.060   7.498 -1.8688 -0.3593 -0.8153
 8917SOL     OW38212   4.649   2.246   0.274  0.0002  0.4377  0.7762
 8917SOL    HW138213   4.640   2.255   0.179  3.3930 -1.2831  0.2890
 8917SOL    HW238214   0.020   2.238   0.293 -0.1118  0.4936  1.3687
 8918SOL     OW38215   2.453   3.782  12.090  0.4754 -0.0530 -0.3519
 8918SOL    HW138216   2.443   3.783  11.994 -1.0527 -2.7388 -0.2343
 8918SOL    HW238217   2.404   3.703  12.113  0.9277  0.4001  2.0761
 8919SOL     OW38218   1.855   0.582   3.976 -0.3352 -0.2479 -0.0889
 8919SOL    HW138219   1.914   0.624   3.913 -0.9821  0.5138 -0.1787
 8919SOL    HW238220   1.895   0.497   3.997 -1.1717 -0.4565  0.6620
 8920SOL     OW38221   1.986   2.439   3.973  0.4056  0.1864 -0.9609
 8920SOL    HW138222   1.898   2.401   3.970  0.2582  0.5709 -1.5673
 8920SOL    HW238223   2.039   2.366   3.940  0.0707 -1.5976  2.4906
 8921SOL     OW38224   2.691   3.442   3.540  0.2264  0.2472  0.3769
 8921SOL    HW138225   2.737   3.476   3.616 -1.1076  1.8120  0.4767
 8921SOL    HW238226   2.726   3.506   3.477  1.3414 -1.3156 -0.5907
 8922SOL     OW38227   0.921   1.517   7.889  0.8876  0.5316  0.3195
 8922SOL    HW138228   0.865   1.474   7.954 -1.8233  1.8285 -1.1685
 8922SOL    HW238229   0.912   1.460   7.812 -1.1273 -0.4060  1.2234
 8923SOL     OW38230   3.452   3.570   6.932  0.5973 -0.1345  0.6422
 8923SOL    HW138231   3.517   3.573   6.862 -0.7736 -0.9085 -0.6669
 8923SOL    HW238232   3.455   3.480   6.963  2.8756  0.3963  1.9379
 8924SOL     OW38233   2.732   0.427   6.739  0.0760 -0.0162  0.3495
 8924SOL    HW138234   2.687   0.426   6.823 -0.4392 -2.5229  0.0507
 8924SOL    HW238235   2.824   0.428   6.766  0.0412  1.3569  0.4196
 8925SOL     OW38236   4.539   1.504  17.306 -0.1745  0.5051  0.2649
 8925SOL    HW138237   4.613   1.513  17.245  1.8889 -1.0030  2.5553
 8925SOL    HW238238   4.514   1.597  17.303 -0.2463  0.4904  0.4199
 8926SOL     OW38239   2.887   0.542  14.049  0.0302  0.2703  0.0910
 8926SOL    HW138240   2.951   0.544  13.978  0.7611  0.6801  0.7692
 8926SOL    HW238241   2.830   0.471  14.020  1.1048 -0.5543  0.0196
 8927SOL     OW38242   2.541   4.556  16.581 -0.1175  0.1844 -0.0799
 8927SOL    HW138243   2.565   4.533  16.671  1.3343  0.0957 -0.4840
 8927SOL    HW238244   2.575   4.645  16.574 -0.0415  0.2982  1.6423
 8928SOL     OW38245   2.646   1.037  11.805  0.0606 -0.4942 -0.1448
 8928SOL    HW138246   2.732   1.012  11.771 -0.8098 -1.1286 -1.8794
 8928SOL    HW238247   2.604   1.057  11.721  0.4661 -1.0495 -0.4811
 8929SOL     OW38248   4.420   3.910  14.973 -0.4810 -0.1113  0.4147
 8929SOL    HW138249   4.476   3.955  14.910 -2.3792  0.8913 -0.5659
 8929SOL    HW238250   4.354   3.868  14.918 -0.2351  2.3605 -1.7606
 8930SOL     OW38251   0.595   4.376  14.067  0.1044 -0.3143 -0.2823
 8930SOL    HW138252   0.674   4.346  14.022 -0.5531 -0.8325 -1.0735
 8930SOL    HW238253   0.555   4.307  14.119  0.0633 -2.9690 -3.8637
 8931SOL     OW38254   3.043   4.303   6.385 -0.3429  0.2364 -0.2201
 8931SOL    HW138255   3.003   4.240   6.444 -1.2661 -1.3251 -2.5269
 8931SOL    HW238256   3.032   4.270   6.296  0.6035 -1.7353  0.4003
 8932SOL     OW38257   0.439   0.563   8.628  0.5387  0.6553  0.2096
 8932SOL    HW138258   0.466   0.481   8.669  2.2246  0.9688 -0.2803
 8932SOL    HW238259   0.508   0.618   8.666 -0.1468  1.4236  0.3514
 8933SOL     OW38260   3.938   1.804   8.096 -0.2309 -0.1440 -0.5865
 8933SOL    HW138261   3.875   1.870   8.068 -0.1724  0.7337  1.3712
 8933SOL    HW238262   4.022   1.835   8.063 -0.0546 -1.1619 -1.1102
 8934SOL     OW38263   1.660   3.510   3.698  0.0948 -0.3346 -0.2710
 8934SOL    HW138264   1.741   3.503   3.648 -0.1282 -2.0240 -0.3672
 8934SOL    HW238265   1.597   3.486   3.631 -0.0481 -0.1128 -0.2167
 8935SOL     OW38266   4.147   0.267   5.176  0.0804  0.2083 -0.5109
 8935SOL    HW138267   4.126   0.195   5.116 -2.8044  0.1661  0.5660
 8935SOL    HW238268   4.067   0.319   5.163  0.5508  0.9765 -0.3578
 8936SOL     OW38269   3.435   4.715   6.882 -0.3785  0.0466 -0.2687
 8936SOL    HW138270   3.406   0.069   6.833 -0.8356  2.1371  3.2665
 8936SOL    HW238271   3.513   4.680   6.839  0.4180  2.8607 -1.1444
 8937SOL     OW38272   1.962   3.101   6.203 -0.6784 -0.4407 -0.5392
 8937SOL    HW138273   1.906   3.140   6.136 -2.4396 -1.7784  0.1732
 8937SOL    HW238274   1.984   3.017   6.163 -2.9145 -1.1682 -0.2385
 8938SOL     OW38275   3.927   1.299   7.888 -0.2545 -0.2160  0.2433
 8938SOL    HW138276   3.940   1.280   7.795  0.8562  0.4383  0.2680
 8938SOL    HW238277   4.015   1.279   7.921 -0.0373 -0.4532 -0.4740
 8939SOL     OW38278   0.346   3.335   2.197  0.2419 -0.3155 -0.9212
 8939SOL    HW138279   0.263   3.340   2.245 -0.2796 -1.7142 -1.6654
 8939SOL    HW238280   0.394   3.264   2.240  1.0126  0.7479 -0.0273
 8940SOL     OW38281   1.396   1.769   2.323 -0.5684  0.1812 -0.0187
 8940SOL    HW138282   1.357   1.792   2.239  1.8734  0.9659 -0.9401
 8940SOL    HW238283   1.331   1.712   2.364 -0.8090 -1.8232 -3.1883
 8941SOL     OW38284   2.477   0.862   8.229 -0.4002  0.2808  0.5668
 8941SOL    HW138285   2.501   0.954   8.229  0.7979 -0.0336  0.5530
 8941SOL    HW238286   2.543   0.823   8.287  0.8595  0.8260 -0.5006
 8942SOL     OW38287   2.518   1.249   5.396  0.0742  0.4068 -0.2559
 8942SOL    HW138288   2.456   1.179   5.379  1.1832 -0.3135 -1.3493
 8942SOL    HW238289   2.499   1.274   5.487  0.4162  1.6901 -0.5317
 8943SOL     OW38290   3.052   0.175  16.471  0.3004  0.4234 -0.2332
 8943SOL    HW138291   3.037   0.181  16.377  0.6385  0.5130 -0.2820
 8943SOL    HW238292   3.089   0.261  16.490 -0.5191  0.6850  0.2020
 8944SOL     OW38293   1.989   1.253   9.465 -0.0635 -0.3074 -0.2470
 8944SOL    HW138294   1.985   1.297   9.550 -1.8714  1.5358 -1.2742
 8944SOL    HW238295   1.983   1.329   9.406 -1.2655  0.8139  1.3411
 8945SOL     OW38296   3.951   4.168  11.690 -0.1969  0.1627  0.4693
 8945SOL    HW138297   3.955   4.128  11.776  1.4714 -2.9494 -1.0672
 8945SOL    HW238298   3.953   4.093  11.631 -0.5823  1.3044 -1.0306
 8946SOL     OW38299   0.306   0.740  14.027 -0.2763 -0.3930  0.3031
 8946SOL    HW138300   0.333   0.714  13.939  0.3586  1.3966 -0.0255
 8946SOL    HW238301   0.382   0.794  14.044 -1.0427  0.0147  2.4100
 8947SOL     OW38302   0.950   0.468   9.159 -0.0686  0.1643 -0.2941
 8947SOL    HW138303   0.908   0.415   9.092  0.7372  2.5579 -2.7033
 8947SOL    HW238304   0.872   0.482   9.213 -1.1440  0.0544 -1.8108
 8948SOL     OW38305   1.086   3.548   2.705 -0.4390  0.4204 -0.2805
 8948SOL    HW138306   1.030   3.605   2.759 -0.7668 -0.9691  0.8511
 8948SOL    HW238307   1.071   3.590   2.621 -2.4933  0.5173  0.1318
 8949SOL     OW38308   0.265   0.467   8.090 -0.0697 -0.3613  0.2849
 8949SOL    HW138309   0.217   0.406   8.146 -0.2104  0.1408  0.7073
 8949SOL    HW238310   0.193   0.530   8.082 -1.9220 -2.8229 -2.7119
 8950SOL     OW38311   1.590   0.238  16.450 -0.0416 -0.2112 -0.1531
 8950SOL    HW138312   1.599   0.189  16.369 -1.7527 -0.0251 -0.4472
 8950SOL    HW238313   1.642   0.193  16.518 -1.4647 -0.2580  0.8936
 8951SOL     OW38314   3.021   2.891   9.630 -0.0323 -0.4953 -0.0154
 8951SOL    HW138315   3.072   2.966   9.660 -0.5303  0.3177 -1.1548
 8951SOL    HW238316   3.067   2.819   9.671 -1.7582 -0.5587  1.8378
 8952SOL     OW38317   2.978   4.459   2.200  0.1918 -0.0144 -0.2245
 8952SOL    HW138318   2.902   4.404   2.177 -1.4998  3.0357 -1.9553
 8952SOL    HW238319   2.962   4.474   2.294 -2.3017  0.5137 -0.7235
 8953SOL     OW38320   3.235   1.515  15.135 -0.1607 -0.0907  0.0493
 8953SOL    HW138321   3.269   1.435  15.094 -0.6437 -0.9266  1.3076
 8953SOL    HW238322   3.148   1.487  15.160  0.6115 -1.1975  1.4825
 8954SOL     OW38323   3.032   0.098   3.013 -0.0573  0.3605 -0.3294
 8954SOL    HW138324   2.984   0.180   3.019  2.1167  1.3934  2.7628
 8954SOL    HW238325   3.019   0.071   2.922  1.1586  1.8222 -0.9202
 8955SOL     OW38326   3.844   3.195   5.982 -0.4565 -0.4627  0.4860
 8955SOL    HW138327   3.811   3.145   5.907  1.3901 -0.4694 -0.3304
 8955SOL    HW238328   3.934   3.167   5.966 -0.0961  0.6058  0.6701
 8956SOL     OW38329   4.072   2.204   3.023 -0.5160 -1.0205  0.3850
 8956SOL    HW138330   4.042   2.122   3.063 -0.2360 -0.4353  1.8022
 8956SOL    HW238331   4.111   2.181   2.938 -0.2815  2.0349 -0.3217
 8957SOL     OW38332   1.650   1.870   1.002  0.0833 -0.0447  0.2211
 8957SOL    HW138333   1.602   1.890   1.082  1.0062  0.5217  0.6371
 8957SOL    HW238334   1.576   1.850   0.945  1.8174  1.4254 -2.5834
 8958SOL     OW38335   3.931   2.997   8.444  0.2168 -0.3055 -0.3545
 8958SOL    HW138336   3.913   3.057   8.516  1.8269 -0.3065  0.0533
 8958SOL    HW238337   3.872   3.029   8.376  1.4629 -0.4681 -1.5036
 8959SOL     OW38338   0.595   0.482   4.286 -0.0254  0.4686 -0.3107
 8959SOL    HW138339   0.555   0.442   4.209 -0.6668  0.5923 -0.0361
 8959SOL    HW238340   0.578   0.416   4.354 -1.4612  0.7082 -0.4520
 8960SOL     OW38341   4.117   3.007   2.637 -0.8024 -0.0132  0.4475
 8960SOL    HW138342   4.124   3.000   2.732 -2.4484  2.7968  0.7803
 8960SOL    HW238343   4.182   2.943   2.609 -1.5567 -0.5736 -0.0321
 8961SOL     OW38344   0.748   2.442   1.845  0.2221  0.3759 -0.5225
 8961SOL    HW138345   0.753   2.527   1.800 -1.2603  0.3532 -0.7317
 8961SOL    HW238346   0.654   2.422   1.835  0.6285 -1.6673 -0.2869
 8962SOL     OW38347   4.357   3.135   3.064  0.3687  0.3537  0.0690
 8962SOL    HW138348   4.391   3.223   3.080  1.5994 -0.4781  2.0273
 8962SOL    HW238349   4.406   3.109   2.986 -1.5143 -0.7328 -0.7682
 8963SOL     OW38350   4.309   4.430   5.121  0.1539  0.1346  0.0274
 8963SOL    HW138351   4.220   4.463   5.129 -0.0466 -0.4150  0.0364
 8963SOL    HW238352   4.330   4.461   5.032 -0.9782 -0.0039 -0.2901
 8964SOL     OW38353   3.263   1.408   3.867 -0.0819 -0.5186 -0.2653
 8964SOL    HW138354   3.348   1.452   3.878  0.0505 -1.3062  1.9687
 8964SOL    HW238355   3.285   1.339   3.805 -1.7988 -0.1655 -1.2589
 8965SOL     OW38356   3.702   0.158   1.722 -0.6329  0.6264 -0.3302
 8965SOL    HW138357   3.703   0.245   1.682 -0.4821  1.0175  0.5318
 8965SOL    HW238358   3.629   0.163   1.783 -1.0235 -0.4787 -0.7111
 8966SOL     OW38359   1.892   2.053   8.614  0.1476 -0.2422  0.2554
 8966SOL    HW138360   1.892   1.967   8.571 -0.0246  0.5717 -1.3631
 8966SOL    HW238361   1.980   2.060   8.650  0.6074  0.5105 -1.0073
 8967SOL     OW38362   0.135   4.259   7.515  0.6900 -0.6526  0.4595
 8967SOL    HW138363   0.155   4.254   7.421 -1.0786  2.2449 -0.0618
 8967SOL    HW238364   0.041   4.273   7.512  0.9690  0.9823 -0.4986
 8968SOL     OW38365   2.696   2.425   8.898 -0.0737  0.2166 -0.0825
 8968SOL    HW138366   2.616   2.378   8.923  0.0630 -0.1287 -0.2865
 8968SOL    HW238367   2.758   2.352   8.893 -0.0969  0.2219 -0.4875
 8969SOL     OW38368   0.059   1.724   4.672  0.6113  0.0093 -0.0200
 8969SOL    HW138369   0.044   1.815   4.648  0.3655  0.3778  1.5417
 8969SOL    HW238370   0.094   1.727   4.761 -2.4412  0.0188  1.1657
 8970SOL     OW38371   1.378   1.466  16.486 -0.3846  0.0109 -0.0323
 8970SOL    HW138372   1.322   1.414  16.428  1.4686 -0.7646 -1.1028
 8970SOL    HW238373   1.401   1.528  16.416 -0.9334 -1.0739 -1.1776
 8971SOL     OW38374   1.928   2.798   9.460 -0.2356 -0.5208  0.3208
 8971SOL    HW138375   1.917   2.810   9.555  0.7276  1.6154  0.1512
 8971SOL    HW238376   1.929   2.702   9.457 -0.9139 -0.5005 -0.5494
 8972SOL     OW38377   1.678   0.826   5.493 -0.9216 -0.2469 -0.2323
 8972SOL    HW138378   1.760   0.842   5.538 -1.1440 -1.5795  0.6562
 8972SOL    HW238379   1.703   0.812   5.402  0.5960 -0.8419  0.2827
 8973SOL     OW38380   2.179   0.224  14.241 -0.1376 -0.1482 -0.0514
 8973SOL    HW138381   2.184   0.305  14.291 -1.7567  0.0321 -0.1805
 8973SOL    HW238382   2.235   0.159  14.284  2.5857  1.4135 -1.2580
 8974SOL     OW38383   4.262   3.358   5.693  0.4655  0.7783 -0.0666
 8974SOL    HW138384   4.300   3.302   5.761 -0.1178 -0.1608 -0.5089
 8974SOL    HW238385   4.167   3.351   5.707  1.0396 -0.8909  3.1102
 8975SOL     OW38386   1.237   0.706   9.678  0.4454 -1.0940  0.4198
 8975SOL    HW138387   1.323   0.670   9.699 -0.7784 -1.4743  4.6748
 8975SOL    HW238388   1.195   0.629   9.640 -2.3208  0.7725 -0.3061
 8976SOL     OW38389   3.716   4.274  14.200 -0.2053 -0.4005 -0.2326
 8976SOL    HW138390   3.720   4.327  14.121  0.5145 -0.6816 -0.3910
 8976SOL    HW238391   3.737   4.345  14.261 -0.2142 -0.6213  0.0283
 8977SOL     OW38392   0.817   3.949  11.387 -0.1536  0.3619  0.3465
 8977SOL    HW138393   0.785   3.932  11.476 -2.3757 -0.0959 -0.5359
 8977SOL    HW238394   0.743   3.983  11.337  0.4242  0.4463 -0.4381
 8978SOL     OW38395   0.399   0.841   8.283 -0.4067  0.2457 -0.1014
 8978SOL    HW138396   0.346   0.788   8.341  0.9605 -0.4839  0.4796
 8978SOL    HW238397   0.358   0.928   8.281  0.1217  0.4501 -2.2034
 8979SOL     OW38398   1.938   0.816   5.026 -0.4941  0.0661 -0.2796
 8979SOL    HW138399   1.979   0.871   4.959  0.0750  1.7957  1.4488
 8979SOL    HW238400   1.899   0.750   4.970  0.7531 -1.0045  0.1202
 8980SOL     OW38401   1.567   2.731  17.689  0.3791  0.0808 -0.5629
 8980SOL    HW138402   1.603   2.807  17.643 -1.3964  0.6704 -0.9576
 8980SOL    HW238403   1.473   2.736  17.671  0.4943 -0.6548 -1.3542
 8981SOL     OW38404   4.012   4.432  15.435 -0.8045  0.7377 -0.5511
 8981SOL    HW138405   3.923   4.448  15.465 -1.1860 -1.0078 -0.7634
 8981SOL    HW238406   3.990   4.372  15.364 -1.4052  0.0341  0.2304
 8982SOL     OW38407   2.786   1.179   8.994  0.5138  0.0365 -0.2036
 8982SOL    HW138408   2.783   1.222   9.080 -0.8788 -1.2375  0.3736
 8982SOL    HW238409   2.875   1.142   8.999  0.6772  0.3468 -0.7875
 8983SOL     OW38410   3.964   4.244   4.803 -0.0535 -0.2410 -0.4237
 8983SOL    HW138411   3.945   4.196   4.884 -1.5359  1.8022  0.4308
 8983SOL    HW238412   4.032   4.301   4.838  0.9603 -2.4970  1.2816
 8984SOL     OW38413   3.487   3.914   0.007 -0.4375  0.0239  0.2947
 8984SOL    HW138414   3.395   3.889   0.016 -0.3301 -0.4112  0.2063
 8984SOL    HW238415   3.497   3.997   0.053  2.0325 -1.7088  2.8840
 8985SOL     OW38416   3.785   0.428  16.635 -0.0265 -0.3153  0.1700
 8985SOL    HW138417   3.831   0.503  16.673 -0.6694 -0.4770  1.2642
 8985SOL    HW238418   3.856   0.365  16.624 -0.1684 -0.5746  0.7510
 8986SOL     OW38419   4.615   0.661   2.428  0.3218 -0.1671 -0.6971
 8986SOL    HW138420   4.640   0.579   2.471 -0.0579  0.4902  0.7656
 8986SOL    HW238421   4.521   0.665   2.443  0.4027 -0.4130 -0.1235
 8987SOL     OW38422   3.376   3.190   7.335 -0.8054  0.4810 -0.6617
 8987SOL    HW138423   3.378   3.181   7.240  0.8214 -0.1236 -0.5763
 8987SOL    HW238424   3.344   3.280   7.340 -0.4637  0.6168 -0.8631
 8988SOL     OW38425   4.056   0.618   2.339 -0.6420  1.0743 -0.6200
 8988SOL    HW138426   4.102   0.553   2.286 -1.7879 -0.3281  0.1070
 8988SOL    HW238427   4.000   0.651   2.269  1.1882  3.5404 -0.9136
 8989SOL     OW38428   0.715   3.856   6.303 -0.0880 -0.6359  0.5158
 8989SOL    HW138429   0.772   3.930   6.322  0.1806 -0.9548  0.9476
 8989SOL    HW238430   0.754   3.819   6.224  2.0235 -0.9812  1.7279
 8990SOL     OW38431   0.274   0.737  16.694 -0.3556 -0.1358  0.4908
 8990SOL    HW138432   0.215   0.664  16.676 -1.0137  0.9752 -1.9608
 8990SOL    HW238433   0.219   0.811  16.720  0.4906 -0.3048  2.7618
 8991SOL     OW38434   0.311   2.911   5.461  0.1978 -0.1198  0.1052
 8991SOL    HW138435   0.295   2.817   5.460  1.8276 -0.3656 -2.3268
 8991SOL    HW238436   0.361   2.929   5.382  1.9436 -1.8151  0.8263
 8992SOL     OW38437   2.876   4.528  13.826 -0.1593 -0.1507  0.1858
 8992SOL    HW138438   2.780   4.534  13.823 -0.0086  1.3540 -1.8945
 8992SOL    HW238439   2.898   4.554  13.737 -0.2948  1.3901  0.6052
 8993SOL     OW38440   3.212   4.432   7.078 -0.3056  0.3046 -0.2143
 8993SOL    HW138441   3.181   4.446   6.989  1.0140  1.8604 -0.4314
 8993SOL    HW238442   3.206   4.342   7.109  1.7010 -0.1230 -1.0399
 8994SOL     OW38443   0.788   4.628  16.165  0.0662  1.1559 -0.3402
 8994SOL    HW138444   0.752   4.627  16.254  1.5475  2.4842  0.2821
 8994SOL    HW238445   0.740   4.704  16.135 -0.5279  0.5850 -0.8369
 8995SOL     OW38446   1.759   3.136   2.599 -0.2553 -0.6468 -0.1968
 8995SOL    HW138447   1.765   3.132   2.694  0.4812  2.7360 -0.0953
 8995SOL    HW238448   1.724   3.224   2.585  2.4073  0.6240  1.2533
 8996SOL     OW38449   2.139   2.511   6.491 -0.0728  0.0214 -0.6526
 8996SOL    HW138450   2.057   2.471   6.463 -0.1160  1.0043 -1.8938
 8996SOL    HW238451   2.133   2.601   6.459 -0.8871  0.3529  0.4434
 8997SOL     OW38452   3.793   0.760   1.003  0.2795  0.1552 -0.0363
 8997SOL    HW138453   3.854   0.830   1.023  0.6804  0.8086 -3.4835
 8997SOL    HW238454   3.721   0.808   0.962  0.0493 -0.9368 -0.9276
 8998SOL     OW38455   0.874   4.668  12.364  0.6282 -0.1349  0.1322
 8998SOL    HW138456   0.832   0.030  12.378 -3.9724 -1.8246 -3.4403
 8998SOL    HW238457   0.966   4.686  12.384  0.1949 -0.1684  2.1780
 8999SOL     OW38458   1.732   2.714  12.831 -0.2339 -0.4129  0.4373
 8999SOL    HW138459   1.746   2.639  12.773 -0.8093 -0.0210 -0.2048
 8999SOL    HW238460   1.654   2.751  12.789 -0.4352 -1.7899 -0.3989
 9000SOL     OW38461   1.722   3.559  13.906 -0.2330  0.6100  0.2685
 9000SOL    HW138462   1.640   3.590  13.945 -1.1260  0.4128 -1.4681
 9000SOL    HW238463   1.765   3.639  13.876 -0.4209  1.6329  2.7318
 9001SOL     OW38464   2.362   0.159  11.320  0.5339  0.1165 -0.2488
 9001SOL    HW138465   2.438   0.204  11.356  0.8098 -1.4998  1.2138
 9001SOL    HW238466   2.393   0.069  11.316 -0.0047 -0.2175  2.8834
 9002SOL     OW38467   4.033   3.220   9.737  0.0576 -0.1031 -0.4469
 9002SOL    HW138468   3.938   3.230   9.727 -0.0521 -1.5679 -0.8841
 9002SOL    HW238469   4.031   3.124   9.735 -0.1662 -0.1115  0.0376
 9003SOL     OW38470   4.582   3.111   7.727 -0.4904 -0.0693  0.5594
 9003SOL    HW138471   4.553   3.082   7.641 -2.2234 -0.4605  1.2703
 9003SOL    HW238472   4.642   3.184   7.715 -0.7435 -0.1900 -1.4051
 9004SOL     OW38473   1.967   1.110  12.687  0.3664 -1.0143 -0.6617
 9004SOL    HW138474   1.896   1.139  12.628 -0.7296 -0.5955  0.8573
 9004SOL    HW238475   1.926   1.037  12.733 -0.7545 -1.3309 -2.1579
 9005SOL     OW38476   2.099   1.179  12.286  0.1583  0.1025  0.0657
 9005SOL    HW138477   2.193   1.172  12.271  0.0272  0.2297 -0.8309
 9005SOL    HW238478   2.084   1.109  12.350  1.5527 -0.2547  0.0047
 9006SOL     OW38479   1.944   3.284   1.348 -1.1295  0.1128  0.7301
 9006SOL    HW138480   1.988   3.368   1.336 -1.1268 -0.8153 -5.5525
 9006SOL    HW238481   1.985   3.242   1.423  0.6018  1.8864  0.7869
 9007SOL     OW38482   1.438   1.937  12.219  0.3256  0.4249 -0.3072
 9007SOL    HW138483   1.474   1.889  12.293 -2.4250 -0.0405  0.6979
 9007SOL    HW238484   1.346   1.915  12.228  0.5302 -0.0498  0.5980
 9008SOL     OW38485   3.148   0.853   7.299 -0.0158  0.6782 -0.0880
 9008SOL    HW138486   3.066   0.899   7.321 -0.6914  0.3030 -1.7871
 9008SOL    HW238487   3.198   0.898   7.366 -1.5646  1.5178  0.5217
 9009SOL     OW38488   2.234   2.683  15.286 -0.3561 -0.1253 -0.2458
 9009SOL    HW138489   2.212   2.623  15.357 -0.6040  0.2759  0.0182
 9009SOL    HW238490   2.315   2.643  15.254  0.3014  0.5059  0.6004
 9010SOL     OW38491   0.810   0.602   2.555 -0.3717 -0.0838 -0.2059
 9010SOL    HW138492   0.753   0.583   2.630  2.2119  1.6429  2.2169
 9010SOL    HW238493   0.804   0.696   2.543  0.3509 -0.4075 -3.0013
 9011SOL     OW38494   3.478   0.241   4.291 -0.1712 -0.2848 -0.3915
 9011SOL    HW138495   3.439   0.156   4.310 -1.2863  0.6350  1.3998
 9011SOL    HW238496   3.420   0.299   4.339 -1.6873 -0.7573 -1.6659
 9012SOL     OW38497   2.806   0.738   2.835  0.3557 -0.5968  0.3146
 9012SOL    HW138498   2.865   0.813   2.844  0.9220 -0.8553 -1.2728
 9012SOL    HW238499   2.722   0.777   2.813  0.7679  0.3254  0.3499
 9013SOL     OW38500   0.097   4.380   4.893  0.0636  0.3339  0.0186
 9013SOL    HW138501   0.110   4.390   4.987  1.6768 -1.2801 -0.0192
 9013SOL    HW238502   0.010   4.418   4.885 -0.9328 -2.3903 -1.8663
 9014SOL     OW38503   4.501   3.019   8.677 -0.3381  0.1363 -0.2047
 9014SOL    HW138504   4.466   2.980   8.757  0.9869  0.7631  0.6712
 9014SOL    HW238505   4.590   2.984   8.678 -0.9020 -1.1920  3.5400
 9015SOL     OW38506   0.129   2.218   8.937 -0.4437 -0.1697 -0.0677
 9015SOL    HW138507   0.114   2.238   8.845  0.8378  2.9278  0.4099
 9015SOL    HW238508   0.171   2.299   8.965  0.6467 -1.2258  1.3441
 9016SOL     OW38509   2.019   0.469   4.306 -0.0699  0.0079  0.0951
 9016SOL    HW138510   1.995   0.385   4.266 -0.9667  1.6878 -2.9221
 9016SOL    HW238511   2.086   0.454   4.373 -0.7952  0.5601  0.9427
 9017SOL     OW38512   3.741   2.293  10.211 -0.9712  0.5046 -0.0931
 9017SOL    HW138513   3.699   2.324  10.292 -1.2563  2.7730 -1.0956
 9017SOL    HW238514   3.833   2.317  10.218 -0.9003  0.0121  0.7223
 9018SOL     OW38515   1.851   1.383   7.145 -0.2549  0.5043  0.0064
 9018SOL    HW138516   1.841   1.293   7.114 -0.5483  0.2547  0.8303
 9018SOL    HW238517   1.913   1.372   7.217  0.0554 -0.1180 -0.3596
 9019SOL     OW38518   0.189   1.852   5.230 -0.1140 -0.0047  0.0888
 9019SOL    HW138519   0.270   1.873   5.278  0.0700  1.9060 -1.0565
 9019SOL    HW238520   0.139   1.806   5.297 -1.1867  0.4737 -0.3925
 9020SOL     OW38521   0.737   0.026   9.141  0.4664  0.1517 -0.3541
 9020SOL    HW138522   0.694   0.022   9.227 -1.6401  0.0522 -1.4039
 9020SOL    HW238523   0.694   0.089   9.083  1.6509  0.9911 -0.3064
 9021SOL     OW38524   0.650   0.394  13.423  0.1231 -0.3049  0.5600
 9021SOL    HW138525   0.655   0.361  13.334  0.4359 -3.4392  1.7349
 9021SOL    HW238526   0.554   0.388  13.431 -0.3402  1.5155 -3.5690
 9022SOL     OW38527   3.091   2.557   9.462  0.8501 -0.2930  0.0509
 9022SOL    HW138528   3.058   2.646   9.455 -1.2544 -1.0792  0.1330
 9022SOL    HW238529   3.030   2.502   9.413  0.8949  0.6362 -1.0487
 9023SOL     OW38530   1.963   0.435  16.666  0.1901  0.4052 -0.1400
 9023SOL    HW138531   1.978   0.341  16.661 -0.8874  0.1877  0.7910
 9023SOL    HW238532   1.867   0.437  16.675  0.3571  0.8160  1.3940
 9024SOL     OW38533   1.139   3.564   0.543  0.2133  0.0309 -0.3092
 9024SOL    HW138534   1.149   3.469   0.536  0.7988 -0.0191  1.2444
 9024SOL    HW238535   1.209   3.585   0.604 -0.5468 -1.3977  1.0594
 9025SOL     OW38536   2.356   0.255   0.561  0.5092 -0.1111 -0.0024
 9025SOL    HW138537   2.446   0.259   0.592  0.6002  1.8749 -0.5091
 9025SOL    HW238538   2.351   0.341   0.519  1.5185  0.3561  0.8525
 9026SOL     OW38539   2.239   3.029   8.681 -0.0116 -0.1133 -0.3451
 9026SOL    HW138540   2.223   2.996   8.592  0.8763  1.6158 -1.1396
 9026SOL    HW238541   2.169   2.979   8.722  0.7287 -2.3002 -1.7503
 9027SOL     OW38542   1.227   0.063   2.153 -0.3034 -0.0140 -0.6041
 9027SOL    HW138543   1.311   0.107   2.171 -0.7704  1.0062 -0.9180
 9027SOL    HW238544   1.182   0.108   2.082 -0.5504  2.1807  0.9390
 9028SOL     OW38545   2.808   4.107   1.323  0.5963 -0.0286  0.0299
 9028SOL    HW138546   2.781   4.198   1.315 -1.7872 -0.7335  0.0010
 9028SOL    HW238547   2.842   4.102   1.413 -0.3838  1.6427  0.4952
 9029SOL     OW38548   0.492   3.147   6.116 -0.1767 -0.1231  0.3842
 9029SOL    HW138549   0.557   3.215   6.133  1.2176 -2.2877  3.6705
 9029SOL    HW238550   0.433   3.185   6.051 -1.5379  1.1249  2.3415
 9030SOL     OW38551   0.960   0.997   7.365 -0.1974 -0.2203 -0.6441
 9030SOL    HW138552   0.932   0.916   7.407 -1.1703  1.0429  1.1551
 9030SOL    HW238553   0.990   0.950   7.287 -1.9808 -1.1021 -0.8071
 9031SOL     OW38554   3.159   0.382   1.540  0.4370  0.1294 -0.0913
 9031SOL    HW138555   3.170   0.388   1.634  1.3174 -0.4606 -0.1507
 9031SOL    HW238556   3.178   0.295   1.504  0.5191 -0.5439  1.5810
 9032SOL     OW38557   3.814   3.772  16.807  0.2915  0.1522  0.1730
 9032SOL    HW138558   3.851   3.727  16.883 -1.4008  0.2625  1.0842
 9032SOL    HW238559   3.867   3.851  16.812 -0.2066  0.4059  1.6195
 9033SOL     OW38560   4.086   1.016   3.709  0.2892 -0.3821  0.2506
 9033SOL    HW138561   4.067   0.961   3.785 -1.1804 -0.9855 -0.5605
 9033SOL    HW238562   4.119   0.944   3.655  2.1232 -0.6721  1.7694
 9034SOL     OW38563   0.702   3.814   0.142 -0.5383 -0.1271  0.5555
 9034SOL    HW138564   0.634   3.829   0.208  0.5812  3.1858  0.9638
 9034SOL    HW238565   0.656   3.841   0.063 -2.9501  1.7508  2.6065
 9035SOL     OW38566   2.370   4.298  16.215 -0.4560 -0.1188 -0.0577
 9035SOL    HW138567   2.316   4.363  16.170 -2.1993 -1.2843  0.3671
 9035SOL    HW238568   2.299   4.253  16.260  0.9995 -1.4237  0.9288
 9036SOL     OW38569   1.281   4.519   6.745 -0.2832 -0.5155  0.1556
 9036SOL    HW138570   1.271   4.597   6.800  1.5414 -0.1280 -0.0420
 9036SOL    HW238571   1.190   4.500   6.726 -0.7167 -1.3404  3.0375
 9037SOL     OW38572   3.145   2.560   0.113 -0.0754 -0.4277  0.6482
 9037SOL    HW138573   3.126   2.565   0.020  0.8611  1.0410  0.5293
 9037SOL    HW238574   3.221   2.619   0.119  0.2644 -0.6654 -1.3858
 9038SOL     OW38575   3.492   3.321   3.753 -0.4333  0.1977  0.0239
 9038SOL    HW138576   3.471   3.322   3.847  1.1616  1.1681  0.3662
 9038SOL    HW238577   3.587   3.306   3.748 -0.3646  1.7468 -3.2389
 9039SOL     OW38578   1.641   0.322   5.862  0.5130  0.0835 -0.5868
 9039SOL    HW138579   1.602   0.395   5.910 -0.0585  0.4672 -1.6432
 9039SOL    HW238580   1.728   0.360   5.847  1.0519 -1.8611 -2.2699
 9040SOL     OW38581   0.840   0.191   6.393 -0.3106 -0.4177  0.6926
 9040SOL    HW138582   0.770   0.249   6.425  0.6131  0.8006  0.4943
 9040SOL    HW238583   0.901   0.263   6.378 -0.1731 -1.2855 -2.7892
 9041SOL     OW38584   3.974   1.583   7.145 -0.1542  0.4581 -0.2291
 9041SOL    HW138585   4.049   1.592   7.204  0.2157 -1.3864 -0.4310
 9041SOL    HW238586   4.008   1.544   7.065  0.4218 -0.9485  0.6991
 9042SOL     OW38587   1.419   0.963   3.595  0.1730 -0.0346  0.3449
 9042SOL    HW138588   1.485   1.012   3.644  1.1945  1.0251 -2.0811
 9042SOL    HW238589   1.470   0.904   3.540  0.0438 -1.0584  1.3163
 9043SOL     OW38590   2.233   4.546   5.420  0.0718  0.1438 -0.8957
 9043SOL    HW138591   2.272   4.580   5.501  0.6669  0.9432 -1.5193
 9043SOL    HW238592   2.217   4.452   5.428  3.0190 -0.4435 -1.6432
 9044SOL     OW38593   4.091   0.622  14.413  0.0847  0.2236  0.0380
 9044SOL    HW138594   4.054   0.538  14.386 -3.0980  1.5028  0.3614
 9044SOL    HW238595   4.038   0.649  14.489 -1.4095  0.1166 -0.9614
 9045SOL     OW38596   4.623   2.948   4.379  0.0744 -1.0188 -0.1812
 9045SOL    HW138597   4.650   3.032   4.341  0.1242 -1.1938 -0.5344
 9045SOL    HW238598   4.532   2.962   4.403  0.4417  1.5918 -0.3175
 9046SOL     OW38599   0.261   4.105  16.589 -0.1475  0.1219 -0.4597
 9046SOL    HW138600   0.325   4.056  16.536  0.5761  0.8962 -0.2941
 9046SOL    HW238601   0.292   4.193  16.571 -0.1385  0.0409 -0.8536
 9047SOL     OW38602   1.519   2.198   7.410  0.1574 -0.6224 -0.1232
 9047SOL    HW138603   1.584   2.144   7.365 -0.5954 -0.7460 -1.0639
 9047SOL    HW238604   1.559   2.285   7.406  0.7435 -0.9288 -1.0208
 9048SOL     OW38605   0.554   1.371  17.210  0.0578  0.5152 -0.7802
 9048SOL    HW138606   0.631   1.389  17.157 -0.9654  0.6224 -2.2348
 9048SOL    HW238607   0.515   1.459  17.209 -1.3403 -0.0989  1.5613
 9049SOL     OW38608   4.489   2.035  17.079  0.4438  1.0031 -0.3358
 9049SOL    HW138609   4.460   2.122  17.050 -0.5211  1.2555  1.3611
 9049SOL    HW238610   4.502   2.053  17.172 -1.5746 -0.0371  0.1505
 9050SOL     OW38611   4.104   4.523  14.820 -0.2140 -0.1873 -0.4010
 9050SOL    HW138612   4.086   4.610  14.786  0.9286  0.3728  0.4722
 9050SOL    HW238613   4.019   4.478  14.824  0.8568 -2.4777 -3.3677
 9051SOL     OW38614   0.912   2.440   9.437 -0.2462  0.5876  0.2365
 9051SOL    HW138615   1.003   2.430   9.464 -0.5962  0.4752  1.4043
 9051SOL    HW238616   0.902   2.360   9.386  3.2080  0.7326 -0.6914
 9052SOL     OW38617   1.858   1.735   9.117 -0.1891  0.3167  0.1151
 9052SOL    HW138618   1.910   1.803   9.159  1.3957  0.1752 -1.6331
 9052SOL    HW238619   1.772   1.745   9.157 -0.0017  0.0618  0.5792
 9053SOL     OW38620   1.884   4.296  14.445  0.4268  0.2022  0.3339
 9053SOL    HW138621   1.882   4.391  14.441  0.1603  0.1626 -0.4344
 9053SOL    HW238622   1.843   4.284  14.531  1.6801 -1.8095  0.6594
 9054SOL     OW38623   0.902   0.287   8.042 -0.0869 -0.3229  0.2506
 9054SOL    HW138624   0.810   0.274   8.064 -0.4812  1.5676 -0.2404
 9054SOL    HW238625   0.946   0.219   8.092  1.3504  0.5319  0.1337
 9055SOL     OW38626   1.964   0.063   4.937  0.3190 -0.5418  0.3376
 9055SOL    HW138627   1.915   0.049   4.855 -0.8120 -0.0002  0.9187
 9055SOL    HW238628   1.930   0.146   4.968  0.5763 -0.0614 -0.6555
 9056SOL     OW38629   1.812   3.575   5.037 -0.2129  0.1674 -0.2946
 9056SOL    HW138630   1.761   3.494   5.042 -1.0581  0.6268 -1.4960
 9056SOL    HW238631   1.894   3.534   5.011 -0.1317  0.5313 -0.6069
 9057SOL     OW38632   4.292   1.564   5.383  0.0912  0.3409  0.0132
 9057SOL    HW138633   4.281   1.599   5.472  0.8940  0.9888 -0.1335
 9057SOL    HW238634   4.360   1.625   5.354 -1.5717  1.1442 -2.1725
 9058SOL     OW38635   4.494   2.417  16.476  0.1850 -0.4743  0.4148
 9058SOL    HW138636   4.477   2.358  16.403 -2.8241 -0.8514  1.3923
 9058SOL    HW238637   4.413   2.406  16.527 -0.2680 -0.7596 -0.3684
 9059SOL     OW38638   4.015   4.290  10.251 -0.0853  0.4584 -0.1627
 9059SOL    HW138639   4.013   4.348  10.176  1.8422  2.4833  1.3493
 9059SOL    HW238640   4.062   4.348  10.311 -2.4020  0.3380  1.7674
 9060SOL     OW38641   4.281   2.766  11.405 -0.1353 -0.0636 -0.0634
 9060SOL    HW138642   4.260   2.849  11.361 -2.9627 -0.0322  1.3927
 9060SOL    HW238643   4.193   2.744  11.435 -0.3805  0.4957 -0.3628
 9061SOL     OW38644   1.637   3.826   2.887  0.0828 -0.3160 -0.5522
 9061SOL    HW138645   1.639   3.843   2.793 -0.6086  2.0229 -0.1469
 9061SOL    HW238646   1.650   3.913   2.924 -0.3446 -0.3834 -0.2500
 9062SOL     OW38647   1.789   4.176   3.776 -0.1174  0.2466 -0.6735
 9062SOL    HW138648   1.743   4.210   3.699  0.3555  0.6594 -0.7771
 9062SOL    HW238649   1.816   4.087   3.757  1.2807  0.8173 -1.3538
 9063SOL     OW38650   2.681   4.324   4.375  0.1402  0.6970 -1.0265
 9063SOL    HW138651   2.675   4.319   4.280  1.9080 -1.1113 -1.0418
 9063SOL    HW238652   2.734   4.400   4.399  0.7230  0.1000 -0.3855
 9064SOL     OW38653   3.586   3.899  11.498 -0.3394  0.0595 -0.5411
 9064SOL    HW138654   3.639   3.886  11.578  0.9605 -0.1098 -1.4228
 9064SOL    HW238655   3.623   3.823  11.454  0.3551 -0.0397  0.1956
 9065SOL     OW38656   0.205   3.032  16.469  0.9849  0.2518 -0.3322
 9065SOL    HW138657   0.134   2.981  16.508  2.7826 -2.0598 -0.0146
 9065SOL    HW238658   0.283   2.994  16.509  0.5664  0.6633  0.8503
 9066SOL     OW38659   3.076   1.770   6.433  0.8090  0.2202 -1.0805
 9066SOL    HW138660   3.154   1.741   6.387  1.3649 -2.1540  1.3886
 9066SOL    HW238661   3.040   1.833   6.370 -0.4991 -0.9124 -1.4619
 9067SOL     OW38662   3.316   4.050   2.175 -0.4891  0.6000  0.2582
 9067SOL    HW138663   3.239   4.012   2.132  0.4022  0.7384 -1.4672
 9067SOL    HW238664   3.291   4.143   2.175  0.6251  0.8986 -1.4189
 9068SOL     OW38665   4.497   3.416   8.478  0.3457  0.4141 -0.0860
 9068SOL    HW138666   4.472   3.504   8.450 -0.7860  0.4666  1.1255
 9068SOL    HW238667   4.553   3.393   8.404 -1.1093  1.2431 -1.4445
 9069SOL     OW38668   3.972   1.573   4.752 -0.1705 -0.0338  0.0398
 9069SOL    HW138669   3.878   1.571   4.734  0.2827  0.4855 -2.3603
 9069SOL    HW238670   3.997   1.620   4.673  0.6711  0.6839  0.7315
 9070SOL     OW38671   2.292   2.045   8.066 -0.3017  0.7865 -0.6738
 9070SOL    HW138672   2.384   2.040   8.039  0.8341  2.2714  2.8696
 9070SOL    HW238673   2.310   2.107   8.137 -1.6823  0.2748  0.1177
 9071SOL     OW38674   0.044   4.179   5.172  0.0853 -0.2033  0.8082
 9071SOL    HW138675   0.034   4.274   5.180 -1.2068 -0.0771 -2.1559
 9071SOL    HW238676   0.007   4.141   5.252 -0.3029  0.6239  1.0165
 9072SOL     OW38677   4.307   1.554   6.461  0.0349 -0.2147  0.4661
 9072SOL    HW138678   4.331   1.644   6.485  2.1522 -0.6659  0.0436
 9072SOL    HW238679   4.283   1.512   6.544  1.3466  3.0619  2.5068
 9073SOL     OW38680   0.030   2.747   3.214 -0.1452 -0.5179 -0.8114
 9073SOL    HW138681   0.067   2.799   3.285  0.1391  0.1541 -1.4539
 9073SOL    HW238682   4.668   2.722   3.250  0.3040  0.8833  1.2372
 9074SOL     OW38683   3.842   4.029  13.749 -0.5876  0.0754 -0.3002
 9074SOL    HW138684   3.790   3.989  13.819  1.3889 -0.2294  1.0255
 9074SOL    HW238685   3.899   4.090  13.797 -0.2319 -1.0035  0.6495
 9075SOL     OW38686   1.885   0.960   8.758 -0.1694  0.5608  0.3289
 9075SOL    HW138687   1.934   0.938   8.679  0.1104  2.4174 -0.0178
 9075SOL    HW238688   1.833   1.033   8.725  1.0132  1.8383  1.2645
 9076SOL     OW38689   1.534   1.156   9.572  0.5303 -0.5347 -0.6136
 9076SOL    HW138690   1.584   1.085   9.533  0.9699 -0.3578 -0.3761
 9076SOL    HW238691   1.505   1.115   9.654 -2.0797  1.3268 -0.6067
 9077SOL     OW38692   0.148   4.090   1.357 -0.0846 -0.0460  0.8469
 9077SOL    HW138693   0.072   4.107   1.413 -0.0182  1.3812  0.5020
 9077SOL    HW238694   0.164   3.998   1.375  2.1312  0.5040  1.6385
 9078SOL     OW38695   3.198   2.747   6.690 -0.1336 -0.1679 -0.1366
 9078SOL    HW138696   3.259   2.692   6.740  0.8047  2.1277  1.2610
 9078SOL    HW238697   3.150   2.678   6.644  0.1881 -1.9971  2.2331
 9079SOL     OW38698   0.076   0.680   5.766  0.3715 -0.2358  0.3417
 9079SOL    HW138699   0.055   0.587   5.756  0.0225 -0.5596  3.8649
 9079SOL    HW238700   0.151   0.704   5.713  1.6289 -3.3451  0.7628
 9080SOL     OW38701   3.110   0.290   1.028  0.1084  0.1452 -0.0132
 9080SOL    HW138702   3.191   0.301   1.078  1.0356 -0.8432 -1.2790
 9080SOL    HW238703   3.099   0.383   1.012  1.4274 -0.2918 -3.5868
 9081SOL     OW38704   0.505   0.790  12.179  0.0315 -0.1788  0.4003
 9081SOL    HW138705   0.490   0.706  12.222 -0.1522 -1.9244 -3.1154
 9081SOL    HW238706   0.480   0.774  12.088 -0.7917  1.0149  0.4108
 9082SOL     OW38707   1.791   2.278   8.186 -0.4364 -0.6790 -0.4073
 9082SOL    HW138708   1.769   2.253   8.276  0.1449 -1.4413 -0.4813
 9082SOL    HW238709   1.844   2.206   8.152 -0.7078 -0.4997 -1.2139
 9083SOL     OW38710   1.693   2.536   1.886  0.0865  0.4053  0.0705
 9083SOL    HW138711   1.683   2.479   1.809 -1.7972  1.8698 -0.7627
 9083SOL    HW238712   1.761   2.500   1.943 -1.0180 -1.5034  0.1832
 9084SOL     OW38713   4.596   1.410   2.384  0.3360 -0.4462 -0.3539
 9084SOL    HW138714   4.585   1.499   2.419 -0.5304 -0.3591 -0.8508
 9084SOL    HW238715   4.680   1.385   2.423  0.1481 -1.9285 -0.8980
 9085SOL     OW38716   2.504   1.665  13.044  0.0903  0.2228 -0.5458
 9085SOL    HW138717   2.431   1.713  13.006 -0.9359 -0.4259  0.5763
 9085SOL    HW238718   2.471   1.577  13.022 -1.5353  0.6413  0.2313
 9086SOL     OW38719   1.917   4.282   8.676  0.0123  0.6829  0.9383
 9086SOL    HW138720   1.946   4.372   8.661  1.6485  0.0129  0.0342
 9086SOL    HW238721   1.856   4.280   8.749 -0.5543 -0.9692  0.4079
 9087SOL     OW38722   4.573   1.157   7.700 -0.3043 -0.2135  0.3457
 9087SOL    HW138723   4.644   1.094   7.684 -1.0151 -0.8687 -0.2317
 9087SOL    HW238724   4.523   1.147   7.619 -2.1765 -2.0429  1.7158
 9088SOL     OW38725   2.832   0.316   2.813 -0.7220  0.2919 -0.1811
 9088SOL    HW138726   2.865   0.243   2.760  2.7468  0.9400  1.0411
 9088SOL    HW238727   2.873   0.395   2.776  0.8535 -0.3076  0.3010
 9089SOL     OW38728   1.551   2.182  13.730 -0.2461 -0.0951 -0.1045
 9089SOL    HW138729   1.602   2.196  13.810 -1.9401 -1.1631  1.1738
 9089SOL    HW238730   1.611   2.188  13.655  1.1187  0.2575  1.0090
 9090SOL     OW38731   2.356   2.852  13.318 -0.3759 -0.1489 -0.3256
 9090SOL    HW138732   2.375   2.760  13.331 -0.4490  0.0034  0.7993
 9090SOL    HW238733   2.429   2.890  13.269 -0.7935  0.4129 -0.5221
 9091SOL     OW38734   4.219   1.976   2.597  0.7414  0.2338 -0.2365
 9091SOL    HW138735   4.131   1.969   2.634  0.6008 -0.2414 -0.6611
 9091SOL    HW238736   4.204   1.942   2.509 -0.1545  0.6829 -0.2456
 9092SOL     OW38737   3.141   4.251  11.857 -0.1831  0.4745 -0.0748
 9092SOL    HW138738   3.181   4.164  11.847 -0.8910 -0.1743  2.8320
 9092SOL    HW238739   3.059   4.227  11.900  0.5373 -0.2670  0.8793
 9093SOL     OW38740   1.412   4.301   1.219 -0.1270  0.0495 -0.0936
 9093SOL    HW138741   1.404   4.207   1.208  2.5574 -0.0829 -0.8735
 9093SOL    HW238742   1.447   4.317   1.131  0.8152  0.3392  0.3333
 9094SOL     OW38743   1.017   3.303   3.120  0.0384  0.0536  0.5576
 9094SOL    HW138744   0.926   3.283   3.102 -0.7680  2.5466  1.8443
 9094SOL    HW238745   1.018   3.296   3.215 -1.1034 -1.4429  0.4581
 9095SOL     OW38746   2.198   3.139   5.441  0.3345  0.1792  0.0929
 9095SOL    HW138747   2.181   3.224   5.402  3.0433  0.5634 -0.1745
 9095SOL    HW238748   2.203   3.069   5.375 -1.0489  0.4977 -0.3558
 9096SOL     OW38749   3.132   0.811  10.630 -0.3186 -0.1763 -0.4431
 9096SOL    HW138750   3.044   0.805  10.667  0.1558 -0.5266  0.6349
 9096SOL    HW238751   3.108   0.873  10.562 -0.9496  1.2668  1.0882
 9097SOL     OW38752   1.450   4.483   5.837  0.0088  0.1224  0.1016
 9097SOL    HW138753   1.514   4.464   5.906  1.2262  1.9955 -0.5197
 9097SOL    HW238754   1.502   4.534   5.776 -0.1908  0.6870  0.4059
 9098SOL     OW38755   3.022   1.828   5.946 -0.4076  0.8475 -0.1348
 9098SOL    HW138756   2.947   1.778   5.915  0.7561  0.2317 -1.8972
 9098SOL    HW238757   3.097   1.773   5.926  0.5571  1.2578  2.3413
 9099SOL     OW38758   4.095   4.475   2.657 -0.0136  0.4669  0.0875
 9099SOL    HW138759   4.027   4.472   2.724 -0.3027 -1.1765 -0.2832
 9099SOL    HW238760   4.143   4.550   2.691 -1.1771  1.1956  0.1212
 9100SOL     OW38761   0.153   2.170   0.704 -0.1406  0.1725 -0.0756
 9100SOL    HW138762   0.134   2.225   0.628  1.4244  0.6363 -0.1386
 9100SOL    HW238763   0.067   2.146   0.737  0.5012 -2.3006 -0.2571
 9101SOL     OW38764   2.706   3.891   0.986 -0.2375 -0.0965 -0.1479
 9101SOL    HW138765   2.766   3.940   1.043 -0.0507 -1.5130  0.8873
 9101SOL    HW238766   2.635   3.952   0.966 -2.1664 -1.5452  2.3056
 9102SOL     OW38767   4.092   4.194   6.691  0.7092 -0.0753 -0.3005
 9102SOL    HW138768   4.025   4.177   6.757 -0.8741 -0.4298 -1.9684
 9102SOL    HW238769   4.044   4.177   6.609 -1.5060  0.4762  0.8807
 9103SOL     OW38770   2.152   0.580  11.323  0.1312  0.5149 -0.4640
 9103SOL    HW138771   2.085   0.544  11.382 -0.1037  0.3042 -0.8603
 9103SOL    HW238772   2.114   0.562  11.237  1.7576 -0.5029 -0.9697
 9104SOL     OW38773   0.997   2.045   6.713  0.7453 -0.3440 -0.4833
 9104SOL    HW138774   0.952   2.128   6.696  0.0881 -0.1336  2.2066
 9104SOL    HW238775   1.087   2.062   6.686  0.4681  0.8457 -0.6523
 9105SOL     OW38776   2.347   2.282   8.898 -0.3886 -0.2530 -0.2550
 9105SOL    HW138777   2.361   2.316   8.987  1.0187  0.1711 -0.6438
 9105SOL    HW238778   2.261   2.240   8.896 -1.5986  2.1759  0.7714
 9106SOL     OW38779   4.212   1.713  13.508  0.1553  0.1804 -0.1877
 9106SOL    HW138780   4.151   1.638  13.504 -1.7538  1.6924  0.5351
 9106SOL    HW238781   4.151   1.782  13.483 -2.4827 -1.1998  2.3497
 9107SOL     OW38782   4.365   1.193   8.484 -0.1358  0.1816  0.2328
 9107SOL    HW138783   4.274   1.186   8.511  0.6835  0.7862  3.1894
 9107SOL    HW238784   4.404   1.188   8.572  0.5939 -1.8489 -0.2035
 9108SOL     OW38785   4.695   3.935   2.906  0.0561  0.1651  0.6030
 9108SOL    HW138786   4.681   4.024   2.873  1.7138 -0.3631 -1.5850
 9108SOL    HW238787   0.057   3.949   2.949 -0.6799  2.1961  1.3990
 9109SOL     OW38788   3.388   0.948   8.057  0.1441 -0.5902 -0.5506
 9109SOL    HW138789   3.322   1.016   8.045  1.6826  0.7061 -1.7403
 9109SOL    HW238790   3.468   0.999   8.072 -0.1587 -0.4150  0.4209
 9110SOL     OW38791   1.595   0.142   3.542  0.1468  0.5449  0.9032
 9110SOL    HW138792   1.511   0.149   3.496 -0.1774  1.4786  1.6291
 9110SOL    HW238793   1.566   0.126   3.632  0.0986  0.0790  0.8075
 9111SOL     OW38794   2.548   2.846   7.163  0.5275 -0.0802 -0.2556
 9111SOL    HW138795   2.607   2.820   7.234 -0.0359 -2.9915 -0.8505
 9111SOL    HW238796   2.544   2.940   7.182 -0.0740  0.4290 -2.8943
 9112SOL     OW38797   3.331   1.791   4.481 -0.3602  0.0285  0.2533
 9112SOL    HW138798   3.374   1.730   4.540 -1.4131 -2.7393 -1.8103
 9112SOL    HW238799   3.302   1.735   4.408  0.9778 -1.3120  0.7562
 9113SOL     OW38800   2.018   3.847   1.865  0.7260  0.0431 -0.0847
 9113SOL    HW138801   2.026   3.925   1.810 -0.6750  0.7749  0.7602
 9113SOL    HW238802   1.926   3.825   1.850  0.2841  1.6738  0.2962
 9114SOL     OW38803   3.441   1.641   1.446  0.3245 -0.9417 -0.6582
 9114SOL    HW138804   3.443   1.682   1.533 -0.7230 -0.9570 -0.6303
 9114SOL    HW238805   3.407   1.711   1.390 -0.5593 -1.3253 -0.6045
 9115SOL     OW38806   0.974   3.867   3.239  0.4066  0.4096  0.6630
 9115SOL    HW138807   1.039   3.881   3.308 -1.0999  0.3180  2.1147
 9115SOL    HW238808   1.017   3.922   3.173  1.0170  0.5499  1.1765
 9116SOL     OW38809   0.324   2.798   3.667 -0.1934 -0.3400  0.4182
 9116SOL    HW138810   0.259   2.738   3.705 -0.5765  0.9160  1.7601
 9116SOL    HW238811   0.399   2.786   3.726 -0.6008  1.4636  1.2991
 9117SOL     OW38812   3.983   0.684  10.423 -0.4108  0.2052  0.1997
 9117SOL    HW138813   3.980   0.615  10.491  1.9161 -0.5979 -0.5267
 9117SOL    HW238814   4.055   0.737  10.456 -1.0921  0.1708  1.7451
 9118SOL     OW38815   4.370   4.698  16.841 -0.0098  0.0827  0.5841
 9118SOL    HW138816   4.450   0.015  16.806 -0.6374 -0.3073 -1.2908
 9118SOL    HW238817   4.393   4.664  16.928 -0.1792  1.0154  0.9905
 9119SOL     OW38818   1.773   4.500  16.740  0.3141  0.3867 -0.2381
 9119SOL    HW138819   1.763   4.417  16.787  0.3081  0.9550  0.7537
 9119SOL    HW238820   1.838   4.538  16.799  0.0974 -1.9613  1.5310
 9120SOL     OW38821   3.437   4.001  12.486 -0.0580 -0.4464 -0.3170
 9120SOL    HW138822   3.368   3.936  12.471  0.3030 -0.1796 -3.1070
 9120SOL    HW238823   3.491   3.954  12.549 -0.7839 -1.4215 -0.4317
 9121SOL     OW38824   0.442   0.012  12.362  0.4319 -0.2486 -0.6807
 9121SOL    HW138825   0.447   4.643  12.334 -1.9494 -1.0189  1.4097
 9121SOL    HW238826   0.457   0.055  12.278 -0.1208  1.7553  0.2581
 9122SOL     OW38827   0.825   4.038   8.143  0.2064 -0.0018 -0.0075
 9122SOL    HW138828   0.750   4.083   8.104  0.6476  1.8738  1.3285
 9122SOL    HW238829   0.820   4.066   8.235 -0.3131 -1.4168  0.3890
 9123SOL     OW38830   1.928   1.337   3.285  0.1250  0.0237 -0.8842
 9123SOL    HW138831   1.973   1.391   3.350  0.4927 -0.0941 -1.0399
 9123SOL    HW238832   1.970   1.362   3.203  1.5326 -0.2488 -0.2522
 9124SOL     OW38833   0.759   1.459   5.422 -0.3885 -0.0346 -0.7817
 9124SOL    HW138834   0.668   1.484   5.441  0.1497  2.0420 -0.9640
 9124SOL    HW238835   0.806   1.536   5.453 -2.2253  0.4814  0.7119
 9125SOL     OW38836   1.877   3.865   3.685 -0.3969  0.4185 -1.0693
 9125SOL    HW138837   1.847   3.917   3.610 -1.1070 -0.0257 -1.0931
 9125SOL    HW238838   1.947   3.817   3.642  1.3439  1.3884  0.6510
 9126SOL     OW38839   3.174   4.162   3.089  0.6889 -0.0586  0.1851
 9126SOL    HW138840   3.265   4.176   3.116  0.4177  1.7295  0.1249
 9126SOL    HW238841   3.152   4.079   3.133 -0.9291 -1.1033 -2.5553
 9127SOL     OW38842   4.374   1.062   3.686  0.8751  0.3789 -0.3951
 9127SOL    HW138843   4.281   1.083   3.676  0.0835 -2.1076  1.9536
 9127SOL    HW238844   4.375   1.059   3.781  0.0766  1.6694 -0.3509
 9128SOL     OW38845   2.803   1.322   7.359 -0.5076 -0.1071 -0.4254
 9128SOL    HW138846   2.755   1.292   7.436  1.5599 -1.0723  0.4721
 9128SOL    HW238847   2.769   1.412   7.353 -1.2387 -0.1806  2.4803
 9129SOL     OW38848   0.309   2.207  15.166  0.4007 -0.0572  0.0880
 9129SOL    HW138849   0.381   2.262  15.196 -2.0768  2.6385  1.0941
 9129SOL    HW238850   0.245   2.221  15.236 -0.9964 -0.8043 -1.0205
 9130SOL     OW38851   1.808   1.620   2.987  0.0064  0.3693  0.6903
 9130SOL    HW138852   1.858   1.648   2.910 -0.3426  0.0897  0.3605
 9130SOL    HW238853   1.871   1.557   3.023 -0.6570 -1.3562 -1.1465
 9131SOL     OW38854   3.996   4.210   6.244 -0.7090 -0.4680  0.5172
 9131SOL    HW138855   4.061   4.241   6.181 -0.6634 -1.1513  0.2261
 9131SOL    HW238856   3.999   4.115   6.229  0.6785 -0.8817  3.2953
 9132SOL     OW38857   3.971   1.436   6.197  0.3168 -0.3430 -0.0066
 9132SOL    HW138858   4.062   1.462   6.209  0.5050 -1.8221  1.6502
 9132SOL    HW238859   3.983   1.404   6.107 -0.8254  2.0514 -1.0091
 9133SOL     OW38860   0.287   3.837   0.290  0.5150  0.7729 -0.1363
 9133SOL    HW138861   0.206   3.867   0.249 -0.5831  0.2784  1.7096
 9133SOL    HW238862   0.337   3.911   0.256  2.1682 -1.1042 -1.8527
 9134SOL     OW38863   0.785   4.287   8.580 -0.1893  0.3995 -0.2699
 9134SOL    HW138864   0.694   4.303   8.606 -0.3746 -3.0998  1.2447
 9134SOL    HW238865   0.829   4.324   8.656 -1.2440 -1.0174  1.0304
 9135SOL     OW38866   0.028   0.908  11.902 -0.0044  0.4192 -0.2756
 9135SOL    HW138867   0.010   0.822  11.941 -0.3556  0.5072 -0.2479
 9135SOL    HW238868   4.685   0.921  11.835 -1.9814 -1.0885  1.3434
 9136SOL     OW38869   1.616   0.552   3.716 -0.0651  0.3334 -0.0256
 9136SOL    HW138870   1.641   0.494   3.644  0.8806  0.7282 -0.0180
 9136SOL    HW238871   1.646   0.496   3.787  0.9712  0.2339 -0.5479
 9137SOL     OW38872   2.946   1.044   7.330  0.5171  0.5152 -0.5165
 9137SOL    HW138873   2.952   1.097   7.250  0.8324  1.3037  0.0256
 9137SOL    HW238874   2.891   1.103   7.381  0.4648  1.2327 -1.3796
 9138SOL     OW38875   1.181   2.899   7.966 -0.1547  0.1541 -0.0370
 9138SOL    HW138876   1.263   2.849   7.965  0.7530  1.5888  2.2467
 9138SOL    HW238877   1.193   2.935   8.054 -2.4322 -0.5921  0.5700
 9139SOL     OW38878   1.891   2.384   4.943 -0.2358 -0.1249 -0.1775
 9139SOL    HW138879   1.865   2.324   5.012  1.7146 -0.1900  0.5261
 9139SOL    HW238880   1.821   2.449   4.943 -1.7410 -1.7824 -2.1785
 9140SOL     OW38881   1.481   3.114   8.384  0.2962 -0.3346 -0.1620
 9140SOL    HW138882   1.407   3.058   8.407  1.0137 -0.5639  1.5569
 9140SOL    HW238883   1.501   3.150   8.470 -0.0226 -0.6180  0.0271
 9141SOL     OW38884   2.913   4.394   9.921 -0.0190 -0.6041 -0.3548
 9141SOL    HW138885   2.927   4.435  10.006  1.6004  0.1730 -0.9918
 9141SOL    HW238886   2.844   4.332   9.945 -0.6606  1.3838  2.9565
 9142SOL     OW38887   3.536   3.507   3.048  0.0697 -0.5293  0.2170
 9142SOL    HW138888   3.507   3.548   2.967 -1.8851 -1.8488  0.2563
 9142SOL    HW238889   3.601   3.446   3.012  1.4200  1.7331 -1.2388
 9143SOL     OW38890   1.539   1.380   4.337  0.3691 -0.2975  0.1926
 9143SOL    HW138891   1.461   1.324   4.334 -0.2366  0.5259  0.4695
 9143SOL    HW238892   1.558   1.385   4.244 -1.2765 -0.8733 -0.1857
 9144SOL     OW38893   3.989   3.001  13.510 -0.0833 -0.1480 -1.1481
 9144SOL    HW138894   4.034   3.085  13.522  2.2552 -1.4144 -1.0904
 9144SOL    HW238895   4.064   2.942  13.509  0.9231  1.1211  0.0393
 9145SOL     OW38896   1.392   1.321   0.789  0.6338 -0.1199  0.5914
 9145SOL    HW138897   1.460   1.385   0.767  0.3585  0.1809  0.6208
 9145SOL    HW238898   1.425   1.305   0.877 -2.7561  2.6464  2.3592
 9146SOL     OW38899   0.262   2.131  11.713 -0.4223  0.3709  0.3599
 9146SOL    HW138900   0.229   2.141  11.803 -0.3180  0.6742  0.3664
 9146SOL    HW238901   0.246   2.038  11.703 -0.7878  0.4729  0.0137
 9147SOL     OW38902   1.293   0.679   8.354  0.0215  0.0866  0.5400
 9147SOL    HW138903   1.282   0.631   8.436 -0.1574 -0.8060 -0.0072
 9147SOL    HW238904   1.209   0.726   8.349  1.5896  2.7714 -0.2767
 9148SOL     OW38905   1.197   3.110   4.529  0.1185 -0.0849  0.2950
 9148SOL    HW138906   1.256   3.108   4.604  2.2925  1.0595 -1.3457
 9148SOL    HW238907   1.113   3.139   4.565  0.3668  2.7204 -1.3393
 9149SOL     OW38908   0.913   3.288   8.089  0.2027 -0.2126  0.4159
 9149SOL    HW138909   1.000   3.251   8.082 -0.0761 -0.6177 -0.8940
 9149SOL    HW238910   0.881   3.263   8.003 -0.7086  0.4162  0.5682
 9150SOL     OW38911   3.780   4.704   5.017  0.3533 -0.4244 -0.2929
 9150SOL    HW138912   3.741   4.703   4.930  1.4014 -0.0743 -0.7715
 9150SOL    HW238913   3.700   4.695   5.068  0.7362  1.3365  0.6471
 9151SOL     OW38914   2.140   4.333   9.007  0.3080  0.0218 -0.5980
 9151SOL    HW138915   2.187   4.385   8.942  2.4651  2.1178  2.7071
 9151SOL    HW238916   2.063   4.385   9.029 -1.1534 -1.6684 -1.6577
 9152SOL     OW38917   1.396   0.035   4.773  0.1091  0.1798 -0.4164
 9152SOL    HW138918   1.318   0.030   4.718 -0.4487 -0.8585  0.4865
 9152SOL    HW238919   1.465   0.041   4.707  1.4218 -1.7808  0.7677
 9153SOL     OW38920   3.794   3.183  10.177 -0.3518  0.3648 -0.0539
 9153SOL    HW138921   3.826   3.224  10.257 -0.7034  2.0515 -0.7662
 9153SOL    HW238922   3.736   3.119  10.217 -0.2282  0.2352 -0.0837
 9154SOL     OW38923   1.250   1.673   3.249 -0.5439 -0.2607 -0.0790
 9154SOL    HW138924   1.184   1.654   3.182 -2.8416  0.2924  2.0555
 9154SOL    HW238925   1.317   1.608   3.229  0.6886  0.6323  1.0772
 9155SOL     OW38926   3.972   3.956   7.777 -0.0838  0.1603 -0.3637
 9155SOL    HW138927   3.968   4.051   7.761 -2.6967 -0.0211 -0.7434
 9155SOL    HW238928   3.927   3.918   7.702 -0.1101  0.3934 -0.4652
 9156SOL     OW38929   0.352   4.037   0.606  0.2465 -0.4326  0.3209
 9156SOL    HW138930   0.351   3.942   0.604 -0.5078 -0.4842  2.7688
 9156SOL    HW238931   0.436   4.056   0.566 -0.7229  1.6108 -0.7608
 9157SOL     OW38932   1.843   4.685   8.487  0.0326 -0.3732  0.2514
 9157SOL    HW138933   1.922   4.643   8.522  0.2148 -0.2101  0.0349
 9157SOL    HW238934   1.874   0.041   8.441  0.5571  0.1682  1.5122
 9158SOL     OW38935   0.490   4.370  15.208 -0.3893  0.4361  0.2105
 9158SOL    HW138936   0.447   4.455  15.199 -1.6864 -0.4231 -1.6528
 9158SOL    HW238937   0.430   4.311  15.162 -1.0777  0.2208  1.3683
 9159SOL     OW38938   1.649   3.866   9.995 -0.4922  0.0696 -0.2715
 9159SOL    HW138939   1.699   3.935   9.951  2.4072 -1.9016 -0.0372
 9159SOL    HW238940   1.713   3.801  10.023  0.7082  1.9585  1.2821
 9160SOL     OW38941   2.900   1.878   9.652  0.2086 -0.0171  0.2730
 9160SOL    HW138942   2.910   1.890   9.558 -0.8993  1.3407  0.3240
 9160SOL    HW238943   2.932   1.961   9.686 -1.4941  0.0877  1.6834
 9161SOL     OW38944   1.999   2.801   7.889  0.3817 -0.0886 -0.0990
 9161SOL    HW138945   2.010   2.893   7.912 -0.9727  0.6813 -2.4967
 9161SOL    HW238946   2.048   2.758   7.958 -0.4082  0.1367  0.6053
 9162SOL     OW38947   2.179   1.126   7.710 -0.4605 -0.1776  0.3517
 9162SOL    HW138948   2.156   1.184   7.637  1.9167 -0.8367 -0.9134
 9162SOL    HW238949   2.094   1.086   7.728 -0.4299 -0.9810 -1.3021
 9163SOL     OW38950   0.591   2.927   9.328 -0.0419 -0.3499  0.2922
 9163SOL    HW138951   0.524   2.991   9.353  1.6690  0.9028  1.6646
 9163SOL    HW238952   0.550   2.841   9.337  0.9209 -0.9437 -0.9758
 9164SOL     OW38953   2.118   2.161  10.865  0.1684 -0.3013  0.1174
 9164SOL    HW138954   2.052   2.098  10.895  2.1104 -2.3451  0.0370
 9164SOL    HW238955   2.176   2.092  10.834 -1.1639 -0.8858 -1.1383
 9165SOL     OW38956   4.383   0.583   7.437 -0.0213 -0.6478  0.1515
 9165SOL    HW138957   4.314   0.602   7.501  0.6672  1.1502  0.3590
 9165SOL    HW238958   4.445   0.655   7.446  0.2918 -0.9497  0.4251
 9166SOL     OW38959   2.606   4.646   6.676  0.3012 -0.2493  0.0571
 9166SOL    HW138960   2.686   4.699   6.673 -0.1457  0.4850  1.0057
 9166SOL    HW238961   2.552   4.706   6.728  1.2984 -0.8619  1.7901
 9167SOL     OW38962   4.287   1.753  16.716 -0.3073 -0.3610  0.2520
 9167SOL    HW138963   4.197   1.750  16.683  0.0220  2.2950 -0.9132
 9167SOL    HW238964   4.279   1.680  16.777 -1.0642  0.2866  0.9220
 9168SOL     OW38965   3.811   3.345  11.169  0.4696  0.2973 -0.4233
 9168SOL    HW138966   3.848   3.274  11.117 -0.5660  0.1857 -0.9886
 9168SOL    HW238967   3.814   3.408  11.098  0.3953 -0.4920 -1.1300
 9169SOL     OW38968   1.167   0.546   8.551  0.1293 -0.0747 -0.4393
 9169SOL    HW138969   1.093   0.605   8.567 -0.5874 -1.2235  0.4380
 9169SOL    HW238970   1.188   0.513   8.638 -1.8957 -0.4179 -0.0839
 9170SOL     OW38971   4.273   0.957   8.971 -0.2636 -0.0054 -0.2078
 9170SOL    HW138972   4.212   1.006   8.916 -1.8445 -1.6926  0.0476
 9170SOL    HW238973   4.359   0.938   8.932 -0.0348  1.1206 -0.2813
 9171SOL     OW38974   2.198   1.623   1.723 -0.3912  0.2806  0.0388
 9171SOL    HW138975   2.137   1.559   1.686  1.8120 -2.0842  0.5303
 9171SOL    HW238976   2.278   1.576   1.700 -0.0576  0.8712 -0.0143
 9172SOL     OW38977   0.724   1.233   6.374 -0.0820 -0.2247  0.2101
 9172SOL    HW138978   0.742   1.280   6.456 -1.8071 -1.6440  1.4099
 9172SOL    HW238979   0.811   1.211   6.341 -0.3782  1.0151 -1.3471
 9173SOL     OW38980   1.813   1.970   2.918  0.2748  0.6968  0.0565
 9173SOL    HW138981   1.719   1.965   2.936  0.0614 -0.5942 -1.3142
 9173SOL    HW238982   1.815   2.060   2.886 -0.9666  1.1708  1.3448
 9174SOL     OW38983   1.311   3.872   0.958  0.3340  0.6502 -0.0512
 9174SOL    HW138984   1.260   3.872   0.877 -0.9971  0.4207  0.7879
 9174SOL    HW238985   1.396   3.832   0.938 -0.4553 -0.8073 -0.4274
 9175SOL     OW38986   2.251   0.678   2.500  0.5455  0.4492  0.0132
 9175SOL    HW138987   2.202   0.756   2.471 -2.9191 -1.2424  1.3143
 9175SOL    HW238988   2.330   0.708   2.545  0.4645  2.0349 -0.9099
 9176SOL     OW38989   2.462   1.713   2.901  0.5052  0.6199  0.0449
 9176SOL    HW138990   2.398   1.736   2.834  1.3396 -0.5674 -1.1563
 9176SOL    HW238991   2.509   1.795   2.914 -1.3412  1.8311 -0.9428
 9177SOL     OW38992   1.270   2.916  13.079  0.3206  0.2237  0.5594
 9177SOL    HW138993   1.235   2.828  13.066  0.6137 -0.0331  1.4940
 9177SOL    HW238994   1.248   2.936  13.170 -1.6393 -0.3114  0.1967
 9178SOL     OW38995   3.622   3.019  17.460  0.1465  0.2615 -0.0382
 9178SOL    HW138996   3.581   3.007  17.374  0.3953 -0.8858  0.0045
 9178SOL    HW238997   3.616   3.112  17.481  0.0641  0.6087 -1.5788
 9179SOL     OW38998   1.440   4.193   3.425  0.0643 -0.4827 -0.2556
 9179SOL    HW138999   1.526   4.232   3.439  0.2924 -0.4034 -1.8335
 9179SOL    HW239000   1.437   4.123   3.490 -0.2562  1.4703  1.8186
 9180SOL     OW39001   4.094   2.106   0.423 -0.3866  0.3675 -0.2962
 9180SOL    HW139002   4.126   2.196   0.431 -0.5134  0.4950 -1.1678
 9180SOL    HW239003   4.002   2.122   0.401 -0.2317 -1.6975 -2.4723
 9181SOL     OW39004   4.698   2.846   8.685  0.0984 -0.1282 -0.3908
 9181SOL    HW139005   4.657   2.811   8.606  0.9521 -0.4362 -0.6946
 9181SOL    HW239006   4.689   2.765   8.735 -0.8999  1.3458  1.8274
 9182SOL     OW39007   0.699   0.470   6.111 -0.5091  0.1521 -0.0799
 9182SOL    HW139008   0.643   0.394   6.097  3.1462 -2.4356 -0.5694
 9182SOL    HW239009   0.757   0.448   6.184 -1.6047  0.1853  0.8239
 9183SOL     OW39010   3.804   0.517   9.219 -0.6166 -0.0981  0.3503
 9183SOL    HW139011   3.769   0.501   9.307 -1.0997  0.2082  0.2157
 9183SOL    HW239012   3.874   0.579   9.238 -0.6019 -0.9982  3.1105
 9184SOL     OW39013   0.358   2.071   7.949 -0.1987 -0.6200  0.1996
 9184SOL    HW139014   0.439   2.023   7.964  0.5002 -0.3600 -2.7627
 9184SOL    HW239015   0.377   2.150   8.000 -1.1467 -0.3693  0.1741
 9185SOL     OW39016   3.902   0.372   7.083 -0.7567  0.3831  0.5259
 9185SOL    HW139017   3.957   0.450   7.070 -1.8118  1.1232  0.4837
 9185SOL    HW239018   3.881   0.389   7.175  0.7110 -0.8332  1.0843
 9186SOL     OW39019   4.037   4.186   8.314 -0.9269  0.2066  0.1706
 9186SOL    HW139020   4.069   4.099   8.340  0.1119  0.2669 -0.9082
 9186SOL    HW239021   3.974   4.164   8.246 -1.6771 -1.4464  1.4024
 9187SOL     OW39022   1.170   4.607  10.161  0.2962 -0.1393 -0.2692
 9187SOL    HW139023   1.096   4.568  10.207 -0.5904  1.1746 -0.5782
 9187SOL    HW239024   1.182   4.684  10.216 -0.1002  0.1746 -0.6271
 9188SOL     OW39025   1.295   2.312   3.340 -0.0330 -0.4903 -0.2170
 9188SOL    HW139026   1.299   2.407   3.325 -0.4899 -0.5273 -0.5624
 9188SOL    HW239027   1.202   2.310   3.361  0.1043  1.0895  0.5439
 9189SOL     OW39028   3.540   1.366   5.423  0.1608  0.0518  0.5410
 9189SOL    HW139029   3.488   1.312   5.364  0.4739  1.6818 -1.2334
 9189SOL    HW239030   3.619   1.312   5.416  1.7717  2.4926 -0.0945
 9190SOL     OW39031   3.031   0.253  12.410  0.0666 -0.3233 -0.3093
 9190SOL    HW139032   3.010   0.207  12.491 -0.7728  1.4793  0.4966
 9190SOL    HW239033   2.960   0.317  12.411 -0.7372 -1.1853 -1.4130
 9191SOL     OW39034   2.210   0.457   4.517  0.2111  0.0269  0.1555
 9191SOL    HW139035   2.287   0.449   4.574 -0.3099 -1.5566  0.6400
 9191SOL    HW239036   2.138   0.432   4.575  0.3169 -0.2778  0.1608
 9192SOL     OW39037   1.236   3.810   0.127 -0.1888 -0.3392  0.4762
 9192SOL    HW139038   1.254   3.849   0.212 -1.4634 -1.6510  1.3398
 9192SOL    HW239039   1.267   3.877   0.066 -2.5191 -0.1126 -0.4840
 9193SOL     OW39040   3.778   4.490   1.218  0.6300  0.3475  0.0515
 9193SOL    HW139041   3.863   4.449   1.202 -0.1381 -1.3352  0.2783
 9193SOL    HW239042   3.778   4.477   1.313  0.4584 -0.5894 -0.0773
 9194SOL     OW39043   0.922   4.282  15.426 -0.0861 -0.5620  0.2109
 9194SOL    HW139044   0.863   4.357  15.427  0.6258  0.0789 -4.9653
 9194SOL    HW239045   0.985   4.320  15.365  0.1488  1.7783  1.9330
 9195SOL     OW39046   3.737   1.382   0.648 -0.1578  0.6903 -0.2930
 9195SOL    HW139047   3.708   1.291   0.659 -0.1028  0.8144  0.9500
 9195SOL    HW239048   3.662   1.438   0.668 -0.8355 -0.9835  1.8944
 9196SOL     OW39049   2.840   3.883   8.703  0.6124 -0.3978  0.2962
 9196SOL    HW139050   2.823   3.833   8.623  0.3140 -0.3958  0.3573
 9196SOL    HW239051   2.847   3.974   8.676  1.3631 -0.3361  0.7001
 9197SOL     OW39052   0.531   1.641   8.746 -0.2689 -0.0363 -0.2265
 9197SOL    HW139053   0.570   1.724   8.774 -1.4188 -0.3038  2.0795
 9197SOL    HW239054   0.587   1.576   8.788  1.0398 -0.0702 -1.9953
 9198SOL     OW39055   0.426   3.264   8.725  0.3304 -0.4454  0.2940
 9198SOL    HW139056   0.361   3.305   8.669  0.6045 -0.1409  0.1995
 9198SOL    HW239057   0.500   3.255   8.665 -0.8231 -0.8240 -1.0744
 9199SOL     OW39058   1.633   0.348   4.232 -0.0537  0.0401  0.0542
 9199SOL    HW139059   1.725   0.331   4.250  0.1247  0.3417 -0.5558
 9199SOL    HW239060   1.627   0.434   4.275  1.6798 -0.9718  2.2745
 9200SOL     OW39061   3.799   3.592   8.237 -0.3824 -0.3462 -0.2677
 9200SOL    HW139062   3.726   3.635   8.192 -0.0804  1.2439  0.7889
 9200SOL    HW239063   3.867   3.601   8.171 -1.3987  0.5281 -1.2014
 9201SOL     OW39064   4.074   4.638   1.928 -0.4453 -0.1037 -0.1378
 9201SOL    HW139065   4.046   4.673   1.844  1.0432 -0.5617 -0.8095
 9201SOL    HW239066   3.992   4.656   1.975  0.2257 -0.4186  1.1592
 9202SOL     OW39067   4.522   0.160   7.284 -0.8157 -0.1480  0.3931
 9202SOL    HW139068   4.502   0.158   7.378 -2.0924  1.3133  0.1592
 9202SOL    HW239069   4.607   0.116   7.276 -0.6740  0.4328 -1.2735
 9203SOL     OW39070   0.632   1.464  12.605  0.3331  0.1379 -0.2919
 9203SOL    HW139071   0.556   1.461  12.663  0.9556 -2.9577  0.3283
 9203SOL    HW239072   0.688   1.498  12.674  1.1192 -0.1438 -0.7916
 9204SOL     OW39073   3.403   3.937  13.920  0.1719  0.1955  0.5663
 9204SOL    HW139074   3.467   3.939  13.991 -2.3075 -1.7177  2.8475
 9204SOL    HW239075   3.346   3.864  13.944  1.1486 -1.4724 -2.2150
 9205SOL     OW39076   0.482   2.015   6.217 -0.0918 -0.6226  0.2103
 9205SOL    HW139077   0.548   2.001   6.149  0.2887  1.7310  0.0984
 9205SOL    HW239078   0.479   1.925   6.251 -2.5408 -0.8057 -0.5607
 9206SOL     OW39079   2.847   3.331  13.748 -0.0943 -0.2577  0.4186
 9206SOL    HW139080   2.917   3.268  13.731  0.0413  0.0980 -0.3066
 9206SOL    HW239081   2.797   3.287  13.817  0.5103 -0.0381  0.9916
 9207SOL     OW39082   1.013   2.624   7.302  0.2138  0.7517  0.0582
 9207SOL    HW139083   0.930   2.669   7.321  0.9387  1.7387  0.9503
 9207SOL    HW239084   0.987   2.571   7.227  1.3302  1.2992 -0.7240
 9208SOL     OW39085   2.178   0.697   9.391  0.3747  0.0914 -0.0954
 9208SOL    HW139086   2.162   0.673   9.300 -2.2592 -0.3504  0.4704
 9208SOL    HW239087   2.272   0.699   9.411  0.7547 -0.6945 -1.8424
 9209SOL     OW39088   1.582   0.709   2.704 -0.2829 -0.0929  0.0149
 9209SOL    HW139089   1.490   0.706   2.731 -0.8572 -2.6315 -2.2551
 9209SOL    HW239090   1.588   0.771   2.632 -0.3465 -0.5584 -0.3926
 9210SOL     OW39091   4.477   1.638   2.815  0.5367 -0.1411 -0.2971
 9210SOL    HW139092   4.409   1.695   2.851 -0.1402 -0.5433 -0.9418
 9210SOL    HW239093   4.556   1.677   2.852 -0.1210  0.5249  0.3877
 9211SOL     OW39094   3.878   4.698   5.909  0.3685 -0.2607  0.1274
 9211SOL    HW139095   3.849   4.661   5.826  1.2454  0.0491 -0.3129
 9211SOL    HW239096   3.818   0.048   5.923 -0.7231 -1.1072 -0.1602
 9212SOL     OW39097   2.488   3.902  15.820 -0.3740  0.2847 -0.4977
 9212SOL    HW139098   2.474   3.944  15.905 -0.7504 -0.8581 -0.0022
 9212SOL    HW239099   2.401   3.915  15.783 -0.9024 -2.9266 -0.3142
 9213SOL     OW39100   2.175   2.279  16.738  0.0047  0.2876  0.2676
 9213SOL    HW139101   2.261   2.291  16.699 -1.3201 -2.9361 -3.6794
 9213SOL    HW239102   2.158   2.189  16.709  0.0546 -0.7054  3.3165
 9214SOL     OW39103   2.629   1.618   0.405  0.1677 -0.2539  0.3661
 9214SOL    HW139104   2.626   1.535   0.357 -2.1146 -0.2647  0.5273
 9214SOL    HW239105   2.706   1.603   0.460  0.3078  1.5595  0.6760
 9215SOL     OW39106   3.827   0.667   0.371  0.1237  0.1444  0.2321
 9215SOL    HW139107   3.903   0.639   0.320  0.2649 -2.6291  1.9535
 9215SOL    HW239108   3.753   0.628   0.324  0.5199 -2.5164  1.8083
 9216SOL     OW39109   0.580   2.360   3.716 -0.4815  0.0519 -0.5333
 9216SOL    HW139110   0.650   2.365   3.780  0.2497  1.1845 -1.4125
 9216SOL    HW239111   0.622   2.348   3.630  0.6707 -2.6440  0.4204
 9217SOL     OW39112   4.393   0.105  15.389  0.0173 -0.0818  0.2713
 9217SOL    HW139113   4.451   0.086  15.315 -2.2628 -1.6774 -1.1028
 9217SOL    HW239114   4.321   0.050  15.357  1.6922 -0.5775 -2.6936
 9218SOL     OW39115   3.619   2.045   3.037 -0.3743 -0.5272  0.0789
 9218SOL    HW139116   3.637   2.081   3.124  0.3697 -1.7078  0.4236
 9218SOL    HW239117   3.524   2.041   3.037 -0.3877 -0.2856  2.3216
 9219SOL     OW39118   0.356   3.607   1.458  0.2276  0.4414 -0.5220
 9219SOL    HW139119   0.431   3.663   1.475  0.5698 -0.2575  0.2825
 9219SOL    HW239120   0.400   3.523   1.468  0.7799  0.7376 -0.4697
 9220SOL     OW39121   2.186   2.834   7.645 -0.1077  0.4002 -0.0639
 9220SOL    HW139122   2.209   2.926   7.655  0.4878  0.4124 -1.5469
 9220SOL    HW239123   2.144   2.813   7.729 -0.3686 -2.6238 -0.9297
 9221SOL     OW39124   4.533   0.627  16.549  0.7417  0.1933 -0.5507
 9221SOL    HW139125   4.475   0.681  16.495  1.4965  0.1538 -1.4023
 9221SOL    HW239126   4.492   0.644  16.634 -0.0461  1.3928 -1.1597
 9222SOL     OW39127   1.338   1.475   9.746 -0.0390 -0.4106 -0.6234
 9222SOL    HW139128   1.362   1.403   9.804 -1.7306  0.2297  0.8944
 9222SOL    HW239129   1.242   1.479   9.755  0.3287  2.3456  2.4070
 9223SOL     OW39130   2.081   4.384   4.274  0.6991  0.1241  0.5548
 9223SOL    HW139131   2.114   4.295   4.259  0.5858  0.0319  0.8516
 9223SOL    HW239132   2.081   4.392   4.369 -1.2439 -0.8096  0.6310
 9224SOL     OW39133   3.520   2.964   4.014  0.0105 -0.0412  0.3316
 9224SOL    HW139134   3.510   3.037   4.074 -1.6833  0.1498 -0.1793
 9224SOL    HW239135   3.601   2.927   4.050  0.1703 -0.9884 -0.9711
 9225SOL     OW39136   1.296   3.581  16.300  0.3745  0.6307  0.1803
 9225SOL    HW139137   1.338   3.668  16.301 -1.0632  1.3214 -0.1511
 9225SOL    HW239138   1.211   3.601  16.338  0.2429  0.0457  0.1868
 9226SOL     OW39139   0.561   1.229   6.820  0.1257  0.4853  0.2159
 9226SOL    HW139140   0.472   1.226   6.855 -0.1653  2.8595 -0.3101
 9226SOL    HW239141   0.555   1.173   6.743  0.5597 -1.1184  1.3471
 9227SOL     OW39142   4.171   1.285   4.598 -0.0455  0.2950  1.1018
 9227SOL    HW139143   4.217   1.212   4.640 -0.6112 -1.0876 -0.6838
 9227SOL    HW239144   4.083   1.248   4.593 -0.5290  1.8008 -1.5956
 9228SOL     OW39145   2.698   2.955   7.455 -0.1748 -0.0086  0.1453
 9228SOL    HW139146   2.624   2.896   7.460  0.5441 -0.7983  1.3125
 9228SOL    HW239147   2.763   2.894   7.488 -0.0611 -0.7584 -1.4647
 9229SOL     OW39148   1.971   2.205   5.922  0.2195  1.0214  0.1505
 9229SOL    HW139149   1.884   2.242   5.934 -0.2539 -0.2704  0.6945
 9229SOL    HW239150   2.026   2.266   5.970  0.2178 -0.8573  2.5182
 9230SOL     OW39151   4.626   0.289   8.729 -0.1073  0.1094  0.2075
 9230SOL    HW139152   4.681   0.212   8.717 -0.4969 -0.2028  0.4485
 9230SOL    HW239153   4.554   0.269   8.789 -0.1221  1.6057  0.6969
 9231SOL     OW39154   0.468   3.189  11.143  0.1335  0.5392 -0.1701
 9231SOL    HW139155   0.550   3.170  11.188  1.0562  1.8251 -1.3160
 9231SOL    HW239156   0.502   3.219  11.059  1.2829  0.1106  0.1456
 9232SOL     OW39157   2.038   1.482   5.585 -1.0994  0.0741 -0.2188
 9232SOL    HW139158   1.962   1.458   5.638 -0.7182  1.1106  0.8002
 9232SOL    HW239159   2.030   1.577   5.588  1.2863  0.2553  0.7732
 9233SOL     OW39160   3.650   4.194   4.163 -0.4930  0.3314  0.0356
 9233SOL    HW139161   3.694   4.115   4.132  1.4889  1.1897  0.6609
 9233SOL    HW239162   3.718   4.255   4.135  1.5396 -1.8257  0.3275
 9234SOL     OW39163   0.439   3.862  13.969  0.1271  0.1854 -0.0223
 9234SOL    HW139164   0.344   3.875  13.961  0.2019  0.5616 -0.2904
 9234SOL    HW239165   0.452   3.858  14.064  1.2516  0.5837 -0.1566
 9235SOL     OW39166   3.118   2.201   4.513 -0.2729  0.0552 -0.4563
 9235SOL    HW139167   3.205   2.242   4.513  0.3967 -1.3531  0.0413
 9235SOL    HW239168   3.150   2.133   4.454  3.2149  3.3303 -2.3165
 9236SOL     OW39169   0.618   1.400  13.216 -0.3891 -0.0484 -0.3232
 9236SOL    HW139170   0.557   1.426  13.285  0.9727 -0.1512  0.8968
 9236SOL    HW239171   0.700   1.421  13.260 -0.3267  0.3918 -0.6584
 9237SOL     OW39172   3.576   2.323   1.964 -0.1161 -0.3706 -0.7380
 9237SOL    HW139173   3.500   2.283   2.005  0.1968 -0.4528 -0.2433
 9237SOL    HW239174   3.545   2.406   1.928  0.8426 -0.0051 -0.7208
 9238SOL     OW39175   4.575   0.215   8.088  0.0877  0.4120  0.2877
 9238SOL    HW139176   4.560   0.307   8.066 -1.6321  1.0000  3.8756
 9238SOL    HW239177   4.528   0.170   8.018 -1.9963  0.6767  1.5137
 9239SOL     OW39178   3.985   0.462   8.229 -0.4440  0.2332 -0.1132
 9239SOL    HW139179   3.971   0.483   8.137 -0.5119 -0.5709 -0.2810
 9239SOL    HW239180   4.040   0.384   8.221  0.0927  0.5766  0.2170
 9240SOL     OW39181   0.946   0.853   9.649  0.9516  0.4310  0.0792
 9240SOL    HW139182   0.958   0.777   9.706 -0.5218  0.5542  0.5418
 9240SOL    HW239183   0.937   0.818   9.561  1.3683 -0.5569  0.4339
 9241SOL     OW39184   0.163   1.536   7.398  0.3521  0.1138 -0.3390
 9241SOL    HW139185   0.204   1.453   7.373  0.8450  0.2810 -0.0798
 9241SOL    HW239186   0.195   1.539   7.488  0.6978 -1.0014 -0.4225
 9242SOL     OW39187   3.314   2.499   1.588 -0.0726  0.5341  0.0176
 9242SOL    HW139188   3.343   2.578   1.542 -0.5694  0.3664 -0.5914
 9242SOL    HW239189   3.340   2.428   1.529 -1.5515 -1.8474  2.1961
 9243SOL     OW39190   2.774   0.831  10.750  0.8169  0.0658 -0.0718
 9243SOL    HW139191   2.751   0.791  10.666  0.7257 -0.2522  0.1050
 9243SOL    HW239192   2.836   0.765  10.782 -2.0156 -2.0821  0.9286
 9244SOL     OW39193   2.419   3.712   8.713 -0.0897 -0.4817 -0.4322
 9244SOL    HW139194   2.463   3.667   8.642 -1.4166 -0.5648 -1.2005
 9244SOL    HW239195   2.463   3.672   8.789 -1.9577 -0.6998  0.5477
 9245SOL     OW39196   0.814   4.261   6.550 -0.3842  0.0311  0.4211
 9245SOL    HW139197   0.868   4.337   6.572 -1.6117  0.8789  0.5496
 9245SOL    HW239198   0.804   4.217   6.635  2.7193  0.0802  0.8190
 9246SOL     OW39199   1.876   3.426   3.124  0.0012  0.1221  0.8771
 9246SOL    HW139200   1.963   3.461   3.145  1.4744 -2.8306 -0.3703
 9246SOL    HW239201   1.867   3.469   3.039  1.7203 -1.7814 -0.2657
 9247SOL     OW39202   3.720   2.734   3.245 -0.3377  0.3333  0.1467
 9247SOL    HW139203   3.673   2.763   3.167  0.4143 -2.1105 -1.2139
 9247SOL    HW239204   3.647   2.717   3.304  2.9285  0.0156  4.0817
 9248SOL     OW39205   4.658   4.024   5.559  0.4492  0.0441  0.2515
 9248SOL    HW139206   4.595   4.000   5.627 -0.1302  1.6569  0.2691
 9248SOL    HW239207   4.625   4.110   5.535 -1.1864  0.2687  3.2214
 9249SOL     OW39208   2.912   3.363   0.831  0.2582  0.3487 -0.1509
 9249SOL    HW139209   2.999   3.337   0.802 -0.0554 -1.6013  0.6592
 9249SOL    HW239210   2.856   3.313   0.772 -0.5079  0.2055  0.6945
 9250SOL     OW39211   3.315   3.942   0.308 -0.2856 -0.5065  0.2627
 9250SOL    HW139212   3.301   4.034   0.288 -1.0865 -0.6183  0.3416
 9250SOL    HW239213   3.318   3.943   0.404 -2.3602 -1.7141  0.3150
 9251SOL     OW39214   4.342   0.817   2.449 -0.2895 -0.0479 -0.5064
 9251SOL    HW139215   4.423   0.864   2.469 -0.4953  0.3684 -0.6335
 9251SOL    HW239216   4.355   0.806   2.355 -0.2062  1.9181 -0.7379
 9252SOL     OW39217   1.207   4.652   7.096 -0.2718  0.6321 -0.5428
 9252SOL    HW139218   1.280   4.714   7.091  1.1357 -0.7939  2.2015
 9252SOL    HW239219   1.142   4.679   7.031 -0.1469 -1.2010 -1.4030
 9253SOL     OW39220   3.133   0.117   4.908 -0.2291 -0.7389  0.2987
 9253SOL    HW139221   3.164   0.033   4.941 -1.1339 -1.7712 -1.4834
 9253SOL    HW239222   3.054   0.096   4.859 -1.3673 -1.0015  2.2653
 9254SOL     OW39223   4.549   3.599   8.877  0.6559  0.5569  0.0361
 9254SOL    HW139224   4.472   3.640   8.837  0.9681 -0.2091 -1.3708
 9254SOL    HW239225   4.507   3.520   8.912 -0.3284  0.3233 -1.6593
 9255SOL     OW39226   3.838   3.751   6.450  0.1902 -0.2006  0.1748
 9255SOL    HW139227   3.838   3.796   6.535 -0.6831  0.2962 -0.0870
 9255SOL    HW239228   3.917   3.794   6.415 -0.1071 -0.5901 -0.9494
 9256SOL     OW39229   4.493   4.391   1.704 -0.1735  0.1670  0.0750
 9256SOL    HW139230   4.484   4.316   1.763 -2.0087 -0.0802 -0.4910
 9256SOL    HW239231   4.479   4.465   1.763 -5.2118 -1.8580  1.4877
 9257SOL     OW39232   2.040   0.714  14.644 -0.0864  0.5004 -0.1179
 9257SOL    HW139233   2.084   0.646  14.593  0.1840  1.4380 -1.1369
 9257SOL    HW239234   2.100   0.787  14.626 -0.8360  0.9928 -0.6568
 9258SOL     OW39235   3.595   0.539   0.721 -0.3732 -0.4069  0.1476
 9258SOL    HW139236   3.628   0.461   0.677 -2.2691 -0.9667 -0.2718
 9258SOL    HW239237   3.662   0.602   0.693  2.5621 -3.2842  0.7403
 9259SOL     OW39238   2.988   3.648   2.042  0.1628  0.1971  0.1754
 9259SOL    HW139239   2.932   3.617   2.114 -0.3769 -1.1062 -0.7989
 9259SOL    HW239240   3.034   3.567   2.020 -0.1503  0.7564 -2.5548
 9260SOL     OW39241   3.696   0.453   9.473  0.2782 -0.2520  0.2778
 9260SOL    HW139242   3.634   0.386   9.498 -0.8735  1.4930  2.0953
 9260SOL    HW239243   3.722   0.495   9.555 -0.6082  1.0492 -0.1029
 9261SOL     OW39244   2.520   2.383   2.975  0.3925  0.3387 -0.3948
 9261SOL    HW139245   2.568   2.443   3.031  2.4122 -1.1267 -0.5564
 9261SOL    HW239246   2.581   2.343   2.912 -1.3298 -1.2767 -1.0591
 9262SOL     OW39247   0.495   2.217  14.042 -0.2682  0.4948 -0.3843
 9262SOL    HW139248   0.447   2.295  14.069 -1.3714  0.3367 -1.9294
 9262SOL    HW239249   0.488   2.161  14.120  1.7201  0.4725 -0.2199
 9263SOL     OW39250   1.628   3.825   2.606  0.3636 -0.5104  0.0533
 9263SOL    HW139251   1.589   3.870   2.532  0.9207  0.4993  0.3812
 9263SOL    HW239252   1.686   3.760   2.566  1.0606  1.9066 -2.8335
 9264SOL     OW39253   3.805   4.042  14.322 -0.1158  0.6072 -0.2060
 9264SOL    HW139254   3.846   4.085  14.397 -1.8756  0.7172  0.6967
 9264SOL    HW239255   3.768   4.113  14.270 -1.3393  0.6237  0.6618
 9265SOL     OW39256   3.992   2.241   5.797 -0.0685 -0.2921  0.0771
 9265SOL    HW139257   3.958   2.199   5.876  0.6050 -0.3612  0.3330
 9265SOL    HW239258   4.003   2.176   5.728  0.6630 -2.2853  2.0829
 9266SOL     OW39259   4.517   2.563   2.291  0.0495 -0.1430 -0.0294
 9266SOL    HW139260   4.504   2.623   2.217 -0.7222  0.2017  0.3866
 9266SOL    HW239261   4.447   2.498   2.286 -0.6603  0.6094 -0.0375
 9267SOL     OW39262   4.325   3.149   4.635  0.0924 -0.1102 -0.2609
 9267SOL    HW139263   4.319   3.242   4.614  3.0180 -0.0352 -0.7656
 9267SOL    HW239264   4.396   3.145   4.700  2.0434 -0.4738 -2.4177
 9268SOL     OW39265   4.021   1.695   3.560 -0.1712 -0.4413 -0.1151
 9268SOL    HW139266   3.979   1.632   3.618  0.5757 -2.0222 -1.3127
 9268SOL    HW239267   3.990   1.776   3.601 -1.2243 -0.9386  0.0822
 9269SOL     OW39268   3.235   2.152   6.397  0.2758  0.3427  0.7661
 9269SOL    HW139269   3.160   2.152   6.457  0.7088  0.4641  1.3106
 9269SOL    HW239270   3.259   2.065   6.366  1.0039  1.9315 -3.1745
 9270SOL     OW39271   3.232   3.901  16.826 -0.4507  0.3705  0.0320
 9270SOL    HW139272   3.270   3.957  16.759 -1.9395 -0.2141 -1.3031
 9270SOL    HW239273   3.144   3.939  16.839 -1.4827 -1.8684 -0.4605
 9271SOL     OW39274   2.924   0.650  11.368  0.1918  0.1113  1.0165
 9271SOL    HW139275   2.889   0.673  11.282 -1.9438 -0.2493  1.7950
 9271SOL    HW239276   2.927   0.555  11.364 -0.3846  0.1824 -0.8823
 9272SOL     OW39277   2.680   0.408   5.995 -0.5619 -0.3239  0.3949
 9272SOL    HW139278   2.772   0.388   6.011 -0.3514 -0.8237 -1.3646
 9272SOL    HW239279   2.663   0.458   6.074  0.3975  2.3412 -1.0698
 9273SOL     OW39280   3.144   1.528  12.224  0.5548 -0.5431 -0.2088
 9273SOL    HW139281   3.167   1.498  12.136 -0.6877 -0.4974 -0.5491
 9273SOL    HW239282   3.147   1.441  12.265 -3.6658 -1.1816 -1.2806
 9274SOL     OW39283   1.052   3.112   2.036 -0.1118  0.2963  0.6046
 9274SOL    HW139284   1.065   3.153   1.951 -0.1076  0.2325  0.5755
 9274SOL    HW239285   1.072   3.020   2.020  0.9901  0.5638  0.4701
 9275SOL     OW39286   0.759   4.305   1.857 -0.3969  0.1560  0.1254
 9275SOL    HW139287   0.752   4.223   1.808 -1.0334  1.1855 -1.5194
 9275SOL    HW239288   0.758   4.272   1.947 -0.5638 -0.7735 -0.2259
 9276SOL     OW39289   0.730   1.633   3.035  0.4977 -0.0932  0.2064
 9276SOL    HW139290   0.736   1.560   2.973 -1.0293 -0.3796  0.3919
 9276SOL    HW239291   0.635   1.636   3.031  0.4654 -1.4108  0.0157
 9277SOL     OW39292   3.845   3.525   7.697 -0.2481 -0.3175  0.3915
 9277SOL    HW139293   3.937   3.514   7.722 -0.4361 -2.6330  0.1062
 9277SOL    HW239294   3.802   3.479   7.769 -2.2877  0.2530 -0.4739
 9278SOL     OW39295   2.086   3.705   7.626 -1.3319  0.0789 -0.7048
 9278SOL    HW139296   2.022   3.757   7.577  0.2163  1.4201 -1.3037
 9278SOL    HW239297   2.050   3.619   7.606 -1.0724  0.1813 -1.6209
 9279SOL     OW39298   0.893   2.690  16.537  0.0361  0.3998  0.8279
 9279SOL    HW139299   0.982   2.657  16.542  1.3856  3.4820 -2.4333
 9279SOL    HW239300   0.864   2.664  16.450 -2.2216 -0.4640  1.8421
 9280SOL     OW39301   1.680   4.010   7.588 -0.7035  0.1512  0.1122
 9280SOL    HW139302   1.633   3.989   7.668 -1.2263  0.1709 -0.1916
 9280SOL    HW239303   1.721   4.093   7.611  0.5082 -0.3748 -0.1282
 9281SOL     OW39304   1.912   0.576   7.810 -0.1260  0.3399 -0.6058
 9281SOL    HW139305   1.880   0.650   7.863  2.4114  0.4555  0.7660
 9281SOL    HW239306   1.953   0.621   7.736  0.7008 -0.0904 -0.4026
 9282SOL     OW39307   0.132   1.538   4.949 -0.4155 -0.5815  0.0731
 9282SOL    HW139308   0.201   1.580   4.899 -0.9100 -0.4512 -0.4902
 9282SOL    HW239309   0.134   1.449   4.912 -0.5356 -0.3400 -0.5092
 9283SOL     OW39310   0.401   2.424   2.599 -0.0763 -0.1011  0.4146
 9283SOL    HW139311   0.462   2.467   2.539 -0.7445 -1.1158 -0.9839
 9283SOL    HW239312   0.319   2.418   2.551  0.4149 -1.3544 -0.2820
 9284SOL     OW39313   1.359   3.752   7.306  0.5605  0.2360 -0.4296
 9284SOL    HW139314   1.326   3.823   7.250 -1.1398 -1.8760 -2.1152
 9284SOL    HW239315   1.310   3.676   7.273  1.2155  0.5707 -2.1394
 9285SOL     OW39316   0.439   1.464  13.455 -0.2709  0.0889 -0.3272
 9285SOL    HW139317   0.487   1.400  13.508 -2.1298 -1.3597 -0.3808
 9285SOL    HW239318   0.353   1.423  13.462 -0.3752  0.4333  0.3416
 9286SOL     OW39319   2.166   2.189  12.916  0.3103 -0.2391  0.0965
 9286SOL    HW139320   2.159   2.112  12.860 -1.4729 -0.4306  0.5883
 9286SOL    HW239321   2.155   2.160  13.006  0.2113 -1.2154 -0.2341
 9287SOL     OW39322   1.040   3.064   2.964  0.6573 -0.1534  0.2299
 9287SOL    HW139323   1.031   3.144   3.015  2.7958 -0.4878  1.1613
 9287SOL    HW239324   1.054   3.095   2.875  2.3034 -0.1744  0.4756
 9288SOL     OW39325   3.069   0.798   8.007 -0.4578  0.3415 -0.0541
 9288SOL    HW139326   3.047   0.886   8.035  1.8167  0.1409  2.4101
 9288SOL    HW239327   3.073   0.810   7.912  0.7047 -1.2176 -0.2218
 9289SOL     OW39328   1.177   3.202   4.842  0.3404 -0.3522  0.1577
 9289SOL    HW139329   1.267   3.185   4.813  0.1988 -1.0170  0.1152
 9289SOL    HW239330   1.201   3.236   4.928  0.2808 -1.8092  0.7424
 9290SOL     OW39331   2.883   3.198   7.275 -0.3119  0.2702  0.0913
 9290SOL    HW139332   2.965   3.149   7.286 -0.6813 -0.2249  0.6679
 9290SOL    HW239333   2.916   3.288   7.281  1.4253 -0.3513 -0.0077
 9291SOL     OW39334   0.715   1.056   4.006 -0.2824  0.0204 -0.1014
 9291SOL    HW139335   0.777   0.994   3.969  0.5731  1.8088 -1.6678
 9291SOL    HW239336   0.762   1.127   4.051 -0.3648  1.0543 -1.6447
 9292SOL     OW39337   0.664   3.453  10.744 -0.3405  0.4001 -0.5996
 9292SOL    HW139338   0.723   3.443  10.670 -0.4011 -2.0314 -0.3133
 9292SOL    HW239339   0.725   3.470  10.816 -1.1795  0.1574  0.1752
 9293SOL     OW39340   3.159   3.741  17.242  0.3034  0.3094  0.6135
 9293SOL    HW139341   3.216   3.706  17.173  1.3216 -0.9644  2.1021
 9293SOL    HW239342   3.078   3.763  17.195  0.9911  2.2173  0.3118
 9294SOL     OW39343   0.222   4.003  15.441 -0.3695 -0.2709  0.4336
 9294SOL    HW139344   0.188   4.071  15.384  0.9314 -0.8093 -0.9773
 9294SOL    HW239345   0.294   3.965  15.389  0.0660  0.4779  0.4918
 9295SOL     OW39346   3.072   3.577  12.729 -0.2639 -0.2948 -0.0577
 9295SOL    HW139347   3.125   3.516  12.781 -0.4537 -0.6628 -0.3002
 9295SOL    HW239348   3.042   3.639  12.795  2.8561  1.4128 -0.2472
 9296SOL     OW39349   1.214   3.541   7.235 -0.6038  0.0232  0.4440
 9296SOL    HW139350   1.163   3.499   7.303  0.3438 -2.4513 -0.3684
 9296SOL    HW239351   1.239   3.461   7.187 -0.6535  0.3955 -0.2097
 9297SOL     OW39352   4.244   3.882   4.270 -0.5042 -0.3733  0.0167
 9297SOL    HW139353   4.285   3.910   4.189 -1.9792  0.6976 -0.3562
 9297SOL    HW239354   4.202   3.805   4.231 -1.3934 -0.6247  1.4555
 9298SOL     OW39355   3.155   2.244   7.226 -0.2494 -1.0282 -0.3911
 9298SOL    HW139356   3.136   2.175   7.162 -0.4062 -1.7764  0.4709
 9298SOL    HW239357   3.123   2.313   7.167 -0.8489  0.1188  1.2614
 9299SOL     OW39358   0.782   4.632  14.020 -0.3681  0.5335  0.0404
 9299SOL    HW139359   0.870   4.670  14.020 -0.6037  1.0816  0.4804
 9299SOL    HW239360   0.738   4.685  14.086  1.2436  2.0572 -0.1011
 9300SOL     OW39361   3.798   3.017   0.752 -0.3151 -0.2521 -0.1978
 9300SOL    HW139362   3.833   3.106   0.759  0.6547 -0.6927  0.6344
 9300SOL    HW239363   3.817   2.999   0.660  0.1803  0.5580 -0.2573
 9301SOL     OW39364   0.760   2.738   2.734 -0.1859 -0.3970 -0.5658
 9301SOL    HW139365   0.694   2.800   2.704  0.7833  0.6044 -0.6062
 9301SOL    HW239366   0.707   2.705   2.807  0.2640 -0.3976 -0.2405
 9302SOL     OW39367   0.963   0.272   3.333  0.1964 -0.0215 -0.1277
 9302SOL    HW139368   0.876   0.305   3.356 -0.3375  0.3181 -2.5731
 9302SOL    HW239369   0.966   0.284   3.238 -0.1441  0.1363 -0.1195
 9303SOL     OW39370   2.864   3.542   4.622 -0.1753  0.4962  0.3563
 9303SOL    HW139371   2.849   3.450   4.600  0.9337 -0.2563  2.8088
 9303SOL    HW239372   2.841   3.547   4.715  0.4393  0.0098  0.5317
 9304SOL     OW39373   0.258   4.331  10.656 -0.0004  0.3150 -0.0353
 9304SOL    HW139374   0.180   4.289  10.693 -0.7103 -0.1847 -2.0910
 9304SOL    HW239375   0.319   4.258  10.670  0.1328  0.0798 -1.8251
 9305SOL     OW39376   4.523   1.429   3.906  0.2205  0.0955 -0.3958
 9305SOL    HW139377   4.502   1.340   3.933 -0.6028 -0.7348 -3.8041
 9305SOL    HW239378   4.480   1.415   3.822  0.7306  0.1090 -0.6542
 9306SOL     OW39379   1.213   4.005   4.818 -0.1797  0.0505 -0.1318
 9306SOL    HW139380   1.174   3.921   4.793  0.4197 -0.7713  1.7098
 9306SOL    HW239381   1.303   3.996   4.786 -0.5485 -4.2938  0.0982
 9307SOL     OW39382   2.695   0.957   8.489 -0.0134  0.2064  0.0602
 9307SOL    HW139383   2.680   0.868   8.522 -1.2813  0.6904  0.7779
 9307SOL    HW239384   2.776   0.946   8.439  0.7170  0.5870  1.1639
 9308SOL     OW39385   3.471   1.075  11.612  0.0508 -0.0290 -0.3903
 9308SOL    HW139386   3.502   0.988  11.585 -1.9103 -0.8565 -0.0242
 9308SOL    HW239387   3.430   1.111  11.533 -1.0545 -0.6247 -0.0859
 9309SOL     OW39388   1.401   1.189   9.284  0.1836 -0.1711  0.3365
 9309SOL    HW139389   1.404   1.169   9.377 -1.9413 -1.4249  0.1234
 9309SOL    HW239390   1.446   1.274   9.279 -0.9113  0.2625 -2.3133
 9310SOL     OW39391   0.871   1.982  11.028 -0.1722 -0.1914 -0.9072
 9310SOL    HW139392   0.787   2.024  11.046  2.6077  3.4067  3.7118
 9310SOL    HW239393   0.859   1.924  10.953 -0.2126  0.4888 -1.4220
 9311SOL     OW39394   1.556   2.453   8.296  0.1062 -0.4112  0.5405
 9311SOL    HW139395   1.616   2.500   8.353 -0.5684 -1.1848  1.8802
 9311SOL    HW239396   1.538   2.383   8.358 -1.6346 -0.3607  0.0980
 9312SOL     OW39397   0.151   0.179  17.498  0.3073  0.7213  0.3695
 9312SOL    HW139398   0.204   0.099  17.490  1.8594  1.5036  2.6539
 9312SOL    HW239399   0.065   0.153  17.466  0.4052  1.2908 -0.3418
 9313SOL     OW39400   2.380   2.710   3.231  0.3398  0.5882 -0.4097
 9313SOL    HW139401   2.461   2.695   3.279  0.3499 -0.6681 -0.8206
 9313SOL    HW239402   2.423   2.777   3.178  3.7629 -1.8225 -0.6841
 9314SOL     OW39403   2.927   3.431  15.579  0.0438 -0.5509  0.4768
 9314SOL    HW139404   2.993   3.383  15.529 -2.1820  0.3485 -3.3214
 9314SOL    HW239405   2.898   3.364  15.641  0.2730  0.6707  1.9187
 9315SOL     OW39406   0.091   4.412   7.954  0.2427 -0.7276 -0.1993
 9315SOL    HW139407   0.032   4.487   7.957  1.2247 -0.0075  1.1466
 9315SOL    HW239408   0.138   4.424   7.871  0.6247  0.5595  0.2018
 9316SOL     OW39409   2.178   1.722   7.191  1.3208 -0.2512  0.1509
 9316SOL    HW139410   2.086   1.697   7.179  0.8220  0.9452  1.6557
 9316SOL    HW239411   2.168   1.815   7.208  0.5168 -0.0055 -1.5871
 9317SOL     OW39412   4.636   1.224   9.162 -0.3257 -0.3481 -0.3148
 9317SOL    HW139413   4.621   1.148   9.218 -0.1474  0.0893  0.3268
 9317SOL    HW239414   4.719   1.219   9.114  0.0811  0.3615  0.3132
 9318SOL     OW39415   3.010   3.464   7.301 -0.0417 -0.2757 -0.3960
 9318SOL    HW139416   2.990   3.538   7.358 -0.1977 -0.1143 -0.6591
 9318SOL    HW239417   3.103   3.458   7.324 -0.0809  0.2172 -0.0987
 9319SOL     OW39418   2.721   3.551   0.549  0.6643  0.1168 -0.3187
 9319SOL    HW139419   2.739   3.613   0.620  0.2009  0.8219 -0.8111
 9319SOL    HW239420   2.756   3.610   0.482  3.1146 -0.0112  0.8584
 9320SOL     OW39421   4.005   4.670   3.004  0.0657 -0.4325  0.4064
 9320SOL    HW139422   4.003   4.598   2.941 -0.9561 -0.1470  0.1230
 9320SOL    HW239423   3.926   4.712   2.971  0.9207  0.1326 -0.9558
 9321SOL     OW39424   1.338   0.300  15.732 -0.4094 -0.1023 -0.2760
 9321SOL    HW139425   1.327   0.205  15.726  0.8138 -0.3336  0.9991
 9321SOL    HW239426   1.298   0.316  15.818  2.9370  1.2390  1.0201
 9322SOL     OW39427   3.775   0.803   3.773 -0.2259 -0.5005  0.4591
 9322SOL    HW139428   3.733   0.752   3.704 -2.6712  0.3369  1.3469
 9322SOL    HW239429   3.706   0.814   3.838 -1.1561 -2.8018 -0.1017
 9323SOL     OW39430   3.565   1.706   5.800  0.0517 -0.2533 -0.1193
 9323SOL    HW139431   3.480   1.662   5.798 -1.1215  2.0300 -0.9891
 9323SOL    HW239432   3.613   1.624   5.789 -0.2605 -0.3545 -0.7475
 9324SOL     OW39433   3.681   1.484   6.170 -0.2957  0.1726  0.5201
 9324SOL    HW139434   3.661   1.539   6.246 -1.4299  0.0320  0.3169
 9324SOL    HW239435   3.777   1.480   6.170 -0.3635 -1.7220  1.4970
 9325SOL     OW39436   0.245   4.560   4.146 -0.4814 -0.4060  0.0609
 9325SOL    HW139437   0.335   4.558   4.177 -0.0112 -1.5221 -1.4041
 9325SOL    HW239438   0.252   4.606   4.062 -0.0352 -0.0632  0.2854
 9326SOL     OW39439   4.550   3.846   6.477 -0.1072  0.1161  0.2268
 9326SOL    HW139440   4.485   3.786   6.514  0.8082  0.9894  3.2225
 9326SOL    HW239441   4.635   3.806   6.497 -0.4101 -0.5985  0.1009
 9327SOL     OW39442   2.758   1.718   5.908 -0.2893 -0.4621  0.2964
 9327SOL    HW139443   2.727   1.809   5.909  2.8062  0.6044  1.4317
 9327SOL    HW239444   2.697   1.672   5.851  0.5210  1.7144 -2.3426
 9328SOL     OW39445   2.514   3.107  15.316 -0.0970  0.7527  0.4738
 9328SOL    HW139446   2.434   3.083  15.270 -0.1056 -0.2282  0.9813
 9328SOL    HW239447   2.578   3.065  15.259 -1.1131 -0.2536  0.1006
 9329SOL     OW39448   2.727   3.545   6.146 -0.3977  0.2340  0.5000
 9329SOL    HW139449   2.660   3.541   6.215  0.2867  1.6140  1.2379
 9329SOL    HW239450   2.712   3.623   6.094 -1.3701 -0.0893  0.3005
 9330SOL     OW39451   2.597   0.695   2.203 -0.0574  0.1756 -0.2502
 9330SOL    HW139452   2.603   0.667   2.295 -0.5918  1.1533  0.0868
 9330SOL    HW239453   2.508   0.728   2.193 -1.0683 -2.3565  0.5469
 9331SOL     OW39454   3.950   0.258   4.779  0.0578 -0.2199  0.1094
 9331SOL    HW139455   3.926   0.207   4.701  2.3310 -1.0892 -0.0245
 9331SOL    HW239456   4.044   0.267   4.764  0.2617 -1.3847  0.6878
 9332SOL     OW39457   3.407   1.659  11.555 -0.0858 -0.2724  0.0476
 9332SOL    HW139458   3.362   1.600  11.495 -0.2628 -0.4308  0.3390
 9332SOL    HW239459   3.335   1.717  11.580  0.1802 -1.5349  3.6769
 9333SOL     OW39460   4.157   2.960   4.822  0.1273 -0.6060 -0.1661
 9333SOL    HW139461   4.199   2.946   4.737 -3.0625  0.9904 -2.0150
 9333SOL    HW239462   4.211   3.035   4.844  0.7174 -0.5540 -1.8189
 9334SOL     OW39463   0.413   1.570   8.523 -0.2720  0.1709 -0.2960
 9334SOL    HW139464   0.392   1.647   8.469  1.6787  2.4298  2.1946
 9334SOL    HW239465   0.456   1.617   8.594 -0.6423  0.7080 -0.4249
 9335SOL     OW39466   1.895   2.277   4.411  0.8325  0.0063  0.0870
 9335SOL    HW139467   1.960   2.285   4.481  0.6467  1.1928  0.1190
 9335SOL    HW239468   1.939   2.237   4.337  2.3636  1.6762  0.0847
 9336SOL     OW39469   2.344   1.793  10.495 -0.1039 -0.4418  0.6326
 9336SOL    HW139470   2.322   1.765  10.583  0.0457  0.4757  0.9567
 9336SOL    HW239471   2.420   1.848  10.515  0.0173 -1.4332  2.8266
 9337SOL     OW39472   4.214   0.499   7.111 -0.0436  0.1426  0.2749
 9337SOL    HW139473   4.282   0.541   7.057 -0.5937 -1.7211 -1.8423
 9337SOL    HW239474   4.231   0.545   7.193  1.5752  0.5927 -0.3012
 9338SOL     OW39475   2.602   2.431  10.252  0.4014 -0.1495 -0.3717
 9338SOL    HW139476   2.601   2.487  10.174  1.7586 -0.8774 -0.9075
 9338SOL    HW239477   2.613   2.500  10.318 -0.7756 -0.0463 -0.2888
 9339SOL     OW39478   1.718   3.774  16.619 -0.1571  0.4451 -0.0863
 9339SOL    HW139479   1.666   3.710  16.667 -0.1856  0.5765  0.0600
 9339SOL    HW239480   1.647   3.833  16.592 -1.0220 -0.6258 -0.1380
 9340SOL     OW39481   2.117   2.720   5.135  0.6473 -0.0849 -0.3293
 9340SOL    HW139482   2.183   2.654   5.155  1.6456  0.8236 -0.6493
 9340SOL    HW239483   2.036   2.684   5.171  1.3051 -1.9820 -0.7139
 9341SOL     OW39484   2.760   1.762   9.851 -0.3665 -0.2017  0.1032
 9341SOL    HW139485   2.850   1.738   9.876 -1.2470 -2.3374  1.2464
 9341SOL    HW239486   2.780   1.818   9.776 -1.4605 -0.1399 -0.1400
 9342SOL     OW39487   0.387   0.157   2.993 -0.7514 -0.1251  0.1105
 9342SOL    HW139488   0.309   0.165   3.049  0.0129  1.1458  1.0104
 9342SOL    HW239489   0.404   0.063   2.993  0.1962  0.0112  5.6943
 9343SOL     OW39490   1.106   1.435   2.667 -0.4118  0.1265 -0.3359
 9343SOL    HW139491   1.100   1.376   2.742 -0.5980  2.6474  1.6135
 9343SOL    HW239492   1.094   1.522   2.704  0.4899 -0.1809  0.6895
 9344SOL     OW39493   2.081   4.379   1.837 -0.0014  0.0727 -0.3958
 9344SOL    HW139494   2.029   4.395   1.759  0.3981  0.3129 -0.6115
 9344SOL    HW239495   2.020   4.312   1.868  0.0258  0.3062  0.1710
 9345SOL     OW39496   1.133   1.857   9.304 -0.1040 -0.1511  0.1520
 9345SOL    HW139497   1.049   1.902   9.299  0.7049  1.2698 -0.7568
 9345SOL    HW239498   1.093   1.772   9.320 -2.1346  0.3041 -2.5409
 9346SOL     OW39499   3.107   2.215  16.333  0.5421 -0.2422 -0.0928
 9346SOL    HW139500   3.190   2.168  16.330  0.5595 -0.2160 -0.0246
 9346SOL    HW239501   3.140   2.298  16.296 -0.7367  1.8448  3.4705
 9347SOL     OW39502   0.858   4.667   9.984 -0.2349 -0.2325  0.1734
 9347SOL    HW139503   0.949   4.657   9.954  0.1120  0.9534  0.8120
 9347SOL    HW239504   0.865   0.034  10.016 -1.9774 -0.4967  1.2581
 9348SOL     OW39505   0.809   0.755  13.984 -0.0595  0.1241  0.0617
 9348SOL    HW139506   0.794   0.839  14.027 -0.8682  0.2707 -0.4990
 9348SOL    HW239507   0.723   0.720  14.009 -1.0536  0.6711 -2.5369
 9349SOL     OW39508   2.826   0.768  11.719  0.4205  0.4271 -0.2443
 9349SOL    HW139509   2.848   0.693  11.665  1.4893  0.3155  0.3304
 9349SOL    HW239510   2.731   0.763  11.715  0.4799 -0.7343 -0.1731
 9350SOL     OW39511   2.838   0.584   5.627  0.0552 -0.2810  0.2625
 9350SOL    HW139512   2.758   0.546   5.590 -1.3816  2.6423  0.4155
 9350SOL    HW239513   2.797   0.634   5.697  2.8591 -0.4436  2.0192
 9351SOL     OW39514   0.167   3.326   3.065  0.4513 -0.0500  0.3912
 9351SOL    HW139515   0.108   3.264   3.108  0.8462  0.6187  1.9297
 9351SOL    HW239516   0.214   3.269   3.005  0.2286 -0.1532  0.3139
 9352SOL     OW39517   4.149   3.537   8.510  0.6447  0.5670 -0.5300
 9352SOL    HW139518   4.109   3.450   8.511  4.0397 -0.9643  1.6131
 9352SOL    HW239519   4.068   3.585   8.495  1.4363  3.1102  3.3210
 9353SOL     OW39520   2.484   3.871   6.390  0.2856 -0.1032 -0.2607
 9353SOL    HW139521   2.414   3.931   6.416  0.7091 -0.1264  0.9486
 9353SOL    HW239522   2.442   3.788   6.369  1.1626 -0.8562  0.9603
 9354SOL     OW39523   0.505   0.694   6.084 -0.1679  0.1126  0.4843
 9354SOL    HW139524   0.476   0.672   5.995  2.3518  0.5468 -0.4488
 9354SOL    HW239525   0.569   0.624   6.095  0.2261  0.3808 -0.1226
 9355SOL     OW39526   2.425   4.712   1.977  0.3322 -0.4920 -0.2878
 9355SOL    HW139527   2.518   4.697   1.960  0.7450  1.8241 -0.0338
 9355SOL    HW239528   2.389   4.625   1.994  1.5058 -1.3304 -2.0964
 9356SOL     OW39529   2.211   3.773   6.150 -0.3784  0.0327 -0.1269
 9356SOL    HW139530   2.232   3.766   6.057 -0.4409  2.2810 -0.3140
 9356SOL    HW239531   2.239   3.692   6.192 -0.6422  0.2201  0.4030
 9357SOL     OW39532   3.949   1.866   2.183  0.7769 -0.1193  0.4207
 9357SOL    HW139533   3.893   1.944   2.191 -0.5808 -0.9398 -1.0863
 9357SOL    HW239534   3.882   1.797   2.185 -0.5486  1.1908  1.8165
 9358SOL     OW39535   1.207   0.265   7.032 -0.6535 -0.4416  0.0943
 9358SOL    HW139536   1.229   0.356   7.010  2.6416 -1.9232 -2.6228
 9358SOL    HW239537   1.267   0.214   6.979 -0.5165 -1.8977  1.6702
 9359SOL     OW39538   3.483   2.522   3.236  0.1476  0.0112 -0.5461
 9359SOL    HW139539   3.461   2.453   3.173 -0.8972 -1.1624  1.1020
 9359SOL    HW239540   3.561   2.484   3.277  0.8754  0.0607 -1.8708
 9360SOL     OW39541   3.834   0.921   4.763 -0.0637 -0.0682  0.4860
 9360SOL    HW139542   3.858   0.835   4.729  3.6621  0.9332  0.4920
 9360SOL    HW239543   3.865   0.917   4.854  0.9942 -2.1665  0.0244
 9361SOL     OW39544   2.763   3.078   4.713 -0.6394 -0.5897  0.3930
 9361SOL    HW139545   2.734   3.009   4.653 -0.7410  0.8696 -1.2361
 9361SOL    HW239546   2.770   3.030   4.796 -1.2396 -0.6556  0.4032
 9362SOL     OW39547   3.017   3.945   2.164 -0.2149 -0.0764  0.0515
 9362SOL    HW139548   3.040   3.873   2.105  0.3713  0.0844  0.0825
 9362SOL    HW239549   2.962   3.907   2.233  2.0412  0.6438  2.2433
 9363SOL     OW39550   3.642   1.655   5.469  0.6229  0.0399 -0.5520
 9363SOL    HW139551   3.711   1.591   5.488  1.1049  0.4662 -0.8747
 9363SOL    HW239552   3.569   1.595   5.460  1.1526 -1.1857  3.1708
 9364SOL     OW39553   0.174   1.684   2.904 -0.0176 -0.4096  0.6097
 9364SOL    HW139554   0.087   1.720   2.920 -0.4364 -1.0243 -0.2454
 9364SOL    HW239555   0.190   1.651   2.992 -0.2197 -0.7944  0.5043
 9365SOL     OW39556   0.468   4.484   6.711 -0.4536  0.5550  0.3298
 9365SOL    HW139557   0.482   4.390   6.703  0.7213  0.6495  1.2133
 9365SOL    HW239558   0.503   4.517   6.628  0.2140 -1.1267 -0.0563
 9366SOL     OW39559   0.175   2.153  14.286 -0.0706  0.5427  0.2125
 9366SOL    HW139560   0.179   2.243  14.317 -0.6638  0.5735  0.2092
 9366SOL    HW239561   0.117   2.114  14.351  0.3113 -2.2051 -1.0773
 9367SOL     OW39562   3.357   0.653   1.015  0.7175 -0.0243  0.6471
 9367SOL    HW139563   3.391   0.692   0.935 -1.0266 -0.3800 -0.2678
 9367SOL    HW239564   3.388   0.716   1.080 -0.1209  1.1891 -0.1490
 9368SOL     OW39565   4.218   0.078   7.766  0.2711 -0.5623  0.5938
 9368SOL    HW139566   4.228   4.705   7.769  0.4026 -0.4874  2.2798
 9368SOL    HW239567   4.235   0.098   7.674  0.1997 -0.8507  0.5191
 9369SOL     OW39568   1.210   3.856   7.856 -0.1080 -0.1807  0.0485
 9369SOL    HW139569   1.133   3.906   7.828  2.2434  1.3328 -3.6912
 9369SOL    HW239570   1.253   3.849   7.771  0.0923 -2.1077  0.3148
 9370SOL     OW39571   0.533   3.638   0.330 -0.7696 -0.0080 -0.4341
 9370SOL    HW139572   0.588   3.573   0.286 -1.1750  1.1528 -2.6992
 9370SOL    HW239573   0.446   3.617   0.295 -1.6068  1.0522  1.0074
 9371SOL     OW39574   1.321   0.822   7.219  0.1820  0.4886  0.5955
 9371SOL    HW139575   1.404   0.818   7.267  1.3715 -0.5237 -1.5329
 9371SOL    HW239576   1.264   0.781   7.285  2.4749 -1.0804  1.5892
 9372SOL     OW39577   0.422   3.426   4.444 -0.5657  0.0145  0.5633
 9372SOL    HW139578   0.404   3.459   4.356 -0.9241 -1.0497  0.2369
 9372SOL    HW239579   0.500   3.481   4.454  0.6213 -1.1292 -2.5307
 9373SOL     OW39580   3.951   1.622   1.272 -0.3414 -0.1298  0.2241
 9373SOL    HW139581   3.957   1.563   1.196  1.4120  1.9939 -1.2625
 9373SOL    HW239582   3.857   1.620   1.293 -0.6203 -2.6020 -1.1490
 9374SOL     OW39583   3.049   1.475   4.055  0.3462 -0.2123 -0.5086
 9374SOL    HW139584   3.004   1.393   4.036 -1.2758  1.0520 -2.1792
 9374SOL    HW239585   3.133   1.470   4.009  0.1936 -1.3241 -0.6546
 9375SOL     OW39586   0.974   0.803   8.899  0.2705 -0.0402 -0.7571
 9375SOL    HW139587   0.975   0.897   8.882 -0.8646  0.4783  2.0801
 9375SOL    HW239588   1.004   0.797   8.990 -1.5894 -0.6325 -0.1837
 9376SOL     OW39589   1.964   3.286   0.110  0.0527  0.4799  0.3931
 9376SOL    HW139590   1.911   3.358   0.074 -1.9509 -1.6450 -0.9069
 9376SOL    HW239591   1.916   3.271   0.191  0.4917 -1.0248  0.3720
 9377SOL     OW39592   3.327   4.157   4.804 -0.5327  0.4475 -0.6071
 9377SOL    HW139593   3.343   4.071   4.843  0.2200  0.6189 -0.5357
 9377SOL    HW239594   3.261   4.186   4.867  0.1947 -2.9281  1.7353
 9378SOL     OW39595   2.756   1.437   5.983  0.0424  0.1684  0.8076
 9378SOL    HW139596   2.809   1.517   5.980 -1.6859  1.2872  0.1117
 9378SOL    HW239597   2.673   1.464   5.945  0.8031 -0.3075 -1.2039
 9379SOL     OW39598   1.607   3.983  10.630 -0.2358  0.5305 -0.3597
 9379SOL    HW139599   1.583   4.014  10.718  3.3088 -0.9977  1.1635
 9379SOL    HW239600   1.660   3.904  10.643  0.6293  1.2301  0.3593
 9380SOL     OW39601   4.357   4.178  11.078  0.1510  0.2943  0.1418
 9380SOL    HW139602   4.396   4.183  11.165  1.0364 -1.5442 -0.1247
 9380SOL    HW239603   4.263   4.197  11.080 -0.0420 -0.6686  0.2943
 9381SOL     OW39604   3.785   0.838   4.309  0.2976 -0.0836 -0.0626
 9381SOL    HW139605   3.860   0.829   4.368 -0.8861  1.3566  1.6664
 9381SOL    HW239606   3.799   0.775   4.239  1.5957  0.5730 -0.4048
 9382SOL     OW39607   0.126   2.571   8.039  0.7356 -0.0165 -0.2302
 9382SOL    HW139608   0.128   2.658   7.998 -2.3703 -0.3437 -1.1210
 9382SOL    HW239609   0.060   2.538   7.978  0.5896 -0.7968  0.3528
 9383SOL     OW39610   1.872   3.960  11.411 -0.0838  0.0890  0.5836
 9383SOL    HW139611   1.804   3.983  11.347  0.4736  1.6461  0.5639
 9383SOL    HW239612   1.830   3.973  11.495 -0.3444  0.2995  0.4203
 9384SOL     OW39613   3.236   2.332   6.214 -0.3941  0.0345 -0.0766
 9384SOL    HW139614   3.250   2.250   6.261  1.0710  1.2462  1.5872
 9384SOL    HW239615   3.308   2.390   6.240  0.5536 -0.2777 -1.9722
 9385SOL     OW39616   4.075   3.333   6.529  0.0399  0.2034  0.3012
 9385SOL    HW139617   4.087   3.270   6.601 -0.9453  0.8159  1.0058
 9385SOL    HW239618   4.032   3.275   6.467  1.7499  0.2709 -0.9283
 9386SOL     OW39619   1.180   0.361   2.119 -1.0683  0.1635  0.4443
 9386SOL    HW139620   1.141   0.437   2.076 -1.8858  0.4663  1.6962
 9386SOL    HW239621   1.230   0.329   2.044  0.8281 -1.1236  2.2486
 9387SOL     OW39622   1.186   2.933   9.778  0.0489 -0.0573  0.0004
 9387SOL    HW139623   1.123   2.999   9.750  2.8502  3.2347  1.4778
 9387SOL    HW239624   1.262   2.987   9.756  1.0265 -1.4901 -0.1874
 9388SOL     OW39625   0.821   2.768   1.493 -0.2983  0.0997  0.0316
 9388SOL    HW139626   0.906   2.808   1.475 -1.2782  2.1456 -0.0594
 9388SOL    HW239627   0.757   2.817   1.442  0.2313  0.5909 -0.1615
 9389SOL     OW39628   0.368   3.668   9.471  0.6885 -0.0175  0.0052
 9389SOL    HW139629   0.319   3.679   9.553 -3.1652  1.7680 -2.5277
 9389SOL    HW239630   0.447   3.714   9.501  0.7704 -1.2973  1.7413
 9390SOL     OW39631   0.093   0.849   2.541 -0.3597 -0.0642  0.0491
 9390SOL    HW139632   0.075   0.877   2.631  2.3817 -0.0359  0.5746
 9390SOL    HW239633   0.004   0.831   2.510 -0.9037  0.3637  1.3269
 9391SOL     OW39634   1.423   0.164   8.603  0.2184  0.2767 -0.0358
 9391SOL    HW139635   1.373   0.198   8.529  0.9770  0.2298 -0.5734
 9391SOL    HW239636   1.434   0.071   8.582  0.0381  0.4186 -0.7716
 9392SOL     OW39637   0.233   1.535  12.633  0.1853  0.5306 -0.1641
 9392SOL    HW139638   0.320   1.509  12.664 -0.3688 -1.3047 -0.1194
 9392SOL    HW239639   0.180   1.525  12.713  0.7176  1.1316  0.2622
 9393SOL     OW39640   3.929   3.302   8.182 -0.0266 -0.3126  0.9001
 9393SOL    HW139641   3.880   3.220   8.174  0.3101 -0.4053 -0.2407
 9393SOL    HW239642   3.974   3.296   8.266 -0.9144 -2.3493  1.2233
 9394SOL     OW39643   3.174   1.150   8.122  0.1376 -0.0062 -0.2053
 9394SOL    HW139644   3.113   1.188   8.185 -0.6273 -2.5903  0.5969
 9394SOL    HW239645   3.233   1.215   8.084 -2.0821  3.0363  1.5470
 9395SOL     OW39646   4.508   1.004   2.537 -0.2509 -0.3446 -0.1187
 9395SOL    HW139647   4.453   1.082   2.535 -0.5107 -0.5380 -0.5616
 9395SOL    HW239648   4.574   1.028   2.602  0.7484  1.5407 -1.8439
 9396SOL     OW39649   4.341   0.621  15.458 -0.2960 -0.4740 -0.1153
 9396SOL    HW139650   4.387   0.542  15.488  0.8293  0.2936  0.1977
 9396SOL    HW239651   4.386   0.656  15.380 -0.7232 -0.2579 -0.2650
 9397SOL     OW39652   2.929   0.214   7.781 -0.2182 -0.1659 -0.4955
 9397SOL    HW139653   2.847   0.169   7.801  0.6005 -1.4037  0.0457
 9397SOL    HW239654   2.929   0.255   7.867  1.3043 -0.2848 -0.4350
 9398SOL     OW39655   3.626   4.692   4.469 -0.0900 -0.4507 -0.5534
 9398SOL    HW139656   3.638   4.626   4.400  0.4349 -0.6787 -0.2365
 9398SOL    HW239657   3.543   0.010   4.442 -0.5739 -0.6541  0.6377
 9399SOL     OW39658   0.188   3.715  10.188  0.0628 -0.1840  0.3179
 9399SOL    HW139659   0.205   3.805  10.218  1.2930 -1.2279  2.8044
 9399SOL    HW239660   0.186   3.673  10.274  0.7990  0.7000  0.7694
 9400SOL     OW39661   2.833   3.293   8.287 -0.2017  0.1482 -0.2091
 9400SOL    HW139662   2.744   3.309   8.321 -0.2689 -0.8891  0.0879
 9400SOL    HW239663   2.867   3.382   8.273  0.7828 -0.1968  0.0000
 9401SOL     OW39664   1.374   4.443   9.002  0.5126  0.0830 -0.6832
 9401SOL    HW139665   1.321   4.365   9.019 -0.7521  0.9769 -0.5229
 9401SOL    HW239666   1.357   4.455   8.908 -0.3992 -0.3510 -0.5761
 9402SOL     OW39667   2.066   4.103   7.541 -0.5297  0.1502  0.1478
 9402SOL    HW139668   2.159   4.097   7.563 -0.1869 -2.9757 -2.1385
 9402SOL    HW239669   2.030   4.074   7.625  0.2538  1.3735  0.9028
 9403SOL     OW39670   3.921   0.264   3.894  0.3435 -0.2826  0.9480
 9403SOL    HW139671   3.836   0.280   3.934  0.7510  0.2891  1.5871
 9403SOL    HW239672   3.897   0.214   3.816  1.2662  3.2069 -1.5832
 9404SOL     OW39673   0.607   2.045   5.857 -0.2556  0.0238 -0.7070
 9404SOL    HW139674   0.522   2.001   5.863  1.1120 -1.9068  4.7632
 9404SOL    HW239675   0.575   2.135   5.857  1.3346  0.5835 -0.5747
 9405SOL     OW39676   1.896   3.936   8.527  0.1872  0.0330  0.7338
 9405SOL    HW139677   1.857   4.017   8.493 -0.2990 -0.7507 -0.5975
 9405SOL    HW239678   1.966   3.927   8.462  2.0415 -0.8859  2.8754
 9406SOL     OW39679   1.294   0.051   4.399 -0.4088  0.1434  0.1936
 9406SOL    HW139680   1.245   0.034   4.479 -0.8332 -0.0620 -0.1092
 9406SOL    HW239681   1.246   0.000   4.333  0.8233  0.3962 -0.8897
 9407SOL     OW39682   2.593   2.711   5.163  0.1287  0.0339 -0.3926
 9407SOL    HW139683   2.685   2.688   5.173  0.0434 -0.7929 -1.4198
 9407SOL    HW239684   2.581   2.765   5.241 -0.3568  0.9763 -1.1158
 9408SOL     OW39685   3.282   0.086   3.353  0.2234  0.6466 -0.4454
 9408SOL    HW139686   3.248   0.147   3.287  0.5261 -0.7239 -1.8524
 9408SOL    HW239687   3.217   0.105   3.421 -0.3606  1.5534 -1.2568
 9409SOL     OW39688   4.455   4.149   7.535 -0.4566  0.2162  0.6730
 9409SOL    HW139689   4.447   4.242   7.555  1.3306  0.2469  1.2285
 9409SOL    HW239690   4.433   4.151   7.442 -0.7518 -0.8973  0.7099
 9410SOL     OW39691   1.158   1.175   5.019 -0.1726 -0.2626  0.2927
 9410SOL    HW139692   1.115   1.207   4.940 -0.0069  0.2160  0.3938
 9410SOL    HW239693   1.091   1.123   5.062  0.2845 -2.4087 -1.6050
 9411SOL     OW39694   1.940   1.826   7.271 -0.3451 -0.2983 -0.3408
 9411SOL    HW139695   1.890   1.787   7.343  1.1135  0.2301  0.9527
 9411SOL    HW239696   2.011   1.878   7.309  0.3226 -1.3913 -0.1110
 9412SOL     OW39697   1.221   4.325   2.181  0.0909  0.0281 -0.1388
 9412SOL    HW139698   1.302   4.323   2.129  1.3848  0.3110  1.8621
 9412SOL    HW239699   1.181   4.411   2.167  1.1819  0.5168 -0.2397
 9413SOL     OW39700   0.437   2.076   2.524  0.5519  0.4670  0.3261
 9413SOL    HW139701   0.449   1.984   2.500 -0.4050  0.0418  1.4799
 9413SOL    HW239702   0.342   2.076   2.511  0.7898 -0.1091 -1.4244
 9414SOL     OW39703   2.006   1.733   1.879 -0.1845  0.2167  0.0855
 9414SOL    HW139704   1.927   1.680   1.870  0.3796 -0.3700 -1.4025
 9414SOL    HW239705   2.066   1.694   1.815 -1.2308 -2.7768  0.9512
 9415SOL     OW39706   2.146   0.287  16.179 -0.7134 -0.2649 -0.3144
 9415SOL    HW139707   2.168   0.367  16.228 -0.3685 -0.2698 -0.4685
 9415SOL    HW239708   2.054   0.275  16.205 -0.0472 -0.5512  1.9486
 9416SOL     OW39709   1.037   0.946   3.196 -0.2967  0.4111  0.1912
 9416SOL    HW139710   0.976   0.897   3.251  0.5796 -0.4092  0.4262
 9416SOL    HW239711   1.090   0.876   3.158 -0.1631  1.1180 -0.9143
 9417SOL     OW39712   2.333   1.428   0.549  0.9181 -0.2080 -0.2319
 9417SOL    HW139713   2.317   1.398   0.459 -2.4109 -0.3240  0.4024
 9417SOL    HW239714   2.284   1.510   0.555 -0.7477 -1.1881 -0.4079
 9418SOL     OW39715   1.590   0.108   1.615 -0.6142 -0.2825  0.5946
 9418SOL    HW139716   1.675   0.153   1.618 -0.0787 -1.0678 -2.9164
 9418SOL    HW239717   1.595   0.043   1.686  1.3739 -0.4226  0.3278
 9419SOL     OW39718   2.122   0.067   8.487 -0.2494 -0.4829  0.3302
 9419SOL    HW139719   2.104   0.076   8.393 -1.7329 -0.2155  0.6412
 9419SOL    HW239720   2.199   0.011   8.484  0.4633  0.4095  1.9086
 9420SOL     OW39721   2.299   0.843   8.645 -0.2285 -0.1984  0.4163
 9420SOL    HW139722   2.220   0.856   8.593  0.6767  0.0160 -0.9040
 9420SOL    HW239723   2.332   0.932   8.656 -0.6159 -0.1524  1.1961
 9421SOL     OW39724   4.080   2.771  13.978 -0.0884  0.5159  0.3638
 9421SOL    HW139725   4.111   2.743  13.892 -0.0888  1.0816  0.1809
 9421SOL    HW239726   3.988   2.754  13.957  0.4103 -2.0905  0.3241
 9422SOL     OW39727   2.595   2.636   3.761  0.4426 -0.0760  0.3784
 9422SOL    HW139728   2.526   2.695   3.793  1.5145  0.6920  1.2806
 9422SOL    HW239729   2.544   2.588   3.696 -0.8982  0.2885  1.1500
 9423SOL     OW39730   2.218   2.644   1.210 -0.1778  0.4659  0.4130
 9423SOL    HW139731   2.204   2.692   1.129  3.2829  0.3995 -0.2076
 9423SOL    HW239732   2.294   2.595   1.180 -0.9833 -1.4424  1.4729
 9424SOL     OW39733   2.968   2.044  10.796  0.8314 -0.3120  0.4001
 9424SOL    HW139734   2.915   1.972  10.830 -2.0971  2.0522  0.8253
 9424SOL    HW239735   2.927   2.056  10.710  0.6046 -3.2941  0.0780
 9425SOL     OW39736   3.008   0.354  11.178  0.1264  0.6876  0.6478
 9425SOL    HW139737   2.999   0.397  11.093 -0.5435  1.1779  0.9690
 9425SOL    HW239738   2.922   0.365  11.218 -0.5032  0.3185 -0.5959
 9426SOL     OW39739   3.096   0.223   8.760 -0.5836  0.1509  0.3590
 9426SOL    HW139740   3.011   0.220   8.715 -0.1728  1.0870 -0.4827
 9426SOL    HW239741   3.148   0.275   8.698  0.6681 -0.2194  1.1030
 9427SOL     OW39742   1.282   1.962   2.133  0.1581  0.3700  0.3285
 9427SOL    HW139743   1.245   1.991   2.050  1.4957  0.7007 -0.1626
 9427SOL    HW239744   1.366   2.009   2.132  0.5160 -0.3005 -3.0248
 9428SOL     OW39745   4.600   4.310   3.271  0.0444 -0.1184 -0.2202
 9428SOL    HW139746   4.644   4.226   3.287  0.9992  0.3408 -0.4977
 9428SOL    HW239747   4.574   4.345   3.356 -1.4818 -0.7230 -0.4319
 9429SOL     OW39748   2.789   0.800   8.829  0.4697  0.2151  0.7611
 9429SOL    HW139749   2.784   0.718   8.780  0.2345  0.9234 -0.3845
 9429SOL    HW239750   2.836   0.865   8.778  1.3345 -2.0575 -1.3087
 9430SOL     OW39751   4.098   3.400  14.387  0.0852  0.1430  0.0986
 9430SOL    HW139752   4.052   3.470  14.342  0.3367  2.7716  3.9647
 9430SOL    HW239753   4.055   3.318  14.360  0.6508 -0.2475  0.3675
 9431SOL     OW39754   0.370   2.460   5.697 -0.4698  0.5093 -0.1742
 9431SOL    HW139755   0.400   2.495   5.781  0.1713  1.5479 -0.8393
 9431SOL    HW239756   0.317   2.530   5.658 -0.3857  0.8744  0.3596
 9432SOL     OW39757   0.947   2.716   1.193  0.1178 -0.4518 -0.3688
 9432SOL    HW139758   0.911   2.802   1.216  0.0120 -0.0701 -1.9447
 9432SOL    HW239759   0.977   2.723   1.102 -3.4724  0.9084 -1.4381
 9433SOL     OW39760   1.029   4.188   8.736 -0.2505  0.6974  0.4459
 9433SOL    HW139761   0.995   4.260   8.789 -0.4267  0.9588 -0.0137
 9433SOL    HW239762   0.964   4.120   8.755  1.2540 -0.7345  0.4266
 9434SOL     OW39763   2.106   2.792   2.458  0.4227  0.1029  0.5672
 9434SOL    HW139764   2.192   2.820   2.490  0.0646  1.1700  0.5893
 9434SOL    HW239765   2.074   2.749   2.537 -0.1276  0.4244  0.5153
 9435SOL     OW39766   4.632   0.687   2.837 -0.4194  0.4690 -0.2993
 9435SOL    HW139767   4.566   0.624   2.808 -1.8284  0.2345  3.3930
 9435SOL    HW239768   4.648   0.744   2.762 -1.3434  1.2508  0.1006
 9436SOL     OW39769   0.075   0.573  16.644 -0.1623 -0.3286 -0.0606
 9436SOL    HW139770   4.704   0.588  16.658  0.0727  0.3683  0.8009
 9436SOL    HW239771   0.072   0.551  16.551  0.4519  2.2543 -0.7018
 9437SOL     OW39772   2.898   4.425   9.663  0.5021 -0.3268 -0.0885
 9437SOL    HW139773   2.884   4.421   9.758 -0.9346  0.4798 -0.2636
 9437SOL    HW239774   2.973   4.367   9.646 -0.6360 -0.9726 -2.9193
 9438SOL     OW39775   1.808   4.722  17.258 -0.1990 -0.2150 -0.2375
 9438SOL    HW139776   1.833   0.063  17.325 -1.3140 -0.2996  0.2584
 9438SOL    HW239777   1.720   0.032  17.243 -0.1223 -1.0189 -2.3488
 9439SOL     OW39778   3.568   0.186   5.408 -0.8226  0.3630  0.2597
 9439SOL    HW139779   3.616   0.246   5.465 -0.7212  1.3634 -0.8830
 9439SOL    HW239780   3.508   0.147   5.471 -0.3694 -0.8535 -0.0526
 9440SOL     OW39781   3.847   4.294   6.487  0.1295 -0.3064  0.1555
 9440SOL    HW139782   3.790   4.223   6.515  0.0308 -0.2027  0.2197
 9440SOL    HW239783   3.895   4.258   6.413 -0.2114  0.5775 -0.5042
 9441SOL     OW39784   2.719   2.855  15.271 -0.2797 -0.3797  0.2499
 9441SOL    HW139785   2.796   2.807  15.299 -0.8096 -0.1556  2.0853
 9441SOL    HW239786   2.685   2.786  15.213 -1.9019  0.6800 -0.0924
 9442SOL     OW39787   3.431   2.186  12.260 -0.3448 -0.2200  0.4938
 9442SOL    HW139788   3.511   2.134  12.249  0.3265  1.2101 -1.3261
 9442SOL    HW239789   3.374   2.139  12.199  0.6808 -1.3280  0.4029
 9443SOL     OW39790   0.892   4.703   5.007 -0.4751 -0.3130  0.3850
 9443SOL    HW139791   0.931   0.068   5.007  1.6168 -1.2315 -0.6386
 9443SOL    HW239792   0.863   4.702   5.098 -0.6729  0.8344  0.3285
 9444SOL     OW39793   1.685   2.743   7.246 -0.2361  0.3590  0.1389
 9444SOL    HW139794   1.665   2.831   7.279  0.9095  0.7761 -0.3005
 9444SOL    HW239795   1.738   2.718   7.321  1.7490 -0.1020 -1.4409
 9445SOL     OW39796   0.039   1.030   8.513  0.1154 -0.4659  0.4673
 9445SOL    HW139797   0.087   1.096   8.562  1.8406 -0.5085 -1.1893
 9445SOL    HW239798   0.113   1.004   8.459  1.0051 -2.8813  2.8729
 9446SOL     OW39799   3.130   0.653   4.399  0.3144 -0.2825 -0.0656
 9446SOL    HW139800   3.048   0.699   4.416 -0.0636 -0.6082 -1.0292
 9446SOL    HW239801   3.176   0.635   4.481 -1.9164 -2.5243  0.6942
 9447SOL     OW39802   1.682   0.949   7.999  0.1642  0.2134  0.1823
 9447SOL    HW139803   1.598   0.925   7.960  1.1189  1.2573 -2.4915
 9447SOL    HW239804   1.657   1.041   7.993 -0.5005 -0.0971 -1.8799
 9448SOL     OW39805   0.640   1.789   5.748 -0.3581  0.4603  0.1616
 9448SOL    HW139806   0.680   1.703   5.732 -0.6485  0.4924 -0.7607
 9448SOL    HW239807   0.551   1.768   5.775  0.3207 -1.1690  1.1340
 9449SOL     OW39808   4.361   4.541   7.890 -0.2921  0.3742  0.3062
 9449SOL    HW139809   4.284   4.494   7.857 -0.0831 -1.3000  2.1734
 9449SOL    HW239810   4.434   4.478   7.890 -0.6027  0.0144  0.4850
 9450SOL     OW39811   0.916   3.973   0.274 -0.0281 -0.0251 -0.1083
 9450SOL    HW139812   0.980   3.907   0.301  0.8560  0.0604 -2.0129
 9450SOL    HW239813   0.861   3.919   0.218 -0.9577  1.3847 -0.5453
 9451SOL     OW39814   0.064   0.217   7.019 -0.6821 -0.0095 -0.2243
 9451SOL    HW139815   0.081   0.160   7.094 -3.5354 -0.7207 -0.1249
 9451SOL    HW239816   0.007   0.160   6.968  0.5108 -0.9216 -0.5215
 9452SOL     OW39817   3.334   4.547   5.623  0.4016 -0.1422  0.0735
 9452SOL    HW139818   3.318   4.490   5.698 -3.1397  1.6588  0.7048
 9452SOL    HW239819   3.349   4.486   5.551 -2.1938 -1.1235  0.3611
 9453SOL     OW39820   2.964   0.477   6.939 -0.2764 -0.5675  0.0369
 9453SOL    HW139821   3.011   0.540   6.884 -1.5676 -0.4454 -0.9264
 9453SOL    HW239822   2.945   0.531   7.015  1.5657 -1.7994  1.3772
 9454SOL     OW39823   3.225   2.642   7.009 -0.2331  0.5713 -0.0342
 9454SOL    HW139824   3.160   2.584   6.970  0.5126  1.1256 -2.1511
 9454SOL    HW239825   3.302   2.624   6.954 -1.1239  0.8455 -1.3705
 9455SOL     OW39826   2.497   3.594   5.241 -0.3719 -0.0198 -0.0023
 9455SOL    HW139827   2.542   3.554   5.166 -2.5132  0.5910 -1.6254
 9455SOL    HW239828   2.431   3.647   5.196 -0.8754 -0.6495 -0.0126
 9456SOL     OW39829   3.140   2.274   0.002  0.3372  0.3670 -0.3266
 9456SOL    HW139830   3.196   2.277  17.617  0.5446 -0.1339 -0.1990
 9456SOL    HW239831   3.080   2.347  17.681 -1.3455 -0.5721  2.0687
 9457SOL     OW39832   1.166   0.359  15.515  1.0702 -0.6298  0.0695
 9457SOL    HW139833   1.221   0.353  15.593  0.0567 -2.0280  0.6712
 9457SOL    HW239834   1.089   0.307  15.538  0.2942 -0.6168 -2.4681
 9458SOL     OW39835   3.873   2.998  13.759 -0.2880 -0.7797 -0.6864
 9458SOL    HW139836   3.928   3.001  13.681  0.4100 -0.0294 -0.1722
 9458SOL    HW239837   3.807   2.933  13.738 -1.2874  0.5688 -1.7280
 9459SOL     OW39838   2.249   4.506  11.073 -0.2547 -0.4483 -0.4697
 9459SOL    HW139839   2.272   4.566  11.144 -0.1435 -0.0945 -0.8033
 9459SOL    HW239840   2.221   4.569  11.007 -0.8041 -0.5920 -0.3726
 9460SOL     OW39841   4.101   2.397   2.732  0.2480 -0.1011 -0.3321
 9460SOL    HW139842   4.021   2.352   2.706  0.9538 -2.3719  1.4228
 9460SOL    HW239843   4.094   2.484   2.691  1.1246  1.2409  2.4197
 9461SOL     OW39844   1.265   1.335   8.627 -0.1043 -0.3376 -0.2111
 9461SOL    HW139845   1.356   1.364   8.643 -0.0548 -0.6815  0.1072
 9461SOL    HW239846   1.276   1.328   8.532  2.2292  0.8282 -0.0446
 9462SOL     OW39847   2.157   2.014   0.392  0.5734 -0.7401  0.4415
 9462SOL    HW139848   2.107   1.947   0.439 -0.5401 -0.2694 -0.0724
 9462SOL    HW239849   2.086   2.050   0.339  0.5815 -0.0612  0.8961
 9463SOL     OW39850   1.878   3.773   8.877 -0.1511 -0.5456  0.1087
 9463SOL    HW139851   1.888   3.739   8.966 -0.6607  0.1539  0.4258
 9463SOL    HW239852   1.793   3.731   8.862 -1.9069  2.0158  3.0541
 9464SOL     OW39853   3.824   0.999  11.617  0.5916 -0.0008 -0.0730
 9464SOL    HW139854   3.772   1.000  11.697  0.4826 -0.1462 -0.1430
 9464SOL    HW239855   3.758   0.969  11.555  0.7574 -1.1652  0.3163
 9465SOL     OW39856   4.256   2.332  14.755  0.2598  0.1030  0.1487
 9465SOL    HW139857   4.307   2.276  14.697 -2.1702 -1.1624 -0.8069
 9465SOL    HW239858   4.312   2.357  14.828 -0.8087  1.3548  0.5396
 9466SOL     OW39859   4.479   3.248   3.965  0.6860 -0.2859  0.1049
 9466SOL    HW139860   4.503   3.303   3.890 -0.3963 -0.1585 -0.1556
 9466SOL    HW239861   4.386   3.270   3.973  0.2318 -1.4431 -1.9679
 9467SOL     OW39862   0.456   1.576   9.223 -0.0663  0.3415  0.1145
 9467SOL    HW139863   0.364   1.588   9.200 -0.3528  0.8464  1.5246
 9467SOL    HW239864   0.488   1.647   9.168  0.0676  0.9889  1.0372
 9468SOL     OW39865   2.269   0.551  11.984  0.5942 -0.1309  0.7115
 9468SOL    HW139866   2.255   0.493  11.908 -0.0688  0.5536  0.3075
 9468SOL    HW239867   2.242   0.636  11.948  0.6138 -0.2195  0.4898
 9469SOL     OW39868   2.160   2.038  13.198 -0.2394  0.0542  0.0927
 9469SOL    HW139869   2.084   1.991  13.231  0.4786 -1.6511 -0.6799
 9469SOL    HW239870   2.232   1.979  13.219 -0.9625 -0.2720  1.6017
 9470SOL     OW39871   3.611   2.152   4.933 -0.1452  0.2156  0.7653
 9470SOL    HW139872   3.556   2.227   4.912  2.1152  1.6882  0.0882
 9470SOL    HW239873   3.547   2.087   4.962 -0.0225 -0.3776 -0.3276
 9471SOL     OW39874   4.015   3.939   8.496  0.2008  0.1986 -1.1195
 9471SOL    HW139875   3.969   3.925   8.414  0.5458 -2.3699 -0.8772
 9471SOL    HW239876   3.970   3.873   8.549 -0.9756  1.5988 -0.3556
 9472SOL     OW39877   0.657   4.085   0.366  0.7943 -0.4754 -0.0004
 9472SOL    HW139878   0.680   4.144   0.437  0.3445 -0.1651 -0.1062
 9472SOL    HW239879   0.743   4.054   0.337  0.8693 -0.8833  0.6886
 9473SOL     OW39880   1.492   4.697   8.171 -0.3851 -1.0939  0.1889
 9473SOL    HW139881   1.535   0.038   8.115 -0.5124 -1.6822 -0.5742
 9473SOL    HW239882   1.403   4.706   8.137 -0.2507 -0.7188 -0.0562
 9474SOL     OW39883   2.036   0.346   7.800  0.0342  0.2388 -0.6200
 9474SOL    HW139884   1.991   0.430   7.796  1.9684  1.3077  0.3043
 9474SOL    HW239885   2.103   0.367   7.865  0.2262  0.6957 -0.9717
 9475SOL     OW39886   4.695   1.793   4.013 -0.0443 -0.5011  0.4366
 9475SOL    HW139887   4.686   1.701   4.037 -1.8048 -0.3682  0.2262
 9475SOL    HW239888   4.701   1.774   3.920 -0.7637  0.0225  0.2891
 9476SOL     OW39889   1.299   1.560  14.282  0.2137 -0.4812 -0.0999
 9476SOL    HW139890   1.248   1.481  14.265  0.1920 -0.7440  1.1658
 9476SOL    HW239891   1.391   1.533  14.288  0.7469  0.4263 -3.8007
 9477SOL     OW39892   2.172   3.874   9.453  0.2098  0.0763  0.8091
 9477SOL    HW139893   2.078   3.857   9.458  0.3037 -0.4176  0.8432
 9477SOL    HW239894   2.208   3.786   9.466 -0.9426 -0.4458  0.4252
 9478SOL     OW39895   4.192   3.548   6.626 -0.2295 -0.1195  0.2307
 9478SOL    HW139896   4.287   3.546   6.612 -0.4903 -0.4620 -1.5773
 9478SOL    HW239897   4.156   3.493   6.556 -0.8763 -2.0111  2.0499
 9479SOL     OW39898   0.510   4.062  11.146 -0.3871  0.0156  0.1403
 9479SOL    HW139899   0.543   4.037  11.060  2.0443  0.0599  1.0464
 9479SOL    HW239900   0.559   4.143  11.161 -0.2774  0.1658 -1.0041
 9480SOL     OW39901   2.562   1.911   3.379 -0.5663 -0.6222  0.0729
 9480SOL    HW139902   2.644   1.912   3.329 -0.2558 -3.6740  0.5280
 9480SOL    HW239903   2.503   1.976   3.342 -1.7502 -1.7585 -0.0643
 9481SOL     OW39904   0.312   2.914   0.235  0.1683 -0.0963 -0.2253
 9481SOL    HW139905   0.316   2.834   0.181  0.5702 -0.1085 -0.1732
 9481SOL    HW239906   0.401   2.948   0.238 -0.1910  0.7352  0.8204
 9482SOL     OW39907   2.073   1.487   3.427  0.2425 -0.2929 -0.0225
 9482SOL    HW139908   2.096   1.470   3.519 -1.7386 -1.6160  0.2331
 9482SOL    HW239909   2.139   1.434   3.382 -1.6023 -1.3497 -1.4760
 9483SOL     OW39910   2.189   0.442   8.007  0.4764 -0.1051  0.0160
 9483SOL    HW139911   2.242   0.521   7.997 -3.3546  2.1620 -2.2279
 9483SOL    HW239912   2.150   0.460   8.093  0.4587 -1.3960  0.2903
 9484SOL     OW39913   1.767   3.862   6.611  0.8713  0.4967  0.2036
 9484SOL    HW139914   1.674   3.884   6.600  0.6326 -0.3250  0.6016
 9484SOL    HW239915   1.762   3.849   6.706 -0.6027 -2.0207 -0.2264
 9485SOL     OW39916   4.692   4.198   2.493 -0.6808 -0.3858  0.4670
 9485SOL    HW139917   0.062   4.172   2.486  0.3290  2.7872  2.0668
 9485SOL    HW239918   4.680   4.225   2.402 -0.7090  1.3667  0.9998
 9486SOL     OW39919   1.168   1.388   9.155  0.2516  0.6277  0.1285
 9486SOL    HW139920   1.205   1.373   9.242  0.0962 -2.1993 -0.2661
 9486SOL    HW239921   1.099   1.447   9.184 -0.7899 -0.4493 -0.1639
 9487SOL     OW39922   3.204   1.018  15.018 -0.0130  0.0548 -0.6027
 9487SOL    HW139923   3.269   0.985  14.956  0.0558 -2.3517  0.7675
 9487SOL    HW239924   3.148   1.077  14.968  0.1626 -0.2765 -1.1907
 9488SOL     OW39925   3.880   1.621   6.824 -0.0483 -0.2276  0.4510
 9488SOL    HW139926   3.823   1.662   6.889  1.9304 -1.9657  3.2537
 9488SOL    HW239927   3.842   1.534   6.815  1.6876 -1.0044  0.6941
 9489SOL     OW39928   0.854   4.689  12.769 -0.5019  0.0613 -0.5280
 9489SOL    HW139929   0.873   4.674  12.862 -1.2757  0.1002 -0.3646
 9489SOL    HW239930   0.940   4.692  12.727  0.9492 -3.3666  2.2718
 9490SOL     OW39931   4.550   0.620   8.317 -0.4806 -0.3042  0.1732
 9490SOL    HW139932   4.622   0.655   8.370  0.2381  1.3616 -1.9110
 9490SOL    HW239933   4.547   0.540   8.369 -0.5778  0.0245  0.6755
 9491SOL     OW39934   0.485   1.577   3.147  1.1948 -0.3311 -0.5683
 9491SOL    HW139935   0.393   1.600   3.160  1.4454  0.3067  0.0733
 9491SOL    HW239936   0.471   1.482   3.151 -1.3552  0.1299  1.5099
 9492SOL     OW39937   3.584   0.729  11.040 -0.0620  0.2515  0.0362
 9492SOL    HW139938   3.619   0.808  10.999 -0.5794  1.7560  2.4449
 9492SOL    HW239939   3.617   0.734  11.130  0.3678  2.7389 -0.2575
 9493SOL     OW39940   0.525   1.074  17.196  0.1325  0.1828 -0.3062
 9493SOL    HW139941   0.462   1.023  17.145  1.0124 -1.6833  0.5015
 9493SOL    HW239942   0.506   1.167  17.181 -2.7618 -0.6445 -1.6870
 9494SOL     OW39943   2.295   0.906   4.763 -0.4813  0.4589  0.4828
 9494SOL    HW139944   2.280   0.812   4.773 -0.7569  0.5559  0.9734
 9494SOL    HW239945   2.257   0.942   4.843 -1.3220  1.0283 -0.1783
 9495SOL     OW39946   2.554   2.052  16.383  0.6726  0.0667 -0.1876
 9495SOL    HW139947   2.529   2.107  16.458 -3.5144 -2.3918  0.2342
 9495SOL    HW239948   2.649   2.058  16.379  0.6660  0.5615  0.3492
 9496SOL     OW39949   0.027   3.326   5.322 -0.0809 -0.0970  0.9655
 9496SOL    HW139950   4.708   3.279   5.249  1.3453  0.8701 -0.4706
 9496SOL    HW239951   0.016   3.420   5.304 -1.0007 -0.3461  0.1994
 9497SOL     OW39952   0.689   2.661   3.198 -0.1081 -0.4649 -0.1403
 9497SOL    HW139953   0.745   2.641   3.272  0.1831  0.1539 -0.1967
 9497SOL    HW239954   0.653   2.742   3.234  1.3578  0.2434 -0.2670
 9498SOL     OW39955   0.026   3.782   9.350 -0.4464  0.1662 -0.2885
 9498SOL    HW139956   4.653   3.784   9.344 -0.3137  0.2980 -2.2236
 9498SOL    HW239957   0.045   3.865   9.393 -1.1151  0.5862 -0.7999
 9499SOL     OW39958   4.585   0.166   1.325  0.1060 -0.1943  0.1692
 9499SOL    HW139959   4.672   0.173   1.366 -0.2633 -1.6108  1.1779
 9499SOL    HW239960   4.571   0.074   1.345 -3.0631  0.4256  0.7614
 9500SOL     OW39961   1.501   4.374   0.983  0.5463 -0.0705  0.4699
 9500SOL    HW139962   1.570   4.315   1.014  1.3130  1.0906  0.9821
 9500SOL    HW239963   1.533   4.408   0.899 -0.1787 -2.7783 -0.8971
 9501SOL     OW39964   3.121   0.035  13.751  0.3496  0.4524  0.0820
 9501SOL    HW139965   3.169   0.106  13.708  2.7338 -1.1475  0.0702
 9501SOL    HW239966   3.179   0.018  13.825 -0.0545 -0.4559  0.1959
 9502SOL     OW39967   1.239   1.336  10.381 -0.0515 -0.0972 -0.2371
 9502SOL    HW139968   1.320   1.291  10.402  1.2551  1.1726 -2.6029
 9502SOL    HW239969   1.233   1.378  10.467 -3.0608  0.5307 -0.7333
 9503SOL     OW39970   1.189   0.188   5.498 -0.2120 -0.2122  0.1092
 9503SOL    HW139971   1.132   0.183   5.575 -1.8006  0.0865 -1.0424
 9503SOL    HW239972   1.198   0.281   5.477 -0.8584 -0.0227  0.6760
 9504SOL     OW39973   1.505   1.984   2.988 -0.1956  0.0525 -0.3628
 9504SOL    HW139974   1.462   1.902   2.965  1.0021 -0.6960  0.0501
 9504SOL    HW239975   1.434   2.038   3.021 -0.9861 -0.7173 -0.7970
 9505SOL     OW39976   0.996   1.875   3.390  0.1395 -0.1722 -0.2255
 9505SOL    HW139977   1.067   1.912   3.442  1.0896  1.1675 -2.4881
 9505SOL    HW239978   0.922   1.931   3.414  0.9765  0.8066  0.0769
 9506SOL     OW39979   1.339   3.142   6.227  0.2822 -0.5821  0.0085
 9506SOL    HW139980   1.363   3.099   6.145 -2.5422 -0.4383 -0.8887
 9506SOL    HW239981   1.409   3.111   6.285 -1.4152 -1.9757  1.2909
 9507SOL     OW39982   2.289   1.628   1.062  0.4583  0.2634 -0.1042
 9507SOL    HW139983   2.366   1.586   1.100  0.0679 -1.1573 -0.8784
 9507SOL    HW239984   2.284   1.603   0.970 -0.7303  0.3026 -0.0430
 9508SOL     OW39985   1.202   2.316   4.592 -0.6434 -0.0461 -0.1895
 9508SOL    HW139986   1.158   2.401   4.595 -0.2402  0.1067  1.7977
 9508SOL    HW239987   1.290   2.349   4.575 -1.1360  0.7647 -1.1525
 9509SOL     OW39988   2.488   0.259   7.395 -0.2353  0.6829 -0.1439
 9509SOL    HW139989   2.489   0.168   7.368  1.0991  1.4626 -2.7729
 9509SOL    HW239990   2.476   0.237   7.488  1.6226 -1.1462 -0.3382
 9510SOL     OW39991   1.026   1.687   6.206 -0.3377  0.6776  0.4605
 9510SOL    HW139992   0.943   1.708   6.249 -1.0989 -2.0299  0.3534
 9510SOL    HW239993   1.058   1.614   6.259 -2.3052 -1.5069 -1.3149
 9511SOL     OW39994   1.545   2.517   7.822  0.3450 -0.5447  0.2909
 9511SOL    HW139995   1.587   2.543   7.739 -1.1890  0.3881 -0.1954
 9511SOL    HW239996   1.456   2.547   7.807  0.2420 -2.1568 -2.2383
 9512SOL     OW39997   3.123   2.060   2.449 -0.4190  0.4465  0.1977
 9512SOL    HW139998   3.045   2.115   2.451 -1.3458 -0.8188 -1.0519
 9512SOL    HW239999   3.112   2.009   2.369  0.2432  3.1749 -1.6385
 9513SOL     OW40000   1.713   2.402  15.030  0.5307  0.2463 -0.0508
 9513SOL    HW140001   1.791   2.387  14.976  1.0134  0.3527  0.6106
 9513SOL    HW240002   1.717   2.326  15.088  2.1912 -0.1652 -0.7128
 9514SOL     OW40003   1.747   3.676   3.459  0.8401  0.5088 -0.4014
 9514SOL    HW140004   1.827   3.654   3.507  1.0700 -0.7303 -1.3577
 9514SOL    HW240005   1.762   3.770   3.448 -0.0691  0.5490 -1.2919
 9515SOL     OW40006   1.400   0.412  13.860 -0.4911 -0.3896  0.0488
 9515SOL    HW140007   1.427   0.472  13.791 -1.3908 -0.3083 -0.2267
 9515SOL    HW240008   1.307   0.420  13.839  0.0776  1.1524 -1.8157
 9516SOL     OW40009   0.152   3.296   4.046 -0.9735 -0.5141 -0.0423
 9516SOL    HW140010   0.098   3.218   4.029 -1.4998  0.1393 -1.3918
 9516SOL    HW240011   0.145   3.341   3.962 -2.2799 -1.3940 -0.4143
 9517SOL     OW40012   2.073   0.173  11.327 -0.5230 -0.4203 -0.1589
 9517SOL    HW140013   2.075   0.084  11.362  0.5743 -0.4177 -0.2132
 9517SOL    HW240014   2.165   0.195  11.341 -0.8976  0.0470  1.6146
 9518SOL     OW40015   3.785   0.271   2.746 -0.5493  0.2611 -0.1977
 9518SOL    HW140016   3.794   0.318   2.829 -2.3023 -0.3644  0.3470
 9518SOL    HW240017   3.711   0.316   2.705 -2.2889 -0.7323  1.8550
 9519SOL     OW40018   0.425   3.576   7.208  0.2035 -0.0179 -0.0918
 9519SOL    HW140019   0.343   3.534   7.184 -0.3790  0.1861  1.5070
 9519SOL    HW240020   0.420   3.647   7.144 -0.2437 -1.1594 -1.3187
 9520SOL     OW40021   0.454   2.808  10.621  0.4232 -0.2502  0.6401
 9520SOL    HW140022   0.491   2.859  10.692 -0.0816  1.2821 -0.2106
 9520SOL    HW240023   0.395   2.873  10.583 -0.3299 -1.2749  0.0497
 9521SOL     OW40024   2.330   2.430   6.660 -0.3438 -0.2384  0.1518
 9521SOL    HW140025   2.396   2.499   6.659 -2.2583  1.5899 -0.2575
 9521SOL    HW240026   2.253   2.459   6.612  0.7735 -0.4444 -1.7521
 9522SOL     OW40027   1.411   4.132   6.301  0.4898  0.3574  0.4337
 9522SOL    HW140028   1.448   4.138   6.213 -1.1063  0.5397 -0.2279
 9522SOL    HW240029   1.344   4.065   6.283  0.1783  0.8065 -0.0925
 9523SOL     OW40030   1.166   0.724  13.638 -0.0054  0.6608  0.1192
 9523SOL    HW140031   1.196   0.666  13.708 -0.7549 -1.0559 -0.9987
 9523SOL    HW240032   1.072   0.707  13.633  0.1100 -0.2015  0.8328
 9524SOL     OW40033   1.205   1.446  11.122 -0.0765 -0.8317  0.0480
 9524SOL    HW140034   1.211   1.438  11.217 -0.2324  1.0509  0.2045
 9524SOL    HW240035   1.126   1.500  11.120  0.0261 -0.5824  2.4411
 9525SOL     OW40036   1.313   2.803   4.641 -0.4337  0.1789  0.1010
 9525SOL    HW140037   1.354   2.763   4.564 -0.8543 -0.4399  0.2002
 9525SOL    HW240038   1.334   2.897   4.635  1.7583 -0.1163  2.7555
 9526SOL     OW40039   2.365   3.538  12.155 -0.3600  0.0761  0.0544
 9526SOL    HW140040   2.409   3.521  12.238  1.0178  2.6334 -0.1778
 9526SOL    HW240041   2.385   3.454  12.113 -3.5881 -0.4827 -0.4153
 9527SOL     OW40042   2.741   3.160  16.431 -0.2978  0.6408 -0.1466
 9527SOL    HW140043   2.751   3.217  16.355  0.8192  2.4876  1.3713
 9527SOL    HW240044   2.680   3.217  16.480 -0.9524 -1.2932  1.2883
 9528SOL     OW40045   3.349   0.763   3.758  0.3863  0.5241  0.2089
 9528SOL    HW140046   3.406   0.805   3.694  1.7113  0.9318  1.6615
 9528SOL    HW240047   3.258   0.787   3.746  0.1595  0.4469  1.6893
 9529SOL     OW40048   4.256   1.845  10.233 -0.7640  0.6075  0.5293
 9529SOL    HW140049   4.231   1.844  10.141  1.9502 -0.2855 -0.2053
 9529SOL    HW240050   4.295   1.759  10.247 -0.1247  0.5532 -1.6160
 9530SOL     OW40051   1.898   1.816   5.213 -0.0576 -0.3443 -0.6676
 9530SOL    HW140052   1.814   1.861   5.219  0.1655 -0.0136 -0.0559
 9530SOL    HW240053   1.864   1.727   5.220  0.1751 -0.4492 -0.8620
 9531SOL     OW40054   1.469   0.024   4.124  0.3873 -0.3662 -0.1369
 9531SOL    HW140055   1.462   0.109   4.079  0.2050  0.0977  0.7769
 9531SOL    HW240056   1.537   0.039   4.189  0.0346  0.7121 -0.0106
 9532SOL     OW40057   0.226   2.576   8.601 -0.2724 -0.6771  0.3971
 9532SOL    HW140058   0.317   2.605   8.593 -0.3692 -0.4731  0.0210
 9532SOL    HW240059   0.189   2.648   8.652  1.6321 -0.0680  0.9065
 9533SOL     OW40060   2.716   0.398  13.193  0.4434  0.4450 -0.3611
 9533SOL    HW140061   2.757   0.461  13.252 -0.0665 -1.2093  1.7767
 9533SOL    HW240062   2.624   0.425  13.200 -0.1046 -1.5525  0.3999
 9534SOL     OW40063   4.509   0.234   4.574 -0.1397 -0.3235 -0.0030
 9534SOL    HW140064   4.525   0.193   4.489  1.5017 -0.2281  0.2428
 9534SOL    HW240065   4.567   0.310   4.575 -1.0329  0.3346  1.0709
 9535SOL     OW40066   1.767   2.480   6.277  0.2092 -0.2324 -0.3074
 9535SOL    HW140067   1.745   2.513   6.191  0.4535 -1.5489 -0.8760
 9535SOL    HW240068   1.680   2.491   6.316  0.5281  4.3639 -0.8517
 9536SOL     OW40069   0.906   3.199   8.387  0.3249 -0.5169 -0.1278
 9536SOL    HW140070   0.969   3.161   8.449 -0.2882 -2.7578 -0.8659
 9536SOL    HW240071   0.965   3.232   8.318  0.1028  0.5994  0.2226
 9537SOL     OW40072   2.455   1.844   6.340  0.3793  0.5389 -0.1111
 9537SOL    HW140073   2.429   1.932   6.312  1.1475  0.8382  0.1274
 9537SOL    HW240074   2.388   1.806   6.283 -1.8324  1.7758  1.6541
 9538SOL     OW40075   0.108   3.071   5.204  0.2194 -0.0800 -0.3393
 9538SOL    HW140076   0.178   3.010   5.183  0.5898  0.8635 -1.7841
 9538SOL    HW240077   0.146   3.152   5.171  1.7166 -0.8695 -0.5516
 9539SOL     OW40078   4.555   0.200   0.545  0.3956 -0.1183  0.5175
 9539SOL    HW140079   4.547   0.138   0.473  1.7359  0.6521 -0.2921
 9539SOL    HW240080   4.566   0.135   0.614  2.4610  0.7858  1.0467
 9540SOL     OW40081   3.314   3.602   8.128  0.1338  0.3918  0.5598
 9540SOL    HW140082   3.298   3.694   8.108  0.8134  0.2598 -0.5601
 9540SOL    HW240083   3.235   3.570   8.085 -1.0638  1.3855  2.0014
 9541SOL     OW40084   4.115   4.284  15.933  0.4555 -0.1445 -0.3624
 9541SOL    HW140085   4.114   4.290  15.838 -0.1791  1.8481 -0.2399
 9541SOL    HW240086   4.189   4.344  15.948 -0.1739 -0.0978  2.6230
 9542SOL     OW40087   2.566   3.306   8.333 -0.3335  0.5592  0.1840
 9542SOL    HW140088   2.490   3.297   8.275  2.0645  1.7782 -3.1662
 9542SOL    HW240089   2.561   3.227   8.387 -0.6409  0.2174 -0.3310
 9543SOL     OW40090   3.050   1.098  12.188 -0.1324 -0.1079  0.2952
 9543SOL    HW140091   2.988   1.025  12.192  0.2866 -0.4307  0.9613
 9543SOL    HW240092   3.097   1.071  12.109 -1.2477  1.6103 -0.9718
 9544SOL     OW40093   0.765   3.640  11.414  0.6353  0.2977  0.6243
 9544SOL    HW140094   0.726   3.652  11.328 -1.8548 -1.5681  1.4944
 9544SOL    HW240095   0.696   3.679  11.467 -0.5663 -1.2251  0.1807
 9545SOL     OW40096   3.662   1.363   4.286  0.0730 -0.1177 -0.0388
 9545SOL    HW140097   3.658   1.341   4.193 -0.3884  0.0525 -0.0608
 9545SOL    HW240098   3.753   1.384   4.309  0.3388  1.9959 -3.0947
 9546SOL     OW40099   1.776   3.007   8.626  0.0227  0.6916 -0.3521
 9546SOL    HW140100   1.865   3.042   8.627  1.3312 -2.5784  0.8428
 9546SOL    HW240101   1.779   2.945   8.699 -0.0740  0.6703 -0.3664
 9547SOL     OW40102   3.677   0.607   7.024  0.0174 -0.1150 -0.3737
 9547SOL    HW140103   3.639   0.553   6.954  0.0300  1.0321 -1.2570
 9547SOL    HW240104   3.686   0.682   6.966 -1.1809  0.0191 -0.3993
 9548SOL     OW40105   2.756   3.463   0.079  0.5142  0.4567  0.2152
 9548SOL    HW140106   2.700   3.386   0.068 -0.5720  1.6372 -2.4750
 9548SOL    HW240107   2.729   3.464   0.170  1.2358 -0.1266  0.4336
 9549SOL     OW40108   0.955   4.266   2.881  0.0559  0.0669  0.4682
 9549SOL    HW140109   0.909   4.308   2.954 -0.8038 -1.2118  0.6508
 9549SOL    HW240110   1.041   4.309   2.877  0.1659 -0.1357  0.6291
 9550SOL     OW40111   4.025   3.655   7.151  0.1922  0.6437  0.5375
 9550SOL    HW140112   4.020   3.648   7.055  1.2613  3.1565  0.3219
 9550SOL    HW240113   4.115   3.623   7.162  0.9136  1.7933 -1.9751
 9551SOL     OW40114   4.527   0.926  14.674  0.1604  0.1206  0.0941
 9551SOL    HW140115   4.438   0.894  14.659 -0.5265  2.0680 -0.0480
 9551SOL    HW240116   4.529   0.927  14.770  0.3462  1.0861  0.0808
 9552SOL     OW40117   2.085   3.646  10.150  0.1399 -0.0459 -0.8585
 9552SOL    HW140118   2.151   3.600  10.202 -1.7422  2.0810  3.3472
 9552SOL    HW240119   2.054   3.702  10.221  0.0642 -0.6716 -0.3967
 9553SOL     OW40120   4.149   2.187  17.200 -0.2464 -0.0999 -0.1574
 9553SOL    HW140121   4.056   2.192  17.225 -0.6766 -1.2380 -1.5272
 9553SOL    HW240122   4.142   2.115  17.137  0.3020 -0.3957  0.1172
 9554SOL     OW40123   4.722   0.162  15.780  0.1962 -0.1662 -0.3255
 9554SOL    HW140124   0.023   0.254  15.768 -1.0464  0.2594  0.5158
 9554SOL    HW240125   0.083   0.120  15.756  0.9774  1.4758 -0.5072
 9555SOL     OW40126   1.433   2.052   5.744 -0.0159  0.7252 -0.1119
 9555SOL    HW140127   1.437   2.031   5.838 -0.7583  0.3543 -0.1661
 9555SOL    HW240128   1.362   2.115   5.741 -0.8223 -0.1857 -0.0825
 9556SOL     OW40129   1.213   1.701   3.535  0.4317  0.4524 -0.7150
 9556SOL    HW140130   1.235   1.707   3.442  0.6235 -0.9705 -0.7634
 9556SOL    HW240131   1.135   1.646   3.526  0.9210 -0.3376 -0.2301
 9557SOL     OW40132   2.623   2.086   1.739 -0.2267  0.2928 -0.3195
 9557SOL    HW140133   2.588   2.175   1.736  1.7425  1.0889  0.2309
 9557SOL    HW240134   2.714   2.114   1.735  0.1615 -1.0466 -0.6147
 9558SOL     OW40135   2.284   3.971   9.232 -0.3624  0.0599 -0.2715
 9558SOL    HW140136   2.310   3.895   9.180  0.0202 -0.0281  0.0442
 9558SOL    HW240137   2.243   3.935   9.311  1.2655 -1.1255  0.0357
 9559SOL     OW40138   1.570   3.818  12.544  0.3168 -0.8774  0.2028
 9559SOL    HW140139   1.640   3.869  12.586  1.1648 -0.5722 -1.5907
 9559SOL    HW240140   1.596   3.831  12.453  1.3901  1.0763  0.7740
 9560SOL     OW40141   1.354   1.423   7.242  0.3676 -0.6643 -0.0535
 9560SOL    HW140142   1.441   1.440   7.205  1.9502 -0.1201  3.9571
 9560SOL    HW240143   1.310   1.365   7.179  3.4523 -1.5787 -1.3944
 9561SOL     OW40144   0.284   0.127   6.863 -0.0754  0.2346 -0.1462
 9561SOL    HW140145   0.211   0.171   6.906  0.0689  0.1658  0.1702
 9561SOL    HW240146   0.263   0.034   6.871 -1.3549  0.2532 -3.1129
 9562SOL     OW40147   1.993   4.580   3.736 -0.0198 -0.4310  0.5609
 9562SOL    HW140148   1.995   4.500   3.788 -0.5483 -0.5697  0.3602
 9562SOL    HW240149   1.909   4.617   3.764  1.3101  1.5225  2.0199
 9563SOL     OW40150   3.273   1.037   1.641 -0.4264 -0.4269 -0.7486
 9563SOL    HW140151   3.284   1.085   1.559  0.0337  1.4204  0.3899
 9563SOL    HW240152   3.178   1.035   1.650 -0.3494  1.3432  0.4706
 9564SOL     OW40153   2.045   3.752   7.016  0.2112  0.0289 -0.7578
 9564SOL    HW140154   2.039   3.763   7.111 -0.8702  1.2852 -0.9634
 9564SOL    HW240155   2.138   3.770   7.002  0.2095  0.4648 -0.2165
 9565SOL     OW40156   0.216   4.210   3.299  0.4737  1.1521 -0.1164
 9565SOL    HW140157   0.166   4.185   3.377  2.2975 -0.6445  0.4694
 9565SOL    HW240158   0.302   4.176   3.321 -0.6030  1.0848  3.9725
 9566SOL     OW40159   3.148   1.882   8.521  0.0624 -0.6579 -0.0986
 9566SOL    HW140160   3.139   1.839   8.436  1.2388 -2.2101  0.5664
 9566SOL    HW240161   3.161   1.802   8.571 -0.8339 -2.6178 -2.9919
 9567SOL     OW40162   2.443   2.517   2.140 -0.3089 -0.4289  0.6336
 9567SOL    HW140163   2.430   2.465   2.061  2.4795 -2.5410  1.5387
 9567SOL    HW240164   2.352   2.535   2.163 -0.3700 -0.9428  0.8056
 9568SOL     OW40165   0.797   3.854  17.386 -0.3442 -0.4715 -0.9870
 9568SOL    HW140166   0.724   3.855  17.448  1.2422  0.1065  0.8705
 9568SOL    HW240167   0.861   3.906  17.435 -1.3345  0.3272 -0.5423
   4.72257   4.72257  17.69230
