Membrane in water
40167
    1TCq1    O1    1   1.716   3.565  10.936 -0.3745 -0.2420  0.0239
    1TCq1    C1    2   1.786   3.497  11.030  0.2013 -0.1549  0.7276
    1TCq1    O2    3   1.742   3.413  11.111 -0.5546 -0.2611 -0.3975
    1TCq1    C2    4   1.885   3.595  11.086  0.6805 -0.5208  0.2770
    1TCq1    C3    5   1.969   3.671  11.008  0.1447 -0.1378 -0.6236
    1TCq1    C4    6   2.070   3.738  11.073  0.5999  0.4000 -0.5865
    1TCq1    C5    7   2.084   3.733  11.211 -0.0657  0.0797 -0.0233
    1TCq1    C6    8   2.004   3.646  11.282  0.2172  0.7211  0.6242
    1TCq1    C7    9   1.906   3.577  11.221  0.6332  0.2322  0.7525
    1TCq1    C8   10   2.040   3.609  11.421  0.7526  0.1661 -0.0543
    1TCq1    O4   11   1.960   3.555  11.493 -0.3908 -0.4504 -0.2464
    1TCq1    C9   12   2.171   3.793  10.991  0.2283 -0.0519 -0.1653
    1TCq1    O5   13   2.182   3.749  10.873  0.4774 -0.3644  1.1395
    1TCq1    O6   14   2.252   3.866  11.047 -0.1521 -0.4368 -0.2500
    1TCq1    H1   15   1.773   3.628  10.887 -0.0197 -0.9560 -0.4901
    1TCq1    H2   16   1.935   3.701  10.909  1.6234  0.5725 -0.9122
    1TCq1    H3   17   2.172   3.779  11.255 -1.2356  1.5539  0.7841
    1TCq1    H4   18   1.844   3.513  11.282 -1.7223  0.4874 -1.4178
    2MPD2     C   19   2.400   3.444  11.746 -0.2425  0.2771  0.0885
    2MPD2    C1   20   2.264   3.457  11.756 -0.7882 -0.5185 -0.8484
    2MPD2    C2   21   2.190   3.504  11.651  0.0234  0.3712 -0.5768
    2MPD2    C3   22   2.249   3.546  11.533 -0.1756  0.8265 -0.2702
    2MPD2    C4   23   2.378   3.511  11.518 -0.1362  0.0870 -0.6141
    2MPD2    C5   24   2.453   3.456  11.620 -0.2724  0.0226  0.9387
    2MPD2     H   25   2.086   3.519  11.679  0.2783  0.1127  0.5016
    2MPD2    H1   26   2.424   3.519  11.420 -1.3357 -2.3776 -1.3921
    2MPD2    H2   27   2.460   3.425  11.834  1.8933 -2.0184 -1.8726
    2MPD2    H3   28   2.558   3.435  11.608 -0.8650 -0.8186 -2.7635
    2MPD2     N   29   2.179   3.600  11.430 -0.6631  0.6344  0.1237
    2MPD2    H5   30   2.245   3.617  11.355 -0.3315  0.9966  0.5046
    2MPD2    N1   31   2.184   3.417  11.865 -0.4490  0.1830 -0.2544
    2MPD2    H7   32   2.084   3.425  11.849 -0.7369 -1.2414  0.8203
    3TCq1    O1   33   0.933   4.511  10.126  0.4563 -0.2436 -0.3534
    3TCq1    C1   34   1.022   4.489  10.026  0.0738 -0.0228  0.4052
    3TCq1    O2   35   1.025   4.386   9.960  0.8784  0.0790  0.3561
    3TCq1    C2   36   1.035   4.620   9.963 -0.2309  0.3393  0.2781
    3TCq1    C3   37   1.008   4.628   9.826  0.1332 -0.9639 -0.2620
    3TCq1    C4   38   0.980   0.024   9.776  0.1094  0.0415  0.5733
    3TCq1    C5   39   0.985   0.142   9.852 -0.0371  0.4679 -0.0042
    3TCq1    C6   40   1.015   0.131   9.986 -0.0004  0.3398 -0.8836
    3TCq1    C7   41   1.033   0.005  10.039  0.1980  0.9401  0.9160
    3TCq1    C8   42   1.021   0.246  10.073 -0.2977  0.2839  0.5491
    3TCq1    O4   43   1.068   0.345  10.018 -0.2884 -0.1432  0.1924
    3TCq1    C9   44   0.949   0.027   9.637  0.7551 -0.2901  0.0409
    3TCq1    O5   45   0.942   4.642   9.575  0.2445 -0.3951 -0.0904
    3TCq1    O6   46   0.969   0.139   9.583 -0.2791  0.0313  0.1537
    3TCq1    H1   47   0.943   4.603  10.159 -2.0862  0.1252 -0.6004
    3TCq1    H2   48   0.995   4.542   9.761 -1.6936  0.1785 -1.4147
    3TCq1    H3   49   0.941   0.230   9.807  1.1064 -0.7196 -3.4442
    3TCq1    H4   50   1.071   4.712  10.139 -1.0686  0.5192  1.3279
    4MPD2     C   51   1.052   0.469  10.527 -0.0975 -0.2641 -0.1762
    4MPD2    C1   52   1.037   0.333  10.544 -0.6770  0.0876  0.6060
    4MPD2    C2   53   1.005   0.253  10.435  0.7344 -0.0486 -0.2804
    4MPD2    C3   54   1.000   0.303  10.314 -0.5284  0.4614  0.8565
    4MPD2    C4   55   1.029   0.436  10.292  0.5353  0.1978  0.2447
    4MPD2    C5   56   1.054   0.513  10.395 -0.1134  0.1644 -0.1215
    4MPD2     H   57   0.994   0.146  10.453  0.8104  0.0881  0.6128
    4MPD2    H1   58   1.010   0.479  10.194  0.0649 -0.0041  0.2481
    4MPD2    H2   59   1.072   0.545  10.602 -1.1368  0.2120 -0.3776
    4MPD2    H3   60   1.077   0.614  10.366 -1.8971  0.8311  0.7850
    4MPD2     N   61   0.977   0.221  10.197  0.8358  0.3023  0.1474
    4MPD2    H5   62   0.946   0.129  10.227 -1.2685  0.6671 -0.9356
    4MPD2    N1   63   1.036   0.265  10.672 -0.1741  0.8801  0.4810
    4MPD2    H7   64   1.026   0.164  10.669  1.2992  0.7749 -0.6483
    5TCq1    O1   65   2.434   1.850  10.668  0.0057 -0.0261  0.2793
    5TCq1    C1   66   2.489   1.829  10.794  0.4680  0.0566 -0.0777
    5TCq1    O2   67   2.530   1.917  10.865 -0.0914  0.0787 -0.3100
    5TCq1    C2   68   2.459   1.693  10.845  0.1633 -0.0491  0.0365
    5TCq1    C3   69   2.498   1.679  10.976 -0.1063  0.0550 -0.2425
    5TCq1    C4   70   2.481   1.552  11.025  0.2673 -0.6310 -0.0369
    5TCq1    C5   71   2.441   1.449  10.946 -0.4339 -0.1488 -0.7952
    5TCq1    C6   72   2.420   1.467  10.814 -0.2347 -0.6576 -0.5064
    5TCq1    C7   73   2.441   1.591  10.759  0.3259 -0.3711 -0.1673
    5TCq1    C8   74   2.412   1.354  10.726 -0.4850 -0.1726  0.0295
    5TCq1    O4   75   2.409   1.248  10.784 -1.0967 -0.8517  0.0300
    5TCq1    C9   76   2.506   1.538  11.167 -0.0145 -0.0159 -0.1712
    5TCq1    O5   77   2.491   1.638  11.234  0.0272  0.0212 -0.5148
    5TCq1    O6   78   2.473   1.423  11.209 -0.0304  0.4328 -0.6056
    5TCq1    H1   79   2.361   1.791  10.640  0.9127 -0.8495 -0.3974
    5TCq1    H2   80   2.527   1.763  11.038 -1.4794  0.5687 -0.2879
    5TCq1    H3   81   2.436   1.353  10.998 -1.3495  0.8192  0.9023
    5TCq1    H4   82   2.409   1.602  10.657 -0.4047  2.1467  0.3377
    6MPD2     C   83   2.487   1.315  10.358 -0.2599  1.0194 -0.2766
    6MPD2    C1   84   2.436   1.281  10.488 -0.3981 -0.1413 -0.5924
    6MPD2    C2   85   2.396   1.145  10.509 -0.0924  0.1058  0.3078
    6MPD2    C3   86   2.394   1.056  10.403 -0.6823 -0.4262  0.3985
    6MPD2    C4   87   2.457   1.091  10.282 -0.2060 -1.3119 -0.2626
    6MPD2    C5   88   2.501   1.216  10.268  0.5401  0.2385  0.0378
    6MPD2     H   89   2.367   1.116  10.609 -1.7247  0.5143 -0.0477
    6MPD2    H1   90   2.472   1.025  10.197 -1.0039 -1.7433 -0.0646
    6MPD2    H2   91   2.504   1.419  10.331  0.1985  0.7249 -1.1051
    6MPD2    H3   92   2.535   1.244  10.169 -2.6843 -0.3566 -1.2407
    6MPD2     N   93   2.346   0.926  10.421 -0.2973 -0.3349  0.4649
    6MPD2    H5   94   2.328   0.894  10.516  0.1796  0.5413  0.8607
    6MPD2    N1   95   2.438   1.382  10.594 -0.3608 -0.2627  0.0306
    6MPD2    H7   96   2.460   1.478  10.569  0.3831  0.0682  1.9725
    7TCq1    O1   97   0.319   1.056  13.535 -0.2326 -0.4680 -0.3968
    7TCq1    C1   98   0.319   0.983  13.421  0.2700 -0.6955 -0.3387
    7TCq1    O2   99   0.242   0.997  13.327 -0.2759 -0.0407 -0.4450
    7TCq1    C2  100   0.364   0.851  13.467 -0.2134 -0.5298 -0.7770
    7TCq1    C3  101   0.447   0.854  13.579  0.4561 -0.3869  0.2941
    7TCq1    C4  102   0.437   0.757  13.676 -0.4020 -0.2420  0.3200
    7TCq1    C5  103   0.342   0.653  13.665  0.2027  0.5994  0.0336
    7TCq1    C6  104   0.255   0.665  13.564  0.6596 -0.3728 -0.6627
    7TCq1    C7  105   0.265   0.753  13.464  0.6977 -0.6663 -0.5727
    7TCq1    C8  106   0.133   0.578  13.573 -0.8192 -0.1019 -0.3619
    7TCq1    O4  107   0.143   0.461  13.611 -0.2901 -0.2660 -0.3254
    7TCq1    C9  108   0.521   0.753  13.793  0.1439 -0.4248 -0.2707
    7TCq1    O5  109   0.471   0.698  13.896 -0.1837 -0.4270  0.3447
    7TCq1    O6  110   0.608   0.842  13.793  1.0563 -0.4859 -0.3799
    7TCq1    H1  111   0.359   1.007  13.610 -2.3253 -0.0175  1.0300
    7TCq1    H2  112   0.519   0.936  13.584  0.3488 -0.2598 -0.1962
    7TCq1    H3  113   0.323   0.575  13.739 -2.6698  1.5749  0.3067
    7TCq1    H4  114   0.189   0.759  13.387 -0.4643 -0.1765  0.6166
    8MPD2     C  115   4.348   0.538  13.504  0.2376 -0.1653 -0.0638
    8MPD2    C1  116   4.448   0.443  13.489 -0.0543 -0.3515 -0.2406
    8MPD2    C2  117   4.577   0.485  13.509 -0.7241 -0.3177  0.4388
    8MPD2    C3  118   4.614   0.615  13.531  0.3063  0.4032  0.1595
    8MPD2    C4  119   4.515   0.710  13.533  0.2969 -0.3283  0.1034
    8MPD2    C5  120   4.383   0.669  13.542 -0.0750  0.3874 -0.1371
    8MPD2     H  121   4.651   0.406  13.503  0.7635  1.2229 -1.2275
    8MPD2    H1  122   4.532   0.816  13.551  3.8932 -0.9557  0.3323
    8MPD2    H2  123   4.245   0.506  13.501  0.3487 -0.3191 -2.2894
    8MPD2    H3  124   4.302   0.737  13.565  0.5629  1.1698 -0.2343
    8MPD2     N  125   0.025   0.661  13.553  0.1968 -0.3246 -0.2057
    8MPD2    H5  126   0.042   0.760  13.538 -1.9893  0.1205  0.2752
    8MPD2    N1  127   4.426   0.314  13.442 -0.7010  0.3817 -0.2102
    8MPD2    H7  128   4.501   0.248  13.428 -0.0662  0.7741  1.3234
    9TCq1    O1  129   1.110   3.691  10.335 -0.5914  0.1029 -0.3006
    9TCq1    C1  130   1.166   3.792  10.400  0.6389 -0.8865  0.2884
    9TCq1    O2  131   1.131   3.847  10.505 -0.1145 -0.2274 -0.3244
    9TCq1    C2  132   1.253   3.863  10.312  0.3971  0.7206 -0.5393
    9TCq1    C3  133   1.227   3.864  10.176  0.3857 -0.3377 -0.4080
    9TCq1    C4  134   1.307   3.937  10.100  1.0025  0.1237 -0.3403
    9TCq1    C5  135   1.411   4.006  10.164 -0.1482  0.1969  0.1227
    9TCq1    C6  136   1.436   3.996  10.297 -0.4611 -0.4108  0.6619
    9TCq1    C7  137   1.346   3.935  10.377  0.1574 -0.2586  0.2349
    9TCq1    C8  138   1.570   4.027  10.343  0.0754 -1.0508 -0.5469
    9TCq1    O4  139   1.655   4.062  10.258  0.6454 -0.5195 -0.7299
    9TCq1    C9  140   1.284   3.933   9.959  0.5357  0.3009  0.1242
    9TCq1    O5  141   1.211   3.838   9.920 -0.3199 -0.1720  0.4191
    9TCq1    O6  142   1.371   3.994   9.892 -0.1587 -0.1645  0.6893
    9TCq1    H1  143   1.178   3.654  10.274 -0.8817 -1.1655  0.1579
    9TCq1    H2  144   1.141   3.813  10.135  0.0068 -1.1157  1.3589
    9TCq1    H3  145   1.480   4.058  10.099 -0.1022 -0.7193 -0.5678
    9TCq1    H4  146   1.366   3.919  10.482  3.5364 -1.1223 -0.5411
   10MPD2     C  147   1.813   4.090  10.505  0.8992 -0.6487 -0.4305
   10MPD2    C1  148   1.697   4.043  10.556  0.7010 -0.3900  0.0239
   10MPD2    C2  149   1.683   4.037  10.693  0.1025 -0.1173  0.2010
   10MPD2    C3  150   1.793   4.037  10.774  0.7187  0.3172 -0.0770
   10MPD2    C4  151   1.912   4.065  10.717 -0.4207  0.7200  0.1249
   10MPD2    C5  152   1.923   4.099  10.587 -0.0472  0.3873 -0.1898
   10MPD2     H  153   1.586   4.002  10.728  0.4345 -0.9221  0.3264
   10MPD2    H1  154   2.008   4.072  10.768 -0.6931  1.3080  0.5538
   10MPD2    H2  155   1.823   4.097  10.397 -1.0212 -0.0151 -0.5672
   10MPD2    H3  156   2.015   4.143  10.552  0.6799 -0.5635  0.5136
   10MPD2     N  157   1.787   4.008  10.912 -0.1011  0.4210 -0.4233
   10MPD2    H5  158   1.874   4.024  10.960 -0.2667 -0.5604  0.2081
   10MPD2    N1  159   1.580   4.019  10.476 -0.7734 -0.3365 -0.3666
   10MPD2    H7  160   1.492   4.005  10.524 -1.1555  4.2358  0.2099
   11TCq1    O1  161   3.319   4.123  14.572  0.4878 -0.0046 -0.1288
   11TCq1    C1  162   3.225   4.022  14.598  0.4063 -0.6189 -0.2082
   11TCq1    O2  163   3.254   3.921  14.664  0.0771 -0.1731  0.0142
   11TCq1    C2  164   3.127   4.020  14.496 -0.2375  0.3555  0.8448
   11TCq1    C3  165   3.162   4.045  14.370 -0.4650  0.1276 -0.1135
   11TCq1    C4  166   3.069   4.019  14.272  0.2047 -1.1000  0.2146
   11TCq1    C5  167   2.955   3.955  14.304  0.1619 -0.4097 -0.1822
   11TCq1    C6  168   2.924   3.927  14.436 -0.3299  0.1770 -0.2446
   11TCq1    C7  169   3.010   3.959  14.536  0.4053  0.5315  0.2234
   11TCq1    C8  170   2.804   3.846  14.471  0.0573 -0.5618 -0.4198
   11TCq1    O4  171   2.779   3.820  14.586 -0.6894 -0.0252  0.1805
   11TCq1    C9  172   3.093   4.061  14.136  0.4986 -0.6723 -0.1213
   11TCq1    O5  173   2.994   4.062  14.056  0.4856 -0.1579  0.3850
   11TCq1    O6  174   3.204   4.115  14.117 -0.2000 -0.5476 -0.0607
   11TCq1    H1  175   3.274   4.200  14.533 -1.5335 -0.3837  1.4050
   11TCq1    H2  176   3.261   4.075  14.337  0.0489 -0.5603  0.8353
   11TCq1    H3  177   2.883   3.953  14.224  1.5574 -2.5694 -1.3638
   11TCq1    H4  178   2.974   3.946  14.638  2.0242 -1.0617  0.5923
   12MPD2     C  179   2.521   3.751  14.465 -0.8617 -0.8489  0.1828
   12MPD2    C1  180   2.609   3.735  14.361 -0.2671  0.3072 -0.3197
   12MPD2    C2  181   2.566   3.667  14.254 -0.3901 -0.7574  0.7062
   12MPD2    C3  182   2.445   3.599  14.256 -0.1053  0.0643 -0.0738
   12MPD2    C4  183   2.364   3.596  14.370  0.3121 -0.3378 -0.1081
   12MPD2    C5  184   2.396   3.685  14.469 -0.1015  0.3262 -0.0483
   12MPD2     H  185   2.627   3.659  14.165 -0.3632 -0.3793  0.6931
   12MPD2    H1  186   2.275   3.535  14.381 -0.2384  0.1903 -1.7475
   12MPD2    H2  187   2.547   3.812  14.551 -1.0079 -0.8717  0.2441
   12MPD2    H3  188   2.326   3.686  14.552  1.3697  1.2012  1.2042
   12MPD2     N  189   2.406   3.532  14.140  0.0118 -0.0098 -0.0164
   12MPD2    H5  190   2.477   3.507  14.072  2.2157  1.7903  1.6300
   12MPD2    N1  191   2.736   3.791  14.362 -0.4999 -0.5170  0.1806
   12MPD2    H7  192   2.774   3.804  14.269  0.9296  0.8127  0.9554
   13TCq1    O1  193   2.347   3.741  10.663  0.6388  0.4191  0.1733
   13TCq1    C1  194   2.327   3.753  10.529  0.1685  0.7128 -0.1700
   13TCq1    O2  195   2.420   3.771  10.450 -0.0094 -0.3180 -0.1514
   13TCq1    C2  196   2.192   3.792  10.500  0.0385 -0.7337 -0.9892
   13TCq1    C3  197   2.179   3.845  10.376 -0.3405  0.2493 -0.4735
   13TCq1    C4  198   2.052   3.851  10.317 -0.2794 -0.1224 -0.2016
   13TCq1    C5  199   1.949   3.812  10.388  0.7273 -0.0163  0.1452
   13TCq1    C6  200   1.962   3.754  10.510  0.1815 -0.8947  0.1003
   13TCq1    C7  201   2.085   3.735  10.568  0.3404 -0.0792 -0.0695
   13TCq1    C8  202   1.855   3.682  10.579  0.0981 -0.1000  0.6893
   13TCq1    O4  203   1.861   3.648  10.697 -0.3574 -0.2778 -0.3692
   13TCq1    C9  204   2.028   3.911  10.188  0.5404  0.4927 -0.2673
   13TCq1    O5  205   2.124   3.915  10.106  0.9967 -0.0931  0.0482
   13TCq1    O6  206   1.912   3.899  10.149  0.1132 -0.0444 -0.1937
   13TCq1    H1  207   2.269   3.761  10.720  0.1617  1.8786 -1.0224
   13TCq1    H2  208   2.260   3.888  10.318 -0.6214  0.6164 -0.5995
   13TCq1    H3  209   1.851   3.826  10.344  0.8215 -1.0099 -0.3873
   13TCq1    H4  210   2.106   3.678  10.658  2.8207 -1.7462 -1.6996
   14MPD2     C  211   1.527   3.557  10.456 -0.3980  0.1349  0.8527
   14MPD2    C1  212   1.617   3.622  10.538 -0.5059  0.0216 -0.5618
   14MPD2    C2  213   1.565   3.665  10.655  0.4644 -0.0394 -0.2403
   14MPD2    C3  214   1.431   3.645  10.693 -0.2600  0.2020 -0.4003
   14MPD2    C4  215   1.343   3.580  10.606  0.4967 -0.4266 -0.0893
   14MPD2    C5  216   1.390   3.540  10.488  0.2927  0.3279 -0.0958
   14MPD2     H  217   1.634   3.708  10.727  0.2054 -0.0872  0.0351
   14MPD2    H1  218   1.242   3.553  10.633  1.3866 -1.0264  2.6684
   14MPD2    H2  219   1.565   3.527  10.360  1.3897  0.1974  1.5480
   14MPD2    H3  220   1.333   3.485  10.414  3.0069  0.5020 -2.3377
   14MPD2     N  221   1.387   3.697  10.821  0.1013  0.5103  0.0881
   14MPD2    H5  222   1.463   3.734  10.877  0.0987  1.5229 -0.5670
   14MPD2    N1  223   1.749   3.660  10.496  0.1473 -0.0441  0.1770
   14MPD2    H7  224   1.761   3.662  10.395 -1.9495 -2.1154 -0.1306
   15TCq1    O1  225   3.379   3.067   1.157  0.2910  0.4586 -0.1234
   15TCq1    C1  226   3.342   2.937   1.173 -0.5235  0.2484 -0.0311
   15TCq1    O2  227   3.295   2.862   1.089  0.4159  0.3253  0.7096
   15TCq1    C2  228   3.418   2.873   1.276  0.1908 -0.0503  0.5157
   15TCq1    C3  229   3.445   2.940   1.393  0.5260  0.4904 -0.2506
   15TCq1    C4  230   3.527   2.872   1.478  0.5061  0.8475  0.3514
   15TCq1    C5  231   3.593   2.752   1.457  0.2904 -0.2973  0.3589
   15TCq1    C6  232   3.563   2.695   1.340  0.7070 -0.3574 -0.2617
   15TCq1    C7  233   3.469   2.748   1.252  0.4233  0.1937 -0.2565
   15TCq1    C8  234   3.622   2.569   1.312  0.6391  0.4868 -0.3936
   15TCq1    O4  235   3.731   2.543   1.361  0.0725  0.1117  0.8164
   15TCq1    C9  236   3.540   2.932   1.616  0.2812  0.1810 -0.0782
   15TCq1    O5  237   3.618   2.874   1.694 -0.0584  0.1078  0.5587
   15TCq1    O6  238   3.471   3.036   1.646 -0.5266 -0.2412  0.2273
   15TCq1    H1  239   3.440   3.095   1.228 -1.4726  0.9026  1.2138
   15TCq1    H2  240   3.409   3.036   1.428  1.6947  0.7344  0.2866
   15TCq1    H3  241   3.663   2.717   1.532 -0.1128 -1.6195  0.1138
   15TCq1    H4  242   3.449   2.700   1.157  0.6305 -0.9819  0.2873
   16MPD2     C  243   3.432   2.281   1.184  0.3384  0.1528 -0.0985
   16MPD2    C1  244   3.546   2.352   1.214  0.5617 -0.2355 -0.3497
   16MPD2    C2  245   3.662   2.281   1.218 -0.5441 -0.4862 -0.0834
   16MPD2    C3  246   3.674   2.149   1.178 -0.0857  0.4496  0.3071
   16MPD2    C4  247   3.560   2.078   1.139 -0.0451 -0.4832 -0.0689
   16MPD2    C5  248   3.435   2.145   1.153 -0.3605 -0.1696 -0.4929
   16MPD2     H  249   3.750   2.325   1.264 -0.7586  0.0701 -0.2132
   16MPD2    H1  250   3.560   1.971   1.123  0.0783 -0.1564 -2.1496
   16MPD2    H2  251   3.333   2.324   1.193 -0.1167 -1.1412  1.0419
   16MPD2    H3  252   3.341   2.092   1.138  0.2528 -0.1581 -4.3245
   16MPD2     N  253   3.806   2.091   1.186  0.1246  0.6281  0.8807
   16MPD2    H5  254   3.883   2.149   1.218  0.9692  0.6694 -1.1863
   16MPD2    N1  255   3.535   2.487   1.243  0.5701  0.5492  0.5302
   16MPD2    H7  256   3.447   2.537   1.235  1.4581  2.1270  0.5975
   17TCq1    O1  257   0.414   2.821  10.232 -0.1463  0.2333 -0.5309
   17TCq1    C1  258   0.381   2.940  10.191 -0.6253  0.1019  0.3378
   17TCq1    O2  259   0.280   2.961  10.127 -0.0674  0.3761 -0.2501
   17TCq1    C2  260   0.508   2.992  10.159 -0.1075  0.6335  0.5425
   17TCq1    C3  261   0.503   3.072  10.044  0.3225 -0.4311 -1.0373
   17TCq1    C4  262   0.605   3.164  10.020  0.3060 -0.8155 -0.1875
   17TCq1    C5  263   0.705   3.181  10.110 -0.0155  0.4475  0.1100
   17TCq1    C6  264   0.696   3.110  10.227 -1.3326 -0.0275 -0.6496
   17TCq1    C7  265   0.593   3.013  10.260 -0.6097 -0.3238 -0.3388
   17TCq1    C8  266   0.790   3.137  10.331 -0.0859 -0.2028 -0.2879
   17TCq1    O4  267   0.748   3.102  10.438 -0.6139  0.0916  0.3539
   17TCq1    C9  268   0.597   3.233   9.892 -0.5244 -0.1215 -0.5313
   17TCq1    O5  269   0.698   3.296   9.855 -0.3734 -0.5702 -0.0003
   17TCq1    O6  270   0.496   3.222   9.815 -0.4623 -0.2024 -0.2651
   17TCq1    H1  271   0.509   2.818  10.256 -0.2004 -0.0267 -0.3470
   17TCq1    H2  272   0.423   3.060   9.971  0.1442  1.2134 -1.1135
   17TCq1    H3  273   0.776   3.259  10.084  0.4507 -0.4821 -1.3820
   17TCq1    H4  274   0.566   2.985  10.361  1.0391 -0.0001  0.1990
   18MPD2     C  275   1.020   3.170  10.517 -0.1242  0.4895  0.3527
   18MPD2    C1  276   1.032   3.187  10.379 -0.9864  0.1792 -0.1487
   18MPD2    C2  277   1.155   3.210  10.321 -0.3458 -0.0757  0.0873
   18MPD2    C3  278   1.270   3.218  10.403  0.0083 -0.0610  0.4050
   18MPD2    C4  279   1.250   3.219  10.541  0.1504  0.1306  0.2063
   18MPD2    C5  280   1.131   3.189  10.595  0.3876 -0.6996  1.0261
   18MPD2     H  281   1.164   3.214  10.213  0.2978 -0.4070  0.1258
   18MPD2    H1  282   1.336   3.235  10.606 -0.4227 -0.7569  1.1763
   18MPD2    H2  283   0.929   3.146  10.572  0.9164 -0.5560  1.6079
   18MPD2    H3  284   1.119   3.179  10.702  1.0507  3.5098  1.4873
   18MPD2     N  285   1.402   3.219  10.350  0.5560  0.1264 -1.3095
   18MPD2    H5  286   1.464   3.219  10.430 -0.3972  1.7192 -0.5681
   18MPD2    N1  287   0.921   3.172  10.290  0.5101 -0.1174  0.1250
   18MPD2    H7  288   0.935   3.193  10.191  0.8062 -2.0467 -0.2418
   19TMC2    C1  289   3.301   3.538  13.698 -0.5953  0.4624 -0.0698
   19TMC2    C2  290   3.284   3.629  13.597 -0.6856  0.5129 -0.0429
   19TMC2    C3  291   3.272   3.586  13.468  0.5816  0.2685 -0.4533
   19TMC2    C4  292   3.312   3.404  13.675  0.1947  0.1968 -0.2593
   19TMC2    C5  293   3.311   3.367  13.546  0.8199 -0.2985  0.1107
   19TMC2    C6  294   3.296   3.452  13.441  0.9273 -0.4167 -0.3195
   19TMC2     C  295   3.276   3.583  13.835 -0.5957 -0.3129 -0.6304
   19TMC2     O  296   3.210   3.683  13.850 -0.0183  0.3108  0.4644
   19TMC2     H  297   3.287   3.735  13.621  1.6631  0.7541 -1.3924
   19TMC2    H1  298   3.320   3.333  13.757 -1.2474 -1.5783 -1.6688
   19TMC2    H2  299   3.285   3.424  13.337  0.1024 -0.8231 -0.1198
   19TMC2    C7  300   3.315   3.223  13.524 -0.7420  0.6200  0.2456
   19TMC2    C8  301   3.234   3.678  13.363 -0.8288 -0.4974 -0.1962
   19TMC2    O1  302   3.316   3.143  13.616  0.5723  0.7621 -0.7635
   19TMC2    O2  303   3.252   3.659  13.242  0.6660 -0.9374  0.2567
   19TMC2    O5  304   3.197   3.798  13.414 -0.5483  0.5814  0.1537
   19TMC2    H5  305   3.169   3.789  13.507 -0.9804 -1.3014 -0.1589
   20MPD2     C  306   3.244   3.592  14.129 -0.4744  0.5215 -0.2535
   20MPD2    C1  307   3.342   3.518  14.070  0.1091  0.2818  0.2225
   20MPD2    C2  308   3.437   3.461  14.153  0.3654  0.0632  0.0783
   20MPD2    C3  309   3.435   3.479  14.287 -0.5105  0.4033 -0.1126
   20MPD2    C4  310   3.341   3.555  14.348 -0.1789 -0.8524 -0.0621
   20MPD2    C5  311   3.239   3.606  14.268 -0.1059  0.5332  0.5921
   20MPD2     H  312   3.516   3.399  14.112  1.2143 -0.5733  2.6917
   20MPD2    H1  313   3.352   3.569  14.455  0.9520 -0.4673 -0.2314
   20MPD2    H2  314   3.172   3.647  14.069 -0.0962  1.1460 -0.1305
   20MPD2    H3  315   3.165   3.675  14.307  0.0021  1.3114 -0.5457
   20MPD2     N  316   3.537   3.430  14.368  0.1369 -0.5995  0.4757
   20MPD2    H5  317   3.559   3.476  14.456 -0.0281  0.4942 -0.0611
   20MPD2    N1  318   3.355   3.514  13.927  0.2226 -0.2696 -0.1209
   20MPD2    H7  319   3.422   3.446  13.894  0.8141  0.9450 -1.4131
   21MPD2     C  320   0.651   3.884  14.361  0.6056  0.2124  0.1659
   21MPD2    C1  321   0.738   3.806  14.434  0.2213 -0.9922 -0.7852
   21MPD2    C2  322   0.697   3.768  14.556 -0.1261  0.1175  0.1206
   21MPD2    C3  323   0.580   3.802  14.612  0.3771 -0.5595  0.1549
   21MPD2    C4  324   0.501   3.891  14.542  0.0923 -0.2890  0.1371
   21MPD2    C5  325   0.532   3.932  14.409 -0.2294  0.0093 -0.3385
   21MPD2     H  326   0.770   3.704  14.604  0.9931  0.7094 -0.8058
   21MPD2    H1  327   0.416   3.938  14.589  0.5308  0.1954  0.4463
   21MPD2    H2  328   0.679   3.917  14.261  1.7962  2.2927  1.1966
   21MPD2    H3  329   0.471   3.998  14.349 -0.3457 -1.4395 -1.8124
   21MPD2     N  330   0.530   3.754  14.737  0.6772 -0.6337 -0.8725
   21MPD2    H5  331   0.463   3.808  14.791  0.0941 -0.8963 -1.3354
   21MPD2    N1  332   0.864   3.758  14.371 -0.2126 -0.2591  0.0135
   21MPD2    H7  333   0.934   3.723  14.435  0.1714  0.0507 -0.2415
   22TCq2    C1  334   0.572   3.638  14.805 -0.6186  0.2194  0.0994
   22TCq2    O2  335   0.661   3.562  14.772 -0.4412 -0.1935  0.3471
   22TCq2    C2  336   0.495   3.596  14.918 -0.4940  0.1614 -0.1026
   22TCq2    C3  337   0.551   3.507  15.002 -0.5629 -0.1745 -1.0528
   22TCq2    C4  338   0.459   3.435  15.074  0.5853 -0.1645 -0.2321
   22TCq2    C5  339   0.328   3.456  15.074 -0.1589  0.2806 -0.7765
   22TCq2    C6  340   0.276   3.548  14.985 -0.6347  0.6868 -0.4180
   22TCq2    C7  341   0.360   3.621  14.904  0.0762 -0.1216 -0.1229
   22TCq2    C8  342   0.145   3.518  14.930  0.5066  0.3419  0.7017
   22TCq2    O4  343   0.091   3.410  14.953 -0.1127 -0.9477  0.0804
   22TCq2    C9  344   0.521   3.327  15.153 -0.0643 -0.4773  0.6685
   22TCq2    O5  345   0.632   3.354  15.200  0.1948  0.0474  0.3262
   22TCq2    O6  346   0.447   3.235  15.197  0.3251 -0.4744  0.0599
   22TCq2    H2  347   0.656   3.485  14.987  0.3675  2.6798  1.1069
   22TCq2    H3  348   0.261   3.395  15.133  0.0595  1.6815  0.9205
   22TCq2    H4  349   0.324   3.670  14.814 -0.5767 -0.1892  0.1049
   23MPD2     C  350   2.702   4.669  14.693  0.1333 -0.4010  0.1513
   23MPD2    C1  351   2.655   0.009  14.802  0.1564  0.0066 -0.4326
   23MPD2    C2  352   2.592   0.135  14.787  0.1492  0.4130  0.2676
   23MPD2    C3  353   2.563   0.179  14.656 -0.0663 -0.3867  0.9162
   23MPD2    C4  354   2.626   0.111  14.548  0.1099 -0.3450 -0.6646
   23MPD2    C5  355   2.689   4.717  14.569 -0.5555 -0.3640  0.3921
   23MPD2     H  356   2.565   0.190  14.877  1.8098 -0.6513  1.4260
   23MPD2    H1  357   2.614   0.139  14.444 -2.9936  1.6982  0.2379
   23MPD2    H2  358   2.755   4.575  14.702 -2.3307 -1.7419  0.5532
   23MPD2    H3  359   2.738   4.670  14.484 -0.3946  1.1268 -0.3353
   23MPD2     N  360   2.510   0.305  14.622 -0.5961  0.1986  0.2577
   23MPD2    H5  361   2.508   0.336  14.525 -1.8772 -0.4516  0.0861
   23MPD2    N1  362   2.685   4.695  14.938 -0.1821 -0.1391  0.4681
   23MPD2    H7  363   2.668   0.036  15.014  1.6631  0.8018  0.0699
   24TCq2    C1  364   2.416   0.367  14.697  0.1420 -0.2543  0.6457
   24TCq2    O2  365   2.355   0.323  14.795 -0.4372  0.1965 -0.0230
   24TCq2    C2  366   2.373   0.494  14.652 -0.0378 -0.2188  0.0739
   24TCq2    C3  367   2.450   0.562  14.561  0.2432  0.0588 -0.2188
   24TCq2    C4  368   2.398   0.674  14.500 -0.2276  0.2841  0.5023
   24TCq2    C5  369   2.270   0.722  14.531 -0.3902 -0.5101 -0.3240
   24TCq2    C6  370   2.207   0.653  14.633  0.3831  0.0431  0.1732
   24TCq2    C7  371   2.254   0.543  14.694  1.5999 -0.6125 -0.2718
   24TCq2    C8  372   2.067   0.698  14.640  0.6613  0.1858  0.8327
   24TCq2    O4  373   2.033   0.802  14.584  0.6292  0.0845 -0.2625
   24TCq2    C9  374   2.470   0.743  14.399 -0.7799 -0.4366  0.0557
   24TCq2    O5  375   2.585   0.701  14.388  0.0961  0.4195 -0.0958
   24TCq2    O6  376   2.414   0.839  14.337 -0.1970  0.3052  0.0261
   24TCq2    H2  377   2.550   0.532  14.531 -0.6895 -2.4432 -0.8284
   24TCq2    H3  378   2.233   0.813  14.487 -0.1967 -0.0707  0.4061
   24TCq2    H4  379   2.191   0.480  14.758  1.4629 -2.0328 -1.8082
   25TMC2    C1  380   1.366   2.860  11.363 -0.4759 -0.7216 -0.1041
   25TMC2    C2  381   1.488   2.932  11.365  0.3204  0.4049 -0.0601
   25TMC2    C3  382   1.517   3.014  11.468  0.1984  0.4434  0.0883
   25TMC2    C4  383   1.271   2.894  11.457 -0.3901 -0.5226  0.2847
   25TMC2    C5  384   1.301   2.991  11.549  0.3653 -0.6337  0.4754
   25TMC2    C6  385   1.426   3.049  11.565  0.4262  0.2034  0.1079
   25TMC2     C  386   1.391   2.721  11.350  0.2041  0.1150  0.4792
   25TMC2     O  387   1.511   2.683  11.336  0.2228 -0.4157 -0.0574
   25TMC2     H  388   1.568   2.914  11.294 -0.6336 -0.4006 -0.9320
   25TMC2    H1  389   1.190   2.823  11.475 -0.6377 -0.4937 -0.6884
   25TMC2    H2  390   1.445   3.123  11.641  0.3722  0.6452 -0.3043
   25TMC2    C7  391   1.232   2.979  11.675  0.0764  0.0253 -0.6812
   25TMC2    C8  392   1.639   3.094  11.457 -0.5550 -0.0283  0.2447
   25TMC2    O1  393   1.292   2.995  11.782 -1.3814 -0.4285 -0.4190
   25TMC2    O2  394   1.709   3.130  11.554  0.3768 -0.4458 -0.3713
   25TMC2    O5  395   1.627   3.151  11.340 -0.0476 -0.1158  0.1445
   25TMC2    H5  396   1.553   3.127  11.280 -1.8667  1.7633  1.6408
   26MPD2     C  397   1.238   2.243  11.340  0.2451  0.3713 -0.5711
   26MPD2    C1  398   1.124   2.316  11.305 -0.1875  0.3230  0.1200
   26MPD2    C2  399   1.144   2.453  11.303 -0.3159  0.2715 -0.0999
   26MPD2    C3  400   1.261   2.512  11.344  0.6791  0.0599 -0.7343
   26MPD2    C4  401   1.367   2.435  11.383  0.2253 -0.3779  0.1428
   26MPD2    C5  402   1.355   2.297  11.384 -0.5582  0.3253 -0.2256
   26MPD2     H  403   1.079   2.523  11.252 -0.4853  0.7897  0.8223
   26MPD2    H1  404   1.463   2.475  11.415  0.3318 -0.8117  0.3620
   26MPD2    H2  405   1.246   2.135  11.332 -2.1074  0.1893 -0.4765
   26MPD2    H3  406   1.443   2.238  11.405 -0.1779 -0.3827 -3.7508
   26MPD2     N  407   1.275   2.651  11.335 -0.2532 -0.2685  0.1027
   26MPD2    H5  408   1.194   2.710  11.322  0.3244  0.3712 -0.6588
   26MPD2    N1  409   1.007   2.258  11.250  0.2032 -0.6154 -0.6124
   26MPD2    H7  410   1.007   2.157  11.252  0.4109 -0.6054 -0.1386
   27TMC2    C1  411   0.385   4.488  12.118  0.9078  0.2866 -0.2740
   27TMC2    C2  412   0.308   4.584  12.063  0.0240  0.0484  0.0354
   27TMC2    C3  413   0.372   4.701  12.024 -0.1240  0.0925  0.3990
   27TMC2    C4  414   0.516   4.510  12.152 -0.4776 -0.4297  0.4854
   27TMC2    C5  415   0.553   4.645  12.149 -0.1883 -0.2843  0.0106
   27TMC2    C6  416   0.498   0.011  12.062  0.1347  0.3267 -0.4092
   27TMC2     C  417   0.318   4.390  12.200  0.7022 -0.3812 -0.2599
   27TMC2     O  418   0.373   4.296  12.253 -0.2340  0.0609 -0.5841
   27TMC2     H  419   0.201   4.574  12.047 -0.4237  1.6765  1.9720
   27TMC2    H1  420   0.568   4.454  12.229  0.2632 -2.2692 -1.3465
   27TMC2    H2  421   0.554   0.099  12.032 -1.4839  1.1185 -1.0908
   27TMC2    C7  422   0.551   4.696  12.286  0.3554  0.0358  0.2819
   27TMC2    C8  423   0.298   0.076  11.942  0.5311  0.0342 -0.7840
   27TMC2    O1  424   0.548   4.619  12.380 -0.3643 -0.5020  0.2603
   27TMC2    O2  425   0.361   0.136  11.854 -0.0068  0.6272 -0.0048
   27TMC2    O5  426   0.205   0.127  12.021  0.3080  0.1567  0.7505
   27TMC2    H5  427   0.203   0.069  12.100  0.6664 -0.9661 -0.0547
   28MPD2     C  428   4.653   4.238  12.497  0.0789 -0.7850  0.1147
   28MPD2    C1  429   4.638   4.377  12.475 -0.4600 -0.3689 -0.5879
   28MPD2    C2  430   0.010   4.447  12.398  0.3772  0.4071  0.5582
   28MPD2    C3  431   0.105   4.372  12.326  0.0546  0.3180 -0.0026
   28MPD2    C4  432   0.110   4.236  12.347  0.2109  0.2458  0.0860
   28MPD2    C5  433   0.023   4.169  12.431  0.4217  0.2021  0.1528
   28MPD2     H  434   0.016   4.556  12.395  0.6206  0.3765  0.0337
   28MPD2    H1  435   0.180   4.179  12.287 -0.8754  0.6562 -1.5926
   28MPD2    H2  436   4.589   4.186  12.568 -0.7680  0.4277  0.2210
   28MPD2    H3  437   0.028   4.061  12.435  0.2266  0.2104  0.6328
   28MPD2     N  438   0.194   4.435  12.239  0.3909  0.0626  0.1889
   28MPD2    H5  439   0.177   4.534  12.219 -4.4917 -0.6963  0.6315
   28MPD2    N1  440   4.520   4.425  12.533  0.0661  0.1911 -0.4297
   28MPD2    H7  441   4.469   4.355  12.586 -0.7923  1.1022 -0.0674
   29MPD2     C  442   4.302   1.592  14.165 -0.2428 -0.4135  0.0398
   29MPD2    C1  443   4.435   1.581  14.213  0.0793  0.1270  0.1732
   29MPD2    C2  444   4.501   1.695  14.263 -0.5462 -0.4771  0.8464
   29MPD2    C3  445   4.438   1.817  14.263 -0.7281 -0.5993 -0.5095
   29MPD2    C4  446   4.311   1.824  14.212 -0.7260 -0.1080  0.0174
   29MPD2    C5  447   4.251   1.714  14.158 -0.5633 -0.0358  0.2088
   29MPD2     H  448   4.603   1.689  14.300 -0.3040  1.9513  0.6171
   29MPD2    H1  449   4.263   1.922  14.207 -0.9470 -0.1630  0.9861
   29MPD2    H2  450   4.248   1.508  14.122  1.2591 -1.0642 -0.5828
   29MPD2    H3  451   4.153   1.729  14.115 -0.0722 -2.6519 -1.8258
   29MPD2     N  452   4.485   1.938  14.308  0.4608 -0.2202 -0.2963
   29MPD2    H5  453   4.423   2.019  14.305  1.2305  0.3784 -0.0570
   29MPD2    N1  454   4.508   1.464  14.201  0.6990  0.4064 -0.1542
   29MPD2    H7  455   4.603   1.467  14.237  0.4405  2.0200  0.3764
   30TCq2    C1  456   4.589   1.940  14.399 -0.0578 -0.0074 -0.9143
   30TCq2    O2  457   4.635   1.848  14.461  0.2516  0.4771 -0.3073
   30TCq2    C2  458   4.615   2.065  14.457 -0.2345 -0.9318 -0.3858
   30TCq2    C3  459   4.624   2.077  14.590 -0.3172  0.1691 -0.4755
   30TCq2    C4  460   4.621   2.197  14.650 -0.0189  0.2378  0.7263
   30TCq2    C5  461   4.610   2.312  14.575 -0.7036 -0.4914  0.9586
   30TCq2    C6  462   4.593   2.296  14.441 -0.2467 -0.4746 -0.5406
   30TCq2    C7  463   4.581   2.173  14.384 -0.3968  0.5273  0.4115
   30TCq2    C8  464   4.572   2.408  14.355 -0.3699  0.5386 -0.3605
   30TCq2    O4  465   4.506   2.404  14.251  0.7220  0.0513  1.0035
   30TCq2    C9  466   4.649   2.211  14.791 -0.2846  0.3589 -0.3892
   30TCq2    O5  467   4.670   2.104  14.851 -0.5328  0.4727 -0.0479
   30TCq2    O6  468   4.657   2.327  14.839  0.3531  0.0326 -0.0189
   30TCq2    H2  469   4.660   1.994  14.650 -0.0742  1.0653  0.6149
   30TCq2    H3  470   4.587   2.406  14.624 -0.2815  0.3070 -0.3884
   30TCq2    H4  471   4.571   2.168  14.276 -0.7419  2.4126  0.3501
   31MPD2     C  472   2.650   1.594  14.544 -0.0912 -0.3657  0.0760
   31MPD2    C1  473   2.544   1.541  14.480 -0.5358 -0.0770 -0.3908
   31MPD2    C2  474   2.479   1.428  14.533 -0.4974 -0.0887 -0.1831
   31MPD2    C3  475   2.528   1.365  14.652 -1.2433  0.1149 -0.6188
   31MPD2    C4  476   2.639   1.423  14.711 -0.2130 -0.1656 -0.2082
   31MPD2    C5  477   2.700   1.538  14.661 -0.3085 -0.3803  0.0867
   31MPD2     H  478   2.391   1.385  14.485 -0.2675 -2.3127  1.3970
   31MPD2    H1  479   2.680   1.376  14.800  1.5093  2.4034  0.3635
   31MPD2    H2  480   2.696   1.684  14.505 -0.4359 -0.2528 -0.0705
   31MPD2    H3  481   2.778   1.585  14.720  0.9341 -1.8281 -0.4202
   31MPD2     N  482   2.461   1.254  14.717  0.1288 -0.4993  0.2975
   31MPD2    H5  483   2.506   1.205  14.793 -0.1521  0.3633  1.0298
   31MPD2    N1  484   2.502   1.605  14.362 -0.9752 -0.3461 -0.5542
   31MPD2    H7  485   2.549   1.690  14.333 -0.6655 -0.6708 -1.0075
   32TCq2    C1  486   2.328   1.217  14.694 -0.0245  0.2039 -0.1018
   32TCq2    O2  487   2.237   1.275  14.632 -0.0182 -0.2810 -0.2339
   32TCq2    C2  488   2.291   1.098  14.763  0.1936 -0.4457  0.3904
   32TCq2    C3  489   2.175   1.094  14.828  0.6028  0.0340 -0.1911
   32TCq2    C4  490   2.142   0.979  14.894 -0.2368  0.2963  0.5250
   32TCq2    C5  491   2.233   0.886  14.916 -0.3001  0.4765 -0.1433
   32TCq2    C6  492   2.358   0.902  14.865 -1.0217  0.4243 -0.6220
   32TCq2    C7  493   2.389   1.008  14.785  0.3793  0.2479 -0.2048
   32TCq2    C8  494   2.474   0.810  14.889  0.3543  0.4046  0.1919
   32TCq2    O4  495   2.569   0.822  14.820  0.0331 -0.1439 -0.7105
   32TCq2    C9  496   2.017   0.955  14.970  0.0983 -0.2060 -0.9963
   32TCq2    O5  497   1.943   1.052  14.983 -0.3316 -0.6154  0.1387
   32TCq2    O6  498   2.017   0.853  15.047 -0.1272  0.0935 -0.7635
   32TCq2    H2  499   2.104   1.175  14.817 -1.6627 -2.3013 -3.0805
   32TCq2    H3  500   2.214   0.808  14.988  2.8339 -0.5204 -0.4066
   32TCq2    H4  501   2.486   1.014  14.738  1.5862  0.0253  2.2502
   33MPD2     C  502   1.655   2.906   9.636  1.1257  0.4483  0.2046
   33MPD2    C1  503   1.721   3.007   9.699  0.2083  0.2640 -0.0995
   33MPD2    C2  504   1.790   3.104   9.621  0.5948 -0.4590  0.9393
   33MPD2    C3  505   1.802   3.095   9.484 -0.3450  0.0121  0.6946
   33MPD2    C4  506   1.743   2.984   9.425  0.8676  0.4030  0.0632
   33MPD2    C5  507   1.679   2.883   9.501 -0.2436 -0.4254 -0.1661
   33MPD2     H  508   1.844   3.186   9.667  1.6706 -0.1854 -0.7886
   33MPD2    H1  509   1.739   2.965   9.318 -2.2845 -1.6435  0.5487
   33MPD2    H2  510   1.602   2.827   9.689 -1.9433  2.3555 -0.0421
   33MPD2    H3  511   1.650   2.788   9.458  1.4361 -0.1629 -1.8942
   33MPD2     N  512   1.862   3.193   9.399 -0.5182 -0.4571  0.1970
   33MPD2    H5  513   1.875   3.156   9.305  3.9439 -0.7900  0.9740
   33MPD2    N1  514   1.718   3.009   9.841  0.5811 -0.0738 -0.0230
   33MPD2    H7  515   1.651   2.946   9.884 -0.4649  0.9854 -0.1118
   34TCq2    C1  516   1.878   3.325   9.430  0.5111 -0.0506  0.2307
   34TCq2    O2  517   1.829   3.385   9.523  0.3282  0.0496 -0.5397
   34TCq2    C2  518   1.972   3.395   9.345 -0.0193  0.1824 -0.2853
   34TCq2    C3  519   2.056   3.314   9.269  0.1091  0.4245  0.0779
   34TCq2    C4  520   2.179   3.371   9.237 -0.3762 -0.0294  0.3006
   34TCq2    C5  521   2.197   3.500   9.255  0.2598  0.0120 -0.1863
   34TCq2    C6  522   2.102   3.581   9.318 -0.2694 -0.1753  0.2117
   34TCq2    C7  523   1.993   3.524   9.377  0.1920  0.6289  0.3387
   34TCq2    C8  524   2.111   3.727   9.325 -1.0091 -0.3384 -0.3501
   34TCq2    O4  525   2.050   3.786   9.412  0.1412  0.2522  0.0149
   34TCq2    C9  526   2.277   3.292   9.164  0.9577  0.3822  0.1037
   34TCq2    O5  527   2.234   3.178   9.133  0.1980  0.1292  0.2687
   34TCq2    O6  528   2.393   3.326   9.138 -0.5215 -0.0713  0.3954
   34TCq2    H2  529   2.049   3.206   9.264  1.2759  0.3300  0.4704
   34TCq2    H3  530   2.295   3.537   9.224  0.8416 -0.7312  0.7655
   34TCq2    H4  531   1.926   3.586   9.436 -1.5767  2.7258 -3.8333
   35MPD2     C  532   4.114   0.805  11.552  0.3028 -0.3551  0.1243
   35MPD2    C1  533   4.102   0.675  11.608 -0.2833 -0.2663  0.2537
   35MPD2    C2  534   4.033   0.589  11.524 -0.9089  0.5564  0.3935
   35MPD2    C3  535   3.973   0.626  11.405  0.3096 -0.5342  0.1657
   35MPD2    C4  536   3.981   0.760  11.367 -0.6829  0.0840  0.1736
   35MPD2    C5  537   4.049   0.851  11.440 -0.4605 -0.3491 -0.5335
   35MPD2     H  538   4.039   0.482  11.534 -1.5544  0.0967 -3.8220
   35MPD2    H1  539   3.939   0.800  11.275  1.1462 -0.1495 -0.7640
   35MPD2    H2  540   4.167   0.877  11.613 -1.5052  2.1792 -1.2787
   35MPD2    H3  541   4.073   0.947  11.396 -1.1130  1.0565  2.1863
   35MPD2     N  542   3.892   0.529  11.342 -0.7188  0.1172 -0.5900
   35MPD2    H5  543   3.875   0.442  11.392  0.1918  0.1105 -0.2848
   35MPD2    N1  544   4.164   0.653  11.730  0.0208  0.5694 -0.0240
   35MPD2    H7  545   4.202   0.735  11.775 -1.1006  0.3731  1.2669
   36TCq2    C1  546   3.812   0.555  11.232  0.0696  0.2121  0.0859
   36TCq2    O2  547   3.772   0.670  11.202 -0.2090  0.0413 -0.1714
   36TCq2    C2  548   3.726   0.444  11.189  0.3800 -0.6957  0.2396
   36TCq2    C3  549   3.636   0.460  11.085 -0.4776 -0.8068  0.6636
   36TCq2    C4  550   3.549   0.360  11.046  0.2484  0.0686 -0.7507
   36TCq2    C5  551   3.558   0.242  11.114 -0.5976 -0.1822  0.3547
   36TCq2    C6  552   3.643   0.232  11.223  0.0771  0.1176 -0.5582
   36TCq2    C7  553   3.731   0.332  11.259  0.1581  0.0637 -0.0712
   36TCq2    C8  554   3.683   0.102  11.258  0.9622  0.5565  0.6284
   36TCq2    O4  555   3.804   0.077  11.262  0.1995 -0.7497 -0.3629
   36TCq2    C9  556   3.465   0.379  10.935 -0.0021 -0.1954  1.3054
   36TCq2    O5  557   3.473   0.495  10.879 -0.4760  0.2650  0.1999
   36TCq2    O6  558   3.397   0.278  10.888 -0.6239 -0.2411  0.0499
   36TCq2    H2  559   3.638   0.550  11.025 -1.2567  0.0333  1.8899
   36TCq2    H3  560   3.486   0.166  11.088 -2.1817  1.5705 -0.4073
   36TCq2    H4  561   3.799   0.307  11.339  0.3102 -0.6747 -0.4285
   37TMC2    C1  562   0.993   4.572  11.374 -0.3963  0.0498 -0.1253
   37TMC2    C2  563   0.978   4.456  11.307  0.7338 -0.2269  0.4487
   37TMC2    C3  564   1.089   4.420  11.235 -0.3714 -0.1890 -0.2873
   37TMC2    C4  565   1.108   4.639  11.399  0.2767  0.1073  0.5910
   37TMC2    C5  566   1.216   4.598  11.325 -0.4134 -0.0064 -0.7180
   37TMC2    C6  567   1.209   4.487  11.247  0.1656 -0.0936 -0.3051
   37TMC2     C  568   0.885   4.633  11.450 -0.2107 -0.2388 -0.6380
   37TMC2     O  569   0.764   4.637  11.418 -0.0700  0.1863  0.4192
   37TMC2     H  570   0.879   4.416  11.290  0.7580  0.5743 -1.6209
   37TMC2    H1  571   1.123   0.003  11.460  3.5425 -0.8892  1.2116
   37TMC2    H2  572   1.299   4.445  11.203  1.0800  2.0626 -0.4888
   37TMC2    C7  573   1.354   4.623  11.377 -0.2890 -0.8100  0.2269
   37TMC2    C8  574   1.088   4.283  11.189  0.5461  0.4043  0.6044
   37TMC2    O1  575   1.353   4.663  11.494  0.4061  0.4663  0.0896
   37TMC2    O2  576   1.100   4.189  11.267 -0.7451  0.4947  0.1160
   37TMC2    O5  577   1.008   4.292  11.079 -0.3164 -0.2651  0.6225
   37TMC2    H5  578   1.003   4.383  11.045  0.7121  0.0704  1.3548
   38MPD2     C  579   0.767   0.165  11.878 -0.1101  0.1924  0.5587
   38MPD2    C1  580   0.867   0.079  11.909  0.4476 -0.5206 -0.4058
   38MPD2    C2  581   0.920   0.007  11.800  0.6399  0.1223  0.5427
   38MPD2    C3  582   0.864   0.013  11.674  0.2457  0.0920 -0.3393
   38MPD2    C4  583   0.772   0.108  11.648  0.6962  0.5096 -0.7495
   38MPD2    C5  584   0.718   0.177  11.754 -0.2698 -0.2758  0.5430
   38MPD2     H  585   1.006   4.668  11.817 -1.7711 -3.6135 -1.0571
   38MPD2    H1  586   0.724   0.126  11.552  1.7582  0.5783 -1.2691
   38MPD2    H2  587   0.723   0.228  11.954 -1.5156 -1.3192  0.9923
   38MPD2    H3  588   0.636   0.241  11.723 -1.2045 -1.0580  1.3604
   38MPD2     N  589   0.928   4.660  11.577 -0.1633 -0.4222  0.4028
   38MPD2    H5  590   1.014   4.615  11.608  0.0300  0.1699  0.7143
   38MPD2    N1  591   0.924   0.068  12.040 -0.6316  0.1949 -0.2579
   38MPD2    H7  592   1.011   0.017  12.052  0.2475  1.3244 -1.8695
   39MPD2     C  593   4.649   1.544   1.330  0.1531 -0.5178  0.5213
   39MPD2    C1  594   4.569   1.557   1.443  0.6355 -0.6227 -0.0280
   39MPD2    C2  595   4.428   1.558   1.429 -0.4890  0.3686  0.5887
   39MPD2    C3  596   4.364   1.554   1.298 -0.5311 -0.8433  0.4084
   39MPD2    C4  597   4.451   1.554   1.189  0.0688 -0.3825  0.0137
   39MPD2    C5  598   4.587   1.529   1.209  1.2815 -0.3133  0.3972
   39MPD2     H  599   4.364   1.561   1.517 -0.7995 -2.0885  0.4677
   39MPD2    H1  600   4.423   1.559   1.084  1.1593 -0.8741 -0.2930
   39MPD2    H2  601   0.033   1.534   1.333  0.2559  0.8671  1.4056
   39MPD2    H3  602   4.651   1.509   1.124 -1.3227  1.5785 -1.9782
   39MPD2     N  603   4.228   1.568   1.282 -0.3195 -0.2444  0.3657
   39MPD2    H5  604   4.194   1.565   1.186 -1.2493  1.6117  0.6414
   39MPD2    N1  605   4.636   1.566   1.566  0.0505  0.4577  0.2169
   39MPD2    H7  606   0.013   1.555   1.560 -0.1346 -1.5466  1.2006
   40TCq2    C1  607   4.580   1.573   1.693  0.7455 -0.5087 -0.2719
   40TCq2    O2  608   4.459   1.569   1.722 -0.5092  0.2905 -0.8015
   40TCq2    C2  609   4.680   1.559   1.802  0.2234 -0.2498  0.3843
   40TCq2    C3  610   4.632   1.521   1.921 -0.2581  0.3132 -0.7243
   40TCq2    C4  611   0.000   1.481   2.017  0.8443 -0.0140  0.4190
   40TCq2    C5  612   0.133   1.488   1.990 -0.1557 -0.4151  1.0287
   40TCq2    C6  613   0.179   1.532   1.870  0.4847 -0.1597 -0.2744
   40TCq2    C7  614   0.088   1.567   1.772 -0.0572 -0.1999 -0.1289
   40TCq2    C8  615   0.315   1.507   1.839  0.5612 -0.0000 -0.4149
   40TCq2    O4  616   0.352   1.398   1.886 -0.2913 -0.4235  0.0505
   40TCq2    C9  617   4.674   1.439   2.139  0.0423 -0.2514  0.0304
   40TCq2    O5  618   0.031   1.417   2.235  0.7455 -0.0169 -0.5578
   40TCq2    O6  619   4.550   1.441   2.151 -0.1246 -0.0001 -1.2522
   40TCq2    H2  620   4.525   1.520   1.937 -0.3375 -1.9586 -1.3906
   40TCq2    H3  621   0.208   1.447   2.055  0.7468  0.9230  0.8306
   40TCq2    H4  622   0.126   1.598   1.676  0.2379 -0.8634 -0.2235
   41TMC2    C1  623   2.969   0.501  13.629  0.4584 -0.2329 -0.4002
   41TMC2    C2  624   2.858   0.514  13.709 -0.3534 -0.0721  0.1467
   41TMC2    C3  625   2.756   0.584  13.657  0.3927 -0.7177 -0.2235
   41TMC2    C4  626   2.968   0.562  13.504  0.3789 -0.1387 -0.4611
   41TMC2    C5  627   2.862   0.642  13.461  0.3225 -0.4570  0.0850
   41TMC2    C6  628   2.751   0.650  13.541 -0.1284  0.2571  0.6306
   41TMC2     C  629   3.078   0.416  13.673 -0.3328 -0.2431 -0.1910
   41TMC2     O  630   3.168   0.408  13.590 -0.0439 -0.5176 -0.3027
   41TMC2     H  631   2.843   0.456  13.800 -0.4058 -0.0026  0.1824
   41TMC2    H1  632   3.063   0.549  13.453 -0.0108 -0.9904 -0.9619
   41TMC2    H2  633   2.664   0.701  13.500  0.1717 -1.4400 -2.1159
   41TMC2    C7  634   2.857   0.699  13.331 -0.0222 -0.0549  1.0367
   41TMC2    C8  635   2.634   0.602  13.744  0.3935  0.6307 -0.1123
   41TMC2    O1  636   2.755   0.760  13.294  0.0033 -0.1833  0.4742
   41TMC2    O2  637   2.571   0.706  13.729 -0.1563 -0.1321  0.4610
   41TMC2    O5  638   2.613   0.522  13.845  0.1013 -0.0183  0.3918
   41TMC2    H5  639   2.655   0.436  13.823  0.6210  0.2089  0.5125
   42MPD2     C  640   3.221   0.172  13.741 -0.3417  0.7482 -0.1647
   42MPD2    C1  641   3.140   0.239  13.829  0.4300  0.8084  0.3734
   42MPD2    C2  642   3.115   0.183  13.954  0.7698  0.4502 -0.0772
   42MPD2    C3  643   3.160   0.060  13.993 -0.1018 -0.5809 -0.8279
   42MPD2    C4  644   3.228   4.710  13.902  0.0066  0.3103  0.5298
   42MPD2    C5  645   3.248   0.046  13.780  0.3159 -0.4503 -0.3383
   42MPD2     H  646   3.057   0.245  14.021 -0.5066 -2.0427  1.0790
   42MPD2    H1  647   3.255   4.607  13.919 -0.8515  0.0347  0.2073
   42MPD2    H2  648   3.249   0.204  13.642  0.7456  1.5227  0.3906
   42MPD2    H3  649   3.291   4.702  13.707  0.6462  2.1273 -2.5440
   42MPD2     N  650   3.146   0.003  14.117 -0.4526  0.5201 -0.1454
   42MPD2    H5  651   3.210   4.656  14.149  0.0507 -0.9274 -4.3723
   42MPD2    N1  652   3.059   0.345  13.791 -0.3085  0.3080 -0.3974
   42MPD2    H7  653   2.978   0.363  13.849  0.2874  2.0352 -0.0778
   43MPD2     C  654   4.626   2.493   0.825  0.5214 -0.3073 -0.5416
   43MPD2    C1  655   0.020   2.562   0.790 -0.2405  0.1377 -0.0882
   43MPD2    C2  656   0.049   2.685   0.845 -0.0415  0.0330  0.4111
   43MPD2    C3  657   4.676   2.744   0.933 -0.4377  0.3272  0.0711
   43MPD2    C4  658   4.556   2.673   0.956 -0.0469 -0.2308  0.4113
   43MPD2    C5  659   4.532   2.549   0.907  0.0262  0.2213  0.8633
   43MPD2     H  660   0.140   2.739   0.819  0.5873 -1.1216  0.2084
   43MPD2    H1  661   4.477   2.719   1.015 -0.5639  0.5890 -0.9090
   43MPD2    H2  662   4.593   2.404   0.772  0.7289  0.9807 -2.8292
   43MPD2    H3  663   4.438   2.500   0.929  0.4408 -0.3586  1.3628
   43MPD2     N  664   4.687   2.864   1.003  0.5124 -0.1996  0.1844
   43MPD2    H5  665   4.605   2.899   1.051  0.0749  0.0068 -0.7135
   43MPD2    N1  666   0.113   2.520   0.688  0.1924  0.3292 -0.7084
   43MPD2    H7  667   0.186   2.586   0.664  1.6974 -0.2046  2.3649
   44TCq2    C1  668   0.226   3.241   1.351  0.1524 -0.2457 -0.0357
   44TCq2    O2  669   0.338   3.218   1.309  0.0447 -0.0346 -0.2089
   44TCq2    C2  670   0.112   3.183   1.282 -0.0383  0.3011 -0.6566
   44TCq2    C3  671   0.000   3.263   1.265  0.5014 -0.2143  0.3818
   44TCq2    C4  672   4.651   3.242   1.148  0.3065 -0.7606 -0.4307
   44TCq2    C5  673   4.664   3.129   1.075 -0.2952 -0.0709  0.7338
   44TCq2    C6  674   0.051   3.047   1.102 -0.3244 -0.2603 -0.7111
   44TCq2    C7  675   0.136   3.071   1.207  0.0824  0.0770  0.8925
   44TCq2    C8  676   0.080   2.927   1.028  0.2911  0.0262 -0.1537
   44TCq2    O4  677   0.195   2.883   1.021 -0.5396  0.5693 -0.1842
   44TCq2    C9  678   4.553   3.338   1.104  0.5569  0.1643 -0.1551
   44TCq2    O5  679   4.554   3.449   1.167  0.5044  0.4998  0.2404
   44TCq2    O6  680   4.523   3.325   0.981  0.2444 -0.5968  0.0012
   44TCq2    H2  681   4.714   3.354   1.324  1.1198  0.1082 -0.0072
   44TCq2    H3  682   4.615   3.122   0.979  0.5299 -0.2579  0.3270
   44TCq2    H4  683   0.221   3.007   1.227  0.5792  0.4149 -0.1393
   45TMC2    C1  684   0.947   0.480   9.529 -1.2199 -0.0544 -0.2037
   45TMC2    C2  685   1.060   0.402   9.550 -0.3311 -0.2196  0.1808
   45TMC2    C3  686   1.148   0.443   9.643  0.4070 -0.6037  0.3883
   45TMC2    C4  687   0.928   0.603   9.586  0.0018  0.0353  0.0644
   45TMC2    C5  688   1.020   0.638   9.679  0.1248  0.2587 -0.4304
   45TMC2    C6  689   1.136   0.565   9.711 -0.4271  0.2307  1.0051
   45TMC2     C  690   0.847   0.449   9.431 -0.3098 -0.7657 -0.8067
   45TMC2     O  691   0.782   0.538   9.382  0.2121 -0.3006  0.1569
   45TMC2     H  692   1.086   0.324   9.480 -0.2612 -0.3393  0.3421
   45TMC2    H1  693   0.838   0.656   9.557  0.4916  0.0220 -1.4785
   45TMC2    H2  694   1.202   0.600   9.789  0.3815 -2.6051  1.5948
   45TMC2    C7  695   1.010   0.769   9.722 -0.1872  0.0621  0.2173
   45TMC2    C8  696   1.250   0.349   9.689 -0.1757  0.0687  0.0681
   45TMC2    O1  697   1.062   0.804   9.823 -0.0219  0.7462  0.3355
   45TMC2    O2  698   1.336   0.380   9.769  0.0141  0.7460  0.4864
   45TMC2    O5  699   1.206   0.227   9.653 -0.1228 -0.4499 -0.7646
   45TMC2    H5  700   1.114   0.211   9.621 -0.1749  1.2584 -1.4850
   46MPD2     C  701   0.708   0.123   9.351  0.0384 -0.3865  0.5599
   46MPD2    C1  702   0.717   0.259   9.352 -0.3945 -0.5992 -0.0166
   46MPD2    C2  703   0.618   0.329   9.288  0.3055 -0.0666 -0.3328
   46MPD2    C3  704   0.516   0.272   9.225  0.4050 -0.1248  0.2582
   46MPD2    C4  705   0.511   0.134   9.217  0.2430 -0.0741 -0.2202
   46MPD2    C5  706   0.607   0.064   9.280 -0.0882  0.0229  0.1161
   46MPD2     H  707   0.616   0.438   9.291 -0.9394 -0.0675 -1.0219
   46MPD2    H1  708   0.437   0.085   9.154  0.1408  0.3242 -0.4149
   46MPD2    H2  709   0.785   0.058   9.392  0.7643  0.6546  0.8424
   46MPD2    H3  710   0.592   4.682   9.297  0.5299 -0.0716  0.0692
   46MPD2     N  711   0.423   0.362   9.170  0.3959  0.0433 -0.4359
   46MPD2    H5  712   0.444   0.459   9.191 -0.9858  0.4209 -0.8385
   46MPD2    N1  713   0.830   0.315   9.419 -0.2480  0.3242  0.7092
   46MPD2    H7  714   0.890   0.254   9.473  0.6351 -0.4517 -1.1490
   47TMC2    C1  715   3.305   1.022   9.161  0.2652 -1.1638 -0.2615
   47TMC2    C2  716   3.340   1.056   9.032 -0.2982 -0.3255  0.5191
   47TMC2    C3  717   3.259   1.145   8.967 -0.1326 -0.4765 -0.0649
   47TMC2    C4  718   3.192   1.086   9.217 -0.6659 -0.4196  0.6053
   47TMC2    C5  719   3.116   1.170   9.135 -0.2685 -0.4304  0.9326
   47TMC2    C6  720   3.143   1.197   9.008 -0.4902 -0.1277  0.4836
   47TMC2     C  721   3.389   0.944   9.256 -0.0418 -0.8637 -0.5601
   47TMC2     O  722   3.507   0.947   9.233 -0.9547  0.2784  0.2572
   47TMC2     H  723   3.441   1.029   9.005  0.3389  1.7428  0.8574
   47TMC2    H1  724   3.172   1.080   9.324 -0.3821 -1.5730  0.5908
   47TMC2    H2  725   3.083   1.263   8.946  0.4152 -1.8968 -2.2380
   47TMC2    C7  726   2.987   1.215   9.178  0.2587  0.4277  0.5054
   47TMC2    C8  727   3.290   1.174   8.828  0.4261 -0.0190  0.2430
   47TMC2    O1  728   2.938   1.312   9.118 -0.5078  0.5495  0.3290
   47TMC2    O2  729   3.245   1.275   8.772 -0.2081  0.4093  0.4604
   47TMC2    O5  730   3.346   1.070   8.765  0.5393 -0.8565 -0.7794
   47TMC2    H5  731   3.352   0.991   8.823 -2.9667 -1.8138 -1.7316
   48MPD2     C  732   3.496   0.784   9.472 -0.6610 -0.0062 -0.9985
   48MPD2    C1  733   3.361   0.811   9.460 -0.2307  0.4930  0.4924
   48MPD2    C2  734   3.271   0.745   9.538 -0.5709  0.9490  0.2635
   48MPD2    C3  735   3.312   0.657   9.641 -0.0208 -0.0169 -0.5372
   48MPD2    C4  736   3.449   0.632   9.653  0.0906  0.1340 -0.4068
   48MPD2    C5  737   3.539   0.696   9.570  0.5368  0.2169 -0.6558
   48MPD2     H  738   3.164   0.751   9.523 -0.6446  1.5932  1.0801
   48MPD2    H1  739   3.492   0.552   9.712  0.7528 -0.4633 -1.6973
   48MPD2    H2  740   3.576   0.833   9.417  0.0213  1.8303  1.6434
   48MPD2    H3  741   3.646   0.679   9.583  0.2545 -0.4935  0.7098
   48MPD2     N  742   3.213   0.579   9.706  0.2987  0.7943 -0.0431
   48MPD2    H5  743   3.123   0.574   9.658  0.5457 -2.1643 -0.1569
   48MPD2    N1  744   3.316   0.887   9.352  0.2202  0.4780  0.6812
   48MPD2    H7  745   3.216   0.882   9.339  0.2884 -1.0638  0.7366
   49MPD2     C  746   1.596   2.816  10.193  0.1152 -0.8817 -0.1590
   49MPD2    C1  747   1.457   2.792  10.210 -0.3467 -0.2522 -0.1639
   49MPD2    C2  748   1.404   2.813  10.334  0.0566 -0.0815 -0.0503
   49MPD2    C3  749   1.485   2.866  10.434 -0.0031 -0.8180  0.0957
   49MPD2    C4  750   1.622   2.896  10.417 -0.7567 -0.0140 -0.3683
   49MPD2    C5  751   1.678   2.850  10.298 -0.5802  0.4621  0.4009
   49MPD2     H  752   1.308   2.765  10.348  0.0040 -0.7789 -2.9610
   49MPD2    H1  753   1.688   2.921  10.499 -1.4304  0.4443  0.0417
   49MPD2    H2  754   1.637   2.775  10.101  1.5572  1.4734 -0.5534
   49MPD2    H3  755   1.783   2.873  10.288 -0.7212  1.6138  1.4973
   49MPD2     N  756   1.429   2.892  10.564  0.1053 -0.2181 -0.1136
   49MPD2    H5  757   1.487   2.934  10.636  0.3262  0.4005 -0.6565
   49MPD2    N1  758   1.381   2.735  10.106 -0.3746  0.2844  0.0603
   49MPD2    H7  759   1.298   2.689  10.140 -0.4166 -1.2855 -2.1407
   50TCq2    C1  760   1.413   2.738   9.974  0.3354 -0.4756  0.7408
   50TCq2    O2  761   1.506   2.795   9.920 -0.0282 -0.3185 -0.1409
   50TCq2    C2  762   1.324   2.653   9.888  0.1552 -0.1105  0.7949
   50TCq2    C3  763   1.356   2.635   9.755  0.5346  1.0039 -0.0982
   50TCq2    C4  764   1.273   2.565   9.667 -0.0094 -0.5282  0.1010
   50TCq2    C5  765   1.160   2.509   9.718 -0.1264  0.6635 -0.5447
   50TCq2    C6  766   1.123   2.534   9.848 -0.3868  0.2527  0.6792
   50TCq2    C7  767   1.206   2.609   9.933 -0.3455  0.1388  0.2477
   50TCq2    C8  768   1.003   2.462   9.905 -0.6707 -0.8216 -0.3078
   50TCq2    O4  769   0.908   2.464   9.828  0.2025 -0.2948  0.0184
   50TCq2    C9  770   1.317   2.545   9.525  0.2408  0.1890 -0.3280
   50TCq2    O5  771   1.429   2.587   9.500  0.0076 -0.0171 -0.1607
   50TCq2    O6  772   1.243   2.471   9.453 -0.1279  0.5681  0.0326
   50TCq2    H2  773   1.441   2.684   9.709  0.8662  0.2258 -0.3085
   50TCq2    H3  774   1.096   2.458   9.647 -0.0858 -1.0902  0.6897
   50TCq2    H4  775   1.172   2.627  10.034  0.6705 -0.8622  0.7685
   51MPD2     C  776   2.375   1.150   1.345 -0.3110  0.6201 -0.7590
   51MPD2    C1  777   2.390   1.077   1.232 -0.8103  0.4157  0.4931
   51MPD2    C2  778   2.511   1.011   1.217  0.2419  0.0447 -0.5834
   51MPD2    C3  779   2.612   1.037   1.303 -0.3410 -0.0932  0.0272
   51MPD2    C4  780   2.592   1.123   1.412  0.1728 -0.0439 -0.0266
   51MPD2    C5  781   2.481   1.190   1.424  0.6373  0.4385 -0.0594
   51MPD2     H  782   2.505   0.931   1.144  0.0512 -1.2857  0.8799
   51MPD2    H1  783   2.677   1.148   1.474 -0.3140 -0.6937  0.9054
   51MPD2    H2  784   2.283   1.205   1.361  0.1287  0.4059  2.4917
   51MPD2    H3  785   2.472   1.257   1.509 -1.3863 -2.1199  1.7218
   51MPD2     N  786   2.744   0.978   1.297  0.7830 -0.7565 -0.1104
   51MPD2    H5  787   2.803   1.003   1.376  2.0136  1.2754 -1.6929
   51MPD2    N1  788   2.284   1.043   1.149  0.3772  0.1444  0.4970
   51MPD2    H7  789   2.296   0.981   1.069 -2.1847  1.5834 -0.9848
   52TCq2    C1  790   2.787   0.888   1.204  0.2683 -0.0901  0.3800
   52TCq2    O2  791   2.740   0.839   1.103 -0.0916 -0.2105 -0.2091
   52TCq2    C2  792   2.923   0.845   1.227 -0.1633  0.3342 -0.0141
   52TCq2    C3  793   2.950   0.717   1.188  0.2733 -0.0051 -0.3247
   52TCq2    C4  794   3.067   0.666   1.234  0.7435 -0.0268 -0.0584
   52TCq2    C5  795   3.151   0.725   1.320  0.2660  0.7407  0.2799
   52TCq2    C6  796   3.111   0.845   1.362  0.8300 -0.0888 -0.4797
   52TCq2    C7  797   3.001   0.909   1.312  0.5307  0.1848  0.7940
   52TCq2    C8  798   3.191   0.926   1.451 -0.8434  0.1918 -0.5104
   52TCq2    O4  799   3.143   1.031   1.492 -0.0212 -0.4529  0.2024
   52TCq2    C9  800   3.109   0.552   1.163 -0.0121 -0.4057  0.7285
   52TCq2    O5  801   3.236   0.542   1.150  0.0184 -0.3272  0.0522
   52TCq2    O6  802   3.020   0.470   1.114  0.1721 -0.0160 -0.2127
   52TCq2    H2  803   2.880   0.666   1.123  0.1699 -1.2542  0.7636
   52TCq2    H3  804   3.239   0.671   1.353  0.5216  0.6158 -0.6004
   52TCq2    H4  805   2.986   1.012   1.342 -1.3130  0.2756 -0.4298
   53TMC2    C1  806   1.906   0.234  11.681  0.0646  0.0754  0.0148
   53TMC2    C2  807   2.032   0.272  11.714  0.2139  0.1830 -0.3353
   53TMC2    C3  808   2.058   0.326  11.840  0.0193  0.1833  0.2973
   53TMC2    C4  809   1.802   0.275  11.765 -0.0251 -0.3252  0.5063
   53TMC2    C5  810   1.830   0.329  11.894  0.3603 -0.1035  0.0171
   53TMC2    C6  811   1.956   0.352  11.929 -0.9657 -0.4186  0.0114
   53TMC2     C  812   1.882   0.220  11.546  0.6428 -0.7913 -0.1430
   53TMC2     O  813   1.966   0.267  11.473  0.2608  0.0680  0.4830
   53TMC2     H  814   2.117   0.259  11.648  0.5343  2.6027 -0.3914
   53TMC2    H1  815   1.699   0.275  11.732  0.0309  0.0117  0.3370
   53TMC2    H2  816   1.988   0.408  12.016 -0.7623 -0.4152 -0.0659
   53TMC2    C7  817   1.723   0.348  11.992 -0.3686  0.8361  0.4576
   53TMC2    C8  818   2.184   0.394  11.847  0.2490  0.3474 -0.0488
   53TMC2    O1  819   1.607   0.340  11.948 -0.0193 -0.1699 -0.1710
   53TMC2    O2  820   2.195   0.503  11.899  0.2426 -0.2590  0.0993
   53TMC2    O5  821   2.261   0.283  11.879  0.5269 -0.4075 -0.1038
   53TMC2    H5  822   2.253   0.207  11.817 -0.5789 -1.0245  0.7824
   54MPD2     C  823   1.795   0.122  11.281  0.3211 -0.2589  0.5276
   54MPD2    C1  824   1.736   0.085  11.398  0.4466 -0.3448  0.1978
   54MPD2    C2  825   1.623   0.012  11.394  0.0097  0.1892  0.1542
   54MPD2    C3  826   1.568   4.692  11.279 -0.3068  0.0693 -0.5567
   54MPD2    C4  827   1.628   0.008  11.161 -0.3103  0.0707  0.5524
   54MPD2    C5  828   1.736   0.091  11.161 -0.0779 -0.9150  0.0146
   54MPD2     H  829   1.577   4.697  11.484  0.3616  0.6968  0.5476
   54MPD2    H1  830   1.583   4.706  11.065 -0.1448  0.8584  0.2686
   54MPD2    H2  831   1.882   0.187  11.270 -0.3410  0.7691  1.4325
   54MPD2    H3  832   1.768   0.125  11.064  2.9417 -2.3937  0.5059
   54MPD2     N  833   1.445   4.626  11.274 -0.7424 -0.6707 -0.4485
   54MPD2    H5  834   1.419   4.591  11.182  0.6830 -1.9182 -0.3693
   54MPD2    N1  835   1.777   0.134  11.520 -0.3632  0.0092  0.2360
   54MPD2    H7  836   1.726   0.107  11.604 -0.5031 -0.9509 -0.1658
   55MPD2     C  837   3.040   1.484   0.173 -0.0109  0.1783 -0.4013
   55MPD2    C1  838   2.979   1.544   0.277  0.3153 -0.2917  0.4217
   55MPD2    C2  839   2.846   1.569   0.258  0.1673  0.7153 -0.2269
   55MPD2    C3  840   2.778   1.536   0.142 -0.1488 -0.1369 -0.4902
   55MPD2    C4  841   2.838   1.478   0.034 -0.2034 -0.6359  0.4599
   55MPD2    C5  842   2.976   1.459   0.052 -0.1184  0.0973  0.4266
   55MPD2     H  843   2.796   1.615   0.342 -3.0623 -2.0168 -0.6491
   55MPD2    H1  844   2.793   1.456  17.634  1.8833 -0.2314 -0.5944
   55MPD2    H2  845   3.143   1.451   0.179 -1.1433 -3.0564  1.3536
   55MPD2    H3  846   3.038   1.413  17.672  1.6232 -0.0737  1.9536
   55MPD2     N  847   2.642   1.576   0.137  0.2580 -0.2551  0.3717
   55MPD2    H5  848   2.605   1.620   0.221  1.8392 -0.3482  1.1228
   55MPD2    N1  849   3.064   1.591   0.380  0.5112  0.3747 -0.2358
   55MPD2    H7  850   3.163   1.569   0.370  0.4092  0.0655 -0.5777
   56TCq2    C1  851   3.023   1.659   0.496 -0.0622  0.0924  0.5279
   56TCq2    O2  852   2.907   1.689   0.528  0.3026  0.5937  0.0460
   56TCq2    C2  853   3.133   1.696   0.583  0.0463  0.7602  0.8403
   56TCq2    C3  854   3.258   1.731   0.535 -0.2495 -0.1979 -0.2514
   56TCq2    C4  855   3.362   1.768   0.625  0.9488 -0.1532  0.2588
   56TCq2    C5  856   3.337   1.783   0.757 -0.4142  0.2258 -0.6828
   56TCq2    C6  857   3.202   1.768   0.795 -0.4183 -0.4427  0.5235
   56TCq2    C7  858   3.104   1.728   0.709  0.1111 -0.3590 -0.2328
   56TCq2    C8  859   3.159   1.837   0.912  0.5611 -0.5962  0.0146
   56TCq2    O4  860   3.247   1.878   0.983  0.0389 -0.6654 -0.1878
   56TCq2    C9  861   3.495   1.803   0.580 -0.4988  0.5184 -0.4379
   56TCq2    O5  862   3.531   1.786   0.460 -0.0813  0.1107 -0.2206
   56TCq2    O6  863   3.578   1.851   0.665  0.0042  0.8252  0.7066
   56TCq2    H2  864   3.295   1.728   0.433  1.2407  1.1640  0.2470
   56TCq2    H3  865   3.400   1.838   0.825  0.5756  1.5788 -2.6894
   56TCq2    H4  866   3.005   1.701   0.745  1.0618 -2.5484  0.6977
   57TMC2    C1  867   2.021   4.091  14.000  0.1886 -0.4067 -0.2409
   57TMC2    C2  868   2.063   4.213  14.068  0.2794 -0.2704 -0.6018
   57TMC2    C3  869   2.191   4.214  14.114 -0.0400 -0.3678  0.2745
   57TMC2    C4  870   2.113   3.989  13.979  0.2354 -0.1676  0.1608
   57TMC2    C5  871   2.244   4.012  14.014 -0.0359 -0.9412  0.2286
   57TMC2    C6  872   2.278   4.122  14.086 -0.1249  0.3644 -0.1338
   57TMC2     C  873   1.891   4.089  13.942  0.1905  0.0004 -0.6035
   57TMC2     O  874   1.819   4.176  13.983  0.1099 -0.4228 -0.2449
   57TMC2     H  875   1.994   4.294  14.052  0.0591 -0.7766 -2.2320
   57TMC2    H1  876   2.077   3.893  13.944 -1.2638 -0.1285  1.5820
   57TMC2    H2  877   2.385   4.141  14.086 -0.1074  0.2674  2.1999
   57TMC2    C7  878   2.346   3.923  13.975 -1.1596  0.2191 -0.6070
   57TMC2    C8  879   2.255   4.334  14.166 -0.7586 -0.4797 -0.4869
   57TMC2    O1  880   2.456   3.937  14.031 -0.4618  0.3226  0.2161
   57TMC2    O2  881   2.373   4.360  14.173  0.4914  0.3438 -0.0162
   57TMC2    O5  882   2.160   4.421  14.206  0.2755 -0.2334 -0.2826
   57TMC2    H5  883   2.073   4.376  14.198  0.3202 -0.5471  0.9185
   58MPD2     C  884   1.459   3.828  13.800  0.5938 -0.4343 -0.3988
   58MPD2    C1  885   1.473   3.928  13.899 -0.3076  0.0828  0.2435
   58MPD2    C2  886   1.606   3.977  13.915 -0.1626 -0.3194 -0.1167
   58MPD2    C3  887   1.719   3.925  13.852 -0.1147  0.8936 -0.2778
   58MPD2    C4  888   1.693   3.824  13.758 -0.3176 -0.0631  0.4200
   58MPD2    C5  889   1.565   3.784  13.736  0.0661  0.1294  0.5427
   58MPD2     H  890   1.617   4.057  13.988 -1.3319 -1.5780  1.4245
   58MPD2    H1  891   1.769   3.771  13.702  1.1201  0.6361  1.7172
   58MPD2    H2  892   1.363   3.781  13.782 -0.6211  1.6854  0.4372
   58MPD2    H3  893   1.548   3.703  13.666 -2.0549  1.6433 -0.6936
   58MPD2     N  894   1.853   3.976  13.870 -0.3278 -0.6346  0.4076
   58MPD2    H5  895   1.938   3.929  13.841 -0.2191  0.3634 -0.9268
   58MPD2    N1  896   1.365   3.983  13.981 -0.1765  0.1082  0.2080
   58MPD2    H7  897   1.386   4.058  14.046 -2.4921  2.3753 -1.6901
   59MPD2     C  898   3.998   3.771  12.730  0.0170  0.7175  0.0471
   59MPD2    C1  899   4.046   3.897  12.737  0.3118  0.8768  0.0766
   59MPD2    C2  900   4.132   3.943  12.836  0.3655 -0.0981 -0.1782
   59MPD2    C3  901   4.169   3.850  12.937 -0.1341 -0.0468 -0.9910
   59MPD2    C4  902   4.114   3.723  12.929 -0.5542  0.1585 -0.2344
   59MPD2    C5  903   4.017   3.690  12.833  0.2186  0.2520  0.6525
   59MPD2     H  904   4.171   4.044  12.833  1.1899 -0.4375 -0.9778
   59MPD2    H1  905   4.149   3.655  13.005  2.3663  1.3316 -0.5311
   59MPD2    H2  906   3.936   3.739  12.647 -0.2600 -3.6453  1.9793
   59MPD2    H3  907   3.985   3.586  12.834 -1.5993  0.7786 -1.7143
   59MPD2     N  908   4.241   3.884  13.056 -0.6350 -0.6715  0.0461
   59MPD2    H5  909   4.244   3.813  13.128 -0.2880  0.0947  0.7872
   59MPD2    N1  910   4.016   3.994  12.637  0.2363 -0.7569  0.0859
   59MPD2    H7  911   4.050   4.088  12.654  1.0970 -1.2732  1.2209
   60TCq2    C1  912   3.954   3.976  12.511  0.1214  0.4697  0.6305
   60TCq2    O2  913   3.881   3.882  12.477  0.3082 -0.5999 -0.2303
   60TCq2    C2  914   3.947   4.098  12.435  0.1176 -0.3152  0.6181
   60TCq2    C3  915   3.825   4.141  12.380  0.0563  0.7065 -0.0364
   60TCq2    C4  916   3.834   4.252  12.297 -0.5980  0.6898 -1.1972
   60TCq2    C5  917   3.957   4.302  12.268 -0.1153  0.7407  0.6551
   60TCq2    C6  918   4.065   4.258  12.334 -0.4269  0.2253 -0.9275
   60TCq2    C7  919   4.065   4.158  12.420 -0.8692  0.0094 -0.0108
   60TCq2    C8  920   4.193   4.311  12.301  0.4189 -0.0115  0.3379
   60TCq2    O4  921   4.284   4.229  12.302  0.4035 -0.1937 -0.1036
   60TCq2    C9  922   3.710   4.300  12.236 -0.0673  0.4043  0.1074
   60TCq2    O5  923   3.723   4.387  12.144 -0.4530 -0.1247 -0.3769
   60TCq2    O6  924   3.601   4.269  12.295 -0.1452  0.2414  0.3678
   60TCq2    H2  925   3.737   4.080  12.396 -0.0035  1.0437  0.9004
   60TCq2    H3  926   3.959   4.381  12.194  2.8793 -1.0792 -1.2168
   60TCq2    H4  927   4.155   4.129  12.473 -0.4451 -0.0553 -0.7522
   61MPD2     C  928   3.360   0.331  14.489 -0.4448 -0.2655 -0.1854
   61MPD2    C1  929   3.436   0.436  14.534 -0.1558  0.0230 -0.2163
   61MPD2    C2  930   3.443   0.551  14.454  0.6389  0.2028 -0.1125
   61MPD2    C3  931   3.391   0.554  14.328 -0.4332  0.8428  0.1622
   61MPD2    C4  932   3.329   0.435  14.279 -0.0585  0.2502  0.0006
   61MPD2    C5  933   3.306   0.332  14.368  0.5250  0.0587  0.3968
   61MPD2     H  934   3.495   0.639  14.488  0.7749 -0.0642  0.3685
   61MPD2    H1  935   3.278   0.442  14.184 -0.7675  0.4612  0.3975
   61MPD2    H2  936   3.338   0.246  14.552 -0.0282 -0.3986 -0.2159
   61MPD2    H3  937   3.256   0.245  14.326 -2.1359  1.7738  0.0459
   61MPD2     N  938   3.391   0.668  14.246 -0.8840  0.7243 -0.5588
   61MPD2    H5  939   3.373   0.654  14.147 -2.8329 -2.3562  0.2548
   61MPD2    N1  940   3.485   0.449  14.663  0.5741  0.3783  0.0003
   61MPD2    H7  941   3.550   0.525  14.681  0.2330  0.1996  1.9753
   62TCq2    C1  942   3.478   0.354  14.763 -0.2161  0.4818 -0.4424
   62TCq2    O2  943   3.452   0.235  14.752 -0.0391 -0.7603 -0.3056
   62TCq2    C2  944   3.552   0.386  14.884 -0.0980  0.0809  0.0874
   62TCq2    C3  945   3.654   0.298  14.928 -0.3444 -0.2221 -1.5520
   62TCq2    C4  946   3.745   0.349  15.016 -0.2287  0.2242 -0.2957
   62TCq2    C5  947   3.740   0.473  15.069  0.7623 -0.2384 -0.3462
   62TCq2    C6  948   3.640   0.556  15.021  0.5928  0.5156  0.4772
   62TCq2    C7  949   3.543   0.512  14.930  0.0194 -0.5376 -0.6809
   62TCq2    C8  950   3.662   0.700  15.025  0.3314 -0.3913 -0.0135
   62TCq2    O4  951   3.773   0.749  15.002 -0.0056  0.1759 -0.4023
   62TCq2    C9  952   3.851   0.262  15.066  0.5948  0.2864  0.1646
   62TCq2    O5  953   3.970   0.308  15.066 -0.3821 -0.4281  0.0856
   62TCq2    O6  954   3.824   0.136  15.067  0.5885  0.1403 -0.1742
   62TCq2    H2  955   3.654   0.192  14.906  1.0496 -0.3163 -1.0925
   62TCq2    H3  956   3.827   0.512  15.120  0.5619  0.4863 -0.5589
   62TCq2    H4  957   3.452   0.567  14.909 -2.0790 -2.6979  2.7647
   63TMC2    C1  958   2.878   1.190  10.019  0.4901  0.7144  0.6135
   63TMC2    C2  959   2.979   1.170  10.111 -0.5620  0.5568  0.4863
   63TMC2    C3  960   3.082   1.260  10.111  1.1908 -0.2600 -0.0877
   63TMC2    C4  961   2.877   1.299   9.935  0.3619  0.0118  0.1795
   63TMC2    C5  962   2.985   1.376   9.925  0.2927  1.0398  0.0510
   63TMC2    C6  963   3.084   1.356  10.015  0.2225  0.4926 -0.2274
   63TMC2     C  964   2.771   1.091  10.003 -0.7249 -0.0614 -0.4214
   63TMC2     O  965   2.707   1.098   9.898  0.1190  0.0051 -0.1239
   63TMC2     H  966   2.995   1.076  10.163 -0.2486 -0.7669 -2.0123
   63TMC2    H1  967   2.791   1.317   9.870  0.0438  1.9027  1.1295
   63TMC2    H2  968   3.162   1.431  10.024  0.9189 -0.2430 -0.1718
   63TMC2    C7  969   2.970   1.509   9.856  0.0978  0.1470 -1.0840
   63TMC2    C8  970   3.209   1.198  10.135  0.1449 -0.7613  0.3462
   63TMC2    O1  971   2.857   1.535   9.812 -0.3685  0.4544 -0.1550
   63TMC2    O2  972   3.225   1.116  10.221 -0.2223 -0.2809  0.6943
   63TMC2    O5  973   3.266   1.194  10.015  0.4355 -0.8716 -0.1584
   63TMC2    H5  974   3.251   1.271   9.956 -0.2064 -0.8151  0.0829
   64MPD2     C  975   2.567   0.654  10.155 -0.1050 -0.2634 -0.3844
   64MPD2    C1  976   2.626   0.709  10.260  0.0297  0.6154 -0.6272
   64MPD2    C2  977   2.692   0.830  10.244  0.1698  0.2291  0.2093
   64MPD2    C3  978   2.685   0.897  10.123  0.6166 -0.1769 -0.4466
   64MPD2    C4  979   2.602   0.857  10.022  0.4038  0.1349  0.5591
   64MPD2    C5  980   2.554   0.730  10.042 -0.8590 -0.1983 -0.5271
   64MPD2     H  981   2.735   0.879  10.331 -0.9718  2.0727 -0.2504
   64MPD2    H1  982   2.589   0.900   9.923  0.3013  0.0528  0.5371
   64MPD2    H2  983   2.528   0.553  10.159  0.3323 -0.4859 -1.9760
   64MPD2    H3  984   2.492   0.681   9.968 -2.4776  0.2562  0.5344
   64MPD2     N  985   2.757   1.014  10.115 -1.3730 -0.0816  0.4606
   64MPD2    H5  986   2.808   1.043  10.198  0.5938 -3.6641  0.5123
   64MPD2    N1  987   2.645   0.639  10.381 -0.2111  0.1275 -0.1972
   64MPD2    H7  988   2.721   0.672  10.440  0.6122  0.6771 -1.5637
   65MPD2     C  989   4.316   4.600  16.028  0.7929 -0.4712  0.4524
   65MPD2    C1  990   4.317   4.568  15.893  0.1366  0.4219  0.0895
   65MPD2    C2  991   4.284   4.442  15.857  0.1922  0.3955 -0.2048
   65MPD2    C3  992   4.281   4.339  15.948  0.2596 -0.6658 -0.4316
   65MPD2    C4  993   4.289   4.374  16.081 -0.9101  0.3016 -0.4467
   65MPD2    C5  994   4.306   4.497  16.123  0.5228  0.3358 -0.6717
   65MPD2     H  995   4.266   4.434  15.750 -0.3052 -1.2944 -0.0076
   65MPD2    H1  996   4.279   4.293  16.152  3.5673  1.0102  0.9965
   65MPD2    H2  997   4.350   4.699  16.055 -4.0868  1.5868 -1.0625
   65MPD2    H3  998   4.323   4.520  16.227  1.0664  0.3529 -0.7649
   65MPD2     N  999   4.254   4.204  15.920 -0.5249 -0.4287  0.2481
   65MPD2    H5 1000   4.262   4.136  15.995 -2.7404 -0.8688  0.0719
   65MPD2    N1 1001   4.335   4.664  15.791 -0.0144 -0.1394  0.7134
   65MPD2    H7 1002   4.317   4.626  15.698 -0.1762 -1.1651  1.1577
   66TCq2    C1 1003   4.344   0.078  15.800  0.0183  0.2654 -0.4334
   66TCq2    O2 1004   4.344   0.146  15.905 -0.5201  0.3368 -0.2524
   66TCq2    C2 1005   4.335   0.139  15.668  0.2045 -0.2519  0.0765
   66TCq2    C3 1006   4.347   0.065  15.546  0.1922 -0.3270  0.8619
   66TCq2    C4 1007   4.321   0.125  15.430 -0.4730  0.0906  0.7012
   66TCq2    C5 1008   4.276   0.255  15.433 -0.1462  0.0945  0.3277
   66TCq2    C6 1009   4.283   0.327  15.547 -0.3279  0.2349 -0.7030
   66TCq2    C7 1010   4.305   0.270  15.668  0.6319 -1.1466  0.0933
   66TCq2    C8 1011   4.231   0.464  15.535  0.5513  0.1740  0.1375
   66TCq2    O4 1012   4.226   0.506  15.421  0.0609  0.2303 -0.6133
   66TCq2    C9 1013   4.283   0.048  15.313 -0.5376 -0.4306  0.3152
   66TCq2    O5 1014   4.289   4.647  15.321 -0.4422 -0.0329 -0.0079
   66TCq2    O6 1015   4.190   0.105  15.246  0.1921  0.2909 -0.9240
   66TCq2    H2 1016   4.378   4.685  15.539 -0.5862 -0.4432 -0.9597
   66TCq2    H3 1017   4.232   0.296  15.343 -1.6633 -3.5099 -0.5454
   66TCq2    H4 1018   4.318   0.335  15.754 -3.8097 -0.2540  0.0836
   67MPD2     C 1019   4.055   0.205  14.133  0.5816  0.0995 -0.3200
   67MPD2    C1 1020   4.016   0.079  14.182  0.4524 -0.1962 -0.5162
   67MPD2    C2 1021   3.925   0.004  14.106 -0.2736  0.0711 -0.4060
   67MPD2    C3 1022   3.871   0.055  13.989 -0.5863  0.1009 -0.2776
   67MPD2    C4 1023   3.904   0.186  13.949  0.5418 -0.6378  0.5100
   67MPD2    C5 1024   3.994   0.253  14.021 -0.3246 -0.4461  0.3488
   67MPD2     H 1025   3.901   4.627  14.140  0.3877  0.3769  0.9563
   67MPD2    H1 1026   3.868   0.234  13.859  0.3455 -2.6703 -0.4814
   67MPD2    H2 1027   4.123   0.265  14.192  0.4871  1.1790 -1.3038
   67MPD2    H3 1028   4.032   0.343  13.973  0.2948 -0.4949  0.7431
   67MPD2     N 1029   3.771   4.716  13.911  0.5640 -0.1682  0.5700
   67MPD2    H5 1030   3.718   0.045  13.843 -0.6180 -0.7666  1.0223
   67MPD2    N1 1031   4.074   0.043  14.305 -0.1785  0.1708  0.1850
   67MPD2    H7 1032   4.145   0.104  14.346  0.4735  0.1928 -0.9710
   68TCq2    C1 1033   4.063   4.643  14.363 -0.4621 -0.1592 -0.2933
   68TCq2    O2 1034   3.988   4.552  14.338 -0.3081 -1.0572  0.7189
   68TCq2    C2 1035   4.135   4.633  14.492  0.1756  0.1999  0.6705
   68TCq2    C3 1036   4.146   0.017  14.581  0.2150 -0.2874  0.5811
   68TCq2    C4 1037   4.150   4.717  14.711  0.3181 -0.7672  0.2087
   68TCq2    C5 1038   4.154   4.589  14.752 -0.3189  0.6180  0.2120
   68TCq2    C6 1039   4.144   4.482  14.680  0.2440  0.3754 -0.3545
   68TCq2    C7 1040   4.133   4.504  14.545 -1.1620 -0.4201 -0.6084
   68TCq2    C8 1041   4.198   4.358  14.725  0.1464  0.4312  0.0619
   68TCq2    O4 1042   4.188   4.263  14.647 -0.2810  0.3217 -0.0070
   68TCq2    C9 1043   4.141   0.096  14.811  0.5660 -0.6994  0.3954
   68TCq2    O5 1044   4.075   0.195  14.773  0.1909  0.6725 -0.9003
   68TCq2    O6 1045   4.188   0.080  14.924 -0.2007 -0.1296 -0.6902
   68TCq2    H2 1046   4.144   0.118  14.540 -1.3538 -0.8610 -0.7750
   68TCq2    H3 1047   4.143   4.592  14.860  0.8208  0.0469  0.3433
   68TCq2    H4 1048   4.124   4.422  14.475  2.7265 -1.7983  0.5339
   69TMC2    C1 1049   1.777   0.761  12.417 -0.4856  0.2591  0.0089
   69TMC2    C2 1050   1.642   0.734  12.431  0.2762 -0.5407 -0.1282
   69TMC2    C3 1051   1.565   0.754  12.317  0.1100 -0.3853 -0.3894
   69TMC2    C4 1052   1.828   0.783  12.292 -0.5908  0.9032 -0.8138
   69TMC2    C5 1053   1.747   0.786  12.178 -0.6282 -0.2695  0.3116
   69TMC2    C6 1054   1.616   0.763  12.193  0.0131  0.0421 -0.2703
   69TMC2     C 1055   1.860   0.691  12.518 -0.4183  0.3660  0.5845
   69TMC2     O 1056   1.800   0.647  12.614  0.3719 -0.0926 -0.0444
   69TMC2     H 1057   1.599   0.703  12.526  0.0271 -2.1880 -0.7867
   69TMC2    H1 1058   1.933   0.811  12.287 -0.3893  0.3483  0.4270
   69TMC2    H2 1059   1.545   0.775  12.112  0.8297 -0.9964 -1.1323
   69TMC2    C7 1060   1.819   0.774  12.050 -0.2116  0.1684  0.0274
   69TMC2    C8 1061   1.420   0.742  12.332 -0.1395  0.7647  0.6734
   69TMC2    O1 1062   1.940   0.794  12.052  0.0577  0.0427  0.4360
   69TMC2    O2 1063   1.353   0.746  12.229  0.6963 -0.5947 -0.1173
   69TMC2    O5 1064   1.379   0.769  12.463  0.0434  0.0345  0.6054
   69TMC2    H5 1065   1.455   0.796  12.518 -2.3318  2.9811  2.5031
   70MPD2     C 1066   2.183   0.522  12.452 -1.6107 -0.2873 -0.6876
   70MPD2    C1 1067   2.056   0.538  12.509 -0.1326 -0.0970  0.2571
   70MPD2    C2 1068   2.012   0.445  12.599  0.3296 -0.7869 -0.2412
   70MPD2    C3 1069   2.094   0.334  12.633 -0.0744  0.0832 -0.2772
   70MPD2    C4 1070   2.222   0.323  12.585  0.2904  0.4935  0.0131
   70MPD2    C5 1071   2.262   0.414  12.488 -0.6212  0.5997  0.0569
   70MPD2     H 1072   1.918   0.465  12.649 -0.1088 -2.9148 -0.2173
   70MPD2    H1 1073   2.287   0.239  12.608  0.1974  0.2353 -0.6675
   70MPD2    H2 1074   2.230   0.593  12.385  2.4655 -1.1599  1.2744
   70MPD2    H3 1075   2.361   0.401  12.446 -0.2362  0.0602  1.1233
   70MPD2     N 1076   2.066   0.245  12.732 -0.6839  0.2984 -0.1150
   70MPD2    H5 1077   2.138   0.175  12.751  0.0929  0.5208 -2.1824
   70MPD2    N1 1078   1.986   0.654  12.473  0.1803  0.0807 -0.9210
   70MPD2    H7 1079   2.024   0.710  12.398  0.8592 -0.5992 -1.0760
   71TMC2    C1 1080   3.582   1.430   1.529  0.1676 -0.2420 -0.1116
   71TMC2    C2 1081   3.652   1.466   1.639  0.1137  0.0104  0.0724
   71TMC2    C3 1082   3.599   1.561   1.725 -0.3321  0.6615 -0.8528
   71TMC2    C4 1083   3.463   1.497   1.502  0.2775  1.1000  0.1603
   71TMC2    C5 1084   3.415   1.594   1.593 -0.5890  0.1814 -0.0333
   71TMC2    C6 1085   3.486   1.628   1.704  0.7230 -0.6835 -0.3740
   71TMC2     C 1086   3.644   1.341   1.437 -0.1019 -0.3450 -0.3710
   71TMC2     O 1087   3.767   1.330   1.442  0.8270 -0.1765  0.1134
   71TMC2     H 1088   3.742   1.410   1.660  0.9923  0.3334 -2.9188
   71TMC2    H1 1089   3.400   1.479   1.415  0.5264  0.2538  0.1537
   71TMC2    H2 1090   3.451   1.695   1.781 -0.7788  0.9920 -2.5503
   71TMC2    C7 1091   3.296   1.669   1.562 -0.0652 -0.1407 -0.3268
   71TMC2    C8 1092   3.675   1.612   1.835  0.2445 -0.6681  0.1958
   71TMC2    O1 1093   3.281   1.765   1.635 -0.2555  0.9835  0.3718
   71TMC2    O2 1094   3.659   1.730   1.875  0.2106 -0.0322  0.1669
   71TMC2    O5 1095   3.780   1.525   1.870  0.6272  0.3096  0.0066
   71TMC2    H5 1096   3.765   1.434   1.837  1.5282 -0.4989  1.7988
   72MPD2     C 1097   3.603   0.968   1.088 -0.4545 -0.5028 -0.5798
   72MPD2    C1 1098   3.711   1.052   1.117 -1.0929 -0.2581 -0.4752
   72MPD2    C2 1099   3.692   1.159   1.206 -0.0905  0.4753  0.3700
   72MPD2    C3 1100   3.566   1.178   1.264  0.4884 -0.1853  0.1400
   72MPD2    C4 1101   3.460   1.096   1.232 -0.2528 -0.6549 -0.1821
   72MPD2    C5 1102   3.477   0.990   1.144  0.1362 -0.1514  0.0927
   72MPD2     H 1103   3.775   1.222   1.235 -1.0191  1.0140  1.8679
   72MPD2    H1 1104   3.363   1.099   1.280  0.6818 -1.0748  1.7375
   72MPD2    H2 1105   3.602   0.910   0.996 -2.6329  1.0229 -1.5245
   72MPD2    H3 1106   3.396   0.921   1.125  1.9922 -2.5011  0.6989
   72MPD2     N 1107   3.544   1.277   1.362  0.7727  0.0363 -0.4853
   72MPD2    H5 1108   3.447   1.297   1.383  1.3201 -0.2889  2.3558
   72MPD2    N1 1109   3.838   1.029   1.053 -0.3261  0.5305 -1.0238
   72MPD2    H7 1110   3.910   1.095   1.079 -0.8162 -0.1923  2.1880
   73TMC2    C1 1111   3.669   2.838  13.473 -0.1286 -0.3756 -0.3593
   73TMC2    C2 1112   3.562   2.816  13.550  0.0894 -0.1897 -0.7503
   73TMC2    C3 1113   3.526   2.912  13.641 -0.2153  0.2603  0.3119
   73TMC2    C4 1114   3.747   2.948  13.494 -0.4353  0.3266 -0.0127
   73TMC2    C5 1115   3.705   3.044  13.583 -0.4474  0.7054  0.2622
   73TMC2    C6 1116   3.593   3.028  13.665  0.6524 -0.1450  0.0419
   73TMC2     C 1117   3.638   2.815  13.335  0.2223 -0.8490 -0.0865
   73TMC2     O 1118   3.683   2.903  13.269 -0.0269 -0.0616 -0.2392
   73TMC2     H 1119   3.483   2.749  13.519 -1.2173 -0.1751  2.6382
   73TMC2    H1 1120   3.827   2.973  13.426  0.6965 -3.3021 -0.0382
   73TMC2    H2 1121   3.568   3.101  13.742  0.1219  1.6510 -1.8346
   73TMC2    C7 1122   3.688   3.180  13.526  0.0866 -0.0547  0.1508
   73TMC2    C8 1123   3.438   2.861  13.746 -0.0029 -0.7744  0.0115
   73TMC2    O1 1124   3.668   3.278  13.592 -0.3286  0.8792 -0.6459
   73TMC2    O2 1125   3.435   2.744  13.779  0.4759  0.0621 -0.3433
   73TMC2    O5 1126   3.372   2.969  13.799  0.9182  0.1655 -0.2669
   73TMC2    H5 1127   3.359   3.039  13.732 -1.5360 -0.8061 -0.8058
   74MPD2     C 1128   3.413   2.587  12.927 -0.3135 -0.1024 -0.2974
   74MPD2    C1 1129   3.465   2.715  12.946 -0.1884 -0.4107 -0.7353
   74MPD2    C2 1130   3.516   2.752  13.074 -0.2576 -0.4025 -0.4899
   74MPD2    C3 1131   3.510   2.660  13.180 -0.6510  0.5896  0.3661
   74MPD2    C4 1132   3.455   2.537  13.158  0.9306 -0.0853  0.6529
   74MPD2    C5 1133   3.402   2.502  13.036 -0.2871  0.1506 -0.0008
   74MPD2     H 1134   3.560   2.851  13.075 -1.4070  0.1363 -3.1873
   74MPD2    H1 1135   3.459   2.456  13.230 -0.2644 -2.3313 -1.8184
   74MPD2    H2 1136   3.376   2.551  12.831 -1.7256 -1.2591  0.6679
   74MPD2    H3 1137   3.371   2.401  13.015  0.1844 -0.3152  1.5245
   74MPD2     N 1138   3.565   2.696  13.306 -0.7058 -0.8346 -0.1114
   74MPD2    H5 1139   3.569   2.622  13.375 -1.1261 -1.8393 -1.1745
   74MPD2    N1 1140   3.464   2.795  12.831  0.6440  0.2296 -0.5867
   74MPD2    H7 1141   3.401   2.765  12.757  1.1484 -1.4673 -0.3289
   75TCq2    C1 1142   3.736   4.584  13.926 -0.7976  0.4145  0.0933
   75TCq2    O2 1143   3.773   4.501  14.004 -0.1173 -0.0046  0.3423
   75TCq2    C2 1144   3.613   4.557  13.850 -0.6937 -0.4275 -0.6264
   75TCq2    C3 1145   3.532   4.453  13.886  1.0089 -0.0681 -0.2774
   75TCq2    C4 1146   3.439   4.405  13.806  0.0905  0.1140 -0.0038
   75TCq2    C5 1147   3.433   4.448  13.677 -0.1306 -0.5714  0.5340
   75TCq2    C6 1148   3.519   4.544  13.635  0.1837 -0.2955 -0.3460
   75TCq2    C7 1149   3.615   4.597  13.721  0.5436 -0.2797 -0.2650
   75TCq2    C8 1150   3.503   4.591  13.497 -0.2984 -0.6186  0.1983
   75TCq2    O4 1151   3.448   4.512  13.423 -0.0421 -0.0823 -0.2036
   75TCq2    C9 1152   3.338   4.311  13.836  0.5227  0.5941  0.3027
   75TCq2    O5 1153   3.242   4.295  13.760  0.5746  0.4239  0.3334
   75TCq2    O6 1154   3.330   4.275  13.954 -0.6407  0.1679 -0.8959
   75TCq2    H2 1155   3.543   4.410  13.985  1.4042  1.3210  0.2875
   75TCq2    H3 1156   3.357   4.406  13.612 -0.2236 -1.7215  1.3843
   75TCq2    H4 1157   3.687   4.663  13.675  0.5158  1.2048  1.8208
   76MPD2     C 1158   2.815   1.104  11.753 -0.3958 -0.3573  0.6518
   76MPD2    C1 1159   2.800   1.002  11.664 -0.5421  0.1935  0.7195
   76MPD2    C2 1160   2.905   0.908  11.656  0.2582 -0.0696 -0.0904
   76MPD2    C3 1161   3.014   0.899  11.747  0.6882 -0.0595  0.2081
   76MPD2    C4 1162   3.013   0.997  11.843 -0.2672 -0.2202  0.5083
   76MPD2    C5 1163   2.924   1.098  11.841  0.1303  0.4505 -0.0113
   76MPD2     H 1164   2.899   0.834  11.576  0.2651 -1.3379  1.0808
   76MPD2    H1 1165   3.083   0.988  11.925  0.0625  1.0014  0.3565
   76MPD2    H2 1166   2.747   1.189  11.764 -0.0590 -0.0612  0.4608
   76MPD2    H3 1167   2.937   1.173  11.919 -2.6586 -0.3060  1.2051
   76MPD2     N 1168   3.118   0.813  11.746  0.3066  1.7183 -0.1644
   76MPD2    H5 1169   3.194   0.836  11.808 -0.0102  1.2346  0.4072
   76MPD2    N1 1170   2.692   0.988  11.576  0.6722  0.6908 -0.4911
   76MPD2    H7 1171   2.698   0.916  11.505 -2.9281 -0.8648  0.7302
   77TCq2    C1 1172   3.145   0.715  11.653 -0.1350  0.2473  0.9623
   77TCq2    O2 1173   3.077   0.675  11.557 -0.3195  0.0724  0.2346
   77TCq2    C2 1174   3.273   0.640  11.666  0.4046  0.8607 -0.1001
   77TCq2    C3 1175   3.318   0.557  11.567 -0.5953  0.0072  0.0274
   77TCq2    C4 1176   3.422   0.466  11.592  0.3015 -0.3128 -0.5989
   77TCq2    C5 1177   3.480   0.464  11.712 -0.3603 -0.1007 -0.1198
   77TCq2    C6 1178   3.428   0.543  11.809 -0.2746  0.6893 -0.4798
   77TCq2    C7 1179   3.319   0.623  11.793 -0.3914  0.6674  0.6721
   77TCq2    C8 1180   3.460   0.513  11.948 -0.4107 -0.3295  0.6803
   77TCq2    O4 1181   3.368   0.521  12.026  0.0517 -0.2467 -0.0099
   77TCq2    C9 1182   3.470   0.377  11.488 -0.6773  0.1911  0.2145
   77TCq2    O5 1183   3.400   0.383  11.383  0.2268  0.6018  0.0658
   77TCq2    O6 1184   3.554   0.288  11.517  0.1820 -0.3889  0.1389
   77TCq2    H2 1185   3.286   0.578  11.465  1.5935 -1.3708 -0.9422
   77TCq2    H3 1186   3.557   0.390  11.728 -1.5599 -1.7209 -1.8452
   77TCq2    H4 1187   3.292   0.687  11.877  0.4579 -0.4976  1.8421
   78MPD1     C 1188   4.500   1.240   1.471  0.1682  0.0539  0.0369
   78MPD1    C1 1189   4.566   1.176   1.574 -0.7338  0.8449  0.0858
   78MPD1    C2 1190   4.678   1.106   1.546 -0.1010 -0.1158 -0.2966
   78MPD1    C3 1191   0.007   1.108   1.417  0.0462 -0.4787 -0.1058
   78MPD1    C4 1192   4.673   1.172   1.318  0.3005 -0.7208  0.4903
   78MPD1    C5 1193   4.559   1.233   1.349  0.4531  0.2695  0.1880
   78MPD1     H 1194   4.721   1.039   1.619 -0.5893 -1.8858 -1.6262
   78MPD1    H1 1195   4.708   1.172   1.215  1.7918 -1.3033  1.0027
   78MPD1    H2 1196   4.410   1.300   1.463 -0.3346 -0.5649  1.1485
   78MPD1    H3 1197   4.509   1.286   1.269  2.6832  0.6020 -0.9887
   78MPD1     N 1198   0.133   1.056   1.383  0.1712  0.1399  0.1233
   78MPD1    H5 1199   0.154   1.057   1.284 -0.2212 -2.7170  0.0035
   78MPD1    N1 1200   4.510   1.178   1.703  0.1589 -0.0054 -0.0193
   78MPD1    H6 1201   4.577   1.174   1.780  0.0147 -2.0151 -0.0018
   78MPD1    H7 1202   4.438   1.245   1.727 -0.4895 -1.2285  1.5072
   79TCq2    C1 1203   0.225   0.984   1.463 -0.7443 -0.2761  0.2594
   79TCq2    O2 1204   0.211   0.945   1.577  0.1302 -0.3488  0.4100
   79TCq2    C2 1205   0.345   0.949   1.387  0.8206  0.4481  0.0783
   79TCq2    C3 1206   0.369   0.996   1.263 -0.4793  0.3006  0.1320
   79TCq2    C4 1207   0.476   0.953   1.190  0.7332  1.0711 -0.0998
   79TCq2    C5 1208   0.568   0.869   1.248  0.4174  0.1736  0.7561
   79TCq2    C6 1209   0.534   0.819   1.372  1.1614 -0.1887  0.3770
   79TCq2    C7 1210   0.430   0.865   1.446  0.3544 -1.0258 -0.4626
   79TCq2    C8 1211   0.608   0.708   1.422  0.3993  0.5356 -0.1223
   79TCq2    O4 1212   0.618   0.704   1.545 -0.5872 -0.6899 -0.1498
   79TCq2    C9 1213   0.500   1.007   1.058  0.1058  0.3118 -0.4195
   79TCq2    O5 1214   0.597   0.959   0.997  0.2762 -0.4389 -0.6325
   79TCq2    O6 1215   0.408   1.080   1.008  0.5803 -0.2868  0.5651
   79TCq2    H2 1216   0.308   1.074   1.218  1.8253  2.2801  0.4105
   79TCq2    H3 1217   0.659   0.842   1.197 -1.1280 -1.5360 -1.1122
   79TCq2    H4 1218   0.411   0.821   1.543  1.1258  0.9015  0.5710
   80MPD2     C 1219   1.836   0.018  12.341  0.4846  0.1814 -0.0105
   80MPD2    C1 1220   1.761   4.718  12.221 -0.0489  0.7525 -0.3068
   80MPD2    C2 1221   1.628   0.016  12.219  0.7718 -0.2319  0.6467
   80MPD2    C3 1222   1.562   0.042  12.339  0.3503 -0.2590 -0.2018
   80MPD2    C4 1223   1.627   0.032  12.457 -0.6649 -0.4955  0.3749
   80MPD2    C5 1224   1.761   0.025  12.456 -0.0287 -0.5249 -0.1017
   80MPD2     H 1225   1.575   0.014  12.124  0.9071  3.3890  0.4982
   80MPD2    H1 1226   1.571   0.034  12.549 -2.9851  2.7594 -1.1232
   80MPD2    H2 1227   1.943   0.033  12.341  0.6501 -1.0708  1.3001
   80MPD2    H3 1228   1.800   0.047  12.554  0.1959 -3.3169  0.4169
   80MPD2     N 1229   1.430   0.072  12.355  0.2718  0.3903  0.4066
   80MPD2    H5 1230   1.391   0.066  12.448 -0.9917 -0.9400 -0.2131
   80MPD2    N1 1231   1.812   4.678  12.099 -0.2357  0.5335  0.6005
   80MPD2    H7 1232   1.741   4.681  12.026  1.2285 -0.0218 -0.8604
   81TCq2    C1 1233   1.940   4.658  12.066 -0.6823 -0.1661 -0.3479
   81TCq2    O2 1234   2.040   4.666  12.137 -0.4733  0.0424 -0.3033
   81TCq2    C2 1235   1.957   4.631  11.929  0.4770 -0.4008  0.2065
   81TCq2    C3 1236   2.077   4.666  11.878 -0.3224  0.6358  0.1229
   81TCq2    C4 1237   2.093   4.628  11.749 -0.6658  0.7763 -0.4747
   81TCq2    C5 1238   1.998   4.568  11.668 -0.3036 -0.1531 -0.3285
   81TCq2    C6 1239   1.884   4.527  11.730 -0.0367 -0.0058  0.4299
   81TCq2    C7 1240   1.862   4.562  11.861  0.6817 -0.1198  0.3419
   81TCq2    C8 1241   1.770   4.472  11.657 -1.0193 -0.1939  0.6453
   81TCq2    O4 1242   1.786   4.465  11.539  0.7491  0.0103  0.2138
   81TCq2    C9 1243   2.209   4.694  11.677  0.9478 -0.3197  0.1252
   81TCq2    O5 1244   2.273   0.065  11.735  0.3890 -0.0142 -0.2780
   81TCq2    O6 1245   2.208   4.677  11.551 -0.1820  0.1460 -0.0474
   81TCq2    H2 1246   2.156   0.002  11.924 -0.6228  0.7653  0.4673
   81TCq2    H3 1247   2.020   4.536  11.567 -0.3422 -1.0400 -0.0623
   81TCq2    H4 1248   1.765   4.542  11.906 -0.2772  2.7998 -0.4708
   82MPD2     C 1249   0.148   4.623  10.502 -0.1462  0.2141  0.6624
   82MPD2    C1 1250   0.037   4.550  10.540  0.5222 -0.0033 -0.5682
   82MPD2    C2 1251   0.047   4.451  10.643 -0.5957 -0.9362 -0.4126
   82MPD2    C3 1252   0.168   4.431  10.707  0.2975 -0.1243 -0.4443
   82MPD2    C4 1253   0.275   4.512  10.669 -0.6142 -0.1222 -0.2492
   82MPD2    C5 1254   0.264   4.602  10.571 -0.2322 -0.0485 -0.1580
   82MPD2     H 1255   4.684   4.393  10.671  1.0732 -2.8040  0.9012
   82MPD2    H1 1256   0.371   4.491  10.714 -0.6960  1.3281  0.6060
   82MPD2    H2 1257   0.150   4.683  10.411  0.1952  0.1212  0.6113
   82MPD2    H3 1258   0.351   4.661  10.546 -0.8827  1.3147  0.7344
   82MPD2     N 1259   0.185   4.331  10.805 -0.2135 -0.2503  1.0636
   82MPD2    H5 1260   0.274   4.331  10.855  0.2541 -0.9787  0.2300
   82MPD2    N1 1261   4.635   4.571  10.473  0.1759 -0.2852 -0.6822
   82MPD2    H7 1262   4.633   4.633  10.393 -3.9624  1.1194  0.5131
   83TCq2    C1 1263   0.092   4.233  10.836  0.0606  0.1329 -0.1825
   83TCq2    O2 1264   4.711   4.215  10.781  0.0849  0.6212 -0.0198
   83TCq2    C2 1265   0.132   4.136  10.937 -0.0885  0.7799 -0.4290
   83TCq2    C3 1266   0.240   4.148  11.021 -0.4005  0.0791  0.2573
   83TCq2    C4 1267   0.252   4.078  11.137  0.0801 -0.2194  0.3689
   83TCq2    C5 1268   0.154   3.981  11.172 -0.3866 -1.2186 -0.6928
   83TCq2    C6 1269   0.049   3.968  11.088  0.1889 -0.6838  0.4201
   83TCq2    C7 1270   0.031   4.046  10.975 -0.1305  0.1132  0.0477
   83TCq2    C8 1271   4.673   3.855  11.121 -0.2974 -0.2338  0.2401
   83TCq2    O4 1272   4.668   3.807  11.231 -0.7521 -0.5417 -0.3778
   83TCq2    C9 1273   0.372   4.098  11.211 -0.2818  0.1651  0.6457
   83TCq2    O5 1274   0.435   4.205  11.201 -0.3440  0.1625 -0.6768
   83TCq2    O6 1275   0.416   3.990  11.272  0.2384  0.1173  0.3291
   83TCq2    H2 1276   0.328   4.206  10.997 -0.3241 -0.0061  0.3279
   83TCq2    H3 1277   0.155   3.941  11.273 -0.6879  0.9552  0.1734
   83TCq2    H4 1278   4.670   4.034  10.909 -0.0989  0.6251 -0.0920
   84TCq2    C1 1279   1.300   2.878  10.603  0.0793  0.3542 -0.0513
   84TCq2    O2 1280   1.208   2.829  10.545  0.0776 -0.4762  0.0595
   84TCq2    C2 1281   1.290   2.921  10.741 -0.4121  0.0102  0.0583
   84TCq2    C3 1282   1.397   2.970  10.818  0.2165 -0.4353  0.4590
   84TCq2    C4 1283   1.374   3.007  10.945  0.0603  0.2005  0.0664
   84TCq2    C5 1284   1.249   2.991  10.998 -0.7301  0.3796 -0.1580
   84TCq2    C6 1285   1.148   2.945  10.923  0.2835 -0.1809 -0.5339
   84TCq2    C7 1286   1.165   2.908  10.794  0.0684 -0.2046  0.0697
   84TCq2    C8 1287   1.009   2.962  10.971 -0.7388 -0.5036 -0.2455
   84TCq2    O4 1288   0.928   2.896  10.916 -0.4647  0.0948  0.6451
   84TCq2    C9 1289   1.482   3.059  11.027 -0.7761  0.0545  0.1512
   84TCq2    O5 1290   1.454   3.091  11.144  0.7734 -0.0658 -0.2037
   84TCq2    O6 1291   1.597   3.046  10.974  0.3898  0.1992 -0.2466
   84TCq2    H2 1292   1.500   2.974  10.785  0.6361  1.2257  2.0188
   84TCq2    H3 1293   1.226   3.027  11.098 -2.3154 -1.7443  0.2523
   84TCq2    H4 1294   1.084   2.864  10.737 -1.6773  4.3706 -0.9232
   85MPD2     C 1295   1.894   0.683  16.452  0.4722 -0.5509  0.5810
   85MPD2    C1 1296   1.816   0.705  16.340 -0.1138 -0.3688 -0.5503
   85MPD2    C2 1297   1.855   0.810  16.255 -0.6124 -0.5846  0.4000
   85MPD2    C3 1298   1.972   0.884  16.275 -0.0354 -0.1453  0.5003
   85MPD2    C4 1299   2.046   0.852  16.387 -0.1632  0.6745  0.3370
   85MPD2    C5 1300   2.009   0.748  16.467  0.1112  0.4954 -0.0013
   85MPD2     H 1301   1.801   0.816  16.162  1.5662  0.3870 -0.7908
   85MPD2    H1 1302   2.141   0.903  16.397  0.0324  0.6057 -1.2418
   85MPD2    H2 1303   1.870   0.606  16.524 -1.5768 -0.7226 -0.2741
   85MPD2    H3 1304   2.062   0.707  16.552 -1.4591 -0.5789  0.4484
   85MPD2     N 1305   1.997   0.988  16.188 -0.3125  0.2077 -0.2467
   85MPD2    H5 1306   1.922   1.026  16.131 -0.2156  1.4486  0.4414
   85MPD2    N1 1307   1.708   0.628  16.296 -0.1926  0.1259  0.3089
   85MPD2    H7 1308   1.672   0.646  16.202 -0.6027 -0.3808  0.3705
   86TCq2    C1 1309   2.120   1.052  16.177 -0.1936 -0.5037 -0.4198
   86TCq2    O2 1310   2.233   1.021  16.220  0.3287 -0.9226 -0.2917
   86TCq2    C2 1311   2.093   1.179  16.102  0.0385 -0.0839 -0.9336
   86TCq2    C3 1312   1.983   1.249  16.121  0.8548 -0.0792  0.4751
   86TCq2    C4 1313   1.971   1.363  16.049  0.5840  0.1443  0.2879
   86TCq2    C5 1314   2.062   1.414  15.958  0.3387  0.4054  0.3484
   86TCq2    C6 1315   2.182   1.337  15.949  0.4570  0.9516 -0.6609
   86TCq2    C7 1316   2.201   1.225  16.029 -0.1802  0.4977  0.3061
   86TCq2    C8 1317   2.296   1.375  15.860  0.1147  0.6996 -0.1136
   86TCq2    O4 1318   2.396   1.305  15.866 -0.2870  0.9554  0.2207
   86TCq2    C9 1319   1.846   1.433  16.052 -0.5553  0.4165  0.2412
   86TCq2    O5 1320   1.843   1.545  15.996  0.6237  0.3519  0.3746
   86TCq2    O6 1321   1.753   1.390  16.126 -0.2256 -0.1034 -0.1336
   86TCq2    H2 1322   1.911   1.238  16.202  1.2432  0.2733  0.8652
   86TCq2    H3 1323   2.051   1.511  15.912  2.8343  0.1234 -0.8283
   86TCq2    H4 1324   2.283   1.154  16.016 -1.4209 -1.0968  1.2449
   87MPD2     C 1325   0.292   0.269   1.877 -0.2285  0.3225 -0.5029
   87MPD2    C1 1326   0.223   0.229   1.769 -0.2500 -0.0121  0.2881
   87MPD2    C2 1327   0.150   0.321   1.699  0.0501  0.3297  0.1147
   87MPD2    C3 1328   0.137   0.453   1.742 -0.7135  0.3740 -0.1540
   87MPD2    C4 1329   0.202   0.487   1.858 -0.1638 -0.4848 -0.5439
   87MPD2    C5 1330   0.278   0.396   1.918 -0.1463 -0.5023 -0.2600
   87MPD2     H 1331   0.093   0.294   1.610 -1.9617  3.7150  0.3924
   87MPD2    H1 1332   0.211   0.586   1.902 -0.0944 -2.3793  3.6847
   87MPD2    H2 1333   0.349   0.200   1.939  1.6087  2.3611  0.0887
   87MPD2    H3 1334   0.325   0.423   2.012  1.6629 -0.4384 -1.1725
   87MPD2     N 1335   0.068   0.560   1.678  0.6706  0.3412 -0.3839
   87MPD2    H5 1336   0.067   0.655   1.715  1.8644  0.0493  0.4084
   87MPD2    N1 1337   0.226   0.091   1.738 -0.4995 -0.1808 -0.2766
   87MPD2    H7 1338   0.275   0.024   1.795 -0.8669 -0.1399  0.0868
   88TCq2    C1 1339   0.180   0.040   1.623  0.2613 -0.5967 -0.0693
   88TCq2    O2 1340   0.120   0.093   1.529 -0.2968  0.1224 -0.1483
   88TCq2    C2 1341   0.185   4.619   1.623  0.3827 -0.4170  0.2268
   88TCq2    C3 1342   0.148   4.550   1.736 -0.4525 -0.3245 -0.0008
   88TCq2    C4 1343   0.141   4.410   1.727  0.0596 -0.1225  0.2424
   88TCq2    C5 1344   0.180   4.347   1.617  0.4117  0.7765 -1.0307
   88TCq2    C6 1345   0.207   4.424   1.503 -0.2221  0.0452 -0.4567
   88TCq2    C7 1346   0.211   4.556   1.504  0.3118  0.4180  0.6266
   88TCq2    C8 1347   0.251   4.359   1.381 -0.1362  0.2310 -0.4711
   88TCq2    O4 1348   0.329   4.422   1.311  0.5579 -0.2307  0.7784
   88TCq2    C9 1349   0.101   4.329   1.846  0.2033 -0.0544 -0.5442
   88TCq2    O5 1350   0.116   4.377   1.961 -0.2966 -0.0702 -0.6514
   88TCq2    O6 1351   0.042   4.224   1.816  0.0452 -0.2355  0.6432
   88TCq2    H2 1352   0.119   4.606   1.824  2.7379 -1.0767  1.5179
   88TCq2    H3 1353   0.186   4.239   1.618  0.8791  0.8177  1.3015
   88TCq2    H4 1354   0.244   4.611   1.416  2.0853  1.3353  1.8527
   89MPD2     C 1355   0.592   1.490   1.737  0.4995  0.1688 -0.0656
   89MPD2    C1 1356   0.508   1.593   1.708 -0.7394  0.2726  0.7302
   89MPD2    C2 1357   0.552   1.704   1.636  0.2240 -0.5292  0.9767
   89MPD2    C3 1358   0.675   1.706   1.575 -0.7521  1.2225  0.4973
   89MPD2    C4 1359   0.763   1.603   1.615 -0.8458  0.6597  0.8699
   89MPD2    C5 1360   0.719   1.504   1.694  0.3424  0.4980  0.1225
   89MPD2     H 1361   0.489   1.791   1.621  0.8827  0.0580  1.6298
   89MPD2    H1 1362   0.866   1.604   1.582 -1.2829  0.0843 -0.4738
   89MPD2    H2 1363   0.565   1.403   1.796  1.7431 -0.6519 -0.7219
   89MPD2    H3 1364   0.787   1.428   1.731  0.8797  0.1183 -1.6675
   89MPD2     N 1365   0.707   1.821   1.497 -0.2638  0.0025  0.4876
   89MPD2    H5 1366   0.632   1.886   1.477 -0.9251 -1.1367 -0.7151
   89MPD2    N1 1367   0.376   1.602   1.762  0.8283 -1.0762  0.1445
   89MPD2    H7 1368   0.315   1.682   1.751  0.0700 -1.4441  1.7478
   90TCq2    C1 1369   0.836   1.858   1.464 -0.2397 -0.6359 -0.2162
   90TCq2    O2 1370   0.939   1.828   1.522 -0.7669  0.0996  0.0978
   90TCq2    C2 1371   0.843   1.977   1.374 -0.4680 -0.0171  0.3416
   90TCq2    C3 1372   0.948   2.055   1.394  0.1342  0.3344 -0.2957
   90TCq2    C4 1373   0.957   2.172   1.328 -0.1708  0.4266 -0.3247
   90TCq2    C5 1374   0.855   2.215   1.252 -0.3931 -0.0027  0.5805
   90TCq2    C6 1375   0.749   2.128   1.224  0.2995 -0.2347  0.1002
   90TCq2    C7 1376   0.736   2.006   1.292  0.1524  0.0971  0.3967
   90TCq2    C8 1377   0.640   2.172   1.144  0.2829  0.3166  0.6227
   90TCq2    O4 1378   0.540   2.101   1.153  0.1395 -0.9587 -0.5063
   90TCq2    C9 1379   1.073   2.257   1.347 -0.6601 -0.2988 -0.3664
   90TCq2    O5 1380   1.086   2.355   1.271  0.0304  0.6420  0.3554
   90TCq2    O6 1381   1.151   2.217   1.440 -0.6395 -0.0894 -0.3424
   90TCq2    H2 1382   1.010   2.039   1.481  2.4580  1.8740 -1.6626
   90TCq2    H3 1383   0.852   2.317   1.217 -0.0416  0.1663  1.0539
   90TCq2    H4 1384   0.658   1.935   1.268 -0.8523  1.9168 -1.7832
   91TMC2    C1 1385   1.873   2.154  16.909 -0.4901  0.4170 -0.1203
   91TMC2    C2 1386   1.903   2.247  16.804  0.2085 -0.0253 -0.0191
   91TMC2    C3 1387   1.798   2.290  16.725  0.0541  0.5990  0.4402
   91TMC2    C4 1388   1.748   2.091  16.926  0.7042  0.0126 -0.1108
   91TMC2    C5 1389   1.644   2.134  16.839  0.8303 -0.3434 -0.2709
   91TMC2    C6 1390   1.666   2.229  16.740  0.1004  0.2591 -0.0890
   91TMC2     C 1391   1.979   2.119  17.001 -0.3850 -0.2039  0.5756
   91TMC2     O 1392   1.944   2.097  17.114 -0.5450 -0.0327  0.0618
   91TMC2     H 1393   1.997   2.300  16.807 -0.2157  0.7670 -0.5901
   91TMC2    H1 1394   1.733   2.016  17.003 -0.7759 -0.1794 -0.5890
   91TMC2    H2 1395   1.581   2.276  16.693 -1.0130 -1.0168  0.6298
   91TMC2    C7 1396   1.533   2.041  16.824  0.2849  0.1411 -1.3174
   91TMC2    C8 1397   1.833   2.366  16.608  0.2768 -0.2830 -0.7323
   91TMC2    O1 1398   1.503   1.972  16.920  0.0591 -0.4227 -0.3815
   91TMC2    O2 1399   1.757   2.445  16.560  0.4156  0.3822 -0.0437
   91TMC2    O5 1400   1.962   2.334  16.573  0.6161  0.9375 -0.2206
   91TMC2    H5 1401   1.995   2.259  16.629  0.5609  0.6873 -0.5254
   92MPD2     C 1402   2.237   2.075  17.141 -0.6942  0.5474 -0.3916
   92MPD2    C1 1403   2.213   2.055  17.009  0.6193  0.0328  0.5247
   92MPD2    C2 1404   2.315   1.997  16.930 -0.3822  0.3298 -0.3456
   92MPD2    C3 1405   2.437   1.961  16.979 -0.2441  0.0310 -0.2687
   92MPD2    C4 1406   2.456   1.970  17.118  0.3586  0.4404  0.2191
   92MPD2    C5 1407   2.364   2.043  17.188 -0.0805  0.6842  0.4002
   92MPD2     H 1408   2.293   1.969  16.827  0.9345 -0.1313 -0.4941
   92MPD2    H1 1409   2.552   1.963  17.166 -0.2372 -1.5610  1.1202
   92MPD2    H2 1410   2.167   2.127  17.205 -1.8827 -1.3884 -0.1001
   92MPD2    H3 1411   2.380   2.076  17.290  1.2869  1.6936 -0.1388
   92MPD2     N 1412   2.529   1.917  16.884  0.0410  0.6085  0.0631
   92MPD2    H5 1413   2.491   1.916  16.790 -1.2124 -3.2979  0.6397
   92MPD2    N1 1414   2.100   2.092  16.940  0.0009  0.2002 -0.3182
   92MPD2    H7 1415   2.095   2.087  16.839 -0.9534  0.4402 -0.2870
   93MPD2     C 1416   3.203   2.446  13.366 -1.3384  0.1495 -0.4072
   93MPD2    C1 1417   3.182   2.395  13.493 -0.2124 -0.6620 -0.2963
   93MPD2    C2 1418   3.065   2.335  13.527 -0.3497 -0.5609  0.4921
   93MPD2    C3 1419   2.965   2.320  13.426  0.0576  0.2291 -0.0423
   93MPD2    C4 1420   2.994   2.368  13.303 -0.5042 -0.9954  0.3356
   93MPD2    C5 1421   3.109   2.435  13.271 -0.8526 -0.2628  0.0805
   93MPD2     H 1422   3.048   2.299  13.628  0.7726 -1.9791  0.1748
   93MPD2    H1 1423   2.926   2.351  13.220 -0.9104  3.5226 -0.2217
   93MPD2    H2 1424   3.298   2.495  13.346  0.2135 -1.6143  2.6711
   93MPD2    H3 1425   3.115   2.467  13.168  0.8788  2.9274  1.1865
   93MPD2     N 1426   2.844   2.255  13.436 -0.3382  0.4619  0.2770
   93MPD2    H5 1427   2.799   2.227  13.350 -0.5346 -0.7737  0.7803
   93MPD2    N1 1428   3.284   2.396  13.594 -0.6215  0.4947  0.0810
   93MPD2    H7 1429   3.251   2.366  13.685  0.6008  1.1009  0.7215
   94TCq2    C1 1430   3.415   2.442  13.578 -0.0770  0.1976 -0.0943
   94TCq2    O2 1431   3.475   2.494  13.485 -0.1939 -0.2913 -0.8592
   94TCq2    C2 1432   3.498   2.430  13.699 -0.1292  0.9578 -0.5783
   94TCq2    C3 1433   3.484   2.311  13.771  0.7053 -0.0060 -0.4686
   94TCq2    C4 1434   3.572   2.281  13.865  0.4370 -0.0513  0.4575
   94TCq2    C5 1435   3.687   2.355  13.883 -0.1192  0.3094  0.6024
   94TCq2    C6 1436   3.693   2.477  13.821 -0.0753  0.6213 -0.0262
   94TCq2    C7 1437   3.614   2.506  13.714 -0.2080  0.0324 -0.1802
   94TCq2    C8 1438   3.833   2.523  13.812 -0.0439 -0.3020 -0.2527
   94TCq2    O4 1439   3.922   2.445  13.842  0.0886 -0.1403 -0.5132
   94TCq2    C9 1440   3.570   2.138  13.909 -0.2935 -0.9827 -0.2913
   94TCq2    O5 1441   3.462   2.073  13.898 -0.2819  0.2287  0.2096
   94TCq2    O6 1442   3.683   2.091  13.942  0.2020  0.2114  0.1567
   94TCq2    H2 1443   3.402   2.241  13.762  1.4203 -0.7591 -1.0779
   94TCq2    H3 1444   3.763   2.323  13.954 -2.1357 -1.5202  1.9234
   94TCq2    H4 1445   3.626   2.598  13.659 -0.2009  2.0889  3.2507
   95TMC2    C1 1446   3.681   3.635  16.584 -0.2126 -0.5089 -0.8281
   95TMC2    C2 1447   3.595   3.536  16.623  0.2565 -0.4528  0.7193
   95TMC2    C3 1448   3.548   3.542  16.749  0.3029  0.3791 -0.1819
   95TMC2    C4 1449   3.718   3.740  16.668  0.1774  0.5107  0.5936
   95TMC2    C5 1450   3.657   3.742  16.789 -0.4832 -1.0122 -0.9767
   95TMC2    C6 1451   3.588   3.637  16.836  0.6783  0.5429 -0.5343
   95TMC2     C 1452   3.727   3.642  16.443 -0.2954  0.4858 -0.1379
   95TMC2     O 1453   3.788   3.743  16.407  0.0539 -0.5956 -0.3554
   95TMC2     H 1454   3.555   3.472  16.545  1.5115 -0.9633  0.4853
   95TMC2    H1 1455   3.784   3.817  16.628  2.1416 -1.7804 -0.5671
   95TMC2    H2 1456   3.557   3.628  16.940 -3.7873  0.0254 -1.9435
   95TMC2    C7 1457   3.633   3.864  16.853  0.3326  0.1145  0.5712
   95TMC2    C8 1458   3.480   3.422  16.802 -0.2393  0.5966  0.2638
   95TMC2    O1 1459   3.619   3.853  16.972 -0.3937  0.1379 -0.5641
   95TMC2    O2 1460   3.484   3.385  16.918 -0.4608 -0.6313 -0.5138
   95TMC2    O5 1461   3.409   3.349  16.713  0.4129  0.2898 -0.2458
   95TMC2    H5 1462   3.409   3.360  16.615  0.1231  2.1532 -0.0338
   96MPD2     C 1463   3.858   3.441  15.998  0.0028 -0.2229 -1.2185
   96MPD2    C1 1464   3.898   3.552  16.061 -0.1661 -0.1424 -0.2074
   96MPD2    C2 1465   3.856   3.573  16.192  0.7754  0.2145  0.9249
   96MPD2    C3 1466   3.781   3.487  16.259 -0.3442 -0.7727  0.6178
   96MPD2    C4 1467   3.754   3.365  16.202  0.0171  0.5892 -0.7254
   96MPD2    C5 1468   3.796   3.337  16.069 -0.8623 -0.1124 -0.1247
   96MPD2     H 1469   3.887   3.665  16.240  1.6624 -0.9641  2.6140
   96MPD2    H1 1470   3.702   3.287  16.258  0.0298  1.2139  0.1583
   96MPD2    H2 1471   3.904   3.417  15.902  1.5200  0.2238 -0.6089
   96MPD2    H3 1472   3.777   3.238  16.029  1.7753 -1.2384  1.4246
   96MPD2     N 1473   3.730   3.516  16.383  0.1392  0.4810 -0.4716
   96MPD2    H5 1474   3.694   3.434  16.430 -0.3857  2.0482  1.8121
   96MPD2    N1 1475   3.972   3.641  15.977 -0.2847  0.0976 -0.3081
   96MPD2    H7 1476   3.968   3.609  15.881  2.1441  0.0201 -0.3919
   97MPD2     C 1477   1.172   0.257   1.166  0.2302 -0.2508  0.2438
   97MPD2    C1 1478   1.131   0.378   1.113 -0.0393 -0.0025  0.3857
   97MPD2    C2 1479   1.099   0.382   0.980 -0.3127  0.3063 -0.0754
   97MPD2    C3 1480   1.075   0.261   0.914 -0.2613 -0.0193  0.0736
   97MPD2    C4 1481   1.110   0.142   0.975  0.5671 -0.2149 -0.1528
   97MPD2    C5 1482   1.170   0.139   1.097  0.2476 -0.1354 -0.1550
   97MPD2     H 1483   1.066   0.473   0.932 -0.7676  0.5776  0.7572
   97MPD2    H1 1484   1.099   0.046   0.926 -1.1819 -0.1824  0.1737
   97MPD2    H2 1485   1.194   0.243   1.271 -0.0362 -2.1172  0.0472
   97MPD2    H3 1486   1.197   0.043   1.138 -3.3901 -0.9916  0.2170
   97MPD2     N 1487   1.024   0.249   0.781  0.4997 -0.4355  0.2858
   97MPD2    H5 1488   0.990   0.157   0.755 -0.5723 -0.1083  0.5463
   97MPD2    N1 1489   1.144   0.490   1.200 -0.1150 -0.2245 -0.9338
   97MPD2    H7 1490   1.159   0.467   1.298 -0.2929 -1.6993 -1.2529
   98TCq2    C1 1491   1.003   0.351   0.688  0.2275 -0.0519  0.0607
   98TCq2    O2 1492   1.045   0.466   0.698 -0.4462  0.3515  0.1549
   98TCq2    C2 1493   0.970   0.305   0.553 -0.3032 -0.5829  0.3822
   98TCq2    C3 1494   0.926   0.181   0.520 -0.2489  0.0197  0.0745
   98TCq2    C4 1495   0.917   0.151   0.390  0.3010  0.2882 -0.3257
   98TCq2    C5 1496   0.954   0.228   0.285  0.3264 -1.0290 -0.6259
   98TCq2    C6 1497   1.015   0.347   0.320 -0.1315  0.4627 -0.3420
   98TCq2    C7 1498   1.009   0.394   0.449  0.0835 -0.3301 -0.1996
   98TCq2    C8 1499   1.122   0.402   0.235  0.2626  0.2593 -0.3664
   98TCq2    O4 1500   1.212   0.457   0.292 -0.0229 -0.2191  0.6797
   98TCq2    C9 1501   0.848   0.028   0.364  0.3573 -0.4475  0.2781
   98TCq2    O5 1502   0.800   4.690   0.464  0.6444 -0.3499  0.2738
   98TCq2    O6 1503   0.872   4.694   0.255 -0.0598  0.3923  0.2982
   98TCq2    H2 1504   0.902   0.106   0.595 -1.3894 -0.7884 -1.1009
   98TCq2    H3 1505   0.939   0.193   0.183  1.4021  1.7801 -1.7344
   98TCq2    H4 1506   1.049   0.492   0.469 -0.8169  0.1707 -0.8779
   99MPD2     C 1507   0.395   3.434   1.786 -0.0979  0.0248 -0.3516
   99MPD2    C1 1508   0.280   3.365   1.816  0.4095  0.0260 -0.1451
   99MPD2    C2 1509   0.215   3.296   1.716  0.3006  0.2713  0.8733
   99MPD2    C3 1510   0.266   3.302   1.585 -0.7995  0.1495 -0.2825
   99MPD2    C4 1511   0.384   3.368   1.560 -0.9088 -0.3303 -0.2919
   99MPD2    C5 1512   0.442   3.443   1.655 -0.2314 -0.5933  0.2465
   99MPD2     H 1513   0.121   3.243   1.731  0.2228  0.2510  0.3161
   99MPD2    H1 1514   0.425   3.384   1.461 -2.2612 -1.9783 -1.1088
   99MPD2    H2 1515   0.446   3.497   1.857  0.8261 -0.8542 -0.2454
   99MPD2    H3 1516   0.532   3.498   1.632 -1.4110  1.0854 -0.3691
   99MPD2     N 1517   0.187   3.249   1.484 -0.6183 -0.2564  0.0063
   99MPD2    H5 1518   0.101   3.204   1.512 -1.2197  0.5135 -0.6023
   99MPD2    N1 1519   0.217   3.378   1.937  0.3345 -0.0022 -0.0666
   99MPD2    H7 1520   0.130   3.327   1.948 -0.1943  0.3524 -2.5806
  100TCq2    C1 1521   0.275   3.439   2.052 -0.3698 -0.1869  0.6405
  100TCq2    O2 1522   0.388   3.478   2.068  0.1890 -0.3429 -0.4897
  100TCq2    C2 1523   0.185   3.451   2.157  0.6209  0.0979 -0.3624
  100TCq2    C3 1524   0.246   3.466   2.281  0.3912 -0.7350  0.0354
  100TCq2    C4 1525   0.169   3.472   2.395  0.0952 -0.6720 -0.5670
  100TCq2    C5 1526   0.033   3.493   2.379 -0.0846 -0.1870  0.5616
  100TCq2    C6 1527   4.698   3.493   2.251 -1.5179  0.1950 -0.7563
  100TCq2    C7 1528   0.054   3.477   2.140  1.0104  0.4126 -0.5231
  100TCq2    C8 1529   4.554   3.520   2.244 -0.5128 -0.0201  0.2546
  100TCq2    O4 1530   4.507   3.568   2.345 -0.1462  0.3213 -0.1800
  100TCq2    C9 1531   0.226   3.482   2.528 -0.0239 -0.1507 -0.1594
  100TCq2    O5 1532   0.148   3.484   2.629  0.3456  0.6296 -0.2681
  100TCq2    O6 1533   0.350   3.466   2.534 -0.1185  0.0867 -0.7659
  100TCq2    H2 1534   0.353   3.447   2.288  0.2705 -1.5484 -0.2417
  100TCq2    H3 1535   4.692   3.511   2.464 -3.0961  1.6541 -2.1151
  100TCq2    H4 1536   0.021   3.497   2.039 -1.3784 -0.0802  0.1553
  101MPD2     C 1537   0.246   4.606  13.262  0.0821 -0.9480  0.1941
  101MPD2    C1 1538   0.117   4.631  13.213  0.6401 -0.1890  0.0130
  101MPD2    C2 1539   0.006   4.549  13.230  0.3076 -0.0753  0.6087
  101MPD2    C3 1540   0.036   4.417  13.279  0.5140 -0.4937 -0.1641
  101MPD2    C4 1541   0.160   4.400  13.347  0.2908  0.0160  0.2824
  101MPD2    C5 1542   0.265   4.488  13.331 -0.6339  0.9977  0.1366
  101MPD2     H 1543   4.637   4.575  13.180 -0.5897  1.9980  3.3169
  101MPD2    H1 1544   0.175   4.311  13.408 -1.5215 -0.3867  0.1552
  101MPD2    H2 1545   0.317   4.687  13.255 -1.2118  0.0485 -1.2672
  101MPD2    H3 1546   0.359   4.474  13.383 -2.2350 -1.2660  2.4273
  101MPD2     N 1547   4.649   4.326  13.284  0.3675 -0.4826  0.0207
  101MPD2    H5 1548   4.561   4.349  13.239  0.5169 -0.5672 -0.3172
  101MPD2    N1 1549   0.112   0.034  13.151  0.3426 -0.1723  0.7618
  101MPD2    H7 1550   0.196   0.091  13.141 -1.8009  2.6250 -1.4050
  102TCq2    C1 1551   0.368   0.359  12.881 -0.3448  0.4647  0.9345
  102TCq2    O2 1552   0.391   0.420  12.777 -0.0866 -0.0862  0.5034
  102TCq2    C2 1553   0.232   0.334  12.910  0.5502 -0.6165 -0.3664
  102TCq2    C3 1554   0.143   0.429  12.872  0.7281 -0.5990  0.1767
  102TCq2    C4 1555   0.012   0.414  12.912  0.4613 -0.1454  0.6794
  102TCq2    C5 1556   4.690   0.306  12.978 -0.8879  0.2164  0.8989
  102TCq2    C6 1557   0.056   0.214  13.015 -0.0326 -0.6947  0.0558
  102TCq2    C7 1558   0.190   0.223  12.983  0.1195  0.8175  0.2486
  102TCq2    C8 1559   0.013   0.094  13.079  0.2037 -0.0804  0.0210
  102TCq2    O4 1560   4.617   0.069  13.077  0.2295  0.4784  0.3679
  102TCq2    C9 1561   4.634   0.509  12.875 -0.4536 -0.1745  0.1784
  102TCq2    O5 1562   4.515   0.501  12.914 -0.0097 -0.2509  0.4086
  102TCq2    O6 1563   4.668   0.606  12.805 -0.2842  0.0366  0.4094
  102TCq2    H2 1564   0.172   0.520  12.819  0.2991 -1.8437 -2.2235
  102TCq2    H3 1565   4.586   0.302  13.007 -1.1441  3.0696  0.3524
  102TCq2    H4 1566   0.262   0.142  12.980  0.3184  1.0244 -0.4215
  103TMC2    C1 1567   3.493   0.374  12.630  0.0584  0.0435 -0.1229
  103TMC2    C2 1568   3.552   0.260  12.680  0.8136  0.0442  0.1269
  103TMC2    C3 1569   3.561   0.247  12.815  0.0150  0.6533  0.1492
  103TMC2    C4 1570   3.424   0.463  12.706  0.1779 -0.0832  0.2965
  103TMC2    C5 1571   3.442   0.445  12.843  0.3874  0.0453 -0.2410
  103TMC2    C6 1572   3.510   0.342  12.898  0.3385  0.4688  0.0945
  103TMC2     C 1573   3.502   0.398  12.484 -0.2259 -0.6321  0.7196
  103TMC2     O 1574   3.408   0.458  12.434 -0.5441  0.4087  0.3524
  103TMC2     H 1575   3.590   0.185  12.612 -2.0941  0.0216 -1.4697
  103TMC2    H1 1576   3.388   0.554  12.659  2.6390  1.0861  0.6800
  103TMC2    H2 1577   3.522   0.329  13.005  0.4105  0.4017  0.0787
  103TMC2    C7 1578   3.349   0.525  12.929  0.2388 -0.4853 -0.2815
  103TMC2    C8 1579   3.598   0.116  12.874  0.3509  0.2247 -0.3882
  103TMC2    O1 1580   3.378   0.527  13.048 -0.4656 -0.5042  0.1419
  103TMC2    O2 1581   3.581   0.011  12.813 -0.1933 -0.1847 -0.6016
  103TMC2    O5 1582   3.689   0.126  12.972 -0.0362 -0.3817  0.3933
  103TMC2    H5 1583   3.667   0.192  13.042  0.9414  0.9546 -0.5662
  104MPD2     C 1584   3.797   0.320  12.288  0.5173 -0.1804 -0.2729
  104MPD2    C1 1585   3.664   0.352  12.306 -0.0495 -0.5477 -0.1642
  104MPD2    C2 1586   3.585   0.395  12.199 -0.5187 -0.5233  0.6155
  104MPD2    C3 1587   3.644   0.411  12.074 -0.8781  0.2987  0.1710
  104MPD2    C4 1588   3.765   0.346  12.052 -0.0785  0.0478 -0.3014
  104MPD2    C5 1589   3.837   0.313  12.162  0.3799  0.1190  0.0778
  104MPD2     H 1590   3.484   0.431  12.214  0.0379  0.1653  2.7939
  104MPD2    H1 1591   3.809   0.347  11.953  0.1157 -0.5713 -0.2214
  104MPD2    H2 1592   3.862   0.285  12.367  1.1388  0.9331 -0.3035
  104MPD2    H3 1593   3.936   0.270  12.149 -0.7031 -2.9338  2.0323
  104MPD2     N 1594   3.585   0.473  11.965 -0.3128 -0.6460 -0.1660
  104MPD2    H5 1595   3.647   0.486  11.886  0.8257  0.3503  0.8925
  104MPD2    N1 1596   3.616   0.342  12.435 -0.0375 -0.0304 -0.5799
  104MPD2    H7 1597   3.674   0.296  12.503 -2.0780 -1.8468 -0.0711
  105MPD2     C 1598   0.719   3.692   0.018 -0.2386 -0.0070 -0.2246
  105MPD2    C1 1599   0.655   3.813   0.012 -0.0560 -0.0574  0.4424
  105MPD2    C2 1600   0.631   3.883   0.130  0.1790  0.4188 -0.4167
  105MPD2    C3 1601   0.675   3.829   0.251  0.6829  0.5862 -0.2026
  105MPD2    C4 1602   0.746   3.710   0.258  0.0420  0.0036 -0.5297
  105MPD2    C5 1603   0.761   3.637   0.138  0.1774 -0.1343  0.3625
  105MPD2     H 1604   0.583   3.981   0.130 -0.0223  0.3243  0.9309
  105MPD2    H1 1605   0.771   3.662   0.352 -2.1120 -0.6666 -0.3058
  105MPD2    H2 1606   0.742   3.626  17.631  1.3241  0.6465 -0.2924
  105MPD2    H3 1607   0.830   3.554   0.130  1.7425  1.0999  1.0371
  105MPD2     N 1608   0.665   3.918   0.359  0.7922  0.3590 -0.0670
  105MPD2    H5 1609   0.634   4.012   0.335 -0.9629  0.0287  0.9367
  105MPD2    N1 1610   0.616   3.871  17.588  0.4160  0.6888 -0.3520
  105MPD2    H7 1611   0.561   3.956  17.595  2.6502  2.2558 -1.7364
  106TCq2    C1 1612   0.686   3.885   0.483 -0.5291  1.3670  0.0552
  106TCq2    O2 1613   0.689   3.774   0.538 -0.0741  0.0554 -0.5943
  106TCq2    C2 1614   0.662   4.006   0.565  0.1401  0.9636 -0.0753
  106TCq2    C3 1615   0.658   4.127   0.502 -0.3813  0.1149  0.0299
  106TCq2    C4 1616   0.579   4.223   0.558 -0.1169 -0.1247  0.0839
  106TCq2    C5 1617   0.512   4.196   0.670 -0.1387  0.2503 -0.1617
  106TCq2    C6 1618   0.524   4.079   0.739  0.0055 -0.0803  0.7222
  106TCq2    C7 1619   0.611   3.986   0.690 -0.2780  1.2597 -0.2324
  106TCq2    C8 1620   0.427   4.042   0.838  0.4019  0.5371 -0.7101
  106TCq2    O4 1621   0.421   3.920   0.847 -0.3743  0.8067  0.1219
  106TCq2    C9 1622   0.555   4.352   0.497 -0.4906 -0.2030  0.7099
  106TCq2    O5 1623   0.449   4.408   0.522  0.8816 -0.2328  0.3955
  106TCq2    O6 1624   0.622   4.379   0.395 -0.1318 -0.1021  0.0586
  106TCq2    H2 1625   0.713   4.153   0.411 -1.5381  0.3517 -0.5943
  106TCq2    H3 1626   0.431   4.264   0.694 -0.0064  0.5968 -0.6949
  106TCq2    H4 1627   0.620   3.890   0.741 -1.0149  1.6571  0.6477
  107TMC2    C1 1628   0.546   3.759  11.511 -0.1211 -0.1714 -0.3784
  107TMC2    C2 1629   0.609   3.846  11.428 -0.4507  0.2143 -0.1925
  107TMC2    C3 1630   0.672   3.797  11.319 -0.5790 -0.0277  0.2488
  107TMC2    C4 1631   0.545   3.629  11.491  0.9393  0.5180 -0.2002
  107TMC2    C5 1632   0.638   3.584  11.402 -0.0352 -0.0633  0.1797
  107TMC2    C6 1633   0.694   3.663  11.309  0.4481 -0.4346 -0.4720
  107TMC2     C 1634   0.438   3.805  11.595 -0.0543  0.6909  0.2218
  107TMC2     O 1635   0.428   3.735  11.696  0.0387  0.2049  0.1903
  107TMC2     H 1636   0.606   3.955  11.424  1.5695  0.3278  1.0632
  107TMC2    H1 1637   0.506   3.557  11.561 -0.9718  0.7292 -1.0222
  107TMC2    H2 1638   0.752   3.623  11.226 -0.1959  1.2904 -1.7627
  107TMC2    C7 1639   0.629   3.442  11.377 -0.4386  0.0247  0.8498
  107TMC2    C8 1640   0.746   3.883  11.224  0.7728  0.5376  0.1683
  107TMC2    O1 1641   0.526   3.389  11.419  0.0891  0.2222 -0.0170
  107TMC2    O2 1642   0.841   3.844  11.159 -0.0163 -0.5866  0.4442
  107TMC2    O5 1643   0.665   3.987  11.201 -0.2079  0.6973 -0.0246
  107TMC2    H5 1644   0.577   3.993  11.244 -0.5905 -0.1884 -0.6814
  108MPD2     C 1645   0.224   4.099  11.559 -0.0726  0.4074 -0.0424
  108MPD2    C1 1646   0.280   3.992  11.630  0.0138 -0.1864  0.9394
  108MPD2    C2 1647   0.252   3.977  11.765  0.3977 -0.0888 -0.3054
  108MPD2    C3 1648   0.161   4.060  11.829 -0.0619  0.6432  0.3087
  108MPD2    C4 1649   0.116   4.167  11.760  0.0175 -0.5211  0.2684
  108MPD2    C5 1650   0.149   4.185  11.629 -0.7105 -0.0932  0.1549
  108MPD2     H 1651   0.308   3.902  11.821  0.7889  0.5576  0.1616
  108MPD2    H1 1652   0.046   4.241  11.798  0.6111  0.2617 -0.1417
  108MPD2    H2 1653   0.247   4.121  11.456 -0.7006 -1.4404 -0.5906
  108MPD2    H3 1654   0.105   4.267  11.573  0.4825  0.3002 -0.2283
  108MPD2     N 1655   0.104   4.041  11.958  0.0419 -0.6781 -0.3200
  108MPD2    H5 1656   0.025   4.101  11.981 -0.0583 -0.8464 -0.2199
  108MPD2    N1 1657   0.376   3.917  11.558  0.7202  0.6538  0.3852
  108MPD2    H7 1658   0.393   3.948  11.463 -0.7961 -1.4920 -0.5713
  109MPD2     C 1659   1.418   0.311   2.381 -0.6467  0.2432 -0.3277
  109MPD2    C1 1660   1.395   0.360   2.254  0.0287  0.4641 -0.1972
  109MPD2    C2 1661   1.467   0.467   2.216 -0.3964 -0.4257  0.0218
  109MPD2    C3 1662   1.557   0.530   2.307 -0.4621 -0.3853  0.0567
  109MPD2    C4 1663   1.568   0.487   2.438  0.2690  0.2276 -0.2298
  109MPD2    C5 1664   1.502   0.373   2.465 -0.7841  0.2374 -0.2660
  109MPD2     H 1665   1.444   0.517   2.123  0.3704  0.5172  0.3323
  109MPD2    H1 1666   1.632   0.539   2.508 -2.0632  2.2850  0.3679
  109MPD2    H2 1667   1.352   0.235   2.421 -1.9356  1.4169 -0.2207
  109MPD2    H3 1668   1.509   0.325   2.562 -1.1277 -1.4389 -1.0618
  109MPD2     N 1669   1.631   0.645   2.262  0.2754  0.8717 -0.1304
  109MPD2    H5 1670   1.627   0.677   2.166  0.9382 -0.1224 -0.4872
  109MPD2    N1 1671   1.280   0.321   2.183  0.0832 -0.0839  0.2581
  109MPD2    H7 1672   1.226   0.242   2.220 -0.2425 -0.3381 -0.7706
  110TCq2    C1 1673   1.721   0.712   2.328 -0.3775 -0.5676  0.1573
  110TCq2    O2 1674   1.779   0.694   2.433 -0.2777 -0.1178  0.2466
  110TCq2    C2 1675   1.756   0.831   2.251 -0.5440  0.0362 -0.3688
  110TCq2    C3 1676   1.891   0.860   2.252 -0.5181 -0.3199 -0.3710
  110TCq2    C4 1677   1.929   0.953   2.162  0.1922 -0.2785 -0.8635
  110TCq2    C5 1678   1.842   1.012   2.069 -0.1133  0.0962  0.0870
  110TCq2    C6 1679   1.712   0.972   2.070 -0.1038  0.5729  0.2044
  110TCq2    C7 1680   1.662   0.896   2.166  1.0274  0.0959  0.6650
  110TCq2    C8 1681   1.641   0.956   1.942  0.4654 -0.3044 -0.5122
  110TCq2    O4 1682   1.520   0.929   1.950  0.5025  0.0452  0.0612
  110TCq2    C9 1683   2.074   0.978   2.162  0.0287  0.1159 -0.2842
  110TCq2    O5 1684   2.142   0.934   2.256  0.0712 -0.0988  0.0356
  110TCq2    O6 1685   2.120   1.063   2.085 -0.2938  0.0113  0.3156
  110TCq2    H2 1686   1.950   0.800   2.319 -0.2040  0.4479  0.0395
  110TCq2    H3 1687   1.875   1.090   2.001 -0.2406 -0.6020 -0.7679
  110TCq2    H4 1688   1.554   0.884   2.174  1.4445 -3.5005  1.1491
  111TMC2    C1 1689   0.415   0.792  11.662  0.1911  0.0773  0.1332
  111TMC2    C2 1690   0.296   0.783  11.726 -0.1577 -0.3563 -0.3174
  111TMC2    C3 1691   0.299   0.821  11.855 -0.0273 -0.4314  0.3116
  111TMC2    C4 1692   0.535   0.822  11.713  0.2327 -0.5169  0.1570
  111TMC2    C5 1693   0.529   0.887  11.837 -0.3866 -0.0777  0.0473
  111TMC2    C6 1694   0.411   0.879  11.911  0.4545 -0.5684  0.0746
  111TMC2     C 1695   0.414   0.787  11.513 -0.0198  0.1699 -0.1943
  111TMC2     O 1696   0.520   0.780  11.451 -0.7264  0.1184 -0.4425
  111TMC2     H 1697   0.197   0.755  11.692 -0.3071 -1.1545  0.7715
  111TMC2    H1 1698   0.630   0.812  11.664 -0.1630 -0.0871 -0.6866
  111TMC2    H2 1699   0.405   0.944  11.997 -0.4560 -0.6907  0.1016
  111TMC2    C7 1700   0.645   0.891  11.919 -0.2800  0.6374  0.9559
  111TMC2    C8 1701   0.164   0.834  11.920  0.0711 -0.4479  0.1976
  111TMC2    O1 1702   0.624   0.882  12.034 -0.1188 -0.1885 -0.0931
  111TMC2    O2 1703   0.078   0.903  11.867  0.3792  0.5277 -0.4389
  111TMC2    O5 1704   0.189   0.846  12.052 -0.0702  0.2281 -0.3779
  111TMC2    H5 1705   0.243   0.768  12.079 -2.8883 -1.6974 -0.2617
  112MPD2     C 1706   0.120   0.709  11.107 -1.0689  0.6556  0.4434
  112MPD2    C1 1707   0.266   0.713  11.119 -0.3547 -0.6601  0.2084
  112MPD2    C2 1708   0.322   0.740  11.245 -0.4524 -0.3992  0.1825
  112MPD2    C3 1709   0.237   0.768  11.348  0.1947  0.9462 -0.7283
  112MPD2    C4 1710   0.098   0.762  11.340 -0.9774 -0.0239 -0.1569
  112MPD2    C5 1711   0.040   0.737  11.219  0.6052 -0.2011 -0.3734
  112MPD2     H 1712   0.430   0.752  11.248 -0.4609  0.1625 -1.8737
  112MPD2    H1 1713   0.023   0.787  11.415 -1.6298  0.5244 -0.9975
  112MPD2    H2 1714   0.074   0.690  11.011 -0.3838 -2.7754  0.8008
  112MPD2    H3 1715   4.656   0.728  11.217  0.3505  2.7086 -0.6926
  112MPD2     N 1716   0.288   0.796  11.472  0.5642  0.1077 -0.6874
  112MPD2    H5 1717   0.211   0.812  11.536 -0.2209  0.9349 -1.8272
  112MPD2    N1 1718   0.350   0.689  11.007  0.0334  0.2684  0.1252
  112MPD2    H7 1719   0.448   0.706  11.022 -0.4431  1.1723  2.2054
  113MPD2     C 1720   3.823   2.962   1.080 -0.3725  0.4049 -0.1771
  113MPD2    C1 1721   3.824   3.083   1.011 -0.1459 -0.5425 -0.6139
  113MPD2    C2 1722   3.713   3.103   0.924  0.5313  0.4782 -0.3055
  113MPD2    C3 1723   3.606   3.014   0.929  0.7634  0.2911 -0.2195
  113MPD2    C4 1724   3.611   2.896   0.996 -0.3273  0.6425 -0.5310
  113MPD2    C5 1725   3.723   2.868   1.061  0.2472 -0.5817  0.1713
  113MPD2     H 1726   3.703   3.190   0.860  2.0074  0.1678 -0.9532
  113MPD2    H1 1727   3.539   2.818   0.975 -0.0647  0.6892 -1.6148
  113MPD2    H2 1728   3.910   2.930   1.136 -1.1699 -1.2857  0.1281
  113MPD2    H3 1729   3.740   2.777   1.117  1.4228  0.4998  1.5635
  113MPD2     N 1730   3.490   3.023   0.842 -0.2248 -0.0584  0.5189
  113MPD2    H5 1731   3.423   2.947   0.849  0.3639 -0.7564 -1.5802
  113MPD2    N1 1732   3.929   3.176   1.008 -0.1933 -0.1356 -0.4461
  113MPD2    H7 1733   3.904   3.262   0.960 -1.5036 -0.5561 -0.5289
  114TCq2    C1 1734   3.454   3.128   0.763 -0.0816  0.2712 -0.5881
  114TCq2    O2 1735   3.505   3.236   0.757 -0.0652  0.3462 -0.1436
  114TCq2    C2 1736   3.317   3.114   0.714  0.1602 -0.4396  0.2825
  114TCq2    C3 1737   3.275   3.197   0.612  0.2357 -0.5168  0.3179
  114TCq2    C4 1738   3.151   3.185   0.566  0.1751 -0.9694 -0.3459
  114TCq2    C5 1739   3.065   3.085   0.613 -0.7472 -0.3497 -0.1021
  114TCq2    C6 1740   3.108   3.005   0.714  0.0879  0.5524 -0.0881
  114TCq2    C7 1741   3.233   3.021   0.775  0.3857  0.1984 -0.2982
  114TCq2    C8 1742   3.011   2.909   0.774  0.4552 -0.3874  0.7188
  114TCq2    O4 1743   2.898   2.905   0.729 -1.0194 -0.2630  0.4844
  114TCq2    C9 1744   3.096   3.266   0.458 -0.0691  0.1386  0.0608
  114TCq2    O5 1745   3.140   3.386   0.436 -0.2977  0.3678 -0.6017
  114TCq2    O6 1746   2.995   3.224   0.404  0.5660 -0.0812  0.3431
  114TCq2    H2 1747   3.346   3.267   0.570  0.0915 -1.2967 -1.2333
  114TCq2    H3 1748   2.975   3.060   0.558 -1.8608 -0.2310  1.6797
  114TCq2    H4 1749   3.263   2.966   0.864  0.6120 -1.6851 -1.5260
  115TMC2    C1 1750   4.222   0.869   0.036  0.5441  0.4562 -0.0519
  115TMC2    C2 1751   4.348   0.853   0.068  0.4895 -0.3946  0.2895
  115TMC2    C3 1752   4.429   0.963   0.093  1.0241  0.6992 -0.0359
  115TMC2    C4 1753   4.161   0.997   0.026  0.1229  0.0548  0.3332
  115TMC2    C5 1754   4.251   1.102   0.044 -0.4783  0.6911 -0.6163
  115TMC2    C6 1755   4.377   1.093   0.080  0.5832  0.0183  0.6506
  115TMC2     C 1756   4.156   0.747  17.682 -0.4420 -0.3692  0.2210
  115TMC2     O 1757   4.223   0.644  17.658  0.4862  0.3134  0.0198
  115TMC2     H 1758   4.391   0.754   0.085 -2.2099 -1.8260 -1.2768
  115TMC2    H1 1759   4.061   1.012  17.685  0.1452 -1.6421 -0.4034
  115TMC2    H2 1760   4.437   1.179   0.107 -0.1178  0.6863  0.0529
  115TMC2    C7 1761   4.186   1.233   0.039 -0.1992  0.0349 -0.7012
  115TMC2    C8 1762   4.568   0.962   0.122 -0.2813  0.6514  0.2212
  115TMC2    O1 1763   4.064   1.235   0.024 -0.3673 -0.0283 -0.4097
  115TMC2    O2 1764   4.626   1.053   0.179  0.0251 -0.1863  0.1935
  115TMC2    O5 1765   4.610   0.828   0.126 -0.0452 -0.4265  0.0300
  115TMC2    H5 1766   4.561   0.761   0.073 -1.4719 -0.4108  1.3465
  116MPD2     C 1767   3.735   0.514  17.492  0.0897  0.1566 -0.1521
  116MPD2    C1 1768   3.866   0.502  17.450 -0.1713  1.0431 -0.1232
  116MPD2    C2 1769   3.967   0.568  17.529  0.4159  0.4840  0.9239
  116MPD2    C3 1770   3.930   0.650  17.638 -0.4296 -0.3992 -0.1833
  116MPD2    C4 1771   3.796   0.648  17.677 -0.6029 -0.6849  0.4319
  116MPD2    C5 1772   3.704   0.575  17.606 -0.4817  0.0965  0.2326
  116MPD2     H 1773   4.070   0.566  17.495  0.2141 -2.3832  0.4906
  116MPD2    H1 1774   3.759   0.708   0.063 -0.7956  0.2712 -0.3454
  116MPD2    H2 1775   3.656   0.455  17.446  0.1825 -1.1076  1.2984
  116MPD2    H3 1776   3.606   0.561  17.650 -0.1682 -1.8843  0.3007
  116MPD2     N 1777   4.017   0.748  17.692 -0.4355 -0.0438  0.0457
  116MPD2    H5 1778   3.965   0.820   0.045  0.0952  1.0313 -0.9714
  116MPD2    N1 1779   3.902   0.419  17.339 -0.3183 -0.1359  1.0479
  116MPD2    H7 1780   3.837   0.396  17.264  0.6214  0.7566 -0.0308
  117TMC2    C1 1781   2.732   2.642  13.586 -0.0745  0.1197 -0.1232
  117TMC2    C2 1782   2.739   2.574  13.699  0.3693  0.0399  0.2830
  117TMC2    C3 1783   2.861   2.573  13.754 -0.8492 -0.3911 -0.2604
  117TMC2    C4 1784   2.847   2.697  13.528  1.0184 -0.3698 -0.2745
  117TMC2    C5 1785   2.969   2.683  13.581  0.1069  0.5768 -0.4953
  117TMC2    C6 1786   2.980   2.616  13.703 -0.5990 -0.2471 -0.5727
  117TMC2     C 1787   2.622   2.744  13.585 -0.5317 -0.7865 -0.2396
  117TMC2     O 1788   2.632   2.855  13.535 -0.1604  0.0104 -0.6151
  117TMC2     H 1789   2.652   2.546  13.757  0.5743 -0.9020  0.1330
  117TMC2    H1 1790   2.841   2.765  13.444 -0.7313 -0.2027 -0.0191
  117TMC2    H2 1791   3.074   2.596  13.753 -1.8462 -0.8881  1.5295
  117TMC2    C7 1792   3.084   2.754  13.537  0.2076 -0.0251 -0.2231
  117TMC2    C8 1793   2.854   2.522  13.892 -0.1626 -0.2104  0.3996
  117TMC2    O1 1794   3.151   2.806  13.628  0.3323 -0.6276  0.5346
  117TMC2    O2 1795   2.853   2.602  13.982 -0.4389  0.0515  0.8757
  117TMC2    O5 1796   2.789   2.407  13.878  0.0669  0.2031 -0.0591
  117TMC2    H5 1797   2.794   2.379  13.784  1.6706  1.7722 -0.4562
  118MPD2     C 1798   3.166   2.862  13.194  0.1528  0.1484  0.0301
  118MPD2    C1 1799   3.164   2.868  13.330 -0.5024 -0.7726  0.9498
  118MPD2    C2 1800   3.209   2.977  13.397  0.2964 -0.3968 -0.1963
  118MPD2    C3 1801   3.250   3.086  13.324 -0.7011  0.3184  0.4597
  118MPD2    C4 1802   3.243   3.085  13.190  0.7472 -0.3245  0.1309
  118MPD2    C5 1803   3.210   2.967  13.124 -0.0572 -0.1567 -0.2492
  118MPD2     H 1804   3.209   2.977  13.506 -0.3069 -2.2274 -0.1978
  118MPD2    H1 1805   3.261   3.171  13.127 -1.7283 -0.2978 -0.5309
  118MPD2    H2 1806   3.151   2.767  13.144  0.8355 -0.0340  0.1706
  118MPD2    H3 1807   3.231   2.963  13.017  0.8795  2.4224 -0.1557
  118MPD2     N 1808   3.287   3.204  13.389  0.2500  0.2552  0.5049
  118MPD2    H5 1809   3.311   3.281  13.328  0.9710 -0.4093 -0.0401
  118MPD2    N1 1810   3.094   2.770  13.399  0.1741  0.0415  0.6805
  118MPD2    H7 1811   3.031   2.723  13.335  0.0081 -0.6783  1.3651
  119MPD2     C 1812   1.488   4.346  14.158 -0.5837 -0.4091 -0.4976
  119MPD2    C1 1813   1.361   4.310  14.152  0.1744 -0.0951 -0.5740
  119MPD2    C2 1814   1.300   4.299  14.030  0.2590  0.1336 -0.2545
  119MPD2    C3 1815   1.380   4.300  13.915 -0.4985 -0.3371  0.1832
  119MPD2    C4 1816   1.517   4.336  13.924  0.5532  0.1172 -0.0412
  119MPD2    C5 1817   1.571   4.352  14.048  0.1322 -0.4353  0.2021
  119MPD2     H 1818   1.191   4.296  14.021  0.1222 -2.8436  2.3058
  119MPD2    H1 1819   1.575   4.336  13.832  2.3737 -1.9566  1.1050
  119MPD2    H2 1820   1.531   4.361  14.257 -0.0025 -0.2076 -0.7782
  119MPD2    H3 1821   1.678   4.367  14.059  0.4693 -1.0635 -2.2978
  119MPD2     N 1822   1.332   4.266  13.788  0.1989  0.9997  0.3105
  119MPD2    H5 1823   1.401   4.252  13.716 -0.0641  1.6214 -0.0618
  119MPD2    N1 1824   1.296   4.305  14.275  0.3530 -0.6548 -0.0288
  119MPD2    H7 1825   1.355   4.343  14.348  1.2642 -1.8829 -0.1379
  120TCq2    C1 1826   1.202   4.226  13.758 -0.2370  0.0894 -0.8202
  120TCq2    O2 1827   1.104   4.225  13.832 -0.0054  0.1475  0.4070
  120TCq2    C2 1828   1.187   4.187  13.625  0.8328 -0.3456  0.2841
  120TCq2    C3 1829   1.282   4.222  13.524 -0.6359 -0.3063  0.5903
  120TCq2    C4 1830   1.248   4.207  13.391 -0.2717  0.2717 -0.3051
  120TCq2    C5 1831   1.124   4.163  13.348  0.8116  0.0419 -0.7575
  120TCq2    C6 1832   1.033   4.135  13.447  0.6218  0.2096  0.4242
  120TCq2    C7 1833   1.060   4.146  13.588 -0.9254 -0.4725 -0.5220
  120TCq2    C8 1834   0.919   4.065  13.403  0.0066  0.1473  0.1127
  120TCq2    O4 1835   0.890   4.068  13.285  0.2360 -0.2756  0.8795
  120TCq2    C9 1836   1.357   4.209  13.294  0.5792 -0.1279 -0.5188
  120TCq2    O5 1837   1.330   4.163  13.180  0.6718  0.6294  0.2279
  120TCq2    O6 1838   1.472   4.232  13.337  0.5117  0.2730  0.1731
  120TCq2    H2 1839   1.382   4.256  13.547 -1.0257 -1.3482  3.7790
  120TCq2    H3 1840   1.099   4.152  13.244  0.8293  2.2688 -1.0002
  120TCq2    H4 1841   0.991   4.115  13.666 -1.2311 -1.6962 -1.2846
  121TMC2    C1 1842   2.935   1.323  13.756  0.2840 -0.5926  0.5497
  121TMC2    C2 1843   2.937   1.208  13.677  0.6346 -0.5621 -0.1887
  121TMC2    C3 1844   2.813   1.188  13.615 -0.3308 -0.2989 -0.2045
  121TMC2    C4 1845   2.826   1.394  13.787 -0.3523  0.1294 -0.2470
  121TMC2    C5 1846   2.717   1.382  13.704  0.1275  0.4248  0.2619
  121TMC2    C6 1847   2.709   1.275  13.624  0.2322  0.2255 -0.1614
  121TMC2     C 1848   3.053   1.407  13.761  0.5890  0.2100  0.0470
  121TMC2     O 1849   3.042   1.497  13.843 -0.2724  0.3146 -0.2206
  121TMC2     H 1850   3.024   1.148  13.653  0.7221 -0.5365  0.0721
  121TMC2    H1 1851   2.832   1.463  13.870 -0.4086 -0.5632  0.3411
  121TMC2    H2 1852   2.624   1.272  13.557  1.1518  1.7209 -1.4043
  121TMC2    C7 1853   2.703   1.510  13.640 -0.1008  0.4248 -0.8347
  121TMC2    C8 1854   2.805   1.084  13.511 -0.8483  0.1606  0.0686
  121TMC2    O1 1855   2.771   1.605  13.674  0.4540 -0.2311  0.3803
  121TMC2    O2 1856   2.745   1.111  13.409 -0.1938  0.0643  0.3965
  121TMC2    O5 1857   2.908   1.004  13.521 -0.3762 -0.1385  0.4283
  121TMC2    H5 1858   2.935   0.988  13.614 -0.9192  0.2290  0.6526
  122MPD2     C 1859   3.196   1.637  13.637  0.4385 -0.3752 -0.3822
  122MPD2    C1 1860   3.193   1.509  13.584  0.1309 -1.2805  0.2402
  122MPD2    C2 1861   3.258   1.480  13.464 -0.0402  0.2592 -0.1895
  122MPD2    C3 1862   3.325   1.583  13.397  0.8320  0.4607 -0.6202
  122MPD2    C4 1863   3.318   1.714  13.442 -0.1632 -0.8696 -0.2916
  122MPD2    C5 1864   3.262   1.735  13.559 -0.3160  0.7341 -0.8989
  122MPD2     H 1865   3.271   1.377  13.434 -1.6779 -0.3592  1.2158
  122MPD2    H1 1866   3.388   1.785  13.400 -0.4837 -0.4406 -0.0965
  122MPD2    H2 1867   3.169   1.659  13.739 -1.5518  0.5175 -1.1005
  122MPD2    H3 1868   3.254   1.829  13.612  0.8326 -0.2819  1.0831
  122MPD2     N 1869   3.394   1.561  13.273 -0.1207  0.2923  0.0609
  122MPD2    H5 1870   3.428   1.647  13.230  0.2564 -0.0737 -0.3654
  122MPD2    N1 1871   3.135   1.399  13.651 -0.5179 -0.1037 -0.1389
  122MPD2    H7 1872   3.142   1.306  13.613  1.6648 -1.1147  2.7016
  123MPD2     C 1873   1.826   4.336   8.955  0.5075  0.0753  0.6047
  123MPD2    C1 1874   1.818   4.263   9.077  0.8326  0.0201  0.6419
  123MPD2    C2 1875   1.850   4.123   9.072  0.4097  0.1977  0.1183
  123MPD2    C3 1876   1.900   4.072   8.956  0.5788 -0.5923 -0.3955
  123MPD2    C4 1877   1.923   4.146   8.842  0.7281 -0.3189 -0.3474
  123MPD2    C5 1878   1.883   4.277   8.843 -0.3400 -0.3653 -0.5137
  123MPD2     H 1879   1.853   4.067   9.164 -0.7090 -1.2161 -0.7025
  123MPD2    H1 1880   1.974   4.111   8.753  0.2470 -0.2544 -0.6497
  123MPD2    H2 1881   1.795   4.439   8.940  1.0211 -0.0465 -1.2559
  123MPD2    H3 1882   1.900   4.340   8.756  0.7254 -0.0226 -0.0590
  123MPD2     N 1883   1.931   3.932   8.967 -0.7231 -0.0985 -0.6991
  123MPD2    H5 1884   1.903   3.889   9.055 -0.6803 -0.4557 -0.8642
  123MPD2    N1 1885   1.756   4.331   9.181  0.2694  0.0068 -0.0044
  123MPD2    H7 1886   1.739   4.430   9.171 -1.2676 -0.1942  0.5069
  124TCq2    C1 1887   2.015   3.858   8.884 -0.0674 -0.6934 -0.2922
  124TCq2    O2 1888   2.087   3.896   8.791 -0.2027  0.0044  0.5635
  124TCq2    C2 1889   2.002   3.712   8.915  0.6556 -0.2866 -0.0169
  124TCq2    C3 1890   2.102   3.626   8.861 -0.1355 -0.2034 -0.3901
  124TCq2    C4 1891   2.090   3.494   8.857  1.3670 -0.1700 -0.2284
  124TCq2    C5 1892   1.987   3.437   8.923  0.1701  0.0563  0.0266
  124TCq2    C6 1893   1.898   3.514   8.980  0.6951 -0.1047 -0.2954
  124TCq2    C7 1894   1.903   3.651   8.987 -0.0601 -0.0186  0.5730
  124TCq2    C8 1895   1.792   3.456   9.059 -0.4415  0.1903 -0.5463
  124TCq2    O4 1896   1.729   3.520   9.138 -0.6082 -0.3397  0.6388
  124TCq2    C9 1897   2.192   3.424   8.798 -0.0611 -0.5578  0.1910
  124TCq2    O5 1898   2.292   3.487   8.769 -0.1960  0.5066 -0.1840
  124TCq2    O6 1899   2.185   3.301   8.809  0.4491 -0.2601 -0.0534
  124TCq2    H2 1900   2.188   3.675   8.816  0.4812 -0.9756 -0.0432
  124TCq2    H3 1901   1.970   3.330   8.923 -1.2303  0.2830 -0.1114
  124TCq2    H4 1902   1.824   3.712   9.029 -0.8285 -0.1193 -0.7219
  125TMC2    C1 1903   2.072   1.486   9.304 -0.3952 -0.0749  0.1391
  125TMC2    C2 1904   2.121   1.567   9.202 -0.4243  0.3900 -0.0857
  125TMC2    C3 1905   2.257   1.580   9.186  0.1008  0.4859 -0.1961
  125TMC2    C4 1906   2.161   1.409   9.372 -0.0093 -0.0005 -0.0169
  125TMC2    C5 1907   2.295   1.425   9.356 -0.6431 -0.4930  0.2671
  125TMC2    C6 1908   2.343   1.508   9.262  0.1878  0.3645 -0.4903
  125TMC2     C 1909   1.936   1.523   9.350 -0.5001 -1.0506 -0.6663
  125TMC2     O 1910   1.874   1.616   9.292  0.3820  0.0659  0.2788
  125TMC2     H 1911   2.058   1.624   9.134 -1.0382 -0.8893 -0.5841
  125TMC2    H1 1912   2.123   1.331   9.437  0.1484 -0.8420 -0.9321
  125TMC2    H2 1913   2.446   1.540   9.267  0.4341 -0.5198  0.0619
  125TMC2    C7 1914   2.378   1.318   9.401 -0.2890  0.4129 -0.4000
  125TMC2    C8 1915   2.316   1.643   9.063 -0.3127 -0.2116 -0.6755
  125TMC2    O1 1916   2.313   1.228   9.446  0.1565  0.5151 -0.1069
  125TMC2    O2 1917   2.426   1.607   9.030 -0.4704 -0.1028  0.2331
  125TMC2    O5 1918   2.246   1.752   9.024 -0.2728  0.8125 -0.0113
  125TMC2    H5 1919   2.168   1.760   9.082  1.2443  0.6938  2.0277
  126MPD1     C 1920   1.518   1.438   9.645  0.3270  0.4379  0.0632
  126MPD1    C1 1921   1.615   1.346   9.678 -0.2327  0.1841  0.2410
  126MPD1    C2 1922   1.736   1.351   9.613 -0.3204 -0.4834  0.3529
  126MPD1    C3 1923   1.767   1.447   9.521  0.2743 -0.4079  0.4714
  126MPD1    C4 1924   1.670   1.546   9.493  0.5586 -0.2002  0.2357
  126MPD1    C5 1925   1.551   1.540   9.556 -0.9097 -0.2065 -0.0594
  126MPD1     H 1926   1.813   1.279   9.638  0.4435  0.0122 -0.5287
  126MPD1    H1 1927   1.687   1.627   9.423 -0.9530 -1.2269 -1.3280
  126MPD1    H2 1928   1.417   1.442   9.684 -0.1545 -1.6831 -1.0076
  126MPD1    H3 1929   1.479   1.617   9.530 -0.4048  1.1812  2.6158
  126MPD1     N 1930   1.896   1.443   9.456  0.1725  0.2785  0.4593
  126MPD1    H5 1931   1.961   1.376   9.495  1.1704  0.4003 -1.0196
  126MPD1    N1 1932   1.582   1.234   9.756  0.5221  0.6882 -0.5206
  126MPD1    H6 1933   1.511   1.263   9.823  0.9755  2.2482 -0.7132
  126MPD1    H7 1934   1.662   1.194   9.805  0.5340  1.0507 -0.2429
  127MPD2     C 1935   2.543   0.005   9.321  0.2794 -0.3339 -0.0526
  127MPD2    C1 1936   2.487   0.010   9.447  0.4839 -0.8202 -0.2889
  127MPD2    C2 1937   2.558   0.071   9.551  0.3102  0.5908  0.0017
  127MPD2    C3 1938   2.675   0.132   9.532  0.6983  0.5437  0.5365
  127MPD2    C4 1939   2.734   0.129   9.407 -0.1150 -0.3362  0.0016
  127MPD2    C5 1940   2.668   0.063   9.305  0.6559  0.1116 -0.8595
  127MPD2     H 1941   2.506   0.070   9.647 -2.3534 -1.5152 -1.4620
  127MPD2    H1 1942   2.833   0.168   9.384  0.6674 -1.9635  0.6076
  127MPD2    H2 1943   2.506   4.685   9.229 -0.7177 -0.0431  0.2234
  127MPD2    H3 1944   2.714   0.065   9.207  1.1296 -0.8290 -0.6560
  127MPD2     N 1945   2.742   0.191   9.648 -0.1503  0.1238  0.3931
  127MPD2    H5 1946   2.706   0.160   9.737  0.1236 -1.8612 -0.1944
  127MPD2    N1 1947   2.360   4.678   9.462  0.7776  0.3832  0.1702
  127MPD2    H7 1948   2.321   4.641   9.376  0.9232 -0.0600  0.2933
  128TCq2    C1 1949   2.272   4.689   9.564 -0.3652  0.0174 -0.3168
  128TCq2    O2 1950   2.285   0.033   9.663  0.9700 -0.5084 -0.2884
  128TCq2    C2 1951   2.144   4.625   9.528 -0.8995 -0.1290  0.0970
  128TCq2    C3 1952   2.075   4.559   9.619 -0.2355 -0.8135 -0.2193
  128TCq2    C4 1953   2.025   4.438   9.595  0.0875  0.4364 -0.3092
  128TCq2    C5 1954   2.020   4.383   9.471 -0.2431 -0.4356 -0.1116
  128TCq2    C6 1955   2.099   4.445   9.375 -0.2036 -0.1647 -0.4400
  128TCq2    C7 1956   2.151   4.571   9.403  0.0849 -0.4723 -0.2539
  128TCq2    C8 1957   2.152   4.374   9.264 -0.2022 -0.0543 -0.2033
  128TCq2    O4 1958   2.218   4.446   9.189 -0.7583 -0.2486 -0.3430
  128TCq2    C9 1959   1.950   4.368   9.699  0.4419  0.5304 -0.5545
  128TCq2    O5 1960   1.917   4.430   9.801  0.1517 -0.1925  0.5178
  128TCq2    O6 1961   1.928   4.248   9.675  0.0502  0.8021 -0.4687
  128TCq2    H2 1962   2.085   4.595   9.721 -0.4033  0.7623 -0.7545
  128TCq2    H3 1963   1.974   4.287   9.450 -3.8979  1.5748 -1.3400
  128TCq2    H4 1964   2.204   4.614   9.318  2.8908 -0.7139  1.3698
  129MPD2     C 1965   1.515   0.497   1.316 -0.4671  0.2290 -0.1352
  129MPD2    C1 1966   1.617   0.543   1.390  0.0219  0.0914 -0.4420
  129MPD2    C2 1967   1.715   0.623   1.329 -0.0349 -0.0820  0.6588
  129MPD2    C3 1968   1.699   0.667   1.197 -0.2456  0.5181  0.0664
  129MPD2    C4 1969   1.587   0.614   1.124 -0.2848  0.3512  0.2386
  129MPD2    C5 1970   1.499   0.531   1.186 -0.5035 -0.3668  0.5184
  129MPD2     H 1971   1.792   0.663   1.394  0.0722 -0.2896  0.6590
  129MPD2    H1 1972   1.562   0.650   1.025 -1.2527 -1.1426 -0.0412
  129MPD2    H2 1973   1.455   0.415   1.352 -0.6023 -0.2284 -1.4105
  129MPD2    H3 1974   1.416   0.489   1.131 -0.8929 -0.6908  1.3583
  129MPD2     N 1975   1.788   0.753   1.135 -0.3869  0.2693 -0.7472
  129MPD2    H5 1976   1.873   0.766   1.190 -2.3996  1.6637  2.0294
  129MPD2    N1 1977   1.645   0.495   1.520 -0.1639  0.2511 -0.4494
  129MPD2    H7 1978   1.729   0.526   1.569  0.7520 -3.1232  0.1216
  130TCq2    C1 1979   1.569   0.407   1.596 -0.0261  0.1272  0.1645
  130TCq2    O2 1980   1.464   0.350   1.570  0.0597  0.1769 -0.5437
  130TCq2    C2 1981   1.637   0.361   1.711  0.1951 -0.1306  0.0586
  130TCq2    C3 1982   1.769   0.363   1.729  0.2593  0.0132 -0.4184
  130TCq2    C4 1983   1.828   0.311   1.843 -0.1685 -0.2323  0.0979
  130TCq2    C5 1984   1.757   0.253   1.940 -0.0501  0.1406 -0.5094
  130TCq2    C6 1985   1.622   0.237   1.923 -0.0492 -0.1971  0.2774
  130TCq2    C7 1986   1.568   0.286   1.804  0.4729 -0.3562 -0.2160
  130TCq2    C8 1987   1.552   0.132   1.978 -0.4983  0.0735  0.3682
  130TCq2    O4 1988   1.444   0.104   1.926 -0.1538  0.0456  0.9094
  130TCq2    C9 1989   1.966   0.343   1.859  0.9391  0.5864 -0.1779
  130TCq2    O5 1990   2.018   0.313   1.971  0.1826  0.2220  0.3918
  130TCq2    O6 1991   2.010   0.445   1.795  0.6707 -0.5145  0.4301
  130TCq2    H2 1992   1.833   0.413   1.658  0.8150  0.2114  0.2236
  130TCq2    H3 1993   1.808   0.216   2.028 -0.9300  1.5585  0.5959
  130TCq2    H4 1994   1.461   0.284   1.786  0.6792  0.5008 -1.5134
  131MPD2     C 1995   1.395   4.472  10.214  0.6477 -0.7101  0.2626
  131MPD2    C1 1996   1.398   4.597  10.156 -0.2283  0.3103 -0.0761
  131MPD2    C2 1997   1.423   4.605  10.013  0.3000 -0.2510  0.2557
  131MPD2    C3 1998   1.446   4.489   9.942 -0.5066  0.2652 -0.1032
  131MPD2    C4 1999   1.429   4.371  10.011 -0.3206  0.0636  0.5483
  131MPD2    C5 2000   1.416   4.360  10.146  0.0912  0.1868  0.0008
  131MPD2     H 2001   1.416   4.696   9.954  2.3786  0.5040  1.1778
  131MPD2    H1 2002   1.465   4.278   9.968 -0.8196 -0.3014  0.9263
  131MPD2    H2 2003   1.370   4.466  10.319 -1.9481  1.8014 -0.1968
  131MPD2    H3 2004   1.413   4.263  10.195 -0.2814  0.8305  1.2392
  131MPD2     N 2005   1.502   4.497   9.814  0.2674  0.3217  0.1520
  131MPD2    H5 2006   1.524   4.589   9.777  1.8917 -1.2702 -2.8358
  131MPD2    N1 2007   1.393   4.712  10.234  0.1565 -0.1895 -0.9990
  131MPD2    H7 2008   1.384   4.701  10.334 -0.8647  0.3845 -1.0234
  132TCq2    C1 2009   1.520   0.568  10.352 -0.8570  0.3015 -0.0456
  132TCq2    O2 2010   1.572   0.630  10.445 -0.4186 -0.3994  0.3058
  132TCq2    C2 2011   1.471   0.429  10.381 -0.4487  0.4407  0.6935
  132TCq2    C3 2012   1.463   0.384  10.511 -0.7768 -0.2597  0.0458
  132TCq2    C4 2013   1.424   0.257  10.548 -0.4778  0.6519 -0.7812
  132TCq2    C5 2014   1.414   0.164  10.444 -0.1902  0.7574  0.2056
  132TCq2    C6 2015   1.419   0.212  10.312 -0.0262 -0.3340  0.1227
  132TCq2    C7 2016   1.453   0.340  10.276  0.5653  0.8608 -0.3036
  132TCq2    C8 2017   1.398   0.120  10.197 -0.7755 -0.1019 -0.5481
  132TCq2    O4 2018   1.383   0.163  10.084  0.0790 -0.0587  0.3611
  132TCq2    C9 2019   1.416   0.219  10.687  0.2023  0.0413  0.7308
  132TCq2    O5 2020   1.387   0.099  10.718  0.1273 -0.5375  0.3606
  132TCq2    O6 2021   1.419   0.318  10.766  0.1096  0.2412 -0.2840
  132TCq2    H2 2022   1.493   0.458  10.584 -0.8056  1.8835 -2.1176
  132TCq2    H3 2023   1.394   0.062  10.475  0.7790  0.4991 -0.0499
  132TCq2    H4 2024   1.460   0.362  10.170 -1.7981  0.7190 -0.4912
  133MPD2     C 2025   0.177   1.313   9.013 -0.5140  1.1772  0.0637
  133MPD2    C1 2026   0.286   1.244   9.055  0.4555  0.7068  0.1466
  133MPD2    C2 2027   0.273   1.109   9.070  0.1541  0.0403  0.7946
  133MPD2    C3 2028   0.154   1.045   9.040 -0.1387 -0.4095 -0.3337
  133MPD2    C4 2029   0.052   1.116   8.987  0.3851 -0.6594  0.6743
  133MPD2    C5 2030   0.065   1.250   8.978  0.7916  0.0157 -0.8711
  133MPD2     H 2031   0.354   1.052   9.114  1.0449  1.4500  0.9694
  133MPD2    H1 2032   4.679   1.076   8.956 -0.9787  2.6377  0.6901
  133MPD2    H2 2033   0.171   1.421   9.007 -1.0491  1.1829  0.6711
  133MPD2    H3 2034   4.705   1.305   8.936  1.2943  2.0044  0.7271
  133MPD2     N 2035   0.135   0.913   9.038 -0.1749  0.0924 -0.0546
  133MPD2    H5 2036   0.054   0.884   8.984 -2.2355 -0.1169  3.2217
  133MPD2    N1 2037   0.404   1.301   9.105  0.1401 -0.6681 -0.3905
  133MPD2    H7 2038   0.399   1.401   9.121  1.7660 -0.6991  0.3321
  134TCq2    C1 2039   0.532   1.252   9.093  0.2452 -0.0238  0.5769
  134TCq2    O2 2040   0.576   1.149   9.044  0.0475 -0.1219  0.4673
  134TCq2    C2 2041   0.633   1.347   9.135 -0.2045  0.3623  0.1119
  134TCq2    C3 2042   0.766   1.317   9.117 -0.2521  0.2062  0.9216
  134TCq2    C4 2043   0.868   1.395   9.163 -0.0614 -0.5743 -0.1372
  134TCq2    C5 2044   0.842   1.497   9.248  0.7276 -0.3358  0.3259
  134TCq2    C6 2045   0.706   1.516   9.277  0.1082  0.4744 -0.0456
  134TCq2    C7 2046   0.600   1.446   9.227  0.1692 -0.1671  0.4266
  134TCq2    C8 2047   0.667   1.595   9.393 -0.0650 -0.4649  0.7278
  134TCq2    O4 2048   0.565   1.555   9.448 -0.2785  0.3208 -0.2914
  134TCq2    C9 2049   1.010   1.355   9.132  0.3872  0.2866  0.3169
  134TCq2    O5 2050   1.027   1.244   9.071 -0.0146 -0.1195 -0.1840
  134TCq2    O6 2051   1.096   1.447   9.149  0.2452 -0.4605  0.3955
  134TCq2    H2 2052   0.800   1.240   9.050  0.7681  1.5231 -0.0825
  134TCq2    H3 2053   0.925   1.547   9.297  1.1580  1.1209 -1.8744
  134TCq2    H4 2054   0.498   1.457   9.259 -0.4805 -0.6941 -1.4603
  135MPD2     C 2055   2.349   1.532   9.703  0.4968 -0.4526  0.1933
  135MPD2    C1 2056   2.363   1.647   9.629  0.2963 -0.3527 -0.6845
  135MPD2    C2 2057   2.484   1.666   9.562  0.0562  0.4960 -0.4539
  135MPD2    C3 2058   2.589   1.576   9.571 -0.6224 -0.6821 -0.1423
  135MPD2    C4 2059   2.570   1.466   9.651  0.3702 -0.9487  1.0287
  135MPD2    C5 2060   2.452   1.438   9.716 -0.0526  0.4226 -0.8045
  135MPD2     H 2061   2.499   1.757   9.505  0.7155  0.7679  0.1515
  135MPD2    H1 2062   2.645   1.388   9.651  0.0056 -1.2990  0.2098
  135MPD2    H2 2063   2.253   1.512   9.750 -1.1265  0.8257 -2.5314
  135MPD2    H3 2064   2.438   1.355   9.784  0.8169  1.7936  1.0592
  135MPD2     N 2065   2.715   1.612   9.517 -0.4330  0.1961 -0.3168
  135MPD2    H5 2066   2.789   1.566   9.569 -1.6170 -0.2219  0.9775
  135MPD2    N1 2067   2.256   1.740   9.609  0.7055 -0.2819 -0.0165
  135MPD2    H7 2068   2.271   1.818   9.546 -1.5100  0.1103 -0.0546
  136TCq2    C1 2069   2.129   1.727   9.663 -0.2948 -0.3800 -0.2148
  136TCq2    O2 2070   2.088   1.658   9.756  0.7560  0.1518  0.1830
  136TCq2    C2 2071   2.033   1.831   9.631  0.5021  0.0217 -0.1591
  136TCq2    C3 2072   2.061   1.911   9.522  0.6117  0.2812  0.5378
  136TCq2    C4 2073   2.012   2.041   9.512  0.2952 -0.2538  0.3905
  136TCq2    C5 2074   1.933   2.094   9.610  0.9841 -0.5727 -0.5566
  136TCq2    C6 2075   1.918   2.013   9.715 -0.1438  0.0447  0.3261
  136TCq2    C7 2076   1.967   1.887   9.740 -0.6169 -0.1221  0.3595
  136TCq2    C8 2077   1.881   2.089   9.834  0.0412 -0.4986  0.3457
  136TCq2    O4 2078   1.925   2.199   9.854  0.3225 -0.0502 -0.2567
  136TCq2    C9 2079   2.050   2.130   9.398  0.1551  0.2720 -0.0326
  136TCq2    O5 2080   2.156   2.101   9.327  0.1416 -0.1874  0.0192
  136TCq2    O6 2081   1.967   2.217   9.363 -0.2282  0.8096  0.6849
  136TCq2    H2 2082   2.122   1.870   9.442  1.6509 -1.9417  2.4652
  136TCq2    H3 2083   1.905   2.198   9.606 -0.5408 -0.9894 -0.5068
  136TCq2    H4 2084   1.970   1.841   9.838  2.3416 -0.4162  0.1291
  137MPD2     C 2085   2.278   0.766   9.655  0.5110 -0.1318 -0.5805
  137MPD2    C1 2086   2.269   0.900   9.626 -0.5978 -0.7810  0.9983
  137MPD2    C2 2087   2.248   0.991   9.731  0.1009  0.0354 -0.0109
  137MPD2    C3 2088   2.261   0.941   9.861 -0.1580  0.7298  0.0614
  137MPD2    C4 2089   2.285   0.803   9.886 -0.0429  0.0061  0.2248
  137MPD2    C5 2090   2.291   0.714   9.786 -0.5673 -0.5849 -0.1890
  137MPD2     H 2091   2.242   1.096   9.702  0.1227  0.3926  1.2755
  137MPD2    H1 2092   2.293   0.768   9.988  0.7965 -1.8755 -0.4753
  137MPD2    H2 2093   2.283   0.702   9.568 -0.3682 -1.6217  0.4704
  137MPD2    H3 2094   2.306   0.607   9.797 -1.8862 -0.9406 -1.7452
  137MPD2     N 2095   2.258   1.024   9.975 -0.1601 -0.0100  0.2742
  137MPD2    H5 2096   2.281   0.978  10.063  1.0278  2.8334  1.4826
  137MPD2    N1 2097   2.279   0.946   9.493 -0.6231  0.4691  0.0533
  137MPD2    H7 2098   2.277   1.045   9.472  2.4114  0.8207  1.3861
  138TCq2    C1 2099   2.315   0.869   9.384 -0.3249  0.0635  0.0723
  138TCq2    O2 2100   2.374   0.760   9.373 -0.1838  0.5354 -0.0369
  138TCq2    C2 2101   2.306   0.943   9.266  0.3834 -1.1375 -0.1410
  138TCq2    C3 2102   2.417   0.954   9.187 -0.1756 -0.4109  0.6392
  138TCq2    C4 2103   2.424   1.046   9.093  0.6326  0.3740 -0.1261
  138TCq2    C5 2104   2.325   1.140   9.077  0.8836  0.8764 -0.9496
  138TCq2    C6 2105   2.211   1.118   9.146  0.1167 -0.6873 -0.2815
  138TCq2    C7 2106   2.197   1.027   9.248 -0.4336 -0.1278 -0.1788
  138TCq2    C8 2107   2.099   1.194   9.103 -0.0496  0.5260  0.2810
  138TCq2    O4 2108   2.126   1.283   9.021 -0.1663 -0.1761  0.2964
  138TCq2    C9 2109   2.549   1.058   9.028  0.4639  0.1150 -1.0664
  138TCq2    O5 2110   2.532   1.103   8.912  0.5646  0.4518 -0.4959
  138TCq2    O6 2111   2.642   0.982   9.050  0.1605  0.0830  0.4787
  138TCq2    H2 2112   2.505   0.896   9.214 -2.6963 -3.6518  1.9348
  138TCq2    H3 2113   2.339   1.227   9.014 -0.3224  1.5375 -0.2947
  138TCq2    H4 2114   2.114   1.018   9.316 -1.2898  2.0831 -0.9172
  139TMC2    C1 2115   2.785   3.887  13.248 -0.7215 -0.9083  0.2195
  139TMC2    C2 2116   2.804   3.933  13.121 -0.0695 -0.4512 -0.0658
  139TMC2    C3 2117   2.701   3.993  13.053 -0.1284 -0.0992 -0.7298
  139TMC2    C4 2118   2.656   3.891  13.295  0.1981  0.7020 -0.5291
  139TMC2    C5 2119   2.556   3.938  13.226  0.1510 -0.1081  0.1263
  139TMC2    C6 2120   2.573   3.991  13.100 -0.6040  0.7673 -0.3805
  139TMC2     C 2121   2.867   3.766  13.274  0.6821  0.0394 -0.2703
  139TMC2     O 2122   2.914   3.711  13.172  0.4640 -0.4970  0.7302
  139TMC2     H 2123   2.886   3.896  13.061  0.3219 -1.0535  0.8369
  139TMC2    H1 2124   2.642   3.826  13.381  5.2531 -1.0833 -1.0386
  139TMC2    H2 2125   2.500   4.055  13.053 -0.9431  1.0411  0.5123
  139TMC2    C7 2126   2.466   4.012  13.309  0.0050  0.6587  0.5432
  139TMC2    C8 2127   2.731   4.028  12.914 -0.6257  1.2384 -0.1103
  139TMC2    O1 2128   2.376   4.074  13.251 -0.2161 -0.0208 -0.2472
  139TMC2    O2 2129   2.844   4.055  12.878  0.4791  0.2265  0.2427
  139TMC2    O5 2130   2.615   4.022  12.834 -0.2468  0.1512  0.4037
  139TMC2    H5 2131   2.532   3.989  12.875  0.7073 -1.6474  0.8805
  140MPD2     C 2132   2.926   3.563  13.578  0.5337 -0.5502 -0.1488
  140MPD2    C1 2133   2.908   3.588  13.443 -0.6947 -0.8207 -0.5567
  140MPD2    C2 2134   2.912   3.477  13.351 -0.3889  0.2527  0.3588
  140MPD2    C3 2135   2.916   3.350  13.400 -0.6770 -0.2771  0.2377
  140MPD2    C4 2136   2.934   3.325  13.529  0.0848  0.2297 -0.1360
  140MPD2    C5 2137   2.948   3.429  13.620 -0.1945 -0.0675 -0.2295
  140MPD2     H 2138   2.880   3.484  13.248  1.1438 -1.0264 -0.1920
  140MPD2    H1 2139   2.945   3.225  13.568  0.9496 -0.3357 -1.8157
  140MPD2    H2 2140   2.933   3.642  13.653 -1.8848  1.2669 -1.8477
  140MPD2    H3 2141   2.964   3.413  13.726  1.8988  1.3672 -0.3431
  140MPD2     N 2142   2.897   3.242  13.305 -0.6496 -0.4127  0.2298
  140MPD2    H5 2143   2.902   3.264  13.207 -0.3787 -2.0943 -0.1284
  140MPD2    N1 2144   2.872   3.727  13.405  0.3672 -0.5119  0.0387
  140MPD2    H7 2145   2.847   3.786  13.484 -0.5108 -0.4823 -0.2642
  141TCq2    C1 2146   3.058   0.053  14.206 -0.2109 -0.3987  0.6432
  141TCq2    O2 2147   2.967   0.134  14.191  0.0806  0.3303  0.2549
  141TCq2    C2 2148   3.077   4.713  14.338  0.3652 -0.0990  0.5769
  141TCq2    C3 2149   3.121   4.582  14.353 -0.1025  0.0711  0.1419
  141TCq2    C4 2150   3.112   4.520  14.472  0.3908  0.1420  0.6105
  141TCq2    C5 2151   3.073   4.593  14.579  0.4195 -0.0882 -0.1637
  141TCq2    C6 2152   3.033   4.722  14.563  0.4220  0.6129 -0.1317
  141TCq2    C7 2153   3.040   0.063  14.440 -0.4720  0.1708 -0.0412
  141TCq2    C8 2154   3.023   0.069  14.684 -0.1032 -0.0189  0.1156
  141TCq2    O4 2155   3.051   0.015  14.792  0.0224 -0.3451  0.4231
  141TCq2    C9 2156   3.170   4.395  14.487 -0.0373  0.1124  0.4696
  141TCq2    O5 2157   3.233   4.350  14.392 -0.6418 -0.4140  0.2425
  141TCq2    O6 2158   3.187   4.349  14.601  0.4671  0.0149  0.4478
  141TCq2    H2 2159   3.162   4.524  14.272 -0.6635  0.2640 -0.2794
  141TCq2    H3 2160   3.095   4.556  14.678  0.7693  0.7977  0.0940
  141TCq2    H4 2161   3.010   0.166  14.422  0.4781  0.4866  0.1955
  142MPD2     C 2162   0.923   2.779  10.122  0.5286  0.3385  0.4965
  142MPD2    C1 2163   0.913   2.828   9.994 -0.5869 -0.1227  0.1387
  142MPD2    C2 2164   0.994   2.912   9.926  1.8722 -0.3774 -0.1238
  142MPD2    C3 2165   1.103   2.951   9.999 -0.1944 -0.5873 -0.5925
  142MPD2    C4 2166   1.111   2.926  10.134 -0.3607 -0.4705 -0.6172
  142MPD2    C5 2167   1.030   2.828  10.197 -0.0464  0.2908  0.2722
  142MPD2     H 2168   0.981   2.947   9.825  1.1619 -0.0162  0.0970
  142MPD2    H1 2169   1.184   2.974  10.199 -0.1879  0.0125 -1.1721
  142MPD2    H2 2170   0.857   2.709  10.171  0.8891  1.5709  2.7390
  142MPD2    H3 2171   1.044   2.801  10.301 -0.0113 -0.6782  0.0194
  142MPD2     N 2172   1.208   3.029   9.940  0.1956 -0.1783  0.5844
  142MPD2    H5 2173   1.272   3.086   9.994  0.5374  0.8370 -0.8958
  142MPD2    N1 2174   0.795   2.783   9.936  0.3140  0.5853  0.3652
  142MPD2    H7 2175   0.739   2.721   9.993  0.5242  0.1195  0.0591
  143TCq2    C1 2176   1.240   3.031   9.805  0.0208  0.0245 -0.0642
  143TCq2    O2 2177   1.214   2.950   9.713 -0.5348 -0.2629  0.3942
  143TCq2    C2 2178   1.321   3.154   9.773  0.2057  0.7736 -0.0755
  143TCq2    C3 2179   1.269   3.270   9.826 -0.0239 -0.3169  0.4338
  143TCq2    C4 2180   1.267   3.386   9.759 -0.6973 -0.0288 -0.3828
  143TCq2    C5 2181   1.334   3.397   9.638  0.2894 -0.4346 -0.2035
  143TCq2    C6 2182   1.384   3.283   9.583 -0.3898  0.0198 -0.3981
  143TCq2    C7 2183   1.376   3.165   9.646 -0.0403 -0.7354 -0.0111
  143TCq2    C8 2184   1.441   3.300   9.448 -0.0623 -0.0382 -0.5478
  143TCq2    O4 2185   1.451   3.417   9.411 -0.5955 -0.1806  0.8927
  143TCq2    C9 2186   1.192   3.499   9.810  0.2017 -0.2558  0.5544
  143TCq2    O5 2187   1.166   3.495   9.931  0.6281 -0.0999 -0.2979
  143TCq2    O6 2188   1.166   3.598   9.737  0.5032  0.3121 -0.4087
  143TCq2    H2 2189   1.207   3.275   9.915 -1.8374 -2.1025 -0.7303
  143TCq2    H3 2190   1.346   3.497   9.598  0.4632 -0.8465 -1.1953
  143TCq2    H4 2191   1.422   3.076   9.603 -0.2330 -0.4834 -0.7271
  144MPD2     C 2192   3.637   2.554   0.861 -0.1832 -0.2388 -0.2549
  144MPD2    C1 2193   3.645   2.416   0.861  0.0111  0.8672  0.7465
  144MPD2    C2 2194   3.764   2.352   0.862  0.7405 -0.2756 -0.7248
  144MPD2    C3 2195   3.887   2.421   0.874 -1.0378 -0.5086 -0.6400
  144MPD2    C4 2196   3.881   2.556   0.865 -0.4763  0.2307 -0.4121
  144MPD2    C5 2197   3.764   2.624   0.853 -0.5206 -0.3024  0.4028
  144MPD2     H 2198   3.756   2.244   0.853 -1.3167 -0.2458  1.0423
  144MPD2    H1 2199   3.975   2.610   0.863 -1.8772  2.7197  0.3878
  144MPD2    H2 2200   3.541   2.605   0.854 -0.2406 -0.2795  0.2139
  144MPD2    H3 2201   3.774   2.729   0.828 -0.0139  0.2329  2.9322
  144MPD2     N 2202   4.015   2.368   0.892 -0.2605 -0.2718 -0.1182
  144MPD2    H5 2203   4.082   2.432   0.933 -1.4754  1.4125 -0.7578
  144MPD2    N1 2204   3.532   2.335   0.846 -0.1032  0.4906  0.4401
  144MPD2    H7 2205   3.547   2.235   0.839  2.3001  0.8562  0.4101
  145TCq2    C1 2206   4.049   2.236   0.878 -0.7683  0.4394 -1.0911
  145TCq2    O2 2207   3.994   2.147   0.814  0.1301 -0.5411 -0.1252
  145TCq2    C2 2208   4.185   2.216   0.908  0.2910  0.3648 -0.4662
  145TCq2    C3 2209   4.261   2.136   0.824 -0.0932  0.0956 -0.4794
  145TCq2    C4 2210   4.394   2.133   0.854  0.2712 -0.1478 -0.6096
  145TCq2    C5 2211   4.451   2.180   0.970 -0.1469 -0.0660  0.7078
  145TCq2    C6 2212   4.370   2.260   1.046  0.1653  0.1241 -0.6243
  145TCq2    C7 2213   4.240   2.288   1.007  0.2249  0.5222  0.1622
  145TCq2    C8 2214   4.431   2.327   1.152  0.5481  0.7653  0.1280
  145TCq2    O4 2215   4.547   2.297   1.166  0.1757  0.7818 -0.7071
  145TCq2    C9 2216   4.468   2.052   0.766  0.2211 -1.1941  0.2980
  145TCq2    O5 2217   4.420   2.033   0.653 -0.4055  0.0971  0.4826
  145TCq2    O6 2218   4.577   2.012   0.812 -0.5655  0.1977 -0.0929
  145TCq2    H2 2219   4.220   2.078   0.743 -1.5512 -0.8085  0.9075
  145TCq2    H3 2220   4.557   2.166   0.990 -0.2930 -0.3823  1.2731
  145TCq2    H4 2221   4.170   2.339   1.073 -0.8614  0.4912 -0.9796
  146TMC2    C1 2222   0.099   1.277  12.257  0.0748 -0.3318 -0.1635
  146TMC2    C2 2223   4.704   1.224  12.202  1.0646  0.2104  0.2566
  146TMC2    C3 2224   4.707   1.179  12.077  0.0229  0.0978  0.0490
  146TMC2    C4 2225   0.214   1.279  12.184 -0.4685  0.6383 -0.8549
  146TMC2    C5 2226   0.206   1.251  12.053  0.0737  0.2806 -0.3478
  146TMC2    C6 2227   0.093   1.201  12.001 -0.0863  0.5764 -0.1857
  146TMC2     C 2228   0.098   1.336  12.388 -0.0279  0.5227 -0.0558
  146TMC2     O 2229   4.722   1.393  12.430 -0.7041 -0.3239  0.1007
  146TMC2     H 2230   4.615   1.210  12.262 -0.3461  0.0520 -1.8395
  146TMC2    H1 2231   0.295   1.339  12.224 -0.4125 -0.4085  0.5827
  146TMC2    H2 2232   0.090   1.184  11.894  1.6270  0.2986 -0.1889
  146TMC2    C7 2233   0.330   1.247  11.974 -0.2818 -0.7734 -0.6763
  146TMC2    C8 2234   4.584   1.149  12.004  0.3282  0.1192 -0.8756
  146TMC2    O1 2235   0.315   1.223  11.857 -0.1456  0.1883 -0.1047
  146TMC2    O2 2236   4.475   1.200  12.020  0.9816 -0.6482  0.4525
  146TMC2    O5 2237   4.612   1.081  11.884  0.2566  0.2612  0.4783
  146TMC2    H5 2238   4.688   1.019  11.889 -0.5029 -0.6923  0.3345
  147MPD2     C 2239   0.836   1.252  11.908  0.4055  0.0009  0.0484
  147MPD2    C1 2240   0.813   1.219  12.036  0.6321 -0.0107 -0.4917
  147MPD2    C2 2241   0.679   1.209  12.073  0.1905 -0.2020 -0.0594
  147MPD2    C3 2242   0.572   1.244  11.991  0.6065 -0.0099 -0.0515
  147MPD2    C4 2243   0.602   1.278  11.860  0.2905  0.5886 -0.3331
  147MPD2    C5 2244   0.734   1.283  11.820  0.2632 -0.0129 -0.4707
  147MPD2     H 2245   0.656   1.169  12.171 -1.7729  3.8333  1.1007
  147MPD2    H1 2246   0.532   1.318  11.787  0.7757  1.0687 -0.5336
  147MPD2    H2 2247   0.937   1.262  11.869  0.1491 -0.9486 -0.8660
  147MPD2    H3 2248   0.754   1.307  11.716 -1.8936 -0.9657 -1.1047
  147MPD2     N 2249   0.442   1.245  12.049 -0.2980  0.2588 -0.8301
  147MPD2    H5 2250   0.438   1.238  12.150  2.6295  0.2003 -0.7212
  147MPD2    N1 2251   0.914   1.207  12.128 -0.0525  0.3123 -0.1311
  147MPD2    H7 2252   1.005   1.206  12.083  0.2698 -0.6704  0.5426
  148MPD2     C 2253   0.246   0.686   9.903 -0.0720  0.7081 -0.2796
  148MPD2    C1 2254   0.314   0.563   9.935  0.5084  0.5433  0.8088
  148MPD2    C2 2255   0.267   0.449   9.884 -0.5820 -0.0381  0.4659
  148MPD2    C3 2256   0.152   0.442   9.811  0.0507 -0.4567 -0.5297
  148MPD2    C4 2257   0.096   0.559   9.764 -0.0938 -0.1812 -0.6809
  148MPD2    C5 2258   0.136   0.687   9.821 -0.0435 -0.7879 -1.3231
  148MPD2     H 2259   0.310   0.356   9.918  2.0107  0.0600 -2.5859
  148MPD2    H1 2260   0.003   0.555   9.708 -1.0172 -1.1082  0.9157
  148MPD2    H2 2261   0.269   0.776   9.959  0.7884  0.1291  0.3032
  148MPD2    H3 2262   0.076   0.777   9.808 -0.9936 -1.1590  0.5379
  148MPD2     N 2263   0.088   0.317   9.785 -0.0710  1.0584 -0.3397
  148MPD2    H5 2264   4.719   0.325   9.744 -0.3143 -0.7988 -0.1837
  148MPD2    N1 2265   0.412   0.559  10.033  0.0163 -0.5199 -0.7680
  148MPD2    H7 2266   0.452   0.466  10.042 -0.3470 -0.8004 -2.1867
  149TCq2    C1 2267   0.445   0.666  10.125  0.3158  0.5656  0.3241
  149TCq2    O2 2268   0.417   0.788  10.117  0.7954 -0.2133 -0.0109
  149TCq2    C2 2269   0.539   0.621  10.228 -0.1857  0.0005 -0.3089
  149TCq2    C3 2270   0.614   0.721  10.284 -0.1735 -0.3529 -0.4450
  149TCq2    C4 2271   0.721   0.680  10.370 -0.0530  0.0805  0.0760
  149TCq2    C5 2272   0.731   0.550  10.408 -0.1843  0.6128 -0.6688
  149TCq2    C6 2273   0.658   0.455  10.339  0.1886  0.8641  1.2633
  149TCq2    C7 2274   0.556   0.489  10.256 -0.7270  0.0661  0.2387
  149TCq2    C8 2275   0.652   0.317  10.369  0.8962 -0.3720  0.2481
  149TCq2    O4 2276   0.594   0.243  10.287 -0.0544 -0.0894 -0.1005
  149TCq2    C9 2277   0.771   0.779  10.462  0.1931 -0.0960 -0.4825
  149TCq2    O5 2278   0.869   0.750  10.536  0.0321 -0.3700 -0.0588
  149TCq2    O6 2279   0.727   0.893  10.446 -0.2238 -0.5857 -0.0715
  149TCq2    H2 2280   0.577   0.822  10.276 -1.2898 -0.8434 -1.3993
  149TCq2    H3 2281   0.792   0.517  10.491  0.1894  1.5286 -0.5753
  149TCq2    H4 2282   0.481   0.416  10.227 -0.9545 -0.1908  1.5013
  150MPD2     C 2283   1.832   4.115  11.750  0.2854 -0.5874 -0.1797
  150MPD2    C1 2284   1.882   4.123  11.622  0.7260 -0.2079 -0.3581
  150MPD2    C2 2285   2.005   4.187  11.616  0.3939 -0.3028 -0.3457
  150MPD2    C3 2286   2.078   4.234  11.731 -0.3358  0.0174  0.4799
  150MPD2    C4 2287   2.019   4.214  11.854  0.0080  0.8620  0.3023
  150MPD2    C5 2288   1.895   4.167  11.865  0.2858 -0.0268 -0.0570
  150MPD2     H 2289   2.047   4.197  11.517 -0.7312  0.4905 -0.7434
  150MPD2    H1 2290   2.080   4.247  11.938  0.4225 -3.3875  1.6844
  150MPD2    H2 2291   1.741   4.061  11.775 -1.1626  1.6826 -0.5347
  150MPD2    H3 2292   1.849   4.146  11.960  1.8701 -1.2281  0.4532
  150MPD2     N 2293   2.208   4.282  11.724 -0.5715  0.3403 -0.0428
  150MPD2    H5 2294   2.244   4.286  11.629  0.6435 -1.6058  0.3372
  150MPD2    N1 2295   1.823   4.057  11.514 -0.3463 -0.0645  0.1857
  150MPD2    H7 2296   1.741   3.999  11.531 -0.2562  0.0728  1.1002
  151TCq2    C1 2297   2.298   4.314  11.822 -0.0552 -0.1148 -0.1049
  151TCq2    O2 2298   2.296   4.282  11.939  0.0538  0.4355 -0.0215
  151TCq2    C2 2299   2.415   4.388  11.778 -0.3111 -0.0478  0.6460
  151TCq2    C3 2300   2.427   4.422  11.648  0.3700 -0.0678  0.2067
  151TCq2    C4 2301   2.541   4.485  11.612 -0.3007  0.3291 -0.3811
  151TCq2    C5 2302   2.647   4.497  11.694 -0.4054 -0.0930 -0.1936
  151TCq2    C6 2303   2.637   4.456  11.823  0.7504 -0.8052 -0.0563
  151TCq2    C7 2304   2.511   4.416  11.873 -0.5185  0.3032 -0.8578
  151TCq2    C8 2305   2.751   4.470  11.911 -0.4156 -0.1542  0.1154
  151TCq2    O4 2306   2.845   4.549  11.886  0.5247  0.0334 -0.3544
  151TCq2    C9 2307   2.562   4.535  11.471 -0.5462  0.0573  0.5510
  151TCq2    O5 2308   2.640   4.632  11.448 -0.3492  0.0443  0.1831
  151TCq2    O6 2309   2.504   4.465  11.380  0.0660  0.7653 -0.0274
  151TCq2    H2 2310   2.346   4.421  11.575 -0.1781  0.0236  0.8123
  151TCq2    H3 2311   2.739   4.528  11.645 -0.6032  0.0447 -0.4793
  151TCq2    H4 2312   2.485   4.396  11.977  0.5364 -0.5908 -0.7636
  152MPD2     C 2313   1.727   3.709  12.664  0.1532  0.0790 -0.3870
  152MPD2    C1 2314   1.750   3.820  12.586 -0.7847  0.1262 -0.0863
  152MPD2    C2 2315   1.654   3.856  12.492 -0.3267  0.1751 -0.1699
  152MPD2    C3 2316   1.533   3.787  12.472  0.2137 -0.4853  0.0526
  152MPD2    C4 2317   1.514   3.671  12.552 -0.3136  0.6659  0.2732
  152MPD2    C5 2318   1.615   3.636  12.644  0.0513 -0.5990  0.5658
  152MPD2     H 2319   1.672   3.943  12.430  1.4504 -0.1652 -0.1225
  152MPD2    H1 2320   1.425   3.609  12.549 -1.2297  2.0530 -1.3681
  152MPD2    H2 2321   1.797   3.680  12.742 -0.8741  0.9905  0.8737
  152MPD2    H3 2322   1.599   3.548  12.705 -1.6600 -0.2229  0.6739
  152MPD2     N 2323   1.445   3.826  12.365 -0.8339 -0.1494  0.7778
  152MPD2    H5 2324   1.458   3.911  12.310 -1.4169  0.2609  1.2788
  152MPD2    N1 2325   1.876   3.882  12.597  0.4027  0.0422  0.6732
  152MPD2    H7 2326   1.929   3.850  12.677  1.8211 -3.4785 -1.6975
  153TCq2    C1 2327   1.919   4.001  12.536  0.5555 -0.3170  0.4142
  153TCq2    O2 2328   1.877   4.064  12.441  0.3136  0.4348  0.8727
  153TCq2    C2 2329   2.048   4.035  12.601 -0.3903  0.7567  0.4929
  153TCq2    C3 2330   2.083   3.978  12.721  0.6334 -0.5583  0.3716
  153TCq2    C4 2331   2.203   4.020  12.767 -0.2049  0.2868 -0.6347
  153TCq2    C5 2332   2.298   4.089  12.699  0.1969 -0.3298  0.3397
  153TCq2    C6 2333   2.249   4.141  12.582 -0.1090  0.0516 -0.2368
  153TCq2    C7 2334   2.132   4.109  12.523 -0.1432 -0.0691 -0.6898
  153TCq2    C8 2335   2.319   4.244  12.506 -0.8707 -0.5577  0.0033
  153TCq2    O4 2336   2.272   4.284  12.402  0.4989  0.1969  0.7205
  153TCq2    C9 2337   2.256   3.959  12.889 -0.4088 -0.8353 -0.2428
  153TCq2    O5 2338   2.378   3.942  12.897  0.4946 -0.2744  0.2514
  153TCq2    O6 2339   2.173   3.913  12.971  0.4636  0.4587 -0.0989
  153TCq2    H2 2340   2.017   3.920  12.785  0.8136  1.8951  2.7583
  153TCq2    H3 2341   2.396   4.108  12.740  0.3277  5.0768 -2.4758
  153TCq2    H4 2342   2.097   4.148  12.428  1.9278  2.4051 -0.4461
  154MPD2     C 2343   0.292   4.555   0.781  0.1663 -0.2684 -0.6784
  154MPD2    C1 2344   0.198   4.453   0.767  0.4648  0.0666  0.2186
  154MPD2    C2 2345   0.106   4.432   0.870  0.0724 -0.6912 -0.2601
  154MPD2    C3 2346   0.109   4.508   0.976 -0.0411  0.5436 -0.7379
  154MPD2    C4 2347   0.188   4.616   0.983  0.4805 -0.4318 -0.1423
  154MPD2    C5 2348   0.275   4.646   0.881  0.6444 -0.0993 -0.1443
  154MPD2     H 2349   0.041   4.345   0.862 -0.3865 -0.2071 -1.8613
  154MPD2    H1 2350   0.192   4.677   1.072 -0.6517 -0.7448  0.1220
  154MPD2    H2 2351   0.372   4.577   0.711  0.7307 -0.7953 -0.1925
  154MPD2    H3 2352   0.340   0.009   0.892  1.0921 -0.6464  1.5608
  154MPD2     N 2353   0.024   4.474   1.080  0.2638  0.0803  0.5493
  154MPD2    H5 2354   4.697   4.387   1.073 -1.7737  1.2231  1.2285
  154MPD2    N1 2355   0.210   4.370   0.657 -0.1676 -0.4501  0.1831
  154MPD2    H7 2356   0.276   4.398   0.586  0.1053  2.8373  1.7144
  155TCq2    C1 2357   0.140   4.253   0.636 -0.0363  0.7837 -0.2697
  155TCq2    O2 2358   0.049   4.196   0.698 -0.5140 -0.1803  0.7769
  155TCq2    C2 2359   0.191   4.179   0.521  0.2337 -0.1420  0.2410
  155TCq2    C3 2360   0.162   4.042   0.516  0.1844 -0.2261  0.4740
  155TCq2    C4 2361   0.174   3.974   0.394  0.3418 -0.0880 -0.1579
  155TCq2    C5 2362   0.227   4.042   0.286  0.2016 -0.6263  0.5392
  155TCq2    C6 2363   0.244   4.174   0.297 -0.3092  0.0732  0.0724
  155TCq2    C7 2364   0.225   4.249   0.410 -0.0788  0.3402 -0.6322
  155TCq2    C8 2365   0.272   4.250   0.169  0.1471 -0.0525  0.8946
  155TCq2    O4 2366   0.255   4.197   0.060 -0.1130 -0.0557 -0.7388
  155TCq2    C9 2367   0.141   3.833   0.382 -1.1851  0.5090  0.1568
  155TCq2    O5 2368   0.131   3.793   0.262  0.2402  0.0654  0.0844
  155TCq2    O6 2369   0.136   3.765   0.488 -0.0890  0.4864  0.8114
  155TCq2    H2 2370   0.135   3.990   0.607 -1.2601  1.4663  0.9963
  155TCq2    H3 2371   0.238   3.999   0.187  0.2308  0.3812  0.1065
  155TCq2    H4 2372   0.208   4.356   0.409 -0.4522  0.2845 -0.3659
  156MPD2     C 2373   2.858   1.854  12.123  0.3730  0.0273  0.2717
  156MPD2    C1 2374   2.780   1.942  12.052  1.1979 -0.0074 -0.6703
  156MPD2    C2 2375   2.737   2.051  12.128 -0.8509 -0.1889 -0.3091
  156MPD2    C3 2376   2.775   2.081  12.255 -0.3415  0.1177 -0.5242
  156MPD2    C4 2377   2.863   1.999  12.319 -0.3480 -0.4094 -0.6311
  156MPD2    C5 2378   2.902   1.879  12.255 -0.4765  0.1280 -0.1057
  156MPD2     H 2379   2.657   2.110  12.085 -0.9631  0.6126  1.0226
  156MPD2    H1 2380   2.904   2.014  12.419 -0.0207 -0.2819 -0.7856
  156MPD2    H2 2381   2.901   1.771  12.069 -0.1981 -0.0082 -0.1224
  156MPD2    H3 2382   2.966   1.810  12.307 -1.0276  0.0732  0.5077
  156MPD2     N 2383   2.711   2.187  12.312 -0.1516 -0.2790 -0.3077
  156MPD2    H5 2384   2.667   2.253  12.250  0.1653  0.6311  0.4304
  156MPD2    N1 2385   2.743   1.906  11.920  0.0828  0.5141 -0.4956
  156MPD2    H7 2386   2.766   1.813  11.885  0.6828  0.0337  1.1483
  157TCq2    C1 2387   2.662   1.990  11.845  0.4490  0.1725  0.2019
  157TCq2    O2 2388   2.646   2.110  11.857 -0.2610 -0.2340  0.1215
  157TCq2    C2 2389   2.593   1.928  11.735 -0.5231 -0.1877 -0.6943
  157TCq2    C3 2390   2.574   1.792  11.740 -0.4248 -0.0807  0.0289
  157TCq2    C4 2391   2.464   1.738  11.683  0.3937 -0.5381 -0.0850
  157TCq2    C5 2392   2.372   1.819  11.613 -0.7443  0.2892 -0.1305
  157TCq2    C6 2393   2.392   1.957  11.614 -0.2236 -0.0180 -0.0933
  157TCq2    C7 2394   2.503   2.011  11.669  0.0631 -0.4533  0.2658
  157TCq2    C8 2395   2.281   2.045  11.564  0.5166  0.2367 -0.3071
  157TCq2    O4 2396   2.179   1.991  11.523 -0.1934 -0.5230 -0.2736
  157TCq2    C9 2397   2.450   1.597  11.685 -0.1214 -0.6862  0.2489
  157TCq2    O5 2398   2.365   1.550  11.602  0.2710  0.5522  0.3806
  157TCq2    O6 2399   2.527   1.529  11.749  0.0944 -0.0068 -0.2273
  157TCq2    H2 2400   2.634   1.733  11.808  0.1442  1.0433  0.5014
  157TCq2    H3 2401   2.279   1.779  11.574 -0.9543  1.2358 -0.6141
  157TCq2    H4 2402   2.534   2.114  11.656 -2.0577 -0.0168 -1.4641
  158TMC2    C1 2403   2.671   0.420  13.135 -0.1269  0.7068  0.2709
  158TMC2    C2 2404   2.706   0.476  13.010  0.2183 -0.5524 -0.2440
  158TMC2    C3 2405   2.614   0.478  12.913  0.2617  0.3273 -0.7801
  158TMC2    C4 2406   2.547   0.365  13.153  0.4660  0.3114 -0.0615
  158TMC2    C5 2407   2.459   0.367  13.050 -0.3988 -0.2677  0.6856
  158TMC2    C6 2408   2.491   0.426  12.928  0.0011  0.4923 -0.0231
  158TMC2     C 2409   2.776   0.340  13.202  0.8619  0.0990  0.0023
  158TMC2     O 2410   2.888   0.357  13.154  0.1384  0.2212  0.1672
  158TMC2     H 2411   2.798   0.531  12.996 -0.6191  1.3482  1.8871
  158TMC2    H1 2412   2.513   0.321  13.246  1.3838  1.1364  0.6686
  158TMC2    H2 2413   2.426   0.433  12.841 -0.2323  0.5579  0.1545
  158TMC2    C7 2414   2.319   0.380  13.087  0.5467  0.4759  0.5216
  158TMC2    C8 2415   2.647   0.522  12.781 -0.2619 -0.4888  0.0292
  158TMC2    O1 2416   2.253   0.431  12.995 -0.6696  0.7994  0.0148
  158TMC2    O2 2417   2.559   0.570  12.711 -0.4851  0.0992  0.1638
  158TMC2    O5 2418   2.784   0.552  12.766 -0.1687 -0.7615 -0.5515
  158TMC2    H5 2419   2.847   0.521  12.834 -0.7839 -1.2568 -0.2038
  159MPD2     C 2420   2.946   0.018  13.559  0.5231  0.1261  1.2371
  159MPD2    C1 2421   2.849   0.099  13.620  0.6803 -0.0359  0.2012
  159MPD2    C2 2422   2.788   0.193  13.541  0.0069  0.2071  0.2364
  159MPD2    C3 2423   2.818   0.212  13.408  0.6626  0.1867 -0.3876
  159MPD2    C4 2424   2.916   0.135  13.357 -0.1202 -0.6190 -0.5261
  159MPD2    C5 2425   2.975   0.032  13.426  0.5579  0.8064  0.4790
  159MPD2     H 2426   2.716   0.254  13.596  1.7028  2.4645 -0.0544
  159MPD2    H1 2427   2.939   0.135  13.251  0.4944 -0.3595 -0.3904
  159MPD2    H2 2428   3.008   4.670  13.610 -1.4917 -3.4204 -1.2700
  159MPD2    H3 2429   3.050   4.693  13.379  0.3098  0.6277  0.3208
  159MPD2     N 2430   2.743   0.300  13.328  0.0405 -0.2834  0.2807
  159MPD2    H5 2431   2.661   0.344  13.369  0.0758 -0.4992  0.5796
  159MPD2    N1 2432   2.829   0.074  13.755 -0.1368  0.1926 -0.1595
  159MPD2    H7 2433   2.863   4.708  13.789 -0.1669  0.5444  0.8070
  160TMC2    C1 2434   3.042   2.889   1.559  0.4389 -0.4269  0.5132
  160TMC2    C2 2435   3.096   2.915   1.683 -0.4492  0.0172  1.1624
  160TMC2    C3 2436   3.177   3.024   1.699 -0.4479  0.7678  0.7442
  160TMC2    C4 2437   3.073   2.970   1.451 -0.2934  0.2139 -0.0724
  160TMC2    C5 2438   3.134   3.085   1.487 -0.2123  0.4711  0.3410
  160TMC2    C6 2439   3.198   3.115   1.603  0.4139 -0.0481  0.2190
  160TMC2     C 2440   2.957   2.773   1.545 -1.3143 -0.0306  0.1156
  160TMC2     O 2441   2.969   2.689   1.632  0.2805 -0.4395 -0.1772
  160TMC2     H 2442   3.070   2.846   1.762  1.0750 -0.3528  1.3471
  160TMC2    H1 2443   3.044   2.938   1.352 -2.2767 -1.7469  1.1476
  160TMC2    H2 2444   3.234   3.213   1.631  1.8635  0.0539 -2.0131
  160TMC2    C7 2445   3.158   3.173   1.375  0.0752 -0.4953  0.2955
  160TMC2    C8 2446   3.202   3.051   1.831  0.4866  0.2509  0.7052
  160TMC2    O1 2447   3.264   3.234   1.374 -0.2180  0.2687  0.7206
  160TMC2    O2 2448   3.117   3.020   1.916  0.4298 -0.3543  0.1524
  160TMC2    O5 2449   3.328   3.095   1.849 -0.3739  0.0098 -0.2000
  160TMC2    H5 2450   3.375   3.090   1.763  0.5179 -1.4114  0.3530
  161MPD2     C 2451   2.759   2.561   1.469 -0.5505 -0.4644  0.6759
  161MPD2    C1 2452   2.761   2.692   1.420  0.4058 -0.5878  0.1117
  161MPD2    C2 2453   2.674   2.735   1.323  0.0062 -0.1073 -0.8246
  161MPD2    C3 2454   2.576   2.644   1.279  0.8892 -0.2427  0.7392
  161MPD2    C4 2455   2.567   2.517   1.330 -0.2821  0.0523 -0.1188
  161MPD2    C5 2456   2.666   2.475   1.418  0.6779 -0.4925  0.4449
  161MPD2     H 2457   2.688   2.834   1.282  2.7512  1.2312  3.3714
  161MPD2    H1 2458   2.483   2.456   1.299 -0.7449 -0.0908  1.4495
  161MPD2    H2 2459   2.821   2.534   1.554 -0.0636 -0.3759  0.3519
  161MPD2    H3 2460   2.661   2.377   1.463 -0.8855 -0.5611  0.1256
  161MPD2     N 2461   2.474   2.685   1.192  0.9854  1.0895  0.1076
  161MPD2    H5 2462   2.389   2.630   1.186  0.5092  2.1668 -3.0666
  161MPD2    N1 2463   2.857   2.789   1.458  0.6324 -0.1676 -0.4517
  161MPD2    H7 2464   2.850   2.879   1.411 -1.2944 -0.7119 -1.1920
  162TMC2    C1 2465   0.462   0.205   1.323 -0.1192 -0.2990 -0.5058
  162TMC2    C2 2466   0.372   0.294   1.269  0.6133  0.1863 -0.2163
  162TMC2    C3 2467   0.340   0.396   1.353  0.3021  0.3070  0.1283
  162TMC2    C4 2468   0.504   0.208   1.450 -0.1953 -0.4646 -0.4846
  162TMC2    C5 2469   0.473   0.317   1.531 -0.0418  0.1237  0.4198
  162TMC2    C6 2470   0.390   0.414   1.477 -0.0271  0.0582 -0.3268
  162TMC2     C 2471   0.538   0.143   1.215 -0.4200  0.0047  0.2995
  162TMC2     O 2472   0.613   0.051   1.240  0.1155 -0.0757 -0.4682
  162TMC2     H 2473   0.315   0.294   1.177  1.5305 -1.6726 -0.7749
  162TMC2    H1 2474   0.580   0.136   1.478 -1.3281 -2.0463 -1.4749
  162TMC2    H2 2475   0.354   0.499   1.535  1.1279  0.9644 -0.9555
  162TMC2    C7 2476   0.535   0.353   1.657  0.0988  0.7613 -0.0845
  162TMC2    C8 2477   0.256   0.510   1.310  0.2632  0.2042 -0.1301
  162TMC2    O1 2478   0.512   0.465   1.698 -0.1096 -0.1939  0.3108
  162TMC2    O2 2479   0.289   0.623   1.330  0.0507 -0.4211  0.1944
  162TMC2    O5 2480   0.147   0.463   1.244 -0.0778 -0.3569  0.0425
  162TMC2    H5 2481   0.120   0.375   1.276 -2.4538  0.5422  0.4829
  163MPD2     C 2482   0.659   0.147   0.710 -0.1571 -0.6410  0.5268
  163MPD2    C1 2483   0.695   0.056   0.805 -0.2834  0.3812  0.2058
  163MPD2    C2 2484   0.648   0.072   0.935  0.5414  0.1214  0.0297
  163MPD2    C3 2485   0.562   0.180   0.974 -0.8610  0.2760  0.0991
  163MPD2    C4 2486   0.528   0.269   0.874 -0.4422  0.7238  0.5977
  163MPD2    C5 2487   0.567   0.246   0.737  0.8226 -0.1278 -0.1854
  163MPD2     H 2488   0.674   0.008   1.018  0.6854 -0.3053 -0.3404
  163MPD2    H1 2489   0.463   0.355   0.888 -1.3738  0.1508 -0.2371
  163MPD2    H2 2490   0.689   0.151   0.605  0.3081 -0.9925  0.6464
  163MPD2    H3 2491   0.534   0.309   0.655 -0.0012  0.1276  0.3365
  163MPD2     N 2492   0.522   0.210   1.097 -0.3412  0.5043  0.0735
  163MPD2    H5 2493   0.464   0.293   1.103  0.3558  0.9358  0.7500
  163MPD2    N1 2494   0.793   4.680   0.773  0.5339  0.2404 -0.3238
  163MPD2    H7 2495   0.815   4.667   0.674 -0.3056 -0.9603 -0.3536
  164TCq2    C1 2496   1.031   0.334  10.790  0.0221  0.0886 -0.2342
  164TCq2    O2 2497   1.018   0.454  10.810  0.5456  0.7623  0.2631
  164TCq2    C2 2498   1.036   0.239  10.897 -0.6369 -0.4496  0.2944
  164TCq2    C3 2499   1.077   0.112  10.875 -0.0878 -0.0674  0.1594
  164TCq2    C4 2500   1.033   0.016  10.957  0.3960  0.5611  0.4152
  164TCq2    C5 2501   0.947   0.051  11.061  0.1736  0.5838 -0.0390
  164TCq2    C6 2502   0.925   0.181  11.090  0.1997  0.8789 -1.0635
  164TCq2    C7 2503   0.967   0.277  11.012  0.1862 -0.2235  0.5520
  164TCq2    C8 2504   0.804   0.195  11.170  0.3087  0.4243 -0.0633
  164TCq2    O4 2505   0.721   0.105  11.157 -0.5278 -0.3727  0.3923
  164TCq2    C9 2506   1.051   4.596  10.919 -0.3459 -0.1497  0.1095
  164TCq2    O5 2507   0.969   4.517  10.968 -0.1680  0.0232 -0.0705
  164TCq2    O6 2508   1.145   4.565  10.841  0.1399 -0.1465 -0.0409
  164TCq2    H2 2509   1.153   0.095  10.800  1.8536  3.7272  1.2468
  164TCq2    H3 2510   0.905   4.694  11.120 -0.3583 -0.4580 -1.8545
  164TCq2    H4 2511   0.930   0.379  11.019 -0.8694 -0.3303 -3.5224
  165MPD2     C 2512   3.542   0.865   1.543 -0.4289  0.2218 -0.1925
  165MPD2    C1 2513   3.419   0.919   1.559 -0.5491  0.4173  0.1707
  165MPD2    C2 2514   3.403   1.037   1.626 -0.4278 -0.1161  0.0567
  165MPD2    C3 2515   3.505   1.082   1.705 -0.8912 -0.0307  0.5889
  165MPD2    C4 2516   3.629   1.024   1.691  0.6189 -0.5874 -0.0300
  165MPD2    C5 2517   3.651   0.914   1.613  0.7933 -0.0998 -0.0893
  165MPD2     H 2518   3.303   1.076   1.638  0.0658  0.6391  1.7707
  165MPD2    H1 2519   3.723   1.062   1.730 -1.0448  2.1287  1.3209
  165MPD2    H2 2520   3.564   0.782   1.476 -1.5574  0.0063 -0.2857
  165MPD2    H3 2521   3.746   0.862   1.616  0.5946 -0.3873  1.7702
  165MPD2     N 2522   3.489   1.187   1.801  0.0991  0.4282 -0.1688
  165MPD2    H5 2523   3.573   1.212   1.852 -0.4972  0.4897  0.7842
  165MPD2    N1 2524   3.311   0.864   1.478  0.0774  0.2092  0.4293
  165MPD2    H7 2525   3.340   0.779   1.429 -1.4734 -0.1268  0.0847
  166TCq2    C1 2526   3.371   1.248   1.831  0.3609 -0.0579  0.4376
  166TCq2    O2 2527   3.267   1.254   1.773  0.2199 -0.8983  0.2550
  166TCq2    C2 2528   3.387   1.349   1.938  0.6009 -0.0578 -0.0320
  166TCq2    C3 2529   3.494   1.338   2.026  0.0472  0.0296  0.3384
  166TCq2    C4 2530   3.518   1.453   2.099  0.0599 -0.4656 -0.2336
  166TCq2    C5 2531   3.433   1.562   2.099  0.0165  0.2118  0.0823
  166TCq2    C6 2532   3.326   1.557   2.018  0.6004 -0.1538 -0.2047
  166TCq2    C7 2533   3.306   1.453   1.927 -0.0484  0.2002  0.0984
  166TCq2    C8 2534   3.251   1.676   2.004 -0.0301 -0.3297  0.6087
  166TCq2    O4 2535   3.314   1.777   2.028 -0.8104 -0.0738 -0.1581
  166TCq2    C9 2536   3.630   1.457   2.190  0.2211 -1.1561 -0.4986
  166TCq2    O5 2537   3.662   1.346   2.238 -0.1359  0.0148 -0.6553
  166TCq2    O6 2538   3.660   1.569   2.244 -0.1928  0.1529  0.1405
  166TCq2    H2 2539   3.553   1.248   2.042  1.8798  1.0384 -0.6838
  166TCq2    H3 2540   3.462   1.646   2.161 -0.7220 -1.3594  2.5367
  166TCq2    H4 2541   3.234   1.464   1.847 -0.3734  0.8316  0.4788
  167TMC2    C1 2542   0.027   4.606  12.788  0.0297  0.0771  0.6205
  167TMC2    C2 2543   4.629   4.616  12.847 -0.0283  0.0057  0.5695
  167TMC2    C3 2544   4.578   4.502  12.895 -0.3547 -0.1954 -0.3043
  167TMC2    C4 2545   0.105   4.498  12.797 -0.4419 -0.9666  0.0604
  167TMC2    C5 2546   0.047   4.384  12.848  0.1754 -0.2308  0.3113
  167TMC2    C6 2547   4.645   4.387  12.896 -0.7849  0.2928  0.0893
  167TMC2     C 2548   0.065   4.723  12.716 -0.9414  0.0897 -0.3824
  167TMC2     O 2549   4.715   0.098  12.717 -0.4245  0.2109 -0.2041
  167TMC2     H 2550   4.563   4.701  12.838 -0.8607 -0.7009  0.0175
  167TMC2    H1 2551   0.207   4.499  12.760 -1.3526  0.5444 -2.4398
  167TMC2    H2 2552   4.597   4.296  12.929  0.6224 -1.0562 -1.5769
  167TMC2    C7 2553   0.120   4.261  12.843 -0.0228 -0.5971  0.7517
  167TMC2    C8 2554   4.447   4.496  12.956 -0.2776  0.0568 -0.1103
  167TMC2    O1 2555   0.090   4.185  12.934 -0.2802  0.4556 -0.4760
  167TMC2    O2 2556   4.397   4.389  12.990 -0.7460 -0.5114  0.0399
  167TMC2    O5 2557   4.426   4.617  13.018 -0.1778  0.5597 -0.0364
  167TMC2    H5 2558   4.502   4.677  13.005 -1.1505  1.8852  0.3825
  168MPD2     C 2559   0.199   0.221  12.568 -0.3377  0.3828 -0.4766
  168MPD2    C1 2560   0.243   0.091  12.570 -0.0475 -0.0943  0.6586
  168MPD2    C2 2561   0.350   0.060  12.493 -0.2096 -0.4327  0.0029
  168MPD2    C3 2562   0.398   0.146  12.388  0.6274  0.0708 -0.1215
  168MPD2    C4 2563   0.338   0.267  12.381  0.5149  0.0285  0.6352
  168MPD2    C5 2564   0.249   0.308  12.476  0.1961 -0.5730  0.0005
  168MPD2     H 2565   0.377   4.679  12.488 -2.0595 -0.8968 -0.4236
  168MPD2    H1 2566   0.356   0.342  12.305  0.5904 -0.2995  0.3271
  168MPD2    H2 2567   0.120   0.272  12.622  1.2186  1.5699  0.6894
  168MPD2    H3 2568   0.202   0.406  12.476 -2.6534 -1.9280  0.4172
  168MPD2     N 2569   0.487   0.098  12.283  0.2080  0.1130  0.5754
  168MPD2    H5 2570   0.494   0.163  12.206 -2.0911 -0.9211 -0.5185
  168MPD2    N1 2571   0.183   4.711  12.644  0.1312  0.0044 -0.4460
  168MPD2    H7 2572   0.219   4.617  12.635  0.4952  0.1682 -0.7253
  169MPD1     C 2573   2.439   4.550  10.029  0.0046 -1.0465 -0.5089
  169MPD1    C1 2574   2.565   4.530   9.999 -1.3618  0.1494 -1.0670
  169MPD1    C2 2575   2.597   4.475   9.880  0.0522  0.7594  0.6253
  169MPD1    C3 2576   2.502   4.411   9.801  0.0271 -0.6085 -0.5221
  169MPD1    C4 2577   2.370   4.422   9.842  0.1831  0.1391  0.1114
  169MPD1    C5 2578   2.337   4.502   9.952  0.4048  0.4161  0.3653
  169MPD1     H 2579   2.699   4.460   9.847 -0.5321 -3.0534  0.5550
  169MPD1    H1 2580   2.281   4.388   9.790  0.2291  0.1139  0.0505
  169MPD1    H2 2581   2.414   4.604  10.120  2.0979 -0.4828 -0.2782
  169MPD1    H3 2582   2.233   4.514   9.979  0.2915  2.7025 -1.0474
  169MPD1     N 2583   2.549   4.366   9.680 -0.3898  0.0195 -0.0122
  169MPD1    H5 2584   2.650   4.356   9.675 -0.6199 -2.3501  0.0118
  169MPD1    N1 2585   2.663   4.595  10.077  0.6402 -0.4188  0.8956
  169MPD1    H6 2586   2.627   4.602  10.172 -0.4348 -0.6816  0.5144
  169MPD1    H7 2587   2.757   4.559  10.091  1.3492  0.0531 -2.5648
  170MPD1     C 2588   1.487   2.007  12.638  0.3048 -0.0084  0.5382
  170MPD1    C1 2589   1.494   2.146  12.632 -1.1153 -0.0320 -0.1677
  170MPD1    C2 2590   1.468   2.211  12.755 -0.1400  0.1315  0.5556
  170MPD1    C3 2591   1.450   2.149  12.878  0.1870  0.5277  0.0814
  170MPD1    C4 2592   1.451   2.013  12.879 -0.5819 -0.1602 -0.2832
  170MPD1    C5 2593   1.458   1.945  12.761 -0.3394 -0.4699  0.8962
  170MPD1     H 2594   1.467   2.319  12.749  1.5369  0.1603  0.7464
  170MPD1    H1 2595   1.415   1.960  12.967 -1.2157  2.3739  0.9733
  170MPD1    H2 2596   1.483   1.941  12.553 -1.7629  0.5317  0.2318
  170MPD1    H3 2597   1.448   1.838  12.762  0.1091 -0.5391 -0.9034
  170MPD1     N 2598   1.412   2.233  12.993 -0.2078  0.6720  0.3898
  170MPD1    H5 2599   1.414   2.333  12.979  1.0835  0.7571  1.1156
  170MPD1    N1 2600   1.486   2.207  12.509 -0.2894 -0.1594 -0.1743
  170MPD1    H6 2601   1.533   2.157  12.434  1.1324 -0.7466  1.1218
  170MPD1    H7 2602   1.520   2.302  12.515  1.2874 -0.8034  1.0786
  171MPD1     C 2603   4.330   3.238  15.363 -0.2658  0.6791  0.8360
  171MPD1    C1 2604   4.293   3.105  15.332  0.1327 -0.2676  0.2235
  171MPD1    C2 2605   4.380   2.997  15.352  0.2472 -0.2807  0.5139
  171MPD1    C3 2606   4.487   3.015  15.436 -0.5018 -0.5987 -0.2948
  171MPD1    C4 2607   4.513   3.139  15.485  0.1614 -0.1607  0.0428
  171MPD1    C5 2608   4.437   3.252  15.451  0.1226 -0.6364  0.5806
  171MPD1     H 2609   4.350   2.896  15.328  1.2485 -0.4466 -0.0401
  171MPD1    H1 2610   4.596   3.145  15.555 -0.3508  0.5971  0.5821
  171MPD1    H2 2611   4.269   3.323  15.337 -0.3616  0.8417  1.6093
  171MPD1    H3 2612   4.466   3.349  15.489  1.6760 -0.4584 -1.0789
  171MPD1     N 2613   4.549   2.905  15.500  0.0676  0.2386  0.1518
  171MPD1    H5 2614   4.626   2.941  15.556  2.1039 -0.4184 -2.2129
  171MPD1    N1 2615   4.185   3.089  15.233  0.1276  0.1872 -0.0365
  171MPD1    H6 2616   4.147   2.996  15.252  1.1245  0.2971  2.4448
  171MPD1    H7 2617   4.109   3.153  15.255  0.9072  0.9069  0.5404
  172MPD1     C 2618   4.038   1.643   0.464 -0.2483 -0.0743 -0.5413
  172MPD1    C1 2619   3.971   1.740   0.401 -0.5840  0.0604 -0.0115
  172MPD1    C2 2620   4.023   1.872   0.403 -0.3504  0.2243  0.3289
  172MPD1    C3 2621   4.140   1.901   0.464  0.3578 -0.4731 -0.4905
  172MPD1    C4 2622   4.215   1.796   0.515 -0.3654  0.8395 -0.4763
  172MPD1    C5 2623   4.156   1.671   0.524  0.0860  0.3846 -0.0074
  172MPD1     H 2624   3.964   1.952   0.360  2.2071  0.5624 -2.6427
  172MPD1    H1 2625   4.310   1.817   0.564  0.2704 -0.8939 -0.9478
  172MPD1    H2 2626   4.006   1.540   0.471 -0.6513  0.0653 -0.3493
  172MPD1    H3 2627   4.208   1.592   0.576  1.7705 -0.1274 -2.4728
  172MPD1     N 2628   4.188   2.035   0.479 -0.1041  0.5401  0.2467
  172MPD1    H5 2629   4.273   2.041   0.534 -0.4073 -1.1838  0.9236
  172MPD1    N1 2630   3.851   1.704   0.345 -0.9572 -0.4373  0.0005
  172MPD1    H6 2631   3.868   1.615   0.298 -0.8002 -0.0020 -0.7735
  172MPD1    H7 2632   3.831   1.759   0.262 -0.5962  0.4026  0.4723
  173MPD1     C 2633   0.296   2.705  14.285  0.1454 -0.0270 -0.3270
  173MPD1    C1 2634   0.248   2.606  14.199  0.2591 -0.1377 -0.7471
  173MPD1    C2 2635   0.243   2.469  14.248 -0.0804 -0.5149 -0.5750
  173MPD1    C3 2636   0.266   2.442  14.377 -0.1171  0.1432  0.1675
  173MPD1    C4 2637   0.301   2.544  14.460 -0.1132  0.6928 -0.2094
  173MPD1    C5 2638   0.326   2.666  14.411 -0.0658 -0.0385 -0.0549
  173MPD1     H 2639   0.210   2.393  14.179  0.9156 -0.6455 -0.9038
  173MPD1    H1 2640   0.324   2.517  14.563 -0.2456  1.3428 -0.0135
  173MPD1    H2 2641   0.320   2.807  14.257 -1.4947 -0.1957 -2.2956
  173MPD1    H3 2642   0.366   2.740  14.479 -0.2559  0.1958 -0.1997
  173MPD1     N 2643   0.265   2.312  14.421  0.2329  0.2893  0.2708
  173MPD1    H5 2644   0.258   2.242  14.348 -0.9367 -2.0284  2.6336
  173MPD1    N1 2645   0.232   2.634  14.058 -0.0693 -0.2652  0.0637
  173MPD1    H6 2646   0.173   2.566  14.010  0.4653 -0.1744 -0.7364
  173MPD1    H7 2647   0.198   2.727  14.034  1.5983 -0.4628 -3.0848
  174MPD1     C 2648   0.417   1.766  13.872  0.4400 -0.3308  0.0882
  174MPD1    C1 2649   0.347   1.679  13.954 -0.1272 -0.0425  0.0822
  174MPD1    C2 2650   0.337   1.709  14.085  0.3547  0.6934  0.0267
  174MPD1    C3 2651   0.393   1.830  14.135  0.0835  0.5678  0.1948
  174MPD1    C4 2652   0.475   1.902  14.051 -0.1079  0.2624  0.1419
  174MPD1    C5 2653   0.474   1.875  13.922 -0.0567  0.2339 -0.3509
  174MPD1     H 2654   0.279   1.647  14.152 -0.4135 -0.0063 -1.2853
  174MPD1    H1 2655   0.515   1.998  14.080  2.2760 -1.0767  1.2572
  174MPD1    H2 2656   0.421   1.755  13.765 -0.8294 -2.5698  0.2674
  174MPD1    H3 2657   0.537   1.940  13.862  1.3802 -1.0704 -0.2632
  174MPD1     N 2658   0.370   1.871  14.265  0.3705 -0.5892  0.3834
  174MPD1    H5 2659   0.423   1.954  14.289  0.0845 -0.0876 -0.7281
  174MPD1    N1 2660   0.276   1.575  13.900 -0.5396  0.5302 -0.1019
  174MPD1    H6 2661   0.258   1.499  13.965 -1.1477  0.3982 -0.4290
  174MPD1    H7 2662   0.325   1.537  13.819  0.4649  0.6695  0.4392
  175MPD1     C 2663   3.205   2.822  15.781  0.0605 -0.3630  0.3378
  175MPD1    C1 2664   3.335   2.857  15.816  0.2509 -0.1297  0.2086
  175MPD1    C2 2665   3.375   2.833  15.945 -0.5968 -0.1159  0.2503
  175MPD1    C3 2666   3.302   2.748  16.028  0.4022  0.2177  0.0994
  175MPD1    C4 2667   3.175   2.709  15.988 -0.1416 -0.2894 -0.0283
  175MPD1    C5 2668   3.123   2.743  15.866  0.1991 -0.0942 -0.2176
  175MPD1     H 2669   3.478   2.859  15.966 -0.2577 -1.6112  0.3927
  175MPD1    H1 2670   3.114   2.648  16.053  0.6991 -0.4905  0.5706
  175MPD1    H2 2671   3.164   2.866  15.690 -0.5088 -1.6658 -0.0307
  175MPD1    H3 2672   3.022   2.707  15.850  0.3686 -0.7502  0.1687
  175MPD1     N 2673   3.360   2.703  16.152 -0.0128 -0.3137  0.0311
  175MPD1    H5 2674   3.304   2.646  16.213  0.4405 -1.4644 -0.6185
  175MPD1    N1 2675   3.414   2.942  15.731 -0.1967  0.9191 -0.5216
  175MPD1    H6 2676   3.514   2.926  15.740 -0.1173  0.9462 -1.3604
  175MPD1    H7 2677   3.396   2.917  15.634 -0.5133 -2.2594  0.3467
  176MPD1     C 2678   0.451   0.673   0.490  0.1602 -0.6663 -0.2744
  176MPD1    C1 2679   0.338   0.729   0.432  0.0039  0.4060 -0.5720
  176MPD1    C2 2680   0.305   0.686   0.305  0.2826  0.1609 -0.1932
  176MPD1    C3 2681   0.374   0.584   0.242 -0.0254  0.1859 -1.1812
  176MPD1    C4 2682   0.485   0.528   0.310  0.2085  0.2409 -0.7469
  176MPD1    C5 2683   0.517   0.566   0.438 -0.0150  0.5028  0.3262
  176MPD1     H 2684   0.223   0.739   0.257  0.8388 -0.3975 -1.7584
  176MPD1    H1 2685   0.542   0.454   0.255  1.2046 -0.5785  1.3514
  176MPD1    H2 2686   0.482   0.702   0.589  2.4629 -2.3153 -0.5337
  176MPD1    H3 2687   0.596   0.518   0.493 -0.8926 -2.1833 -0.7540
  176MPD1     N 2688   0.337   0.543   0.111  0.0165  0.1425 -0.3868
  176MPD1    H5 2689   0.285   0.615   0.063 -1.9485  0.1289  1.6987
  176MPD1    N1 2690   0.271   0.832   0.490  0.0704 -0.0056 -0.4618
  176MPD1    H6 2691   0.171   0.828   0.471  0.5803  0.8984 -3.2853
  176MPD1    H7 2692   0.279   0.829   0.592  0.0487  2.2520 -0.3772
  177MPD1     C 2693   2.734   4.700  10.443 -0.2145  0.3992 -0.5662
  177MPD1    C1 2694   2.630   0.011  10.356  0.0716  0.4454 -0.4125
  177MPD1    C2 2695   2.663   0.104  10.259  0.8948  0.2903 -0.3596
  177MPD1    C3 2696   2.787   0.156  10.256  0.1124 -0.1025 -0.1633
  177MPD1    C4 2697   2.885   0.120  10.346 -0.7634  0.1074  0.4724
  177MPD1    C5 2698   2.862   0.028  10.440 -0.2177  0.1162 -0.1041
  177MPD1     H 2699   2.595   0.122  10.176  0.5561  0.9602  0.0614
  177MPD1    H1 2700   2.987   0.157  10.347 -1.0420  0.9062  0.0147
  177MPD1    H2 2701   2.718   4.625  10.520  0.4411 -0.1535 -0.9652
  177MPD1    H3 2702   2.942   4.715  10.503 -2.6826 -1.2008  2.2854
  177MPD1     N 2703   2.810   0.235  10.140  0.3838  0.5230  0.3444
  177MPD1    H5 2704   2.735   0.237  10.073  0.7885 -0.7779 -0.1540
  177MPD1    N1 2705   2.505   4.669  10.358 -0.3110  0.0595 -0.0337
  177MPD1    H6 2706   2.427   0.008  10.344  1.3453  1.6716 -2.1537
  177MPD1    H7 2707   2.490   4.630  10.451  0.1986  0.4835  0.2247
  178MPD1     C 2708   1.681   4.667   0.609  0.8005  0.0697 -0.3239
  178MPD1    C1 2709   1.607   0.048   0.567 -0.4267  0.1917  0.2465
  178MPD1    C2 2710   1.566   0.053   0.431  0.2690 -0.5084 -0.0230
  178MPD1    C3 2711   1.599   4.679   0.334  0.4470  0.3687  0.0343
  178MPD1    C4 2712   1.680   4.580   0.381  0.2217  0.6091 -0.6282
  178MPD1    C5 2713   1.706   4.568   0.519  0.6345  0.0217  0.0967
  178MPD1     H 2714   1.500   0.135   0.408 -0.3789 -0.6840  1.2140
  178MPD1    H1 2715   1.715   4.501   0.315  0.3210 -0.8327  1.1207
  178MPD1    H2 2716   1.713   4.669   0.712  2.5745 -1.5011 -0.8473
  178MPD1    H3 2717   1.766   4.484   0.553 -0.0628 -0.7742 -0.6445
  178MPD1     N 2718   1.555   4.682   0.200 -0.3168  0.1016  0.1208
  178MPD1    H5 2719   1.610   4.628   0.134  0.1487 -0.5470  1.0291
  178MPD1    N1 2720   1.591   0.161   0.656 -0.0884 -0.5153 -0.4191
  178MPD1    H6 2721   1.513   0.212   0.615  0.0554  0.5612  0.6619
  178MPD1    H7 2722   1.557   0.119   0.743  1.2364 -0.8232 -0.0470
  179MPD1     C 2723   1.234   4.394  15.787  0.7298 -0.3971  0.2624
  179MPD1    C1 2724   1.247   4.347  15.663 -0.2578 -0.0725  0.4463
  179MPD1    C2 2725   1.191   4.217  15.642 -0.6905 -0.5098 -0.2397
  179MPD1    C3 2726   1.151   4.137  15.753  0.1074 -0.0922 -0.3843
  179MPD1    C4 2727   1.158   4.188  15.879 -0.6347  0.6635  0.2844
  179MPD1    C5 2728   1.184   4.322  15.893 -0.3822  0.0370  0.1277
  179MPD1     H 2729   1.176   4.174  15.543 -2.4952  0.2281 -0.2852
  179MPD1    H1 2730   1.095   4.147  15.956  1.4468  0.1775  1.7390
  179MPD1    H2 2731   1.244   4.501  15.804 -2.0309  0.1410 -1.4582
  179MPD1    H3 2732   1.158   4.365  15.989 -0.0175 -0.0861  0.2814
  179MPD1     N 2733   1.086   4.010  15.743 -0.6341 -0.4465 -0.0766
  179MPD1    H5 2734   1.052   3.964  15.826  0.5685 -0.3860  0.4400
  179MPD1    N1 2735   1.273   4.441  15.561 -0.3394  0.5617  0.0191
  179MPD1    H6 2736   1.335   4.516  15.590  0.0105 -0.4280  1.8305
  179MPD1    H7 2737   1.323   4.390  15.489 -1.7210 -1.9125  0.8228
  180MPD1     C 2738   4.538   0.544  14.969 -0.4228  0.4369 -0.1287
  180MPD1    C1 2739   4.660   0.611  14.980 -0.3871  0.3057  0.5096
  180MPD1    C2 2740   0.038   0.598  14.884 -0.1751  0.6188  0.0727
  180MPD1    C3 2741   0.017   0.526  14.765 -0.2904  0.7196  0.6010
  180MPD1    C4 2742   4.621   0.457  14.762 -0.0066  0.0971 -1.2084
  180MPD1    C5 2743   4.528   0.465  14.862  0.9314 -0.7767  0.7070
  180MPD1     H 2744   0.134   0.647  14.897  0.8352 -1.1616 -0.6274
  180MPD1    H1 2745   4.606   0.398  14.673  1.8703 -1.1203 -0.7207
  180MPD1    H2 2746   4.448   0.548  15.029 -0.8964  3.3875 -1.0675
  180MPD1    H3 2747   4.434   0.418  14.838  0.2409  0.0890  1.7113
  180MPD1     N 2748   0.118   0.507  14.667 -0.3406  0.3710  0.1597
  180MPD1    H5 2749   0.204   0.559  14.685  0.6246 -0.5121 -2.0121
  180MPD1    N1 2750   4.666   0.722  15.065 -0.3857 -0.2498 -0.0935
  180MPD1    H6 2751   4.604   0.712  15.145  2.5238 -1.8860  1.9442
  180MPD1    H7 2752   0.036   0.747  15.096 -0.3444 -1.3674  0.6981
  181MPD1     C 2753   2.546   2.071   8.997  0.0695 -0.2814 -0.1786
  181MPD1    C1 2754   2.573   2.020   9.121 -0.1983 -0.0093 -0.3301
  181MPD1    C2 2755   2.669   2.086   9.195 -0.0063  0.5439  0.1826
  181MPD1    C3 2756   2.740   2.194   9.140 -0.2278  0.0567  0.1947
  181MPD1    C4 2757   2.710   2.236   9.015  0.2939 -0.2651  0.0573
  181MPD1    C5 2758   2.618   2.174   8.939 -0.5516 -0.2108 -0.5490
  181MPD1     H 2759   2.684   2.064   9.300 -1.4977 -0.7823  0.1057
  181MPD1    H1 2760   2.762   2.315   8.962  0.0415  0.5786  1.0490
  181MPD1    H2 2761   2.467   2.039   8.931  0.0247 -0.0389 -0.2437
  181MPD1    H3 2762   2.601   2.210   8.838 -0.3891 -2.6342 -1.4167
  181MPD1     N 2763   2.843   2.264   9.211  0.1515  0.2374 -0.3037
  181MPD1    H5 2764   2.879   2.342   9.156 -0.1774  0.1153 -0.7006
  181MPD1    N1 2765   2.502   1.918   9.170  0.5526 -0.6320 -0.2032
  181MPD1    H6 2766   2.553   1.844   9.217 -1.9882 -0.4172  2.9042
  181MPD1    H7 2767   2.453   1.867   9.097  0.7990  0.8099 -1.3837
  182MPD1     C 2768   2.788   1.660   1.002 -0.3946 -0.3230  0.4593
  182MPD1    C1 2769   2.883   1.560   0.986  0.1669 -0.0362  0.0376
  182MPD1    C2 2770   2.877   1.478   0.871  0.1583 -0.1581 -0.2173
  182MPD1    C3 2771   2.764   1.474   0.794 -0.0044 -0.3189  0.1465
  182MPD1    C4 2772   2.662   1.566   0.820 -0.7656  0.0539  0.1971
  182MPD1    C5 2773   2.676   1.661   0.923 -0.3073 -0.0411  0.6836
  182MPD1     H 2774   2.961   1.411   0.852  1.0601  0.6411  0.9446
  182MPD1    H1 2775   2.574   1.574   0.758  0.6964  1.5278 -1.6829
  182MPD1    H2 2776   2.793   1.734   1.081  0.6868  0.8980 -0.7333
  182MPD1    H3 2777   2.596   1.729   0.951  0.3000  1.3172 -0.8288
  182MPD1     N 2778   2.742   1.392   0.684  0.4174  0.0568  0.0722
  182MPD1    H5 2779   2.653   1.408   0.638  1.4010  0.2435 -1.7619
  182MPD1    N1 2780   3.004   1.585   1.049  0.5827  0.4412  0.6220
  182MPD1    H6 2781   3.060   1.503   1.070  1.2577  0.7280 -0.0723
  182MPD1    H7 2782   2.987   1.633   1.137  0.4670  2.0136 -0.2578
  183MPD1     C 2783   0.546   1.610   8.761  0.1169  0.0037 -0.4289
  183MPD1    C1 2784   0.672   1.655   8.806 -0.8978  0.5286 -0.1681
  183MPD1    C2 2785   0.671   1.724   8.926 -0.2924 -0.3404 -0.6228
  183MPD1    C3 2786   0.560   1.743   9.001  0.4899  0.3652 -0.0008
  183MPD1    C4 2787   0.438   1.676   8.964 -0.1496 -0.6767 -0.3146
  183MPD1    C5 2788   0.436   1.604   8.842  0.0999 -0.0924  0.9641
  183MPD1     H 2789   0.763   1.770   8.963 -0.6112 -1.2266  1.2834
  183MPD1    H1 2790   0.353   1.671   9.031 -0.4086  1.9895 -0.4461
  183MPD1    H2 2791   0.536   1.577   8.659 -1.8304 -0.7162  0.0019
  183MPD1    H3 2792   0.350   1.553   8.801  0.7696 -0.3146 -0.1564
  183MPD1     N 2793   0.582   1.822   9.117 -0.3683  0.5365 -0.5681
  183MPD1    H5 2794   0.677   1.856   9.129  0.2710 -1.0971 -0.9998
  183MPD1    N1 2795   0.781   1.680   8.717  0.1166 -0.4018  0.4984
  183MPD1    H6 2796   0.873   1.682   8.760  0.4175  2.4626 -0.2994
  183MPD1    H7 2797   0.784   1.606   8.647 -2.9853 -0.5552  0.5070
  184MPD1     C 2798   2.326   0.373   8.951  0.1396 -0.0684  0.0287
  184MPD1    C1 2799   2.337   0.264   9.039  0.2361 -0.9004 -0.2629
  184MPD1    C2 2800   2.367   0.309   9.173  0.3303  0.4885 -0.4013
  184MPD1    C3 2801   2.366   0.446   9.215 -0.2515 -0.2047  0.0767
  184MPD1    C4 2802   2.343   0.543   9.128 -0.8794  0.2260 -0.1194
  184MPD1    C5 2803   2.319   0.504   8.998  0.0925  0.6697 -0.3045
  184MPD1     H 2804   2.387   0.226   9.239 -2.2911 -0.0758 -0.3131
  184MPD1    H1 2805   2.345   0.646   9.159 -0.1893  0.5119 -1.1071
  184MPD1    H2 2806   2.304   0.364   8.845  0.1543  1.2804 -0.0924
  184MPD1    H3 2807   2.293   0.584   8.929 -2.5968  0.5930  0.6127
  184MPD1     N 2808   2.401   0.477   9.351 -0.4204 -0.1522 -0.5541
  184MPD1    H5 2809   2.419   0.576   9.365 -0.1583 -0.0356 -1.6760
  184MPD1    N1 2810   2.353   0.129   8.993  0.1362  0.6951  0.3256
  184MPD1    H6 2811   2.309   0.067   9.060  0.8937 -1.0704 -0.7982
  184MPD1    H7 2812   2.304   0.115   8.905 -0.0265 -0.2398  0.5625
  185MPD1     C 2813   2.174   0.104  10.271 -0.4188 -0.5236  0.3729
  185MPD1    C1 2814   2.276   0.189  10.291  0.4246  1.0233 -0.2842
  185MPD1    C2 2815   2.348   0.223  10.180  0.5398  0.2405  0.8718
  185MPD1    C3 2816   2.310   0.176  10.053  0.2424  0.5172  0.5999
  185MPD1    C4 2817   2.202   0.092  10.037 -0.0019 -0.5521 -0.7001
  185MPD1    C5 2818   2.125   0.067  10.152  0.5732 -0.2834  0.4240
  185MPD1     H 2819   2.421   0.304  10.180 -1.6700  2.2516  2.0540
  185MPD1    H1 2820   2.173   0.048   9.942  0.0404 -1.9331 -0.0811
  185MPD1    H2 2821   2.125   0.051  10.352 -0.0918  0.1136  0.9814
  185MPD1    H3 2822   2.041   4.724  10.145  0.5938 -0.1862 -0.8105
  185MPD1     N 2823   2.366   0.237   9.938 -0.0571  0.4256  0.0481
  185MPD1    H5 2824   2.299   0.232   9.862  0.4906  0.2158 -0.4196
  185MPD1    N1 2825   2.328   0.221  10.423 -0.2540 -0.4764 -0.4346
  185MPD1    H6 2826   2.379   0.309  10.417 -1.1733  0.1066  0.4004
  185MPD1    H7 2827   2.261   0.234  10.498  0.9969  0.8229  0.4729
  186MPD1     C 2828   0.690   4.070  15.917 -0.7605  1.1850  0.2883
  186MPD1    C1 2829   0.663   4.201  15.913  0.4571  0.7774 -0.1154
  186MPD1    C2 2830   0.747   4.284  15.996  0.0686  0.1137  0.0039
  186MPD1    C3 2831   0.841   4.224  16.078 -0.8933 -0.0412  0.7131
  186MPD1    C4 2832   0.862   4.089  16.081 -0.6277 -0.1600  0.7385
  186MPD1    C5 2833   0.787   4.014  15.998 -0.8266 -0.0425  0.2655
  186MPD1     H 2834   0.744   4.391  15.981 -1.7478  0.1291  0.4787
  186MPD1    H1 2835   0.930   4.047  16.154 -0.9501  0.1298  1.2016
  186MPD1    H2 2836   0.634   4.013  15.844 -0.6845  0.4465  0.8165
  186MPD1    H3 2837   0.799   3.906  15.997 -0.0635  0.0380  0.5105
  186MPD1     N 2838   0.928   4.302  16.160 -0.7603 -0.2074  0.7737
  186MPD1    H5 2839   0.998   4.253  16.214  0.2508 -2.8995 -2.9691
  186MPD1    N1 2840   0.592   4.265  15.810  0.1178  0.8052 -0.3002
  186MPD1    H6 2841   0.554   4.349  15.853 -0.0748  0.3070  0.5002
  186MPD1    H7 2842   0.509   4.212  15.783  0.1834 -0.2466  1.5247
  187MPD1     C 2843   1.265   0.989  17.445  0.0190  0.7535 -0.1365
  187MPD1    C1 2844   1.265   1.115  17.504  0.0158  0.2525  0.1468
  187MPD1    C2 2845   1.156   1.193  17.475 -0.4312 -0.9851  0.0682
  187MPD1    C3 2846   1.063   1.172  17.375 -0.0234  0.2324  0.1151
  187MPD1    C4 2847   1.067   1.051  17.313  0.5707 -0.3349  0.6704
  187MPD1    C5 2848   1.164   0.963  17.357  0.9398  0.3499 -0.1949
  187MPD1     H 2849   1.153   1.285  17.532 -0.3182 -2.1101  1.8743
  187MPD1    H1 2850   0.995   1.030  17.235 -1.1418 -0.4377  2.2569
  187MPD1    H2 2851   1.342   0.917  17.470  1.0288  1.1876 -1.9625
  187MPD1    H3 2852   1.173   0.869  17.303 -1.2045 -0.5773  1.0677
  187MPD1     N 2853   0.952   1.250  17.345  0.2091 -0.3552  0.0751
  187MPD1    H5 2854   0.892   1.207  17.275 -0.7762  0.6125  0.3357
  187MPD1    N1 2855   1.344   1.145  17.614 -0.1404 -0.3958  0.4038
  187MPD1    H6 2856   1.354   1.246  17.623  2.3773 -0.5564 -0.5419
  187MPD1    H7 2857   1.440   1.111  17.606 -0.3471 -0.6402 -1.0339
  188MPD1     C 2858   0.084   1.805  10.148  0.2713 -0.7483  0.1628
  188MPD1    C1 2859   0.154   1.716  10.235 -0.4569 -0.2561  0.5979
  188MPD1    C2 2860   0.247   1.630  10.176 -0.2236  0.1917  0.6267
  188MPD1    C3 2861   0.241   1.600  10.039 -0.3454 -0.3052 -0.4087
  188MPD1    C4 2862   0.169   1.686   9.959 -0.1025  0.5622 -0.0188
  188MPD1    C5 2863   0.094   1.786  10.017  0.0214 -0.5948 -0.2387
  188MPD1     H 2864   0.314   1.574  10.240  1.0143  0.1473 -0.7121
  188MPD1    H1 2865   0.156   1.671   9.853  0.2462  4.0958 -0.5705
  188MPD1    H2 2866   0.031   1.894  10.180  1.3076 -0.0592 -0.0317
  188MPD1    H3 2867   0.046   1.852   9.946  0.6244  3.3047  2.9544
  188MPD1     N 2868   0.316   1.493   9.972  0.0285 -0.1777 -0.3579
  188MPD1    H5 2869   0.308   1.485   9.871 -0.6004  0.0265 -0.3257
  188MPD1    N1 2870   0.150   1.746  10.368  0.1966  0.6077 -0.2224
  188MPD1    H6 2871   0.143   1.660  10.420 -0.2628  0.2735 -0.8338
  188MPD1    H7 2872   0.064   1.796  10.390 -0.2957  0.5061 -1.8928
  189MPD1     C 2873   2.252   0.378   0.460 -0.0552 -0.5507 -0.0345
  189MPD1    C1 2874   2.208   0.299   0.355 -0.5294 -0.0916 -0.3846
  189MPD1    C2 2875   2.135   0.367   0.254  0.0946  0.0332  0.6457
  189MPD1    C3 2876   2.087   0.497   0.276 -0.2177  0.1796 -0.0892
  189MPD1    C4 2877   2.133   0.571   0.389 -0.9291 -0.3098  0.2030
  189MPD1    C5 2878   2.213   0.510   0.480 -0.4475 -0.5319 -0.2846
  189MPD1     H 2879   2.100   0.327   0.159  1.9152  1.0576 -0.4645
  189MPD1    H1 2880   2.099   0.673   0.407  1.5345  0.5362  0.0386
  189MPD1    H2 2881   2.316   0.322   0.528  1.0075  1.2521  0.4593
  189MPD1    H3 2882   2.241   0.569   0.566  1.2376 -1.5028 -0.1705
  189MPD1     N 2883   2.003   0.557   0.172  0.5981 -0.1236  0.6969
  189MPD1    H5 2884   1.969   0.494   0.100 -0.0098  1.8299 -0.7102
  189MPD1    N1 2885   2.253   0.165   0.358  0.5481  0.3658 -0.1813
  189MPD1    H6 2886   2.177   0.100   0.337 -1.6550  2.8505  0.1576
  189MPD1    H7 2887   2.300   0.142   0.445  0.0143 -0.9783 -0.2538
  190MPD1     C 2888   0.538   0.959  15.416 -0.8786 -0.2568  0.3936
  190MPD1    C1 2889   0.561   0.897  15.539 -0.1224 -0.4622  0.2853
  190MPD1    C2 2890   0.693   0.858  15.571 -0.6095  0.4036 -0.4521
  190MPD1    C3 2891   0.803   0.888  15.489 -0.3227 -0.1306  0.4033
  190MPD1    C4 2892   0.773   0.959  15.373  0.1872 -0.5690 -0.0841
  190MPD1    C5 2893   0.647   1.005  15.346  0.1888  0.5238 -0.3948
  190MPD1     H 2894   0.711   0.797  15.659 -1.3298  0.8257 -0.0145
  190MPD1    H1 2895   0.853   0.988  15.306  2.4706 -1.1186  2.4131
  190MPD1    H2 2896   0.439   0.988  15.384  0.6587 -0.0340 -4.1761
  190MPD1    H3 2897   0.628   1.062  15.256 -1.4637  0.0216 -0.3683
  190MPD1     N 2898   0.933   0.843  15.527 -0.5324 -0.3119  0.3375
  190MPD1    H5 2899   0.928   0.800  15.619 -0.1360 -1.6457 -0.2730
  190MPD1    N1 2900   0.451   0.858  15.611  0.2567 -0.4560  0.1628
  190MPD1    H6 2901   0.362   0.902  15.588  1.1660  2.3190  1.9681
  190MPD1    H7 2902   0.469   0.869  15.711  0.0447  2.6015 -0.1561
  191MPD1     C 2903   4.719   2.443  13.118  0.3384 -0.4351  0.5176
  191MPD1    C1 2904   4.600   2.510  13.124  0.0188 -0.1148  0.5024
  191MPD1    C2 2905   4.570   2.600  13.026 -0.4158  0.4910  0.0036
  191MPD1    C3 2906   4.653   2.619  12.917 -0.1599  0.0046 -0.1304
  191MPD1    C4 2907   0.043   2.548  12.912 -0.3765  0.1292 -0.1794
  191MPD1    C5 2908   0.080   2.460  13.010  0.5466  0.3470  0.2276
  191MPD1     H 2909   4.480   2.659  13.044 -1.6258 -1.3698  0.0999
  191MPD1    H1 2910   0.112   2.568  12.830  0.9802  0.8009  1.1372
  191MPD1    H2 2911   0.028   2.379  13.199 -3.0640 -2.9557 -0.0636
  191MPD1    H3 2912   0.175   2.409  13.007  1.8752  2.9129 -1.8004
  191MPD1     N 2913   4.612   2.720  12.820  0.0423 -0.5641  0.9037
  191MPD1    H5 2914   4.513   2.743  12.817 -0.1759 -1.5827  0.4250
  191MPD1    N1 2915   4.502   2.470  13.217 -0.3878 -0.2301  0.1367
  191MPD1    H6 2916   4.450   2.551  13.251  0.1872 -0.0018  0.4677
  191MPD1    H7 2917   4.549   2.437  13.300  0.6433 -1.0014 -0.7581
  192MPD1     C 2918   3.836   2.679  12.517  0.0273  0.1666 -0.4634
  192MPD1    C1 2919   3.907   2.685  12.400 -0.2405  0.0569 -0.0509
  192MPD1    C2 2920   4.032   2.743  12.397  0.1986  0.4319  0.5056
  192MPD1    C3 2921   4.094   2.776  12.516  0.5003  0.2736 -0.3964
  192MPD1    C4 2922   4.029   2.766  12.637  0.3880  0.6115  0.0579
  192MPD1    C5 2923   3.901   2.720  12.637 -0.2026  0.4666 -0.1065
  192MPD1     H 2924   4.084   2.741  12.302 -0.9732  0.4909 -0.1419
  192MPD1    H1 2925   4.084   2.791  12.727 -0.3604 -2.2571  1.3128
  192MPD1    H2 2926   3.741   2.630  12.533  0.8607 -0.5180  2.3499
  192MPD1    H3 2927   3.840   2.704  12.725  1.7739 -0.1637  1.1517
  192MPD1     N 2928   4.231   2.811  12.523 -0.0483  0.0425 -0.7234
  192MPD1    H5 2929   4.278   2.832  12.610 -1.7191 -0.6391  0.3418
  192MPD1    N1 2930   3.858   2.642  12.275 -0.0949 -0.6013  0.2161
  192MPD1    H6 2931   3.900   2.688  12.194 -0.1926 -0.0174  0.4912
  192MPD1    H7 2932   3.757   2.646  12.267 -0.2631 -0.1543  2.5190
  193MPD1     C 2933   0.253   2.829  17.664  0.2108  0.0308 -0.3161
  193MPD1    C1 2934   0.237   2.714  17.596 -0.2773 -0.0749 -0.6879
  193MPD1    C2 2935   0.235   2.721  17.460  0.5520 -0.6333  0.6802
  193MPD1    C3 2936   0.237   2.843  17.399  0.8479 -0.3666 -0.8527
  193MPD1    C4 2937   0.228   2.955  17.473  0.1758 -0.1278 -0.1969
  193MPD1    C5 2938   0.255   2.951  17.607 -0.4246  0.0407  0.0936
  193MPD1     H 2939   0.227   2.632  17.399  1.2726  1.1662 -2.0038
  193MPD1    H1 2940   0.203   3.046  17.420 -1.8632 -0.0801  0.8296
  193MPD1    H2 2941   0.273   2.836   0.074  0.7313 -2.1203 -0.2801
  193MPD1    H3 2942   0.283   3.043  17.658  1.1825 -1.0401  1.1535
  193MPD1     N 2943   0.243   2.859  17.255 -0.4681  0.5469  0.1840
  193MPD1    H5 2944   0.210   2.946  17.214 -0.7816  0.4188  0.1665
  193MPD1    N1 2945   0.240   2.591  17.670 -0.6347 -0.2482 -0.2776
  193MPD1    H6 2946   0.222   2.598   0.074  3.3960  0.4923  0.4106
  193MPD1    H7 2947   0.186   2.512  17.637 -0.8731  0.6534 -2.0662
  194MPD1     C 2948   2.635   4.696  16.048 -0.4898  0.2815 -0.1885
  194MPD1    C1 2949   2.546   4.597  16.023 -0.0059  0.5090  1.0256
  194MPD1    C2 2950   2.536   4.486  16.107 -0.4046 -0.0088 -0.0969
  194MPD1    C3 2951   2.607   4.479  16.221 -0.2806  0.2825  0.0674
  194MPD1    C4 2952   2.689   4.582  16.249  0.8781  0.6727  0.1221
  194MPD1    C5 2953   2.708   4.696  16.162  0.0955 -0.1488  0.9431
  194MPD1     H 2954   2.485   4.398  16.071 -0.3102 -0.0844 -0.0459
  194MPD1    H1 2955   2.738   4.579  16.345  1.2449 -0.9616 -0.1138
  194MPD1    H2 2956   2.639   0.049  15.972  1.3120  0.5444  0.1635
  194MPD1    H3 2957   2.775   0.052  16.192  0.2365 -0.1923  0.7507
  194MPD1     N 2958   2.598   4.379  16.320 -0.4887  0.3903  0.2935
  194MPD1    H5 2959   2.645   4.404  16.406  1.0879 -0.8831 -0.2019
  194MPD1    N1 2960   2.473   4.603  15.905  0.0499  0.4489 -0.3122
  194MPD1    H6 2961   2.441   4.699  15.890  0.9529  0.7281 -0.4737
  194MPD1    H7 2962   2.388   4.549  15.918 -0.3360  0.9829 -0.5975
  195MPD1     C 2963   0.760   1.665   0.072 -0.1326 -0.0064 -0.1785
  195MPD1    C1 2964   0.758   1.529   0.052  0.0376 -0.7956 -0.2823
  195MPD1    C2 2965   0.637   1.469   0.088 -0.2370 -0.5535  0.6893
  195MPD1    C3 2966   0.524   1.537   0.129 -0.2735  0.3244  0.7002
  195MPD1    C4 2967   0.535   1.667   0.155  0.8385  0.0088 -0.2472
  195MPD1    C5 2968   0.647   1.727   0.126  0.0674  0.1707  0.0045
  195MPD1     H 2969   0.622   1.361   0.088 -2.5114 -0.2512  1.0030
  195MPD1    H1 2970   0.452   1.731   0.186  2.6996  2.8367 -1.0936
  195MPD1    H2 2971   0.845   1.728   0.051 -0.7197  0.7497 -0.3087
  195MPD1    H3 2972   0.650   1.835   0.143  1.6941  0.1099  0.1257
  195MPD1     N 2973   0.396   1.483   0.154  0.0446 -0.1878 -0.1475
  195MPD1    H5 2974   0.323   1.541   0.193 -1.2597 -1.5707 -0.5210
  195MPD1    N1 2975   0.883   1.470   0.021  0.3386  0.0368 -0.2844
  195MPD1    H6 2976   0.933   1.524  17.647  2.0202  0.3808  1.1771
  195MPD1    H7 2977   0.873   1.373  17.689  2.8879  0.0830 -1.2803
  196MPD1     C 2978   4.320   0.231   0.680  0.0280 -0.5456  0.4508
  196MPD1    C1 2979   4.208   0.283   0.616  0.5221 -0.1527  0.0606
  196MPD1    C2 2980   4.167   0.409   0.647  0.4537 -0.1400 -0.0132
  196MPD1    C3 2981   4.254   0.490   0.726 -0.7623  0.3553 -0.4677
  196MPD1    C4 2982   4.362   0.436   0.791  0.1866  0.1939 -0.2852
  196MPD1    C5 2983   4.393   0.306   0.765 -0.2463 -0.0722  0.0531
  196MPD1     H 2984   4.069   0.443   0.615 -0.2847 -1.3343  0.9989
  196MPD1    H1 2985   4.417   0.499   0.860 -1.2599  2.0770 -0.8679
  196MPD1    H2 2986   4.350   0.127   0.668  4.0026  1.0372 -2.8876
  196MPD1    H3 2987   4.473   0.255   0.818  0.1763  0.2052 -0.3190
  196MPD1     N 2988   4.207   0.626   0.752  0.1341  0.6140  0.1795
  196MPD1    H5 2989   4.121   0.657   0.709  0.3960 -0.5108 -1.1651
  196MPD1    N1 2990   4.139   0.195   0.531  0.0254 -0.9692 -0.0139
  196MPD1    H6 2991   4.088   0.248   0.461  2.1031 -0.8132 -1.4259
  196MPD1    H7 2992   4.200   0.119   0.501  0.2579 -1.2528  1.1594
  197MPD1     C 2993   3.482   2.709   0.105 -0.4170  0.3841 -0.6571
  197MPD1    C1 2994   3.599   2.776   0.102 -0.0738  0.1816 -0.5920
  197MPD1    C2 2995   3.622   2.882   0.018  0.5786  0.0384 -0.5786
  197MPD1    C3 2996   3.537   2.908  17.607 -0.0911  0.9353 -0.1214
  197MPD1    C4 2997   3.420   2.837  17.607 -0.0495 -0.5824  0.9760
  197MPD1    C5 2998   3.391   2.736   0.008  0.1440  0.4797  0.5688
  197MPD1     H 2999   3.715   2.930   0.045  0.5895 -0.8500  0.9393
  197MPD1    H1 3000   3.341   2.861  17.537 -3.2167 -1.3082  4.2823
  197MPD1    H2 3001   3.449   2.647   0.187  0.0391  0.0464 -0.7304
  197MPD1    H3 3002   3.297   2.683   0.015 -1.0209  2.5931  0.6937
  197MPD1     N 3003   3.560   3.001  17.507 -0.0266  0.1350  0.3866
  197MPD1    H5 3004   3.505   2.998  17.422 -0.0554 -0.8953  0.4377
  197MPD1    N1 3005   3.687   2.755   0.210 -0.3045 -0.5163  0.0910
  197MPD1    H6 3006   3.778   2.794   0.188 -1.0495  0.8197 -0.5669
  197MPD1    H7 3007   3.693   2.656   0.235 -0.0235 -0.5079  0.0475
  198MPD1     C 3008   0.497   1.666  15.522  0.3852 -0.3593 -0.5927
  198MPD1    C1 3009   0.627   1.635  15.493 -0.1032 -0.3641 -0.3450
  198MPD1    C2 3010   0.726   1.675  15.577 -0.3855 -0.1204 -0.0578
  198MPD1    C3 3011   0.693   1.744  15.692  0.0577  0.4868 -0.0395
  198MPD1    C4 3012   0.561   1.771  15.726 -0.5477 -0.4491  0.2987
  198MPD1    C5 3013   0.461   1.733  15.639 -0.0731 -0.7085  0.2163
  198MPD1     H 3014   0.831   1.650  15.566 -0.2613 -0.0126  0.8483
  198MPD1    H1 3015   0.527   1.819  15.817  1.2714  0.0438  0.7180
  198MPD1    H2 3016   0.410   1.641  15.464 -0.2511  2.4635 -0.8344
  198MPD1    H3 3017   0.355   1.753  15.654 -0.2959 -0.8637 -1.1750
  198MPD1     N 3018   0.796   1.783  15.780 -0.3633  0.0074  0.3093
  198MPD1    H5 3019   0.889   1.747  15.760 -0.9020 -0.7141 -0.8902
  198MPD1    N1 3020   0.655   1.565  15.375  0.9260 -0.0871 -0.4907
  198MPD1    H6 3021   0.753   1.541  15.363  2.5460  4.8405  2.8822
  198MPD1    H7 3022   0.609   1.475  15.388 -1.9917  1.1608 -2.0976
  199MPD1     C 3023   1.585   3.569  10.059  0.3527 -0.4355 -0.3961
  199MPD1    C1 3024   1.694   3.649  10.084 -0.9403  0.0490  0.4648
  199MPD1    C2 3025   1.814   3.607  10.032 -1.0040  0.0598  0.1425
  199MPD1    C3 3026   1.819   3.502   9.937 -0.1354  0.8690 -0.4121
  199MPD1    C4 3027   1.703   3.440   9.899 -0.6483 -0.3859 -0.1144
  199MPD1    C5 3028   1.591   3.466   9.966 -0.8522 -0.1280 -0.4721
  199MPD1     H 3029   1.906   3.644  10.076  0.5852 -2.4115 -1.1148
  199MPD1    H1 3030   1.706   3.359   9.827 -2.4978  0.7282 -1.4479
  199MPD1    H2 3031   1.488   3.584  10.105  0.1394 -1.9738 -0.3471
  199MPD1    H3 3032   1.500   3.412   9.946 -0.7642 -0.6127  0.4287
  199MPD1     N 3033   1.941   3.458   9.876 -0.2487 -0.2453  0.5219
  199MPD1    H5 3034   1.936   3.365   9.836  0.9783 -0.6360  1.2547
  199MPD1    N1 3035   1.696   3.737  10.195  0.0954  0.3143  0.0782
  199MPD1    H6 3036   1.771   3.804  10.184 -0.0924  0.9442  2.5883
  199MPD1    H7 3037   1.617   3.801  10.188 -1.2756 -1.2375  1.3104
  200MPD1     C 3038   1.731   2.704  14.554  0.8516 -0.5294  0.1454
  200MPD1    C1 3039   1.623   2.736  14.473  0.4803 -0.1680 -0.3107
  200MPD1    C2 3040   1.657   2.819  14.362 -0.3461 -0.2580  0.4342
  200MPD1    C3 3041   1.789   2.861  14.337  0.2255 -0.5576 -0.0592
  200MPD1    C4 3042   1.886   2.820  14.416  0.0497 -0.0389  0.9945
  200MPD1    C5 3043   1.862   2.743  14.529 -0.1514  0.5751  0.1145
  200MPD1     H 3044   1.579   2.861  14.299  1.3859  1.1545 -0.7888
  200MPD1    H1 3045   1.991   2.844  14.403  0.0790 -2.1037 -2.6847
  200MPD1    H2 3046   1.713   2.639  14.639 -0.3209 -0.2987  0.0658
  200MPD1    H3 3047   1.947   2.715  14.590 -0.6807 -1.1024  0.0741
  200MPD1     N 3048   1.812   2.938  14.218 -0.1303 -0.2439 -0.1350
  200MPD1    H5 3049   1.738   2.946  14.149 -0.5299  2.3554  0.5914
  200MPD1    N1 3050   1.485   2.715  14.499  0.5821  0.1600 -0.2088
  200MPD1    H6 3051   1.474   2.628  14.551 -2.4768  1.2229  0.9780
  200MPD1    H7 3052   1.422   2.722  14.420  1.4388 -2.0279 -1.0697
  201MPD1     C 3053   3.962   2.625  13.302  0.5465  0.5989  0.1751
  201MPD1    C1 3054   4.008   2.540  13.204 -0.1465 -0.1952 -1.2918
  201MPD1    C2 3055   4.028   2.401  13.220  0.0018  0.2816 -0.0946
  201MPD1    C3 3056   3.995   2.345  13.345 -0.2114 -0.1761 -0.1997
  201MPD1    C4 3057   3.956   2.432  13.451 -0.1363  0.0474  0.2336
  201MPD1    C5 3058   3.938   2.570  13.426 -0.2547  0.6186 -0.0074
  201MPD1     H 3059   4.058   2.347  13.130 -0.0434 -0.3882  0.2939
  201MPD1    H1 3060   3.928   2.402  13.551 -2.0442  2.8893  0.5832
  201MPD1    H2 3061   3.938   2.729  13.287 -0.2394  0.6221  1.5856
  201MPD1    H3 3062   3.905   2.631  13.508 -1.2821  2.5263 -1.8465
  201MPD1     N 3063   4.011   2.207  13.371  0.1655 -0.2761 -0.8492
  201MPD1    H5 3064   3.985   2.186  13.467 -0.7454  3.5900 -0.2219
  201MPD1    N1 3065   4.030   2.598  13.083  0.3070  0.3902 -0.4243
  201MPD1    H6 3066   4.078   2.687  13.093  2.3161 -0.9959  2.1552
  201MPD1    H7 3067   4.104   2.548  13.034 -0.6061 -0.2882 -1.1152
  202MPD1     C 3068   3.697   1.672   9.323  0.2198  0.4494  0.2901
  202MPD1    C1 3069   3.685   1.617   9.451  0.0546 -0.6061 -0.0317
  202MPD1    C2 3070   3.788   1.643   9.538 -0.0901 -0.2932  0.3671
  202MPD1    C3 3071   3.914   1.675   9.491  0.9502 -0.2769 -0.5634
  202MPD1    C4 3072   3.928   1.719   9.362 -0.1806  0.1180 -0.8890
  202MPD1    C5 3073   3.818   1.719   9.277 -0.4852 -0.8324 -0.5210
  202MPD1     H 3074   3.786   1.602   9.638 -1.6006 -0.9449  0.0545
  202MPD1    H1 3075   4.025   1.759   9.336 -0.2704  1.6925  1.1630
  202MPD1    H2 3076   3.617   1.679   9.250  1.5079 -2.0540 -1.3699
  202MPD1    H3 3077   3.835   1.750   9.174  0.1985  1.7199  0.3741
  202MPD1     N 3078   4.027   1.649   9.569  0.4274  0.1922 -0.3879
  202MPD1    H5 3079   4.118   1.692   9.554 -0.2915  2.5871  2.1524
  202MPD1    N1 3080   3.556   1.608   9.503 -0.1645  0.0556  0.4310
  202MPD1    H6 3081   3.494   1.570   9.432  1.1477 -1.9952  0.3731
  202MPD1    H7 3082   3.548   1.555   9.590  1.2074 -0.9727 -0.0699
  203MPD1     C 3083   2.590   2.621  11.951  0.1057 -0.2293  0.4637
  203MPD1    C1 3084   2.619   2.506  11.882 -0.3920 -0.1338 -0.7201
  203MPD1    C2 3085   2.731   2.430  11.918 -0.4453 -0.2608  0.1206
  203MPD1    C3 3086   2.811   2.464  12.030 -0.1065 -0.1982  0.1359
  203MPD1    C4 3087   2.772   2.578  12.104 -0.1017  0.1593 -0.8576
  203MPD1    C5 3088   2.664   2.658  12.063  0.2138  0.1187  0.0561
  203MPD1     H 3089   2.759   2.341  11.864  2.3197  0.8815 -0.3723
  203MPD1    H1 3090   2.807   2.608  12.202  0.9358 -1.5912 -0.7025
  203MPD1    H2 3091   2.511   2.692  11.931 -0.6300 -1.3817 -0.6922
  203MPD1    H3 3092   2.629   2.738  12.127  0.9814 -0.4789  1.2400
  203MPD1     N 3093   2.912   2.373  12.069 -0.0131  0.3046  0.3093
  203MPD1    H5 3094   2.943   2.306  11.999 -0.1819  0.8771 -0.3171
  203MPD1    N1 3095   2.556   2.483  11.756 -0.1369  0.0629  0.1494
  203MPD1    H6 3096   2.555   2.385  11.729 -0.6267  0.1533 -0.1626
  203MPD1    H7 3097   2.463   2.524  11.751  0.7528  1.8895 -1.5550
  204MPD1     C 3098   2.110   3.000   0.028  0.1441  0.4661  0.1591
  204MPD1    C1 3099   2.150   2.999  17.595 -0.2089 -0.4488 -0.3375
  204MPD1    C2 3100   2.237   2.895  17.553  0.6149  0.1802 -0.0440
  204MPD1    C3 3101   2.272   2.795  17.643  0.6516 -0.2892 -0.4481
  204MPD1    C4 3102   2.227   2.806   0.071  0.0015  0.3767  0.4028
  204MPD1    C5 3103   2.150   2.908   0.118 -0.8969  0.2591  0.6305
  204MPD1     H 3104   2.275   2.887  17.452  0.4675  0.7946 -0.1462
  204MPD1    H1 3105   2.252   2.742   0.155  0.2730  0.7562  0.6093
  204MPD1    H2 3106   2.053   3.081   0.071 -0.0744  0.1704  0.4247
  204MPD1    H3 3107   2.109   2.901   0.218  1.0843 -3.6410  1.1518
  204MPD1     N 3108   2.348   2.682  17.607  0.4491  0.4999 -0.5463
  204MPD1    H5 3109   2.384   2.681  17.512  2.5823  1.9039  0.2333
  204MPD1    N1 3110   2.134   3.115  17.520 -0.2898  0.0302 -0.2557
  204MPD1    H6 3111   2.044   3.159  17.537 -0.1368  0.0197  0.5636
  204MPD1    H7 3112   2.121   3.083  17.424 -2.8546  1.8108 -0.4884
  205MPD1     C 3113   1.751   1.812  16.689 -0.3180  0.4670 -0.1952
  205MPD1    C1 3114   1.871   1.842  16.634  0.0782 -0.0177 -0.0117
  205MPD1    C2 3115   1.982   1.801  16.702  0.0397 -0.3141  0.3473
  205MPD1    C3 3116   1.971   1.725  16.820  0.1835  0.0216 -0.5746
  205MPD1    C4 3117   1.848   1.688  16.864  0.5125 -0.5775 -0.5915
  205MPD1    C5 3118   1.739   1.730  16.801  0.0370 -0.2708 -0.1208
  205MPD1     H 3119   2.080   1.831  16.666 -0.8211 -0.1572 -1.8516
  205MPD1    H1 3120   1.828   1.637  16.958  1.1288  0.2697  0.0002
  205MPD1    H2 3121   1.657   1.840  16.642 -0.8619  0.3958  0.8537
  205MPD1    H3 3122   1.644   1.732  16.854 -0.6543 -4.4749 -1.2254
  205MPD1     N 3123   2.081   1.678  16.892  0.6276  0.4299 -0.0374
  205MPD1    H5 3124   2.059   1.628  16.978 -2.3133  3.2772  0.8708
  205MPD1    N1 3125   1.874   1.931  16.531  0.6546 -0.4524 -0.6800
  205MPD1    H6 3126   1.960   1.920  16.478  1.6726 -1.4302  1.1647
  205MPD1    H7 3127   1.795   1.910  16.470 -0.1476  2.1706 -0.5361
  206MPD1     C 3128   2.199   0.624  16.002 -0.0863 -0.1820  0.3851
  206MPD1    C1 3129   2.271   0.511  16.045  0.8396 -0.2653 -0.6153
  206MPD1    C2 3130   2.296   0.417  15.939  0.4877 -0.4577 -0.4322
  206MPD1    C3 3131   2.262   0.435  15.807  0.1327 -0.2718 -0.3953
  206MPD1    C4 3132   2.197   0.548  15.773 -0.1261 -0.1152 -0.0955
  206MPD1    C5 3133   2.164   0.637  15.871 -0.4780  0.4573  0.0853
  206MPD1     H 3134   2.347   0.329  15.978  1.9607  0.6336  0.1062
  206MPD1    H1 3135   2.175   0.572  15.670 -0.2297 -0.3444 -0.1260
  206MPD1    H2 3136   2.161   0.695  16.075  0.0768 -0.6611  0.9414
  206MPD1    H3 3137   2.114   0.726  15.835  1.9502  0.9524 -2.0899
  206MPD1     N 3138   2.285   0.336  15.706 -0.0589  0.0944 -0.1185
  206MPD1    H5 3139   2.248   0.359  15.615  2.0350 -0.2321 -1.0619
  206MPD1    N1 3140   2.279   0.476  16.183 -0.5880  0.3148 -0.0007
  206MPD1    H6 3141   2.369   0.437  16.210 -1.3572  1.2134  3.8727
  206MPD1    H7 3142   2.269   0.558  16.242 -1.8481  0.0025  0.2171
  207MPD1     C 3143   0.316   2.336   9.071 -0.7542  0.0588  0.3191
  207MPD1    C1 3144   0.396   2.448   9.077  0.5963  0.7059  0.2092
  207MPD1    C2 3145   0.429   2.504   9.195 -0.3863 -1.4158  0.3443
  207MPD1    C3 3146   0.371   2.456   9.317  0.2219  0.7489 -0.3344
  207MPD1    C4 3147   0.276   2.356   9.296  0.0533  0.0780 -0.4566
  207MPD1    C5 3148   0.253   2.294   9.177  0.0483 -0.2438  0.4927
  207MPD1     H 3149   0.493   2.591   9.205  0.3006 -1.8300 -0.3959
  207MPD1    H1 3150   0.226   2.324   9.387  1.2752  0.4304  0.3348
  207MPD1    H2 3151   0.300   2.294   8.972 -1.2562 -0.2815  0.5445
  207MPD1    H3 3152   0.181   2.215   9.163  2.0430 -2.1319  0.9634
  207MPD1     N 3153   0.388   2.504   9.446  0.4438  0.4199 -0.2694
  207MPD1    H5 3154   0.345   2.448   9.519 -1.3369 -1.3274 -2.6793
  207MPD1    N1 3155   0.461   2.489   8.961  0.1350 -0.1191 -0.8968
  207MPD1    H6 3156   0.488   2.588   8.964 -2.9702  0.7404 -1.4405
  207MPD1    H7 3157   0.398   2.476   8.883 -0.6480 -1.9359  0.0541
  208MPD1     C 3158   4.008   2.012  17.270 -0.1808 -0.0316  0.3166
  208MPD1    C1 3159   3.897   2.010  17.183 -0.5219 -0.0981 -0.3538
  208MPD1    C2 3160   3.803   1.914  17.200  0.1336  0.5388  0.1745
  208MPD1    C3 3161   3.804   1.832  17.309 -0.7465  0.1254  0.7525
  208MPD1    C4 3162   3.912   1.830  17.396 -0.0314  0.2809  0.6616
  208MPD1    C5 3163   4.012   1.917  17.368 -0.2240  0.0864 -0.2774
  208MPD1     H 3164   3.729   1.889  17.124 -0.2505  1.5561  0.2202
  208MPD1    H1 3165   3.926   1.750  17.468  1.9508  0.3216  0.3327
  208MPD1    H2 3166   4.085   2.087  17.258  0.9901 -1.1392  0.8264
  208MPD1    H3 3167   4.104   1.915  17.424 -1.1077 -2.0302  1.1137
  208MPD1     N 3168   3.705   1.734  17.313  0.4630 -0.2395  0.1040
  208MPD1    H5 3169   3.628   1.744  17.248 -0.8136  0.4455  1.7015
  208MPD1    N1 3170   3.890   2.090  17.073  0.8230 -0.0329  0.0631
  208MPD1    H6 3171   3.932   2.178  17.103 -0.1742  0.8698 -1.1650
  208MPD1    H7 3172   3.795   2.112  17.044  0.1574 -1.3312  1.2627
  209MPD1     C 3173   0.522   1.370  10.639 -0.0944  0.2670  0.0936
  209MPD1    C1 3174   0.501   1.419  10.518 -0.5775 -0.3605  0.4332
  209MPD1    C2 3175   0.447   1.546  10.513 -0.3270  0.0636 -0.0608
  209MPD1    C3 3176   0.403   1.610  10.630  0.2251 -0.5165  0.2105
  209MPD1    C4 3177   0.419   1.554  10.749 -0.1860  0.2067  0.1784
  209MPD1    C5 3178   0.478   1.430  10.753 -0.2735  0.2625  0.5758
  209MPD1     H 3179   0.419   1.589  10.418  0.5814 -1.6836 -1.1159
  209MPD1    H1 3180   0.389   1.607  10.839 -2.4532 -1.4731  0.4092
  209MPD1    H2 3181   0.573   1.275  10.650  2.4165  1.6805  0.6817
  209MPD1    H3 3182   0.475   1.381  10.849 -1.0627  1.0498  0.9444
  209MPD1     N 3183   0.359   1.747  10.611 -0.6244  0.6526 -0.0789
  209MPD1    H5 3184   0.341   1.784  10.519  0.4195 -1.0921 -0.9788
  209MPD1    N1 3185   0.566   1.372  10.405  0.0680 -0.2316  0.2043
  209MPD1    H6 3186   0.516   1.394  10.319 -0.6475 -1.6239  0.2589
  209MPD1    H7 3187   0.584   1.272  10.408  0.4374 -0.1021  2.2282
  210MPD1     C 3188   0.536   2.502  11.209 -0.0140 -0.4105 -0.2719
  210MPD1    C1 3189   0.514   2.564  11.090 -0.0993  0.4892  0.1172
  210MPD1    C2 3190   0.461   2.488  10.984  0.2663 -0.1183  0.4635
  210MPD1    C3 3191   0.436   2.354  11.004 -0.0278  0.3040  0.2640
  210MPD1    C4 3192   0.463   2.294  11.121 -0.2501  0.3148  0.1107
  210MPD1    C5 3193   0.518   2.362  11.224 -0.5181 -0.6247  0.0649
  210MPD1     H 3194   0.424   2.541  10.898  0.4744  0.1603  0.5423
  210MPD1    H1 3195   0.433   2.192  11.141 -0.4031  0.3431  0.0276
  210MPD1    H2 3196   0.568   2.548  11.302  2.1197  0.1213 -1.2590
  210MPD1    H3 3197   0.539   2.309  11.316 -2.5650 -0.3722  0.6780
  210MPD1     N 3198   0.378   2.274  10.908  0.9044  0.0471  1.0956
  210MPD1    H5 3199   0.386   2.178  10.940 -1.4831  0.1140  1.8189
  210MPD1    N1 3200   0.531   2.702  11.073  0.7441 -0.0326 -0.0422
  210MPD1    H6 3201   0.489   2.754  11.151  0.9844  0.3107 -0.1425
  210MPD1    H7 3202   0.475   2.729  10.993 -1.0108 -1.7214  0.6087
  211MPD1     C 3203   3.517   1.812  16.936 -0.1561 -0.4345  0.1191
  211MPD1    C1 3204   3.421   1.843  17.030 -0.3602 -0.4533  0.0682
  211MPD1    C2 3205   3.291   1.840  16.984 -0.1270 -0.9232 -0.5481
  211MPD1    C3 3206   3.259   1.790  16.855  0.3144  1.0157 -0.5043
  211MPD1    C4 3207   3.358   1.743  16.777 -0.2675 -0.2090  0.1273
  211MPD1    C5 3208   3.486   1.752  16.817  0.2626 -0.0757  0.2082
  211MPD1     H 3209   3.213   1.889  17.040  1.2512  0.0777  0.4934
  211MPD1    H1 3210   3.341   1.705  16.677  3.0136  1.7223 -1.1611
  211MPD1    H2 3211   3.619   1.830  16.967  0.3676  0.5887 -2.1609
  211MPD1    H3 3212   3.561   1.703  16.757  0.9743  1.1289  0.1087
  211MPD1     N 3213   3.125   1.790  16.808 -0.0013 -0.4744 -0.2763
  211MPD1    H5 3214   3.067   1.833  16.879 -2.7794 -1.7669 -1.7358
  211MPD1    N1 3215   3.453   1.889  17.161 -0.4112  0.5654 -0.7944
  211MPD1    H6 3216   3.372   1.886  17.221  0.2081  0.7686  0.0492
  211MPD1    H7 3217   3.473   1.988  17.159  0.4592  0.4451  2.2123
  212MPD1     C 3218   2.088   0.310  16.550  0.0375  0.0554 -0.5036
  212MPD1    C1 3219   2.176   0.207  16.534 -0.2984  0.4906 -0.0956
  212MPD1    C2 3220   2.153   0.087  16.604  1.0096  0.3170  0.6393
  212MPD1    C3 3221   2.031   0.062  16.667 -0.2162 -0.7798  1.0905
  212MPD1    C4 3222   1.943   0.167  16.678  0.4734 -0.4845  0.3223
  212MPD1    C5 3223   1.971   0.285  16.621  0.0470  0.6610 -0.2051
  212MPD1     H 3224   2.230   0.012  16.590  0.8745 -0.0600  1.8909
  212MPD1    H1 3225   1.845   0.157  16.724 -0.1879  2.6478 -0.3622
  212MPD1    H2 3226   2.108   0.409  16.510  0.3539 -0.2329 -1.0490
  212MPD1    H3 3227   1.900   0.366  16.632 -0.2526 -0.0877  3.3972
  212MPD1     N 3228   1.989   4.667  16.726  0.8818 -0.1159  0.5924
  212MPD1    H5 3229   1.898   4.661  16.769  0.5779  0.4518  0.0250
  212MPD1    N1 3230   2.293   0.220  16.456 -0.4512 -0.1033  0.4584
  212MPD1    H6 3231   2.309   0.132  16.408  0.2699  2.1542 -3.3773
  212MPD1    H7 3232   2.277   0.291  16.385  0.1890 -0.5336 -0.1142
  213MPD1     C 3233   0.626   1.280  15.833  0.4422  0.1098 -0.3273
  213MPD1    C1 3234   0.518   1.356  15.844 -0.0179 -0.4160 -0.0433
  213MPD1    C2 3235   0.435   1.356  15.727 -0.5234 -0.8460 -0.0467
  213MPD1    C3 3236   0.492   1.335  15.601 -0.6748  0.0889 -0.0797
  213MPD1    C4 3237   0.620   1.278  15.596 -0.4674  0.2987 -0.2502
  213MPD1    C5 3238   0.682   1.240  15.712 -0.7336 -0.3881  0.2421
  213MPD1     H 3239   0.332   1.387  15.738 -1.0650 -2.7373  0.3347
  213MPD1    H1 3240   0.669   1.245  15.505  0.8654  0.3792  0.4378
  213MPD1    H2 3241   0.667   1.245  15.927  0.3754  2.7628  0.7001
  213MPD1    H3 3242   0.778   1.189  15.706 -0.5438  0.0289 -0.2293
  213MPD1     N 3243   0.404   1.332  15.489  0.2526  0.0191 -0.4443
  213MPD1    H5 3244   0.309   1.361  15.505  0.6922 -0.2757  2.6207
  213MPD1    N1 3245   0.447   1.349  15.966 -0.7808  0.3746  0.1372
  213MPD1    H6 3246   0.513   1.373  16.039  1.0143 -0.8055 -1.0836
  213MPD1    H7 3247   0.379   1.425  15.968 -0.5876  0.5359  0.5542
  214MPD1     C 3248   4.308   0.898  15.106  0.7283 -0.2542  0.4133
  214MPD1    C1 3249   4.347   0.939  15.233  0.0165 -0.8819 -0.2695
  214MPD1    C2 3250   4.470   1.008  15.241 -0.0842 -1.0403  0.4227
  214MPD1    C3 3251   4.530   1.058  15.122 -0.0011  0.2944  0.1042
  214MPD1    C4 3252   4.473   1.026  15.004  0.0191 -0.1797  0.0332
  214MPD1    C5 3253   4.362   0.944  14.991 -0.1557  0.0496 -0.4634
  214MPD1     H 3254   4.506   1.028  15.341 -1.3778  0.2775  0.6174
  214MPD1    H1 3255   4.515   1.065  14.912  2.1037 -0.5465  0.8431
  214MPD1    H2 3256   4.234   0.821  15.087 -0.3994  1.1352 -0.7921
  214MPD1    H3 3257   4.328   0.905  14.895 -0.1464  0.4193 -0.6145
  214MPD1     N 3258   4.645   1.141  15.119  0.3072  0.2264  0.4736
  214MPD1    H5 3259   4.678   1.176  15.030  0.5419  0.4236  0.6354
  214MPD1    N1 3260   4.286   0.881  15.348  0.1455  0.2603 -0.0872
  214MPD1    H6 3261   4.277   0.958  15.414  1.2913 -0.7180  1.2149
  214MPD1    H7 3262   4.193   0.849  15.321  0.8102 -2.2654  0.6778
  215MPD1     C 3263   4.614   2.138  10.707 -0.5552  0.0394 -0.3455
  215MPD1    C1 3264   4.597   2.271  10.692  0.3585 -0.4512 -0.4458
  215MPD1    C2 3265   4.647   2.350  10.801  0.3170  0.3496  0.9790
  215MPD1    C3 3266   4.692   2.286  10.918 -0.0875  0.1997 -0.4377
  215MPD1    C4 3267   4.699   2.152  10.927  0.7802 -0.6006 -0.1617
  215MPD1    C5 3268   4.659   2.078  10.823 -0.3613  0.2929  0.2008
  215MPD1     H 3269   4.650   2.458  10.794 -0.5025  0.4274  1.8832
  215MPD1    H1 3270   0.023   2.093  11.005 -2.7448 -3.4821 -0.1646
  215MPD1    H2 3271   4.592   2.067  10.627  0.0910 -0.7852  0.2036
  215MPD1    H3 3272   4.670   1.971  10.827 -2.4074 -0.0187 -3.1264
  215MPD1     N 3273   0.020   2.377  11.020 -0.2027 -0.0441  0.6060
  215MPD1    H5 3274   0.017   2.476  10.997  2.1610  0.4498  2.3416
  215MPD1    N1 3275   4.575   2.325  10.563 -0.3440 -0.8934 -0.7378
  215MPD1    H6 3276   4.662   2.365  10.530  0.1581 -0.1185  1.5594
  215MPD1    H7 3277   4.541   2.256  10.496 -0.5499 -1.6108  0.1125
  216MPD1     C 3278   2.215   3.988  16.701 -0.0094  0.3562 -0.4098
  216MPD1    C1 3279   2.312   3.980  16.799 -0.3658  0.6361  0.0753
  216MPD1    C2 3280   2.307   3.871  16.879 -0.1915 -0.0830  0.1517
  216MPD1    C3 3281   2.231   3.759  16.841 -0.1687 -0.3519 -0.1295
  216MPD1    C4 3282   2.154   3.765  16.727  0.6455 -0.1228  0.1433
  216MPD1    C5 3283   2.144   3.879  16.659  0.4541  0.0786 -0.0997
  216MPD1     H 3284   2.374   3.862  16.964  0.4933  0.8069 -0.2985
  216MPD1    H1 3285   2.096   3.682  16.690 -1.4851  0.7287  1.5681
  216MPD1    H2 3286   2.197   4.081  16.647  0.6033  0.7027 -0.0145
  216MPD1    H3 3287   2.080   3.885  16.571 -1.3076  2.7232  1.3592
  216MPD1     N 3288   2.241   3.645  16.916 -0.4660 -0.3313 -0.6322
  216MPD1    H5 3289   2.311   3.640  16.990 -1.0018  0.9732 -0.0255
  216MPD1    N1 3290   2.388   4.091  16.834 -0.0061  0.3677  0.4781
  216MPD1    H6 3291   2.396   4.172  16.772 -1.1945 -0.6563 -1.0020
  216MPD1    H7 3292   2.465   4.074  16.899  1.1655  0.9967 -0.7623
  217MPD1     C 3293   3.260   2.374   9.089 -0.4063 -0.2463 -0.4198
  217MPD1    C1 3294   3.152   2.323   9.027  0.0711  0.5154  0.2396
  217MPD1    C2 3295   3.137   2.187   9.041  0.3217  0.0724  0.1515
  217MPD1    C3 3296   3.199   2.111   9.136 -0.0283 -0.0928 -0.8137
  217MPD1    C4 3297   3.304   2.171   9.204  0.1155  0.1705 -0.1439
  217MPD1    C5 3298   3.336   2.300   9.176 -0.3913 -0.6270 -0.0088
  217MPD1     H 3299   3.063   2.138   8.979  0.2253  0.2250  0.1455
  217MPD1    H1 3300   3.356   2.107   9.274  1.4529  1.3598 -0.0681
  217MPD1    H2 3301   3.296   2.474   9.064  0.2949 -0.1581  0.8998
  217MPD1    H3 3302   3.430   2.331   9.221 -0.0002  0.3250 -1.4893
  217MPD1     N 3303   3.167   1.979   9.178  0.2236  0.0903 -0.4051
  217MPD1    H5 3304   3.225   1.935   9.249 -0.1309  1.1752  0.5534
  217MPD1    N1 3305   3.073   2.407   8.939  0.5120 -0.2291 -0.6139
  217MPD1    H6 3306   3.048   2.494   8.984  1.7790 -1.2572  2.0837
  217MPD1    H7 3307   2.987   2.360   8.912  0.2372 -0.4730  0.6622
  218MPD1     C 3308   4.405   1.638  12.712 -0.1202 -0.6905 -0.9124
  218MPD1    C1 3309   4.507   1.600  12.631  0.1703  0.2092 -0.5270
  218MPD1    C2 3310   4.588   1.699  12.577 -0.8877 -0.1597  0.2475
  218MPD1    C3 3311   4.572   1.831  12.612 -0.6330 -0.6644  0.1164
  218MPD1    C4 3312   4.482   1.864  12.707  0.1429  0.8056 -0.8513
  218MPD1    C5 3313   4.392   1.770  12.754  0.7736 -0.5506  0.0900
  218MPD1     H 3314   4.652   1.670  12.495  0.3592 -1.4621  1.6709
  218MPD1    H1 3315   4.462   1.968  12.730 -1.6279  0.4723 -0.9137
  218MPD1    H2 3316   4.332   1.565  12.745 -0.1488 -0.7937 -1.2128
  218MPD1    H3 3317   4.317   1.796  12.828 -0.2212 -2.7153 -0.1524
  218MPD1     N 3318   4.675   1.920  12.559  0.7342  0.1063 -0.3245
  218MPD1    H5 3319   0.014   1.889  12.485  0.5535 -0.9644 -0.0217
  218MPD1    N1 3320   4.491   1.474  12.574 -0.5953  0.3555 -0.6441
  218MPD1    H6 3321   4.574   1.445  12.522 -0.7753  0.5076 -1.0162
  218MPD1    H7 3322   4.463   1.401  12.639  0.9747  0.6799  0.3814
  219MPD1     C 3323   4.482   2.277  11.774  0.6528  0.1498 -0.2720
  219MPD1    C1 3324   4.614   2.283  11.779 -0.1193 -1.3149  0.0047
  219MPD1    C2 3325   4.678   2.282  11.902  0.4031 -0.0446 -0.2406
  219MPD1    C3 3326   4.606   2.246  12.011  0.2803 -0.7783 -0.1620
  219MPD1    C4 3327   4.476   2.214  11.993 -0.4448 -0.4774 -0.6202
  219MPD1    C5 3328   4.407   2.246  11.879 -0.1190 -0.3673  0.7299
  219MPD1     H 3329   0.060   2.305  11.896  0.1495  1.2338  0.2816
  219MPD1    H1 3330   4.416   2.183  12.079  2.0313  1.6384  1.8734
  219MPD1    H2 3331   4.431   2.286  11.679  0.8120  0.2214 -0.3500
  219MPD1    H3 3332   4.300   2.232  11.868 -0.0024 -0.2109 -0.6271
  219MPD1     N 3333   4.662   2.224  12.140 -0.1967 -0.5724  0.0738
  219MPD1    H5 3334   4.615   2.163  12.206 -0.6020 -1.2224 -0.8126
  219MPD1    N1 3335   4.688   2.325  11.665 -0.5539  0.9602  0.0635
  219MPD1    H6 3336   0.059   2.289  11.667 -0.5938  0.8319 -0.3894
  219MPD1    H7 3337   4.635   2.295  11.584 -0.7539  0.2376  0.4608
  220MPD1     C 3338   0.799   3.605  10.240 -0.7297 -0.0081 -0.0110
  220MPD1    C1 3339   0.792   3.532  10.351 -0.0733 -0.5704  0.1391
  220MPD1    C2 3340   0.676   3.460  10.378 -0.4485 -0.3988  0.2434
  220MPD1    C3 3341   0.570   3.458  10.293  0.2313 -0.1627 -0.3025
  220MPD1    C4 3342   0.575   3.525  10.171 -0.4101  0.1500  0.5383
  220MPD1    C5 3343   0.695   3.593  10.148 -0.0067 -0.8529 -0.1119
  220MPD1     H 3344   0.675   3.401  10.468 -1.4311  2.4267  2.0797
  220MPD1    H1 3345   0.495   3.521  10.098  1.3316 -2.1350 -1.2429
  220MPD1    H2 3346   0.879   3.675  10.218 -1.0276  0.4330  0.3175
  220MPD1    H3 3347   0.700   3.642  10.051 -2.0779  0.7855  0.6331
  220MPD1     N 3348   0.461   3.382  10.333 -0.0173 -0.5644 -0.4112
  220MPD1    H5 3349   0.470   3.346  10.427 -1.6700  0.5595  0.1868
  220MPD1    N1 3350   0.882   3.539  10.454  0.3386  0.4008  0.1842
  220MPD1    H6 3351   0.880   3.462  10.520  2.4155  0.7968  0.7128
  220MPD1    H7 3352   0.974   3.568  10.421  1.4994 -1.4738  1.7907
  221MPD1     C 3353   3.016   0.659  17.135  0.8858 -0.3407  0.8217
  221MPD1    C1 3354   2.917   0.703  17.054 -0.0745  0.1206  0.4555
  221MPD1    C2 3355   2.951   0.728  16.927  0.0349 -0.1889 -0.3998
  221MPD1    C3 3356   3.072   0.685  16.869 -0.6336 -0.2088  0.4104
  221MPD1    C4 3357   3.172   0.650  16.957  0.0832 -0.0540 -0.3669
  221MPD1    C5 3358   3.139   0.635  17.085 -0.1633  0.6189 -0.3355
  221MPD1     H 3359   2.876   0.773  16.863  0.6420 -0.8088 -1.5541
  221MPD1    H1 3360   3.272   0.621  16.927  0.1250 -1.0311  0.7377
  221MPD1    H2 3361   2.992   0.628  17.237 -0.4021 -0.2832  0.5337
  221MPD1    H3 3362   3.209   0.598  17.159 -2.7629  0.3447  1.9766
  221MPD1     N 3363   3.100   0.685  16.730  0.1742  0.0767  0.6382
  221MPD1    H5 3364   3.028   0.684  16.658 -0.8762  0.4370  1.6852
  221MPD1    N1 3365   2.801   0.763  17.107 -0.2821 -0.1222 -0.5304
  221MPD1    H6 3366   2.776   0.706  17.187  0.0514  2.6752  1.5874
  221MPD1    H7 3367   2.723   0.759  17.042  1.6863  0.0152 -2.9324
  222MPD1     C 3368   2.439   0.786  16.380 -0.0147 -0.4556 -0.4268
  222MPD1    C1 3369   2.567   0.749  16.350  0.2598  0.0345 -0.3890
  222MPD1    C2 3370   2.642   0.685  16.453  0.4653  0.4534  0.5668
  222MPD1    C3 3371   2.580   0.628  16.568 -0.0862  0.2787 -0.3428
  222MPD1    C4 3372   2.451   0.661  16.588 -0.1308  0.0181 -0.5373
  222MPD1    C5 3373   2.382   0.742  16.496 -0.1035 -0.8339 -0.4834
  222MPD1     H 3374   2.748   0.670  16.440  0.0520 -2.3661  0.2644
  222MPD1    H1 3375   2.399   0.630  16.678 -0.9387 -1.1851 -1.4256
  222MPD1    H2 3376   2.388   0.846  16.306  0.5003  1.1268  0.5034
  222MPD1    H3 3377   2.276   0.759  16.512 -0.2098 -0.2083 -1.8902
  222MPD1     N 3378   2.649   0.553  16.660  0.2011  0.4156 -0.1616
  222MPD1    H5 3379   2.584   0.498  16.716  2.4258 -1.4391  0.5630
  222MPD1    N1 3380   2.634   0.806  16.237  0.1629  0.6174 -0.1369
  222MPD1    H6 3381   2.567   0.798  16.160  0.5427  0.5174 -0.4604
  222MPD1    H7 3382   2.716   0.751  16.211  0.6009  0.1740  2.2225
  223MPD1     C 3383   3.573   4.720  16.927 -0.3061 -0.6976 -0.6331
  223MPD1    C1 3384   3.513   0.032  17.045  0.3125 -0.3376 -0.0806
  223MPD1    C2 3385   3.397   0.109  17.037 -0.2662  0.0983  0.4316
  223MPD1    C3 3386   3.347   0.153  16.914 -0.7328  0.2143 -0.5521
  223MPD1    C4 3387   3.415   0.123  16.801  0.1710  0.4214 -0.0355
  223MPD1    C5 3388   3.533   0.053  16.807  0.0948  0.2874 -0.0040
  223MPD1     H 3389   3.337   0.124  17.126 -0.7132  0.3219  0.0935
  223MPD1    H1 3390   3.387   0.159  16.703  0.5316  1.0679  0.0952
  223MPD1    H2 3391   3.665   4.663  16.930  0.4239  0.5263 -0.0993
  223MPD1    H3 3392   3.583   0.017  16.718 -1.0162 -2.5083  0.4915
  223MPD1     N 3393   3.218   0.210  16.909  0.2975  0.1351 -0.4457
  223MPD1    H5 3394   3.167   0.214  16.996  0.2042 -0.2831 -0.4803
  223MPD1    N1 3395   3.568   4.718  17.168 -0.1869 -0.5851 -0.4344
  223MPD1    H6 3396   3.494   4.700  17.235 -1.1837 -0.0655 -1.3919
  223MPD1    H7 3397   3.622   4.633  17.157  0.9772  0.0702  0.1394
  224MPD1     C 3398   4.711   2.372  10.104 -0.6815  0.5404 -0.0064
  224MPD1    C1 3399   4.615   2.457  10.067 -0.3880  0.1018 -0.5205
  224MPD1    C2 3400   4.495   2.419  10.008 -0.2737 -0.0802 -0.2291
  224MPD1    C3 3401   4.474   2.280   9.991 -0.5611  0.2166 -0.6058
  224MPD1    C4 3402   4.573   2.195  10.035 -0.3920  0.2990  0.1593
  224MPD1    C5 3403   4.688   2.238  10.091 -0.6733 -0.4716  0.3783
  224MPD1     H 3404   4.420   2.489   9.974  1.4993  1.8729 -0.1348
  224MPD1    H1 3405   4.561   2.088  10.045 -0.7315  0.3269  0.0311
  224MPD1    H2 3406   0.090   2.402  10.121 -0.1087  0.8537 -3.9103
  224MPD1    H3 3407   0.048   2.174  10.117  1.1299  1.4209 -0.7889
  224MPD1     N 3408   4.348   2.225   9.956 -0.0238  0.1690  0.3653
  224MPD1    H5 3409   4.329   2.126   9.956  2.8994 -0.3924 -1.0097
  224MPD1    N1 3410   4.649   2.589  10.044  0.6786 -0.1497 -0.1079
  224MPD1    H6 3411   4.578   2.663  10.042 -0.5797 -1.3383  0.3301
  224MPD1    H7 3412   4.723   2.630  10.101 -0.7192 -0.4995  1.9745
  225MPD1     C 3413   4.558   3.472  12.271 -0.3799  0.1706  0.8952
  225MPD1    C1 3414   4.461   3.507  12.363 -0.9272  0.0460 -0.5507
  225MPD1    C2 3415   4.324   3.494  12.329  0.3675  0.8925  0.3796
  225MPD1    C3 3416   4.287   3.465  12.197  0.1464 -0.0025  0.1892
  225MPD1    C4 3417   4.387   3.441  12.108 -0.8374 -0.1745  0.1224
  225MPD1    C5 3418   4.522   3.441  12.143 -0.0031  0.9167  0.6162
  225MPD1     H 3419   4.253   3.502  12.410 -0.1742  1.5874 -0.1696
  225MPD1    H1 3420   4.360   3.419  12.005  0.8932 -0.1043 -0.3335
  225MPD1    H2 3421   4.660   3.462  12.306 -0.5885 -4.7999  0.0791
  225MPD1    H3 3422   4.601   3.423  12.071 -0.1110 -0.0932  0.7453
  225MPD1     N 3423   4.152   3.445  12.157 -0.3039  0.0585 -0.1212
  225MPD1    H5 3424   4.144   3.404  12.064 -0.8342 -2.0235  0.8297
  225MPD1    N1 3425   4.493   3.506  12.501 -0.0034  0.1150  0.3169
  225MPD1    H6 3426   4.420   3.550  12.557 -0.5767 -0.0227 -0.3194
  225MPD1    H7 3427   4.580   3.553  12.526 -0.0710  0.8584 -0.8382
  226MPD1     C 3428   1.522   3.355   8.637  0.3555  0.4032  0.1039
  226MPD1    C1 3429   1.462   3.347   8.758  0.1880  0.0350 -0.1126
  226MPD1    C2 3430   1.413   3.223   8.803 -0.6740 -0.3144  0.7166
  226MPD1    C3 3431   1.432   3.107   8.729  0.4458 -0.2991 -0.2003
  226MPD1    C4 3432   1.501   3.119   8.612 -0.0306 -0.2639  0.1094
  226MPD1    C5 3433   1.547   3.241   8.570 -0.0858 -0.5072 -0.5009
  226MPD1     H 3434   1.365   3.223   8.900 -0.2985 -0.2047  0.9036
  226MPD1    H1 3435   1.518   3.037   8.543 -1.2235  0.6345 -1.2573
  226MPD1    H2 3436   1.560   3.447   8.595  0.6286 -0.2324 -1.0406
  226MPD1    H3 3437   1.593   3.260   8.473  0.8504  0.1520  0.0789
  226MPD1     N 3438   1.370   2.991   8.774 -0.8201 -0.2296  0.1476
  226MPD1    H5 3439   1.313   2.997   8.857  2.1497  0.5223  2.1241
  226MPD1    N1 3440   1.448   3.468   8.827  0.0767 -0.2429 -0.5763
  226MPD1    H6 3441   1.521   3.532   8.797 -0.5361  0.1113 -1.3093
  226MPD1    H7 3442   1.449   3.451   8.927 -1.1387 -3.4144 -1.0891
  227MPD1     C 3443   1.128   1.929   8.696 -0.5591 -0.2023 -0.2302
  227MPD1    C1 3444   1.036   1.998   8.779 -0.1891 -0.3545 -0.4784
  227MPD1    C2 3445   1.073   2.123   8.827 -0.3657 -0.2225 -0.4553
  227MPD1    C3 3446   1.187   2.188   8.784  0.0065  0.3632 -0.4110
  227MPD1    C4 3447   1.278   2.117   8.709 -0.5185  0.2083  0.3925
  227MPD1    C5 3448   1.248   1.986   8.670  0.4438 -0.2653  0.0273
  227MPD1     H 3449   1.006   2.179   8.891 -1.1427 -1.5320 -0.1149
  227MPD1    H1 3450   1.380   2.149   8.696 -0.4947  0.0485  0.1850
  227MPD1    H2 3451   1.100   1.830   8.660  0.4945  0.5121 -3.0264
  227MPD1    H3 3452   1.324   1.920   8.630  0.1070  2.6326 -5.3683
  227MPD1     N 3453   1.209   2.323   8.825  0.7273  0.8705 -0.7184
  227MPD1    H5 3454   1.134   2.367   8.877  0.8500  0.2006  0.0210
  227MPD1    N1 3455   0.927   1.936   8.845  0.0305 -0.1824 -0.2622
  227MPD1    H6 3456   0.901   1.852   8.794  2.6230 -1.8459  1.1759
  227MPD1    H7 3457   0.849   1.995   8.875  0.8269 -0.1442  1.7293
  228MPD1     C 3458   1.722   1.213  11.931  0.1165  0.2848  0.3441
  228MPD1    C1 3459   1.594   1.267  11.890  0.2006  0.7065  0.4112
  228MPD1    C2 3460   1.485   1.240  11.976 -0.5599 -0.6895 -0.5809
  228MPD1    C3 3461   1.498   1.163  12.089  0.5877  0.0678 -0.0438
  228MPD1    C4 3462   1.622   1.121  12.132  0.2486  0.1047 -0.8030
  228MPD1    C5 3463   1.728   1.135  12.041 -0.8489  0.4333  0.5748
  228MPD1     H 3464   1.387   1.281  11.956 -0.5428  0.1154  1.0103
  228MPD1    H1 3465   1.632   1.072  12.228  0.0353  1.0758 -0.2854
  228MPD1    H2 3466   1.810   1.215  11.868 -0.6932 -1.3916 -0.8446
  228MPD1    H3 3467   1.825   1.102  12.077 -1.7213 -0.7424  1.8581
  228MPD1     N 3468   1.375   1.134  12.164  0.5870  0.5694 -0.0817
  228MPD1    H5 3469   1.286   1.161  12.125  0.0143  0.4278  1.1303
  228MPD1    N1 3470   1.582   1.319  11.761  0.3013 -0.6387  0.0861
  228MPD1    H6 3471   1.495   1.370  11.745 -0.5600 -2.5191 -1.2348
  228MPD1    H7 3472   1.668   1.355  11.720  0.5097 -1.6096 -0.3455
  229MPD1     C 3473   0.727   4.109  14.840 -0.2210 -0.1769 -0.3027
  229MPD1    C1 3474   0.777   4.063  14.717 -0.0365  0.4426  0.0999
  229MPD1    C2 3475   0.870   3.957  14.717  0.0596  0.4764 -0.0922
  229MPD1    C3 3476   0.893   3.889  14.830 -0.0033  0.4118  1.0986
  229MPD1    C4 3477   0.840   3.930  14.952 -1.1832 -0.0864  0.2586
  229MPD1    C5 3478   0.753   4.038  14.959 -0.3843 -0.8804 -0.0647
  229MPD1     H 3479   0.915   3.920  14.626  0.0966 -0.4594  0.3046
  229MPD1    H1 3480   0.863   3.876  15.043  0.5773 -2.0949 -1.3621
  229MPD1    H2 3481   0.650   4.184  14.850 -0.6990 -0.9945  2.0197
  229MPD1    H3 3482   0.709   4.067  15.054  1.9322  0.7846  0.4933
  229MPD1     N 3483   0.965   3.768  14.838  0.0475 -0.3791 -0.4713
  229MPD1    H5 3484   0.984   3.733  14.931  2.3031  0.9601 -0.4133
  229MPD1    N1 3485   0.750   4.144  14.605  0.0311  0.7768  0.3989
  229MPD1    H6 3486   0.658   4.188  14.608 -1.7519 -2.9132  0.1178
  229MPD1    H7 3487   0.757   4.094  14.516  2.3866  0.6032  0.6955
  230MPD1     C 3488   1.540   3.147  15.398  0.0584  0.2725  0.0697
  230MPD1    C1 3489   1.615   3.159  15.287  0.1596  0.7897  0.0819
  230MPD1    C2 3490   1.562   3.243  15.182 -0.0789 -0.3210  0.1707
  230MPD1    C3 3491   1.437   3.293  15.187  0.1759  0.3934  0.0824
  230MPD1    C4 3492   1.365   3.279  15.306 -0.1121  0.3239  0.2598
  230MPD1    C5 3493   1.420   3.207  15.412  0.7774  0.0185 -0.2407
  230MPD1     H 3494   1.621   3.258  15.092  0.4854  2.1395  0.9465
  230MPD1    H1 3495   1.267   3.325  15.317  0.1790  1.1488 -0.5634
  230MPD1    H2 3496   1.574   3.087  15.482  1.1960 -0.5008 -0.9401
  230MPD1    H3 3497   1.361   3.186  15.500  0.2899 -2.2059 -1.1177
  230MPD1     N 3498   1.393   3.365  15.074 -0.1078  0.1116  0.0016
  230MPD1    H5 3499   1.459   3.395  15.003 -1.3206 -1.5824 -1.8284
  230MPD1    N1 3500   1.748   3.115  15.288 -0.3781  0.4000  0.3372
  230MPD1    H6 3501   1.756   3.026  15.338 -1.7140  0.7750  1.2392
  230MPD1    H7 3502   1.787   3.104  15.195 -1.5914  1.9940 -0.3535
  231MPD1     C 3503   3.677   0.984  15.549  0.2950  0.7994 -0.0902
  231MPD1    C1 3504   3.686   0.957  15.413 -0.1010 -0.2261  0.1153
  231MPD1    C2 3505   3.789   1.010  15.342  0.4107 -0.1850 -0.6208
  231MPD1    C3 3506   3.888   1.084  15.407 -0.8371 -0.1537 -0.3683
  231MPD1    C4 3507   3.872   1.118  15.536 -0.4946 -0.3703 -0.4761
  231MPD1    C5 3508   3.770   1.062  15.612 -0.4190  0.3582  0.7072
  231MPD1     H 3509   3.792   0.989  15.236 -4.0120  0.1077 -0.8291
  231MPD1    H1 3510   3.940   1.185  15.588 -0.1923 -0.3310 -0.9251
  231MPD1    H2 3511   3.611   0.931  15.616  0.2724  2.5157  1.2339
  231MPD1    H3 3512   3.758   1.093  15.715 -1.0274 -0.0655  0.7626
  231MPD1     N 3513   3.990   1.128  15.326 -0.0820 -0.4546 -0.3779
  231MPD1    H5 3514   3.993   1.097  15.230  1.2173 -1.5965  0.0243
  231MPD1    N1 3515   3.603   0.853  15.359  0.4713 -0.1234  0.2338
  231MPD1    H6 3516   3.586   0.870  15.260 -0.8532 -0.0169  0.4796
  231MPD1    H7 3517   3.513   0.848  15.406  1.2600 -1.1514  1.6610
  232MPD1     C 3518   1.793   2.554  17.430 -0.1427  0.3711  0.5905
  232MPD1    C1 3519   1.822   2.681  17.478  0.8527 -0.0623 -1.0092
  232MPD1    C2 3520   1.719   2.773  17.474  0.1479 -0.2589 -0.3679
  232MPD1    C3 3521   1.594   2.734  17.435  0.7177 -0.2762 -0.3946
  232MPD1    C4 3522   1.559   2.601  17.403  0.8533  0.2535  0.0684
  232MPD1    C5 3523   1.667   2.507  17.407  0.5469  0.1829 -0.3559
  232MPD1     H 3524   1.742   2.878  17.491  1.7289 -0.5075 -1.0195
  232MPD1    H1 3525   1.462   2.563  17.374  1.3330 -1.4432  0.6208
  232MPD1    H2 3526   1.875   2.483  17.422  0.7290  1.4379  0.1813
  232MPD1    H3 3527   1.642   2.405  17.381 -3.4106  0.9627  0.4317
  232MPD1     N 3528   1.497   2.835  17.434  0.5459  0.3429  0.2058
  232MPD1    H5 3529   1.525   2.918  17.487  1.7924  1.7287 -2.6447
  232MPD1    N1 3530   1.961   2.720  17.490 -0.1547  0.1139  0.3959
  232MPD1    H6 3531   1.976   2.814  17.525 -0.7672  0.3577  0.0026
  232MPD1    H7 3532   2.018   2.660  17.549  0.4619  0.1895 -0.1227
  233MPD1     C 3533   1.184   1.670   0.085  0.0259  0.2087  0.2909
  233MPD1    C1 3534   1.186   1.591   0.199  0.6738 -0.0382  0.0329
  233MPD1    C2 3535   1.301   1.583   0.269 -0.0093 -0.4230  0.0761
  233MPD1    C3 3536   1.423   1.636   0.222  0.9768  0.3817  0.3440
  233MPD1    C4 3537   1.415   1.709   0.109 -0.1469  0.5732  0.0629
  233MPD1    C5 3538   1.296   1.734   0.042 -0.0439 -0.9412  0.5857
  233MPD1     H 3539   1.297   1.533   0.365  0.5626 -0.9177 -0.1539
  233MPD1    H1 3540   1.510   1.749   0.076  0.1302  0.0136  0.1789
  233MPD1    H2 3541   1.094   1.691   0.028  0.0926 -0.6429 -0.1368
  233MPD1    H3 3542   1.290   1.794  17.647  0.9480 -3.5255 -1.1709
  233MPD1     N 3543   1.543   1.627   0.292 -0.1909  0.4351  0.0407
  233MPD1    H5 3544   1.620   1.685   0.261  0.8715 -1.1496 -0.2965
  233MPD1    N1 3545   1.068   1.545   0.255  0.1248  0.1031 -0.4983
  233MPD1    H6 3546   1.079   1.462   0.314  2.4214 -0.5334 -1.8309
  233MPD1    H7 3547   0.988   1.532   0.193  1.7122  0.4308 -2.6127
  234MPD1     C 3548   3.841   0.532   9.271  0.1107 -0.2173 -0.1831
  234MPD1    C1 3549   3.826   0.657   9.217  0.3235 -0.2940 -0.5107
  234MPD1    C2 3550   3.838   0.764   9.307  0.2471 -0.0609  0.1689
  234MPD1    C3 3551   3.844   0.743   9.441  0.0153  0.2500 -0.3130
  234MPD1    C4 3552   3.857   0.613   9.485 -0.4020  0.3738 -0.1975
  234MPD1    C5 3553   3.857   0.509   9.401 -0.2338  0.1786 -0.0568
  234MPD1     H 3554   3.832   0.864   9.267 -0.8377 -0.5025 -0.7794
  234MPD1    H1 3555   3.861   0.590   9.591 -0.5535 -0.8414 -0.4523
  234MPD1    H2 3556   3.858   0.446   9.207 -2.8632 -0.5196 -0.5585
  234MPD1    H3 3557   3.854   0.409   9.443 -0.3296 -0.3048 -1.2121
  234MPD1     N 3558   3.842   0.856   9.526 -0.4076 -0.2448  0.2046
  234MPD1    H5 3559   3.825   0.937   9.467  0.8145 -1.2930 -1.6075
  234MPD1    N1 3560   3.841   0.679   9.082  0.1392  0.0040  0.2140
  234MPD1    H6 3561   3.808   0.599   9.027  0.5099 -0.3726  0.5495
  234MPD1    H7 3562   3.796   0.761   9.043  1.3834  0.3747 -0.4464
  235MPD1     C 3563   1.429   0.490   9.370 -0.7164 -0.0452 -0.2834
  235MPD1    C1 3564   1.498   0.450   9.476  1.2568 -0.0562  0.0128
  235MPD1    C2 3565   1.527   0.318   9.489  0.3140  0.0639 -0.3589
  235MPD1    C3 3566   1.478   0.221   9.403 -0.5745  0.0390 -0.7523
  235MPD1    C4 3567   1.401   0.258   9.297 -0.9336  0.0180 -0.2766
  235MPD1    C5 3568   1.376   0.396   9.285  0.5749 -0.1673 -0.3735
  235MPD1     H 3569   1.589   0.285   9.571 -0.8460 -0.5882  0.2643
  235MPD1    H1 3570   1.348   0.183   9.239 -0.3310 -0.0762 -0.6998
  235MPD1    H2 3571   1.408   0.594   9.346 -2.4255  0.4072  3.2985
  235MPD1    H3 3572   1.326   0.438   9.199  0.3652 -1.0920 -0.6974
  235MPD1     N 3573   1.505   0.086   9.439  0.6075  0.4620 -0.1521
  235MPD1    H5 3574   1.560   0.065   9.522  1.2965  1.9588 -0.2343
  235MPD1    N1 3575   1.549   0.549   9.567  0.5697  0.4250 -0.0739
  235MPD1    H6 3576   1.581   0.498   9.649  1.4896  0.5704 -0.3407
  235MPD1    H7 3577   1.484   0.615   9.609  3.0446  1.3260  2.3589
  236MPD1     C 3578   4.085   0.217   9.387 -0.4715  0.6073 -0.5755
  236MPD1    C1 3579   4.078   0.150   9.502  0.0243 -0.5937 -0.1069
  236MPD1    C2 3580   4.192   0.107   9.569  0.4943 -0.7448 -0.1038
  236MPD1    C3 3581   4.312   0.111   9.511 -0.0637 -0.3657 -0.4844
  236MPD1    C4 3582   4.314   0.162   9.383  0.0064  0.0230 -0.4824
  236MPD1    C5 3583   4.205   0.229   9.332 -0.1519 -0.6035 -0.0821
  236MPD1     H 3584   4.182   0.062   9.667 -2.9906 -2.4213 -1.2114
  236MPD1    H1 3585   4.405   0.151   9.326  0.7947 -1.1399  0.9980
  236MPD1    H2 3586   4.005   0.261   9.329 -0.4259  0.3185 -0.8564
  236MPD1    H3 3587   4.203   0.287   9.241 -1.2798 -0.3239  0.1301
  236MPD1     N 3588   4.434   0.069   9.570  0.4764  0.2685  0.4575
  236MPD1    H5 3589   4.515   0.106   9.521  0.7815 -0.5437  0.3518
  236MPD1    N1 3590   3.952   0.146   9.563  0.3802 -0.3233  0.0260
  236MPD1    H6 3591   3.933   0.063   9.619 -1.2691 -0.4917 -0.7889
  236MPD1    H7 3592   3.875   0.162   9.499  2.5366  3.8638 -1.5196
  237MPD1     C 3593   4.318   2.894  15.816 -0.0446 -0.0022 -0.7272
  237MPD1    C1 3594   4.271   2.970  15.710  0.1185  0.0056 -0.3016
  237MPD1    C2 3595   4.193   2.900  15.607  0.1775  0.5530  0.0589
  237MPD1    C3 3596   4.181   2.767  15.606 -1.1348 -0.2597  0.1581
  237MPD1    C4 3597   4.231   2.695  15.710  0.6767  0.4530 -0.0551
  237MPD1    C5 3598   4.294   2.756  15.821 -0.3508 -0.2656 -0.1118
  237MPD1     H 3599   4.161   2.965  15.526  1.4316 -0.5737 -1.3137
  237MPD1    H1 3600   4.228   2.587  15.701 -2.0352  0.2303  3.3083
  237MPD1    H2 3601   4.367   2.950  15.895 -1.7554 -0.3627  0.5922
  237MPD1    H3 3602   4.332   2.691  15.899 -1.9733 -0.7565  0.2821
  237MPD1     N 3603   4.114   2.693  15.506  0.5164 -0.0392  0.2068
  237MPD1    H5 3604   4.104   2.593  15.518 -3.1503  0.3673  0.5517
  237MPD1    N1 3605   4.284   3.116  15.712 -0.9750  0.1101  0.4087
  237MPD1    H6 3606   4.298   3.153  15.618 -0.2933  1.8752  1.2114
  237MPD1    H7 3607   4.354   3.152  15.776  1.0344 -1.6296 -0.7898
  238MPD1     C 3608   1.488   1.136  15.607 -0.3839 -0.5719 -0.0033
  238MPD1    C1 3609   1.542   1.123  15.477  0.1859 -0.3305  0.2811
  238MPD1    C2 3610   1.467   1.132  15.361  0.2349 -0.8382  0.0374
  238MPD1    C3 3611   1.332   1.158  15.380 -0.6269  0.1086 -0.6610
  238MPD1    C4 3612   1.272   1.167  15.502 -0.2553  0.0423  0.3114
  238MPD1    C5 3613   1.351   1.159  15.616 -0.1878  0.7094 -0.2624
  238MPD1     H 3614   1.515   1.114  15.266 -0.7251  0.2510 -0.6423
  238MPD1    H1 3615   1.167   1.193  15.509  0.4327  3.0729 -0.6114
  238MPD1    H2 3616   1.553   1.150  15.692 -1.8099 -1.3875  1.2057
  238MPD1    H3 3617   1.307   1.169  15.714  3.0939  3.6581  0.9062
  238MPD1     N 3618   1.238   1.164  15.275 -0.1149  0.4223  0.2359
  238MPD1    H5 3619   1.139   1.165  15.297  0.1025 -1.2425  1.3073
  238MPD1    N1 3620   1.681   1.112  15.470  0.0649 -0.3508 -0.1132
  238MPD1    H6 3621   1.710   1.102  15.373 -1.1235 -0.2984 -0.4841
  238MPD1    H7 3622   1.720   1.198  15.507 -0.7034 -1.0604  2.3286
  239MPD1     C 3623   1.406   2.070  14.777  0.0684 -0.3193  0.2872
  239MPD1    C1 3624   1.495   2.037  14.681 -0.2131  0.1847 -0.4210
  239MPD1    C2 3625   1.499   2.096  14.556  0.8889 -0.8652 -0.7093
  239MPD1    C3 3626   1.385   2.160  14.517 -0.4362 -0.3875 -0.0546
  239MPD1    C4 3627   1.296   2.202  14.615  0.4787  0.5334  0.0700
  239MPD1    C5 3628   1.308   2.159  14.742  0.2204 -0.2418  0.9544
  239MPD1     H 3629   1.584   2.084  14.489 -0.0729 -3.8222 -1.4173
  239MPD1    H1 3630   1.208   2.264  14.597 -0.3585 -0.8028 -0.4561
  239MPD1    H2 3631   1.404   2.036  14.880  2.6609 -0.2884  0.3459
  239MPD1    H3 3632   1.244   2.206  14.816 -2.1479  1.3054 -2.0800
  239MPD1     N 3633   1.365   2.195  14.383 -0.3487  0.4203 -0.6644
  239MPD1    H5 3634   1.284   2.255  14.375  0.0254  0.9158 -0.7315
  239MPD1    N1 3635   1.604   1.965  14.730  0.6661 -0.3283 -0.0592
  239MPD1    H6 3636   1.652   1.919  14.653 -1.1606 -2.5234  0.1120
  239MPD1    H7 3637   1.584   1.898  14.804 -1.2082 -1.1502 -1.3410
  240MPD1     C 3638   0.906   2.146  14.241  0.6324 -0.4128  0.1002
  240MPD1    C1 3639   0.854   2.034  14.179  0.0313  0.6712 -0.2248
  240MPD1    C2 3640   0.855   1.912  14.246 -0.6228 -0.0671 -0.9829
  240MPD1    C3 3641   0.893   1.903  14.377 -0.0136 -1.0094 -0.3095
  240MPD1    C4 3642   0.952   2.011  14.438  0.1960  0.6193 -0.4323
  240MPD1    C5 3643   0.968   2.126  14.362 -0.2633 -0.0583  0.6399
  240MPD1     H 3644   0.799   1.832  14.200 -2.4570 -0.2383  1.5108
  240MPD1    H1 3645   0.985   2.001  14.541  0.2381  1.4753 -0.3670
  240MPD1    H2 3646   0.893   2.242  14.193 -0.4840 -0.0911  1.0649
  240MPD1    H3 3647   1.013   2.214  14.406 -0.9498  1.0485 -0.8786
  240MPD1     N 3648   0.869   1.773  14.440  0.0050  0.1970 -0.9200
  240MPD1    H5 3649   0.820   1.702  14.386  3.9030 -2.7246 -0.5884
  240MPD1    N1 3650   0.770   2.049  14.065  0.3772 -0.1031 -0.0005
  240MPD1    H6 3651   0.793   1.979  13.995 -1.8706 -1.0596  0.2448
  240MPD1    H7 3652   0.771   2.136  14.013 -0.7392  1.3331  2.3952
  241MPD1     C 3653   1.010   1.464  15.393 -0.0886 -0.9914  0.2619
  241MPD1    C1 3654   0.920   1.370  15.345 -0.2332 -0.5755  0.6153
  241MPD1    C2 3655   0.869   1.391  15.219  0.0893 -0.2671  0.3760
  241MPD1    C3 3656   0.892   1.511  15.146  0.2033 -0.3738 -0.0601
  241MPD1    C4 3657   0.969   1.608  15.209 -0.2045 -0.2538 -0.3833
  241MPD1    C5 3658   1.035   1.582  15.325  0.1780  0.1964 -0.9321
  241MPD1     H 3659   0.827   1.303  15.172 -2.7085 -0.2633  2.8967
  241MPD1    H1 3660   0.992   1.703  15.162 -2.1080  0.5128  0.2127
  241MPD1    H2 3661   1.058   1.441  15.487  0.7265  1.8675  0.5615
  241MPD1    H3 3662   1.113   1.650  15.359 -0.6376  0.3043  0.6982
  241MPD1     N 3663   0.856   1.539  15.017  0.2049  0.5391  0.6605
  241MPD1    H5 3664   0.881   1.627  14.973  2.4098 -0.6603 -0.5378
  241MPD1    N1 3665   0.909   1.243  15.401 -0.3188 -0.5499  0.3987
  241MPD1    H6 3666   0.903   1.234  15.502  1.2009  2.4730  0.7549
  241MPD1    H7 3667   0.833   1.194  15.353  1.0684 -0.1717 -2.2112
  242MPD1     C 3668   0.475   0.271  15.706 -0.5803 -0.1199 -0.1934
  242MPD1    C1 3669   0.366   0.188  15.681  0.8789 -1.2586  0.6741
  242MPD1    C2 3670   0.344   0.153  15.553  0.4656  0.0575 -0.4897
  242MPD1    C3 3671   0.434   0.195  15.458  0.4778  0.0160  0.5412
  242MPD1    C4 3672   0.528   0.292  15.482  0.3115  0.2255 -0.4126
  242MPD1    C5 3673   0.552   0.327  15.605 -0.2237  0.3373 -0.1598
  242MPD1     H 3674   0.265   0.081  15.535  1.2196 -0.6914 -0.7985
  242MPD1    H1 3675   0.597   0.330  15.407 -0.8591 -0.8409 -2.0208
  242MPD1    H2 3676   0.510   0.289  15.807  2.5745 -2.5464 -0.8542
  242MPD1    H3 3677   0.638   0.391  15.623 -0.8695  1.6921 -1.9386
  242MPD1     N 3678   0.434   0.142  15.326  0.3352 -0.7857  0.0030
  242MPD1    H5 3679   0.520   0.146  15.273  0.3736  1.9269  0.2881
  242MPD1    N1 3680   0.313   0.120  15.793 -0.4962 -0.1879 -0.5236
  242MPD1    H6 3681   0.289   0.171  15.878 -1.7675 -1.1054 -0.3396
  242MPD1    H7 3682   0.226   0.073  15.770 -1.4550  1.9559 -1.2930
  243MPD1     C 3683   2.783   2.465  16.197  1.0158 -0.3754  0.6066
  243MPD1    C1 3684   2.777   2.592  16.253 -0.0142  0.5385 -0.1737
  243MPD1    C2 3685   2.660   2.662  16.237  0.2959  0.8087 -0.3819
  243MPD1    C3 3686   2.547   2.611  16.173  0.1774  0.2006  0.3912
  243MPD1    C4 3687   2.554   2.481  16.120  0.2126  0.3263 -0.2597
  243MPD1    C5 3688   2.670   2.412  16.136  0.3472  0.3924  0.2048
  243MPD1     H 3689   2.646   2.758  16.286  0.3775  0.1099  1.0106
  243MPD1    H1 3690   2.476   2.440  16.056  0.7520  1.6707 -1.8040
  243MPD1    H2 3691   2.874   2.405  16.194  1.4327  0.3129 -0.7300
  243MPD1    H3 3692   2.687   2.312  16.098 -2.8787 -1.2265  3.0260
  243MPD1     N 3693   2.428   2.690  16.163 -1.0382 -0.1708  0.1695
  243MPD1    H5 3694   2.447   2.784  16.197  0.0943 -0.1465 -0.4904
  243MPD1    N1 3695   2.893   2.652  16.302 -0.5443  0.4451  0.5141
  243MPD1    H6 3696   2.977   2.600  16.329 -0.7393 -0.2306 -0.1910
  243MPD1    H7 3697   2.885   2.729  16.369 -0.6192 -0.5040  1.5888
  244MPD1     C 3698   2.247   3.067  16.873 -0.3695  0.0933 -0.2399
  244MPD1    C1 3699   2.355   3.016  16.808 -0.1572 -1.1060 -0.6106
  244MPD1    C2 3700   2.340   3.002  16.674 -0.5825  0.2196  0.4661
  244MPD1    C3 3701   2.214   3.007  16.612 -0.4876  0.0625  0.7895
  244MPD1    C4 3702   2.104   3.032  16.685  0.4098  0.2210  0.4130
  244MPD1    C5 3703   2.121   3.064  16.814  0.6836  0.1109 -0.3107
  244MPD1     H 3704   2.430   2.974  16.619 -1.9332  0.7051 -1.9540
  244MPD1    H1 3705   2.003   3.044  16.647  0.8533 -2.1903 -1.5782
  244MPD1    H2 3706   2.247   3.093  16.978  0.9418 -0.5374 -0.0735
  244MPD1    H3 3707   2.032   3.088  16.871  0.3274 -1.1486 -0.3307
  244MPD1     N 3708   2.211   2.981  16.474  0.2778 -0.2945 -0.5092
  244MPD1    H5 3709   2.304   2.964  16.439  0.4650  0.3751 -0.3340
  244MPD1    N1 3710   2.487   3.016  16.863 -0.3819  0.7683  0.2320
  244MPD1    H6 3711   2.550   2.948  16.822 -1.0961  0.0941  0.2557
  244MPD1    H7 3712   2.488   3.006  16.964  0.7365  2.6051  0.3955
  245MPD1     C 3713   3.621   4.364  13.154  0.2685  0.8730 -0.6238
  245MPD1    C1 3714   3.731   4.278  13.150  0.0425  0.0777  0.0318
  245MPD1    C2 3715   3.863   4.328  13.169  0.1303 -0.0372 -1.0943
  245MPD1    C3 3716   3.884   4.464  13.195  0.0968 -0.3153  0.1518
  245MPD1    C4 3717   3.766   4.550  13.200  0.1999 -0.9762  0.2194
  245MPD1    C5 3718   3.642   4.497  13.167 -0.2067 -1.0434  0.1051
  245MPD1     H 3719   3.952   4.267  13.161 -1.1798 -1.8144 -1.9859
  245MPD1    H1 3720   3.777   4.657  13.208 -0.7972 -0.9354  0.9089
  245MPD1    H2 3721   3.517   4.333  13.157  0.1635  1.1928 -0.8848
  245MPD1    H3 3722   3.560   4.567  13.165  1.0656  0.5114  2.1449
  245MPD1     N 3723   4.018   4.510  13.201 -1.1627  0.8990  0.2805
  245MPD1    H5 3724   4.083   4.436  13.178 -0.7683  1.5096 -0.5362
  245MPD1    N1 3725   3.710   4.144  13.149 -0.6386 -0.0064  0.4151
  245MPD1    H6 3726   3.654   4.106  13.073  0.5463 -0.2001 -0.3528
  245MPD1    H7 3727   3.799   4.100  13.129 -0.1936  1.0386  0.0739
  246MPD1     C 3728   0.756   1.966   9.748 -0.4138  0.0593  0.1638
  246MPD1    C1 3729   0.824   2.005   9.631  0.0368  0.1679  0.3690
  246MPD1    C2 3730   0.809   1.924   9.516  0.1756  0.1306 -0.0773
  246MPD1    C3 3731   0.738   1.804   9.518 -0.0729  0.8143 -0.3304
  246MPD1    C4 3732   0.669   1.774   9.630  0.3742  0.2570  0.2762
  246MPD1    C5 3733   0.690   1.841   9.749 -0.5776  0.8086  0.3832
  246MPD1     H 3734   0.856   1.961   9.425  3.6541 -0.2988  1.5410
  246MPD1    H1 3735   0.637   1.671   9.638  2.9412 -0.4446  1.4018
  246MPD1    H2 3736   0.757   2.033   9.833 -1.6189  1.8953 -1.2648
  246MPD1    H3 3737   0.633   1.808   9.835  2.0653  1.1321  2.2511
  246MPD1     N 3738   0.735   1.716   9.408 -0.1439 -0.2357 -1.0704
  246MPD1    H5 3739   0.800   1.747   9.337  0.9424 -1.8208 -0.7844
  246MPD1    N1 3740   0.877   2.134   9.628 -0.4822  0.1902  0.4492
  246MPD1    H6 3741   0.957   2.137   9.565 -2.6208 -3.5103 -2.4434
  246MPD1    H7 3742   0.893   2.173   9.721  0.5177 -0.7296  0.6654
  247MPD1     C 3743   3.550   4.378  16.878 -0.3254 -0.3647  0.7950
  247MPD1    C1 3744   3.525   4.277  16.968  0.0995 -0.2542  0.0913
  247MPD1    C2 3745   3.568   4.144  16.937 -0.2302 -0.3505  0.5500
  247MPD1    C3 3746   3.630   4.108  16.817 -0.8574 -0.0716 -0.2073
  247MPD1    C4 3747   3.641   4.211  16.727  0.3938 -0.3726  0.1850
  247MPD1    C5 3748   3.603   4.339  16.761  0.2614  0.1434 -0.8305
  247MPD1     H 3749   3.552   4.065  17.009 -1.5928  0.3842  1.0710
  247MPD1    H1 3750   3.683   4.189  16.630  0.1010  1.9551 -0.4486
  247MPD1    H2 3751   3.522   4.483  16.887  0.0580 -0.2108  0.2251
  247MPD1    H3 3752   3.598   4.421  16.689 -1.9650  0.4628 -0.2895
  247MPD1     N 3753   3.660   3.976  16.775  0.1866 -0.0555  0.0412
  247MPD1    H5 3754   3.686   3.971  16.677 -1.6522 -0.3266 -0.4311
  247MPD1    N1 3755   3.485   4.306  17.093  0.8177  0.3987 -0.0339
  247MPD1    H6 3756   3.409   4.374  17.094  1.8300  1.5259 -0.6229
  247MPD1    H7 3757   3.454   4.227  17.150  1.1834 -0.4038 -0.9396
  248MPD1     C 3758   0.433   4.688  17.627 -0.3595 -0.1557  0.1829
  248MPD1    C1 3759   0.443   4.698   0.067  0.0715  0.3110  0.6533
  248MPD1    C2 3760   0.401   4.591   0.140 -0.0059  0.3540  0.3566
  248MPD1    C3 3761   0.339   4.480   0.095  0.5920 -0.4427 -0.1755
  248MPD1    C4 3762   0.327   4.473  17.653 -0.5278  0.5519  0.1059
  248MPD1    C5 3763   0.373   4.577  17.576  0.1056  0.6099 -0.4456
  248MPD1     H 3764   0.429   4.589   0.245 -0.3276  1.2864  0.4553
  248MPD1    H1 3765   0.293   4.393  17.587  0.8845  0.6869 -0.7860
  248MPD1    H2 3766   0.465   0.048  17.567 -1.8501  0.6473  0.5333
  248MPD1    H3 3767   0.359   4.568  17.469 -0.5336 -2.1463 -0.1295
  248MPD1     N 3768   0.317   4.378   0.193 -0.8520  0.1714  0.1624
  248MPD1    H5 3769   0.328   4.403   0.291  1.9672 -1.0517  0.1615
  248MPD1    N1 3770   0.513   0.078   0.116  0.3117  0.4523  0.2111
  248MPD1    H6 3771   0.501   0.168   0.069  0.3045 -0.0162 -0.6970
  248MPD1    H7 3772   0.494   0.096   0.214  2.3296  0.2409  0.6383
  249MPD1     C 3773   0.713   2.365  10.323  0.7145  0.2951  0.1661
  249MPD1    C1 3774   0.845   2.384  10.360  0.3564 -0.0812 -0.0984
  249MPD1    C2 3775   0.945   2.381  10.265  0.5004 -0.4863 -0.7441
  249MPD1    C3 3776   0.910   2.397  10.135 -0.2975  0.0283  0.1308
  249MPD1    C4 3777   0.780   2.377  10.101 -0.0234 -0.4783  0.7849
  249MPD1    C5 3778   0.675   2.358  10.195 -0.2766  0.3194  0.4368
  249MPD1     H 3779   1.050   2.404  10.283  0.4197 -0.9416  0.2749
  249MPD1    H1 3780   0.755   2.387   9.996 -0.3198 -4.1078  0.5179
  249MPD1    H2 3781   0.632   2.359  10.394  1.2490 -0.3518  0.7218
  249MPD1    H3 3782   0.575   2.343  10.157  0.1281  3.9651 -2.1201
  249MPD1     N 3783   1.013   2.436  10.043 -0.0506  0.0763 -0.5385
  249MPD1    H5 3784   1.101   2.463  10.085 -1.0122  0.4771  1.2256
  249MPD1    N1 3785   0.879   2.381  10.496  0.1247  0.3447  0.2904
  249MPD1    H6 3786   0.804   2.429  10.546  0.3733  0.3153  0.6962
  249MPD1    H7 3787   0.966   2.430  10.515 -0.1359  0.4892  1.1101
  250MPD2     C 3788   2.048   2.925  13.326 -0.2857  0.3158 -0.1303
  250MPD2    C1 3789   2.026   2.984  13.200  0.3076 -0.6920 -0.3233
  250MPD2    C2 3790   1.965   2.909  13.094 -0.5381  0.2843 -0.0429
  250MPD2    C3 3791   1.911   2.785  13.130  0.3706  0.0888  0.7095
  250MPD2    C4 3792   1.921   2.735  13.256  0.0622 -0.5036 -0.0710
  250MPD2    C5 3793   1.995   2.806  13.352 -0.5341  0.1055  0.1025
  250MPD2     H 3794   1.963   2.958  12.997  1.8869 -0.7566 -0.6204
  250MPD2    H1 3795   1.870   2.644  13.287 -1.8305 -0.1856 -2.2409
  250MPD2    H2 3796   2.104   2.977  13.402  0.7935  3.0166 -2.7532
  250MPD2    H3 3797   1.995   2.763  13.452 -1.9763 -0.8000 -0.2837
  250MPD2     N 3798   1.844   2.705  13.038 -0.3921  0.5085  0.3950
  250MPD2    H5 3799   1.821   2.612  13.072  0.2496  0.0916 -0.3106
  250MPD2    N1 3800   2.080   3.119  13.169 -0.2225  0.2597  0.0382
  250MPD2    H7 3801   2.066   3.147  13.073  0.5724  1.2252  0.2018
  251TMC3    C1 3802   2.171   3.331  13.207  0.2206 -0.0417  0.7301
  251TMC3    C2 3803   2.163   3.441  13.286  0.5349 -0.1651 -0.5663
  251TMC3    C3 3804   2.280   3.518  13.292  0.2299  0.3913 -0.2046
  251TMC3    C4 3805   2.282   3.311  13.127 -0.0175 -0.2647 -0.1577
  251TMC3    C5 3806   2.382   3.404  13.123 -0.6557 -0.0712 -0.5052
  251TMC3    C6 3807   2.390   3.504  13.214 -0.3048 -0.4184 -0.4769
  251TMC3     C 3808   2.105   3.217  13.263 -0.1986  0.0370  0.5131
  251TMC3     O 3809   2.092   3.213  13.383 -0.1483  0.2887  0.0903
  251TMC3     H 3810   2.097   3.444  13.372 -0.2825  2.5600 -1.3011
  251TMC3    H1 3811   2.289   3.221  13.068 -0.7934 -1.3811  1.4439
  251TMC3    H2 3812   2.472   3.574  13.221  0.1273 -1.0517  0.9149
  251TMC3    C7 3813   2.504   3.364  13.055  0.4106  0.4652 -0.3377
  251TMC3    C8 3814   2.288   3.603  13.410  0.4908  0.3440  0.4503
  251TMC3    O1 3815   2.506   3.248  13.014 -0.0512 -0.1192  0.0428
  251TMC3    O2 3816   2.186   3.657  13.446 -0.4242  0.0777 -0.5047
  252TMC3    C1 3817   2.552   4.324   9.456 -0.0476 -0.1053  0.3379
  252TMC3    C2 3818   2.652   4.417   9.443  0.2692 -0.1076  0.8514
  252TMC3    C3 3819   2.720   4.398   9.327 -0.0951  0.2427 -0.2009
  252TMC3    C4 3820   2.521   4.224   9.370 -0.3512 -0.6467  0.3698
  252TMC3    C5 3821   2.595   4.212   9.258  0.4752 -0.1578  0.6320
  252TMC3    C6 3822   2.699   4.293   9.238  0.0362 -0.4269  0.1095
  252TMC3     C 3823   2.465   4.334   9.577  0.0583  0.1724 -0.1702
  252TMC3     O 3824   2.347   4.314   9.576 -0.6607  0.0309  0.3899
  252TMC3     H 3825   2.650   4.507   9.504 -0.9986  0.3637  0.1061
  252TMC3    H1 3826   2.434   4.162   9.384 -1.3511  0.8612  0.7822
  252TMC3    H2 3827   2.763   4.286   9.152  1.3313  2.3111  0.8360
  252TMC3    C7 3828   2.614   4.081   9.196  0.3711 -0.3407 -0.0353
  252TMC3    C8 3829   2.836   4.478   9.319 -0.3236 -0.9235  0.0246
  252TMC3    O1 3830   2.676   4.075   9.090  0.5935 -0.4062  0.0146
  252TMC3    O2 3831   2.903   4.470   9.215  0.0408 -0.1632 -0.4095
  253MPD2     C 3832   3.593   2.756  15.164  0.3133 -0.3737 -0.6383
  253MPD2    C1 3833   3.522   2.640  15.183 -0.1713  0.4773 -0.2182
  253MPD2    C2 3834   3.524   2.589  15.309 -0.3369  0.8109 -0.5267
  253MPD2    C3 3835   3.598   2.648  15.412 -0.2971  0.1411 -0.1205
  253MPD2    C4 3836   3.687   2.749  15.383 -0.1764  0.0832 -0.3142
  253MPD2    C5 3837   3.674   2.817  15.263 -0.6906  0.9408 -0.4291
  253MPD2     H 3838   3.464   2.501  15.329 -0.1701  0.7150 -0.4557
  253MPD2    H1 3839   3.747   2.793  15.462  0.0203  0.4255 -0.6555
  253MPD2    H2 3840   3.603   2.803  15.067 -0.5224 -2.7218 -1.8456
  253MPD2    H3 3841   3.728   2.909  15.242 -2.7536  1.9617 -1.2826
  253MPD2     N 3842   3.575   2.611  15.542 -0.1724  0.5114 -0.1383
  253MPD2    H5 3843   3.622   2.654  15.621 -0.5351  1.6968 -0.5765
  253MPD2    N1 3844   3.435   2.572  15.093 -0.0451 -0.1358 -0.2441
  253MPD2    H7 3845   3.387   2.489  15.127  1.1440 -0.2479  1.1571
  254TMC3    C1 3846   3.466   2.515  15.725 -0.4178  0.3855 -0.1163
  254TMC3    C2 3847   3.345   2.465  15.779 -0.1444  0.2314  0.3076
  254TMC3    C3 3848   3.357   2.420  15.912 -0.4429  0.4703 -0.2652
  254TMC3    C4 3849   3.585   2.525  15.798  0.9770 -0.1979  0.4926
  254TMC3    C5 3850   3.586   2.465  15.920  0.3545 -0.0846 -0.4588
  254TMC3    C6 3851   3.478   2.409  15.976 -0.5412  0.6186  0.3618
  254TMC3     C 3852   3.469   2.537  15.585  0.0668  0.1933  0.1736
  254TMC3     O 3853   3.374   2.482  15.526  0.0695 -0.7186 -0.4559
  254TMC3     H 3854   3.247   2.466  15.732 -0.0587 -0.3470  0.1196
  254TMC3    H1 3855   3.683   2.550  15.758  1.2095 -0.5036  0.8667
  254TMC3    H2 3856   3.478   2.372  16.078  2.1405 -0.1369  0.0846
  254TMC3    C7 3857   3.707   2.429  15.986  0.0785 -0.0154  0.1058
  254TMC3    C8 3858   3.243   2.364  15.974  0.9011  0.4265  0.3397
  254TMC3    O1 3859   3.686   2.328  16.047  0.2180  0.1449 -0.4811
  254TMC3    O2 3860   3.238   2.390  16.090  0.2813 -0.0249  0.7319
  255MPD2     C 3861   1.539   1.145  10.579 -0.4082  0.0852 -0.5724
  255MPD2    C1 3862   1.565   1.275  10.543 -0.7733  0.2688  0.2927
  255MPD2    C2 3863   1.690   1.306  10.508  0.3799 -0.3213 -0.0849
  255MPD2    C3 3864   1.787   1.205  10.481 -0.6142 -0.9481 -0.2459
  255MPD2    C4 3865   1.758   1.076  10.517 -0.2259 -0.0290  0.6380
  255MPD2    C5 3866   1.635   1.044  10.562  0.1524 -0.1019 -0.5560
  255MPD2     H 3867   1.711   1.405  10.468  1.2175 -0.1188  0.8624
  255MPD2    H1 3868   1.826   0.994  10.497 -0.1807 -0.1844  1.4084
  255MPD2    H2 3869   1.446   1.119  10.627  0.0315  0.5086  0.5186
  255MPD2    H3 3870   1.610   0.946  10.602 -0.8736  0.4660  0.1967
  255MPD2     N 3871   1.914   1.246  10.430 -0.2507  0.1204 -0.2945
  255MPD2    H5 3872   1.919   1.344  10.405  0.2438 -0.1143 -1.1013
  255MPD2    N1 3873   1.462   1.365  10.543 -0.2660  0.4512  0.5636
  255MPD2    H7 3874   1.369   1.325  10.545 -0.7444  1.4115 -2.2569
  256TMC3    C1 3875   1.355   1.570  10.490  0.2984 -0.7023  0.2911
  256TMC3    C2 3876   1.380   1.703  10.482  0.3659 -0.0396  0.1213
  256TMC3    C3 3877   1.324   1.779  10.386 -0.0100  0.0614  0.3448
  256TMC3    C4 3878   1.276   1.514  10.393 -0.3643  0.4737 -0.0964
  256TMC3    C5 3879   1.227   1.594  10.297 -0.3757 -0.3928  0.0925
  256TMC3    C6 3880   1.261   1.726  10.284 -0.3607  0.4221  0.1445
  256TMC3     C 3881   1.479   1.505  10.538  0.2842  0.1639  0.6225
  256TMC3     O 3882   1.576   1.578  10.565  0.2414 -0.0748 -0.2464
  256TMC3     H 3883   1.440   1.753  10.557 -1.5911  1.1065  0.9183
  256TMC3    H1 3884   1.264   1.407  10.378 -0.9643  0.2416  1.9807
  256TMC3    H2 3885   1.237   1.800  10.208 -1.7279 -1.3946 -1.1794
  256TMC3    C7 3886   1.172   1.526  10.178  0.9395  0.1704  0.9706
  256TMC3    C8 3887   1.402   1.901  10.362 -0.2886 -0.0764  0.2691
  256TMC3    O1 3888   1.195   1.407  10.165 -0.3457  0.3434  0.1053
  256TMC3    O2 3889   1.427   1.966  10.465  0.2078 -0.1677 -0.1775
  257MPD2     C 3890   1.189   3.027  12.874  0.4101  0.2283  0.2965
  257MPD2    C1 3891   1.147   2.919  12.801 -0.8139  0.6649 -0.4333
  257MPD2    C2 3892   1.138   2.796  12.862  0.7192 -0.6060  0.2137
  257MPD2    C3 3893   1.160   2.786  13.001 -0.3676 -0.3640  0.1350
  257MPD2    C4 3894   1.181   2.897  13.078 -0.1667 -0.2971 -0.1803
  257MPD2    C5 3895   1.205   3.013  13.009  0.4606 -0.2703  1.1706
  257MPD2     H 3896   1.112   2.706  12.807  2.6219  0.0901 -1.7979
  257MPD2    H1 3897   1.206   2.905  13.183 -1.2937 -0.2392  0.0806
  257MPD2    H2 3898   1.199   3.129  12.839  0.5188 -0.0572 -0.5152
  257MPD2    H3 3899   1.256   3.086  13.071  1.6087 -0.4907  0.4880
  257MPD2     N 3900   1.174   2.656  13.061  0.4646  0.0396  0.0743
  257MPD2    H5 3901   1.170   2.582  12.992 -0.7731  0.0254  0.1507
  257MPD2    N1 3902   1.107   2.949  12.666  0.1450 -0.4777 -0.4224
  257MPD2    H7 3903   1.120   3.046  12.638 -1.1067 -0.5151 -1.1574
  258TMC3    C1 3904   1.202   2.488  13.218  0.2247 -0.8380 -0.6738
  258TMC3    C2 3905   1.260   2.398  13.136 -0.3172 -0.7752  0.4888
  258TMC3    C3 3906   1.306   2.282  13.190  1.0200  0.8348 -0.2847
  258TMC3    C4 3907   1.175   2.456  13.350 -0.4543  0.6915 -0.3436
  258TMC3    C5 3908   1.189   2.325  13.393  0.8079 -0.1522  0.7971
  258TMC3    C6 3909   1.274   2.239  13.317 -0.6158  0.4216  0.4438
  258TMC3     C 3910   1.201   2.628  13.192  0.6221  0.2625 -0.3813
  258TMC3     O 3911   1.217   2.704  13.286 -0.2973 -0.0601  0.1241
  258TMC3     H 3912   1.309   2.432  13.046 -1.5933 -1.8809 -0.6346
  258TMC3    H1 3913   1.107   2.524  13.400 -0.8069 -0.8675  1.3039
  258TMC3    H2 3914   1.318   2.145  13.347  0.3009  0.5553 -0.4759
  258TMC3    C7 3915   1.153   2.283  13.526  0.3882 -0.2078  0.5264
  258TMC3    C8 3916   1.369   2.179  13.110 -0.6056  0.1192  0.4712
  258TMC3    O1 3917   1.085   2.361  13.585 -0.2801 -0.0682  0.3388
  258TMC3    O2 3918   1.379   2.067  13.159 -0.2632 -0.9707 -0.0796
  259MPD2     C 3919   0.704   4.154   1.069  0.6210  0.2551  0.8508
  259MPD2    C1 3920   0.680   4.018   1.086  0.6354  0.4090 -0.5780
  259MPD2    C2 3921   0.740   3.926   1.000 -0.3808 -0.4088  0.7239
  259MPD2    C3 3922   0.834   3.970   0.911  0.2669  0.2118 -0.1354
  259MPD2    C4 3923   0.852   4.106   0.888 -0.2536 -0.2581  0.1238
  259MPD2    C5 3924   0.792   4.190   0.973  0.2057 -0.0445  0.2399
  259MPD2     H 3925   0.728   3.820   1.016  0.6159 -0.6005  0.1964
  259MPD2    H1 3926   0.911   4.141   0.804 -0.6748 -1.3610 -0.6483
  259MPD2    H2 3927   0.670   4.242   1.121 -1.0012  0.4110 -0.4677
  259MPD2    H3 3928   0.800   4.297   0.957  1.2354 -0.1012  0.4072
  259MPD2     N 3929   0.913   3.879   0.841 -0.1054 -0.7490  0.1050
  259MPD2    H5 3930   0.899   3.780   0.860 -0.7513 -1.3006 -3.1564
  259MPD2    N1 3931   0.593   3.973   1.186 -0.6882 -0.1191 -0.4073
  259MPD2    H7 3932   0.559   4.054   1.238  0.5342  0.0261  0.1533
  260TMC3    C1 3933   1.068   3.775   0.702 -0.2584 -0.2636 -0.1810
  260TMC3    C2 3934   1.189   3.781   0.638  0.4589  0.3283 -0.4999
  260TMC3    C3 3935   1.232   3.666   0.577 -0.6844  0.1981 -0.8648
  260TMC3    C4 3936   0.981   3.667   0.694  0.8677  0.0804 -0.0205
  260TMC3    C5 3937   1.035   3.557   0.631  0.7851 -0.2497 -0.5858
  260TMC3    C6 3938   1.155   3.561   0.571  0.8599 -0.4469  0.2736
  260TMC3     C 3939   1.010   3.906   0.747  0.1363 -0.7396  0.1542
  260TMC3     O 3940   1.047   4.014   0.704 -0.6194 -0.1951  0.2398
  260TMC3     H 3941   1.251   3.868   0.657  1.0775 -0.2502  0.1340
  260TMC3    H1 3942   0.875   3.686   0.704  0.8744  0.6789 -0.9949
  260TMC3    H2 3943   1.201   3.471   0.531 -0.8344 -1.2011  0.0026
  260TMC3    C7 3944   0.947   3.472   0.553  0.3827 -0.4511  0.0811
  260TMC3    C8 3945   1.315   3.693   0.464 -0.4645 -0.1061 -0.0276
  260TMC3    O1 3946   0.998   3.432   0.454 -0.0821 -0.1293  0.2845
  260TMC3    O2 3947   1.393   3.787   0.463  0.4876 -0.1604  0.3398
  261MPD2     C 3948   1.657   2.630  12.204  0.7015 -0.4863 -0.6796
  261MPD2    C1 3949   1.738   2.688  12.299  0.7652  0.2630  0.2361
  261MPD2    C2 3950   1.801   2.804  12.247 -0.5140 -0.6321 -0.4035
  261MPD2    C3 3951   1.790   2.850  12.116 -0.3247  0.7551  0.5885
  261MPD2    C4 3952   1.713   2.776  12.029 -0.1123  0.4484  0.3958
  261MPD2    C5 3953   1.647   2.667  12.075  0.4301  0.1376 -0.0963
  261MPD2     H 3954   1.868   2.856  12.315  0.9336  0.2711 -2.5534
  261MPD2    H1 3955   1.699   2.800  11.925  2.0053 -2.1517 -0.4970
  261MPD2    H2 3956   1.597   2.543  12.228  0.0705 -0.1017 -0.8471
  261MPD2    H3 3957   1.582   2.604  12.015  1.1917 -0.6701 -0.0661
  261MPD2     N 3958   1.859   2.957  12.062 -0.0639  0.5096  0.2685
  261MPD2    H5 3959   1.835   2.996  11.971  1.8576 -0.4203 -0.6560
  261MPD2    N1 3960   1.745   2.653  12.437 -0.3866  0.3419  0.9010
  261MPD2    H7 3961   1.801   2.710  12.500 -0.1386 -2.6804  3.4224
  262TMC3    C1 3962   1.963   3.163  12.089 -0.6525  0.3317 -0.2404
  262TMC3    C2 3963   1.846   3.230  12.054  0.3201 -0.2309 -0.7312
  262TMC3    C3 3964   1.872   3.361  12.017 -0.7696  0.2501  0.8468
  262TMC3    C4 3965   2.081   3.226  12.108 -0.3333 -0.5212 -0.2836
  262TMC3    C5 3966   2.108   3.356  12.072  0.8364 -0.9178 -0.0057
  262TMC3    C6 3967   1.995   3.421  12.031 -0.8070 -0.3745 -0.3945
  262TMC3     C 3968   1.955   3.023  12.133 -0.2050 -0.8051  0.5563
  262TMC3     O 3969   2.023   2.992  12.230 -0.0623 -0.2579 -0.0866
  262TMC3     H 3970   1.751   3.181  12.037 -0.3424  1.0528 -0.7787
  262TMC3    H1 3971   2.171   3.170  12.131  0.6312  0.5918 -1.2950
  262TMC3    H2 3972   2.003   3.528  12.017 -0.4665 -0.3808 -0.2545
  262TMC3    C7 3973   2.228   3.371  11.990  0.2064  0.5260  0.5902
  262TMC3    C8 3974   1.822   3.397  11.888  0.3377 -0.5636 -0.1896
  262TMC3    O1 3975   2.337   3.321  12.012 -1.0006  0.0044 -0.2584
  262TMC3    O2 3976   1.894   3.481  11.834  0.0631  0.1748 -0.1099
  263MPD2     C 3977   2.913   1.830  10.904 -0.5244  0.3586 -0.2505
  263MPD2    C1 3978   2.987   1.945  10.936 -0.0477 -0.4108 -0.3848
  263MPD2    C2 3979   2.963   2.057  10.859 -0.1307 -0.0019  0.2221
  263MPD2    C3 3980   2.899   2.045  10.735  0.4084 -0.5970 -0.0719
  263MPD2    C4 3981   2.817   1.934  10.709 -0.0204 -0.0044  0.2484
  263MPD2    C5 3982   2.826   1.829  10.804 -0.2433 -0.3846  0.4400
  263MPD2     H 3983   3.016   2.150  10.877 -0.5215  0.7863 -2.5895
  263MPD2    H1 3984   2.761   1.932  10.616  0.6320 -0.1321 -0.1425
  263MPD2    H2 3985   2.931   1.739  10.962 -1.6298  0.3123  0.0235
  263MPD2    H3 3986   2.764   1.741  10.793 -0.5466 -0.2565  1.0766
  263MPD2     N 3987   2.904   2.154  10.643  0.3335 -0.7462 -0.0555
  263MPD2    H5 3988   2.923   2.244  10.686  2.1854 -1.5589  0.8520
  263MPD2    N1 3989   3.083   1.931  11.040 -0.0042  0.0728 -0.3245
  263MPD2    H7 3990   3.107   1.838  11.073 -2.1431  0.4831  2.4584
  264TMC3    C1 3991   2.906   2.284  10.448  0.4150 -0.6749  0.0941
  264TMC3    C2 3992   2.909   2.395  10.531  0.3308 -0.4001  0.2966
  264TMC3    C3 3993   3.003   2.491  10.509 -0.2278  0.9061  1.2642
  264TMC3    C4 3994   2.988   2.271  10.345  0.1292 -0.3447  0.5602
  264TMC3    C5 3995   3.079   2.371  10.327 -0.6176  0.3016  0.2900
  264TMC3    C6 3996   3.087   2.485  10.400  0.5450 -0.5246  0.0888
  264TMC3     C 3997   2.882   2.152  10.506  0.6861  0.0725  0.2381
  264TMC3     O 3998   2.866   2.054  10.432 -0.4957 -0.0094  1.0293
  264TMC3     H 3999   2.841   2.400  10.614  1.0960  0.9453  0.8392
  264TMC3    H1 4000   2.987   2.186  10.278  0.8695 -1.5665  2.0690
  264TMC3    H2 4001   3.152   2.567  10.374 -1.0096  0.7450  0.2057
  264TMC3    C7 4002   3.162   2.365  10.210 -0.0266  0.6851 -0.2380
  264TMC3    C8 4003   2.992   2.626  10.570 -0.1265  0.0351 -0.1954
  264TMC3    O1 4004   3.103   2.305  10.121  0.0305 -0.1430  0.0800
  264TMC3    O2 4005   3.038   2.713  10.495  0.1694 -0.2396 -0.3465
  265MPD2     C 4006   0.206   2.132  15.455  0.5177 -0.7898 -0.0270
  265MPD2    C1 4007   0.193   2.251  15.395  0.3716  0.1041 -0.1304
  265MPD2    C2 4008   0.259   2.281  15.281  0.3704  0.4635  0.4571
  265MPD2    C3 4009   0.346   2.189  15.230  0.3373  0.3016 -0.4770
  265MPD2    C4 4010   0.354   2.061  15.294  0.0515  0.4902 -0.2803
  265MPD2    C5 4011   0.280   2.027  15.401 -0.4421 -0.0990  0.3020
  265MPD2     H 4012   0.245   2.377  15.233  1.2949 -0.1804 -1.0967
  265MPD2    H1 4013   0.421   1.981  15.263 -3.6496 -2.5698 -0.3385
  265MPD2    H2 4014   0.148   2.116  15.545  1.3325  0.8898  0.7886
  265MPD2    H3 4015   0.277   1.930  15.450  0.1394  0.9738  2.4590
  265MPD2     N 4016   0.413   2.209  15.111  0.1350  0.1062 -0.1700
  265MPD2    H5 4017   0.460   2.130  15.067 -0.7221  1.0981 -2.8709
  265MPD2    N1 4018   0.111   2.356  15.449  0.7074 -0.1196 -0.5115
  265MPD2    H7 4019   0.086   2.432  15.387  1.0858 -1.5509 -2.3980
  266TMC3    C1 4020   4.704   2.478  15.599  0.4319  0.7522 -0.3136
  266TMC3    C2 4021   4.686   2.500  15.730 -0.2043 -0.0864  0.3491
  266TMC3    C3 4022   4.644   2.622  15.777  0.2035  0.5772 -0.2837
  266TMC3    C4 4023   4.659   2.573  15.509  0.3977  0.2879 -0.7321
  266TMC3    C5 4024   4.610   2.692  15.557 -0.0635  0.9035  0.1963
  266TMC3    C6 4025   4.608   2.721  15.689 -1.3309  0.0560  0.1153
  266TMC3     C 4026   0.046   2.356  15.573 -0.1945  0.1320 -0.5285
  266TMC3     O 4027   0.025   2.264  15.648 -0.4023 -0.3168  0.3174
  266TMC3     H 4028   0.011   2.429  15.795  2.9038  2.6914  1.0498
  266TMC3    H1 4029   4.660   2.549  15.403 -2.3299  0.8215 -0.8754
  266TMC3    H2 4030   4.561   2.813  15.723 -0.9352  0.7704 -1.2722
  266TMC3    C7 4031   4.526   2.769  15.469 -0.3589 -0.1338  1.0393
  266TMC3    C8 4032   4.621   2.627  15.921  0.5459  0.6435  0.7992
  266TMC3    O1 4033   4.484   2.704  15.370 -0.0556 -0.1766 -0.1820
  266TMC3    O2 4034   4.592   2.523  15.982 -0.4705 -0.1894 -0.1774
  267MPD2     C 4035   2.848   3.231  17.547 -0.5278 -0.1819  0.5607
  267MPD2    C1 4036   2.833   3.342  17.462 -0.4863  0.1129 -0.6151
  267MPD2    C2 4037   2.737   3.342  17.368 -0.5401 -0.3430 -0.0448
  267MPD2    C3 4038   2.645   3.243  17.366 -0.5476  0.0878 -0.3291
  267MPD2    C4 4039   2.658   3.133  17.446 -0.0700 -0.3794  0.1957
  267MPD2    C5 4040   2.760   3.129  17.539  0.5988 -0.0805  0.4652
  267MPD2     H 4041   2.741   3.433  17.309 -0.0832  0.2765  0.9469
  267MPD2    H1 4042   2.584   3.055  17.437 -1.4467  1.0138 -0.4686
  267MPD2    H2 4043   2.923   3.225  17.625 -0.2843  2.1385  0.5125
  267MPD2    H3 4044   2.756   3.046  17.609 -0.8638 -0.5741 -0.2067
  267MPD2     N 4045   2.532   3.239  17.280  0.8771 -0.4566  0.1102
  267MPD2    H5 4046   2.472   3.158  17.280 -2.1455  1.8228 -3.6866
  267MPD2    N1 4047   2.924   3.456  17.479 -0.1884 -0.0974  0.2961
  267MPD2    H7 4048   3.002   3.433  17.540 -1.0289 -4.2530 -0.2360
  268TMC3    C1 4049   3.051   3.650  17.429 -0.0262 -0.4627 -0.6740
  268TMC3    C2 4050   3.079   3.731  17.327 -0.5701 -0.1434 -0.8978
  268TMC3    C3 4051   3.170   3.828  17.357 -0.6804 -0.3562  0.1760
  268TMC3    C4 4052   3.106   3.661  17.554  0.1534 -0.1088 -0.2654
  268TMC3    C5 4053   3.188   3.763  17.581  0.2630  0.7849 -0.0854
  268TMC3    C6 4054   3.234   3.846  17.481  0.4099 -0.3213  0.2324
  268TMC3     C 4055   2.924   3.579  17.420  0.3423  0.5025 -0.0953
  268TMC3     O 4056   2.840   3.632  17.348 -0.2612  0.1946  0.5667
  268TMC3     H 4057   3.009   3.732  17.244  2.0367 -4.0610 -3.1445
  268TMC3    H1 4058   3.071   3.598  17.635  1.5787  0.6085  0.9072
  268TMC3    H2 4059   3.287   3.938  17.505 -2.8634  1.5094  0.5098
  268TMC3    C7 4060   3.254   3.770   0.015 -0.2163 -0.7522 -0.3311
  268TMC3    C8 4061   3.187   3.940  17.269 -0.5266  0.5602 -0.1899
  268TMC3    O1 4062   3.193   3.730   0.115  0.7471  0.1051  0.2345
  268TMC3    O2 4063   3.266   4.029  17.299  0.5951  0.0155  0.0197
  269MPD2     C 4064   2.845   2.835  15.550 -0.1324  0.8754  0.1401
  269MPD2    C1 4065   2.717   2.874  15.604 -0.3722  0.9664  0.2724
  269MPD2    C2 4066   2.688   3.006  15.599 -0.5991  0.3571 -0.4925
  269MPD2    C3 4067   2.767   3.102  15.550 -0.5279 -0.7945  0.3795
  269MPD2    C4 4068   2.889   3.060  15.494 -0.3956  0.0044  0.4292
  269MPD2    C5 4069   2.929   2.929  15.499 -0.0748 -0.2158  0.0129
  269MPD2     H 4070   2.591   3.044  15.631 -0.9521 -2.0923  1.4001
  269MPD2    H1 4071   2.965   3.132  15.466 -0.3157 -0.6567 -1.0380
  269MPD2    H2 4072   2.881   2.734  15.562  0.1253  0.7654 -1.5058
  269MPD2    H3 4073   3.028   2.900  15.467 -0.0315 -0.3024  0.2213
  269MPD2     N 4074   2.724   3.238  15.538  0.5347 -0.0858  0.3951
  269MPD2    H5 4075   2.625   3.259  15.546  0.4626 -0.1381 -0.3831
  269MPD2    N1 4076   2.628   2.776  15.654  0.3572 -0.1542  0.3523
  269MPD2    H7 4077   2.656   2.679  15.656 -1.8895 -0.7958  1.3632
  270TMC3    C1 4078   2.433   2.670  15.744 -0.1177 -0.3633 -0.0540
  270TMC3    C2 4079   2.296   2.672  15.729  0.8195  0.9542  0.6305
  270TMC3    C3 4080   2.232   2.549  15.729  0.5099 -0.1271  0.2447
  270TMC3    C4 4081   2.503   2.552  15.763  0.4395 -0.0658  0.3811
  270TMC3    C5 4082   2.435   2.436  15.750  0.6257 -0.0517  1.1585
  270TMC3    C6 4083   2.299   2.433  15.726  0.3499 -0.9184 -0.3693
  270TMC3     C 4084   2.502   2.797  15.717 -0.4469  0.1446  0.3516
  270TMC3     O 4085   2.454   2.893  15.768  0.2188 -0.1771 -0.2111
  270TMC3     H 4086   2.249   2.768  15.711 -0.9937 -0.1863 -0.6042
  270TMC3    H1 4087   2.602   2.550  15.807  1.2724  1.6038 -1.4617
  270TMC3    H2 4088   2.238   2.343  15.730 -0.3583 -0.3740  1.0251
  270TMC3    C7 4089   2.513   2.322  15.722  0.2689  0.1645 -0.0683
  270TMC3    C8 4090   2.102   2.545  15.674  1.4070 -0.0572 -0.4140
  270TMC3    O1 4091   2.631   2.334  15.703  0.4144  0.4365  0.1108
  270TMC3    O2 4092   2.027   2.464  15.732  0.1740 -0.0143 -0.4624
  271MPD2     C 4093   1.797   2.570  13.978 -0.1316 -0.7325  0.1862
  271MPD2    C1 4094   1.714   2.534  14.087 -0.3619 -0.4122 -0.8945
  271MPD2    C2 4095   1.596   2.608  14.106 -0.6416  0.4998 -0.2511
  271MPD2    C3 4096   1.551   2.702  14.015  0.3508  0.5874 -0.1715
  271MPD2    C4 4097   1.628   2.718  13.900  0.2855  0.0634  0.5944
  271MPD2    C5 4098   1.752   2.665  13.888 -0.2673  0.1321 -0.3228
  271MPD2     H 4099   1.526   2.590  14.187 -1.7510 -1.1508 -1.6017
  271MPD2    H1 4100   1.593   2.783  13.820 -0.2507 -1.0624 -0.0944
  271MPD2    H2 4101   1.902   2.544  13.972 -0.1498 -0.9058  0.6670
  271MPD2    H3 4102   1.814   2.704  13.808  0.1051  0.8546  0.3226
  271MPD2     N 4103   1.436   2.781  14.027  0.2045  0.1979 -0.1363
  271MPD2    H5 4104   1.430   2.850  13.952  1.5730  2.6109  1.9635
  271MPD2    N1 4105   1.742   2.438  14.179 -0.2775  0.5371 -0.1010
  271MPD2    H7 4106   1.689   2.441  14.266  0.6014 -2.3982  0.5561
  272TMC3    C1 4107   1.872   2.267  14.289  0.7254 -0.0493  0.5216
  272TMC3    C2 4108   1.999   2.217  14.296 -0.2008 -0.8449  0.1475
  272TMC3    C3 4109   2.063   2.193  14.415  0.9435  0.7172 -0.2825
  272TMC3    C4 4110   1.810   2.308  14.399  0.4573  0.0009 -0.1657
  272TMC3    C5 4111   1.874   2.278  14.516 -0.2151  1.4394 -0.0238
  272TMC3    C6 4112   2.008   2.231  14.529 -0.5536 -1.0099  0.1667
  272TMC3     C 4113   1.841   2.343  14.167  0.0891 -0.0615  0.3541
  272TMC3     O 4114   1.901   2.329  14.062 -0.1179 -0.3695 -0.1656
  272TMC3     H 4115   2.043   2.169  14.209 -3.3285  1.0166 -2.4525
  272TMC3    H1 4116   1.708   2.343  14.406  0.5164  0.1513 -0.0362
  272TMC3    H2 4117   2.052   2.210  14.626  0.1157  2.5914  0.6351
  272TMC3    C7 4118   1.812   2.340  14.629  0.8537  0.0040  0.0112
  272TMC3    C8 4119   2.206   2.227  14.407  0.5301  0.3084  0.8562
  272TMC3    O1 4120   1.699   2.312  14.661 -0.2784 -0.5454 -0.3728
  272TMC3    O2 4121   2.248   2.285  14.300 -0.8671 -0.2293  0.4702
  273MPD2     C 4122   3.058   1.323  11.180  0.1779  0.1013  0.2357
  273MPD2    C1 4123   3.198   1.307  11.160 -0.2330 -0.4003 -0.1191
  273MPD2    C2 4124   3.237   1.252  11.042  0.7396 -0.5375  0.2845
  273MPD2    C3 4125   3.149   1.226  10.934  0.1463  0.0808  0.7944
  273MPD2    C4 4126   3.018   1.266  10.949  0.2250  0.4083 -0.7200
  273MPD2    C5 4127   2.976   1.302  11.075 -0.4973  0.6596  0.9700
  273MPD2     H 4128   3.342   1.230  11.029 -0.3227 -4.6912 -1.3915
  273MPD2    H1 4129   2.955   1.256  10.861 -0.2349 -2.2420 -0.1101
  273MPD2    H2 4130   3.023   1.364  11.274  0.8497 -0.6438  0.8139
  273MPD2    H3 4131   2.870   1.319  11.087 -0.7832 -0.9371  0.6728
  273MPD2     N 4132   3.188   1.167  10.809  0.1836  0.0534 -0.0902
  273MPD2    H5 4133   3.113   1.174  10.740 -0.2204 -1.8997  0.1476
  273MPD2    N1 4134   3.285   1.345  11.265  0.1184 -0.0848  0.0564
  273MPD2    H7 4135   3.234   1.397  11.336 -2.5348 -2.3429 -0.2217
  274TMC3    C1 4136   3.356   1.139  10.644 -0.3194  0.3529  0.0224
  274TMC3    C2 4137   3.273   1.202  10.556 -0.1136  0.3105  0.1066
  274TMC3    C3 4138   3.323   1.305  10.483 -0.5442 -0.1491 -0.3909
  274TMC3    C4 4139   3.489   1.167  10.639 -0.1756 -0.3301 -0.1018
  274TMC3    C5 4140   3.528   1.285  10.581 -0.0509  0.3529  0.0892
  274TMC3    C6 4141   3.448   1.348  10.485 -0.1451  0.1614 -0.4666
  274TMC3     C 4142   3.309   1.105  10.778  0.2891 -0.5129  0.1075
  274TMC3     O 4143   3.389   1.065  10.857  0.2474  0.3915  0.5336
  274TMC3     H 4144   3.171   1.173  10.535 -0.2552  1.2305 -0.4914
  274TMC3    H1 4145   3.560   1.129  10.712 -1.8730  0.3933  1.9590
  274TMC3    H2 4146   3.498   1.434  10.442 -2.7022  0.7924 -2.1524
  274TMC3    C7 4147   3.573   1.381  10.681  0.2139  0.1533  0.4794
  274TMC3    C8 4148   3.229   1.387  10.410  0.4088 -0.6108  0.0559
  274TMC3    O1 4149   3.506   1.491  10.688 -0.0980 -0.1714  0.2033
  274TMC3    O2 4150   3.107   1.373  10.423  0.0302  0.0968 -0.6682
  275MPD2     C 4151   3.410   3.184  14.647  0.5233  0.5017  0.6413
  275MPD2    C1 4152   3.341   3.303  14.656  0.2389  0.0855  0.0379
  275MPD2    C2 4153   3.224   3.318  14.585 -0.9469 -0.4594  0.3969
  275MPD2    C3 4154   3.181   3.220  14.500 -0.1053  0.3616 -0.5654
  275MPD2    C4 4155   3.255   3.103  14.485  0.3740 -0.4738 -0.5305
  275MPD2    C5 4156   3.361   3.088  14.564 -0.0394  0.5427 -0.3627
  275MPD2     H 4157   3.167   3.408  14.603  1.9618  1.4502  0.1481
  275MPD2    H1 4158   3.225   3.012  14.434  0.0861  0.8775 -2.7652
  275MPD2    H2 4159   3.487   3.160  14.719  1.4175 -0.6389 -0.6957
  275MPD2    H3 4160   3.418   2.996  14.552 -1.0214 -0.1979  0.6837
  275MPD2     N 4161   3.061   3.219  14.427  0.3516 -0.2739 -0.0591
  275MPD2    H5 4162   3.047   3.144  14.360 -1.5464  1.5526 -1.6893
  275MPD2    N1 4163   3.376   3.406  14.747 -0.1070  0.0331  0.1832
  275MPD2    H7 4164   3.312   3.484  14.757  1.4978  1.4620 -0.5901
  276TMC3    C1 4165   3.454   3.493  14.951 -0.2494  0.5817 -0.4128
  276TMC3    C2 4166   3.333   3.463  15.008 -1.2707 -0.3395  0.2524
  276TMC3    C3 4167   3.326   3.452  15.144 -0.5914 -0.1803 -0.5022
  276TMC3    C4 4168   3.569   3.497  15.037  0.1094 -0.1608  0.1722
  276TMC3    C5 4169   3.553   3.489  15.176 -0.3544  0.1712 -0.4178
  276TMC3    C6 4170   3.428   3.458  15.227  0.2292  0.1428  0.8417
  276TMC3     C 4171   3.481   3.406  14.835  0.0991 -0.0740  0.5058
  276TMC3     O 4172   3.570   3.325  14.854 -0.1247 -0.2245 -0.2689
  276TMC3     H 4173   3.246   3.462  14.944  0.4168  0.6777 -2.0453
  276TMC3    H1 4174   3.662   3.526  14.990  0.2793 -0.8152  0.1134
  276TMC3    H2 4175   3.402   3.462  15.332 -2.0662  0.1737  0.2693
  276TMC3    C7 4176   3.665   3.505  15.263 -0.5578 -0.3064 -0.0195
  276TMC3    C8 4177   3.217   3.378  15.190 -0.2842 -0.4051  0.0681
  276TMC3    O1 4178   3.642   3.527  15.381 -0.3329  0.5271  0.1979
  276TMC3    O2 4179   3.166   3.413  15.296  0.1317 -0.5736  0.4615
  277MPD2     C 4180   0.235   2.742  13.186  0.0927 -0.4305  0.2995
  277MPD2    C1 4181   0.106   2.782  13.206  0.4782  0.7456  0.6083
  277MPD2    C2 4182   0.035   2.735  13.317  0.0146 -0.5873  0.5590
  277MPD2    C3 4183   0.103   2.652  13.416 -0.3351  0.0682  0.0054
  277MPD2    C4 4184   0.237   2.615  13.383 -0.2686 -0.1312 -0.5849
  277MPD2    C5 4185   0.298   2.659  13.274 -0.2931  0.4316 -0.0613
  277MPD2     H 4186   4.656   2.760  13.342 -0.2064  1.8602 -2.8123
  277MPD2    H1 4187   0.297   2.563  13.457 -0.5114 -1.4952 -1.3471
  277MPD2    H2 4188   0.288   2.778  13.098 -2.4978  0.3428 -0.9380
  277MPD2    H3 4189   0.402   2.633  13.258 -0.9054 -1.0641 -1.7100
  277MPD2     N 4190   0.041   2.625  13.539  0.4371  0.2977 -0.2995
  277MPD2    H5 4191   4.672   2.666  13.546 -0.3108 -1.1080 -1.7469
  277MPD2    N1 4192   0.053   2.869  13.101  0.1178 -0.3108 -0.3096
  277MPD2    H7 4193   0.110   2.885  13.019  1.3011  0.5742  0.6928
  278TMC3    C1 4194   0.013   2.568  13.761 -0.0293 -0.7258  0.0083
  278TMC3    C2 4195   0.007   2.462  13.841 -0.4415 -0.1908 -0.5085
  278TMC3    C3 4196   4.631   2.446  13.925  0.6058  0.9996 -0.2012
  278TMC3    C4 4197   4.650   2.671  13.767  0.3276  0.1697  0.1598
  278TMC3    C5 4198   4.547   2.656  13.857  0.5595 -0.0814 -0.1365
  278TMC3    C6 4199   4.532   2.542  13.935 -0.3050  0.3416  0.5987
  278TMC3     C 4200   0.102   2.563  13.649 -0.4428 -0.1524  0.1291
  278TMC3     O 4201   0.201   2.487  13.648  0.2468 -0.3689 -0.1684
  278TMC3     H 4202   0.080   2.383  13.829 -0.5927 -0.3112 -0.6466
  278TMC3    H1 4203   4.659   2.760  13.706  2.2314  0.1922  0.4695
  278TMC3    H2 4204   4.449   2.527  14.004 -2.1834 -0.5561 -1.8199
  278TMC3    C7 4205   4.439   2.759  13.872  0.1722  0.1218  0.3050
  278TMC3    C8 4206   4.612   2.313  13.970 -0.3550 -0.3783 -0.1631
  278TMC3    O1 4207   4.472   2.875  13.852  0.0226  0.0178  0.0620
  278TMC3    O2 4208   4.714   2.247  14.001 -0.1047 -0.2727 -0.6688
  279MPD2     C 4209   4.643   2.728   0.447 -0.1945 -0.2001 -0.0540
  279MPD2    C1 4210   4.583   2.617   0.398  0.1900 -0.3125 -0.3304
  279MPD2    C2 4211   4.536   2.625   0.264 -0.4728 -0.1134 -0.6050
  279MPD2    C3 4212   4.578   2.724   0.184  0.3174 -0.5050 -0.1178
  279MPD2    C4 4213   4.655   2.826   0.230 -0.0344 -0.4954 -0.5232
  279MPD2    C5 4214   4.681   2.829   0.362 -0.3810 -0.3801  0.4102
  279MPD2     H 4215   4.476   2.544   0.224  0.6113 -0.9651 -0.4890
  279MPD2    H1 4216   4.679   2.910   0.166  0.9424 -1.5414 -1.5373
  279MPD2    H2 4217   4.663   2.736   0.553 -1.6084 -0.6171  0.2378
  279MPD2    H3 4218   0.008   2.914   0.405 -1.6674 -0.5333  2.2045
  279MPD2     N 4219   4.516   2.748   0.055  0.4615 -0.3205 -0.7857
  279MPD2    H5 4220   4.550   2.822  17.690 -0.8613  0.8285 -0.1262
  279MPD2    N1 4221   4.558   2.514   0.485 -0.4492 -0.3185  0.6138
  279MPD2    H7 4222   4.574   2.534   0.583 -0.9113 -0.4376  0.7129
  280TMC3    C1 4223   4.416   2.347   0.552 -0.3131  0.5320 -0.0787
  280TMC3    C2 4224   4.332   2.252   0.504  0.1575  0.3034 -0.1296
  280TMC3    C3 4225   4.191   2.259   0.502  0.3386  0.6197  0.7341
  280TMC3    C4 4226   4.345   2.447   0.611 -0.2103 -0.9272  0.1593
  280TMC3    C5 4227   4.206   2.461   0.612  0.0735  0.2292 -0.1760
  280TMC3    C6 4228   4.128   2.361   0.567 -0.4653  0.0929 -0.2803
  280TMC3     C 4229   4.509   2.391   0.449  0.3552  0.0913 -0.3007
  280TMC3     O 4230   4.499   2.348   0.335 -0.3683 -0.5796 -0.1451
  280TMC3     H 4231   4.381   2.168   0.455  1.6770  0.3260  1.3732
  280TMC3    H1 4232   4.399   2.521   0.669  1.0560 -1.1366 -0.7701
  280TMC3    H2 4233   4.020   2.375   0.567 -0.4300  0.3762 -0.1076
  280TMC3    C7 4234   4.156   2.590   0.645  0.1968  0.0148 -0.1030
  280TMC3    C8 4235   4.123   2.149   0.449  0.2132  0.1825 -0.8335
  280TMC3    O1 4236   4.236   2.653   0.721  0.0128 -0.0778  0.3922
  280TMC3    O2 4237   4.003   2.170   0.415 -0.0932 -0.0708 -0.3308
  281TMC3    C1 4238   2.845   3.042  13.222  0.4459  0.2916 -0.5103
  281TMC3    C2 4239   2.904   3.091  13.109  0.8958 -0.6317 -0.1422
  281TMC3    C3 4240   2.831   3.075  12.993  0.3409 -0.0661  0.3485
  281TMC3    C4 4241   2.732   2.964  13.220 -0.6292  0.1500  0.2578
  281TMC3    C5 4242   2.674   2.936  13.098  1.1540 -0.3610 -0.3189
  281TMC3    C6 4243   2.714   3.000  12.988  0.0506 -0.2843  0.6727
  281TMC3     C 4244   2.873   3.108  13.340  0.5482  0.8522  1.0195
  281TMC3     O 4245   2.845   3.050  13.443 -0.1691 -0.1739  0.0382
  281TMC3     H 4246   2.996   3.148  13.114  1.9479 -1.8729 -5.0419
  281TMC3    H1 4247   2.701   2.916  13.312 -1.7279 -1.5803 -1.0000
  281TMC3    H2 4248   2.669   2.973  12.894  0.4557 -1.5789  0.8536
  281TMC3    C7 4249   2.540   2.879  13.094  0.1651 -0.3413 -0.0867
  281TMC3    C8 4250   2.895   3.076  12.865  0.1360 -0.4032 -0.1461
  281TMC3    O1 4251   2.455   2.916  13.015 -0.1758  0.4110  0.1825
  281TMC3    O2 4252   2.923   2.965  12.812  0.6233 -0.0227 -0.0983
  282MPD2     C 4253   4.536   4.099  15.008  0.4842  0.1048  0.1788
  282MPD2    C1 4254   4.489   4.203  15.085  0.1758  0.2355 -0.5648
  282MPD2    C2 4255   4.395   4.294  15.034 -0.1743  0.0700  0.0727
  282MPD2    C3 4256   4.336   4.269  14.911  0.5552 -0.7856  0.1645
  282MPD2    C4 4257   4.369   4.152  14.844  0.0391  0.1889  0.4646
  282MPD2    C5 4258   4.463   4.074  14.896  0.4520 -0.4363  0.3666
  282MPD2     H 4259   4.372   4.383  15.092 -1.6600  0.4439 -1.0575
  282MPD2    H1 4260   4.313   4.116  14.759 -0.8332 -3.6831  2.6339
  282MPD2    H2 4261   4.622   4.034  15.025  0.3254 -0.3300 -0.6496
  282MPD2    H3 4262   4.501   3.988  14.841  2.3165  0.6931 -0.1068
  282MPD2     N 4263   4.260   4.367  14.845  0.0107  0.1857  0.2247
  282MPD2    H5 4264   4.268   4.462  14.879 -1.4385 -0.5525  2.5947
  282MPD2    N1 4265   4.543   4.214  15.217  0.0312  0.0825 -0.1695
  282MPD2    H7 4266   4.511   4.296  15.267 -0.5416 -1.6259  2.2194
  283TMC3    C1 4267   4.618   4.143  15.424  0.3231  0.5522 -0.4201
  283TMC3    C2 4268   4.609   4.275  15.468 -0.0459 -0.3519  0.1480
  283TMC3    C3 4269   4.583   4.291  15.601 -0.4102 -0.4775  1.5111
  283TMC3    C4 4270   4.622   4.043  15.507  0.4701 -1.0218 -0.0592
  283TMC3    C5 4271   4.600   4.061  15.640  0.0657 -0.0298  0.1420
  283TMC3    C6 4272   4.573   4.186  15.691 -0.5616  0.3587 -0.2782
  283TMC3     C 4273   4.617   4.119  15.284  0.0931 -0.2133  0.3246
  283TMC3     O 4274   4.650   4.006  15.245  0.4243  0.3329  0.1911
  283TMC3     H 4275   4.643   4.351  15.399 -0.8535  1.3186  1.6163
  283TMC3    H1 4276   4.640   3.941  15.474  1.8386 -0.4465 -1.0507
  283TMC3    H2 4277   4.551   4.207  15.795  0.4442 -1.2282  0.2691
  283TMC3    C7 4278   4.573   3.949  15.736  0.6460 -0.3197 -0.1576
  283TMC3    C8 4279   4.593   4.421  15.664  0.1485  0.2476  0.1521
  283TMC3    O1 4280   4.570   3.985  15.852  0.4057 -0.1560 -0.2510
  283TMC3    O2 4281   4.581   4.428  15.788 -0.4987  0.1022 -0.8070
  284MPD2     C 4282   2.683   4.083  11.716  0.4945  0.6600  0.4307
  284MPD2    C1 4283   2.813   4.073  11.689  0.3405 -0.6128 -0.5934
  284MPD2    C2 4284   2.896   4.036  11.796 -0.5781 -0.1180  0.3898
  284MPD2    C3 4285   2.844   4.000  11.915  0.3416  0.1920  0.3461
  284MPD2    C4 4286   2.709   4.007  11.935 -0.5331  0.3023 -0.6227
  284MPD2    C5 4287   2.628   4.053  11.838 -0.1746  0.7763 -0.3321
  284MPD2     H 4288   3.002   4.024  11.776 -0.5446 -0.8155  0.9855
  284MPD2    H1 4289   2.666   3.992  12.034 -2.7331  0.6397 -1.5433
  284MPD2    H2 4290   2.618   4.121  11.638  0.7197  0.2942  0.0665
  284MPD2    H3 4291   2.522   4.064  11.859 -0.2437 -1.3192  0.4156
  284MPD2     N 4292   2.938   3.953  12.019 -0.2177  0.1220 -0.2950
  284MPD2    H5 4293   3.037   3.960  12.001 -0.1229 -0.0838  0.1312
  284MPD2    N1 4294   2.879   4.109  11.567 -0.0469 -0.1183  0.0719
  284MPD2    H7 4295   2.980   4.100  11.560 -0.0618  0.6229 -1.0988
  285TMC3    C1 4296   2.911   4.154  11.339  0.2616 -0.4345 -0.7295
  285TMC3    C2 4297   2.958   4.035  11.284  0.4759  0.0481  0.4666
  285TMC3    C3 4298   3.079   4.043  11.224  0.3598 -0.4835 -0.2629
  285TMC3    C4 4299   2.996   4.264  11.352 -0.2117  0.0830  0.0105
  285TMC3    C5 4300   3.115   4.264  11.288 -0.4741  0.3829  0.0849
  285TMC3    C6 4301   3.166   4.151  11.224  0.1046 -0.1956  0.1581
  285TMC3     C 4302   2.814   4.137  11.452  0.1578 -0.3464 -0.0891
  285TMC3     O 4303   2.696   4.151  11.426  0.4000 -0.1686  0.2449
  285TMC3     H 4304   2.895   3.947  11.287  0.8077 -0.2065 -0.0272
  285TMC3    H1 4305   2.957   4.352  11.402 -0.0630 -0.1180  0.4745
  285TMC3    H2 4306   3.259   4.142  11.169  0.9583 -1.8047  1.8494
  285TMC3    C7 4307   3.205   4.375  11.317 -0.0564 -0.1932 -0.2159
  285TMC3    C8 4308   3.130   3.911  11.177  0.5779  0.2237  0.0077
  285TMC3    O1 4309   3.163   4.484  11.335  0.3559  0.2345 -0.3283
  285TMC3    O2 4310   3.049   3.841  11.123  0.4597 -0.1660 -0.1971
  286MPD2     C 4311   3.732   2.253   1.580  0.1172  0.2017  0.0449
  286MPD2    C1 4312   3.628   2.177   1.536 -0.0689 -0.8002 -0.4422
  286MPD2    C2 4313   3.646   2.051   1.488  0.7319 -0.5622 -0.2908
  286MPD2    C3 4314   3.773   1.992   1.494 -0.8472  0.1108  0.4570
  286MPD2    C4 4315   3.877   2.070   1.542 -0.2949  0.3818 -0.6206
  286MPD2    C5 4316   3.867   2.196   1.585  0.1790  0.2135  1.0882
  286MPD2     H 4317   3.559   2.003   1.443 -0.7511  2.8664 -1.1055
  286MPD2    H1 4318   3.979   2.035   1.547 -0.5358 -0.3663 -0.9078
  286MPD2    H2 4319   3.716   2.359   1.594  1.3862  0.2288  1.2127
  286MPD2    H3 4320   3.955   2.257   1.602  0.9668 -0.4846 -0.4949
  286MPD2     N 4321   3.799   1.861   1.454  0.5683  0.9456  1.5318
  286MPD2    H5 4322   3.897   1.834   1.452  0.2338 -0.0017 -0.9228
  286MPD2    N1 4323   3.493   2.221   1.541 -0.4125  0.0227  0.3845
  286MPD2    H7 4324   3.420   2.164   1.499 -0.4455 -0.2840  0.8596
  287TMC3    C1 4325   3.774   1.651   1.355 -0.0086  0.4756  0.0173
  287TMC3    C2 4326   3.741   1.608   1.225  0.1713  0.5167  0.3840
  287TMC3    C3 4327   3.844   1.564   1.146 -0.0829  0.0242  0.1527
  287TMC3    C4 4328   3.907   1.644   1.396 -0.8377  0.3124  0.0130
  287TMC3    C5 4329   4.002   1.596   1.317 -0.1719  0.0628  0.3570
  287TMC3    C6 4330   3.972   1.549   1.191 -0.1253  0.5487 -0.0538
  287TMC3     C 4331   3.708   1.775   1.400 -0.7887  0.1991  0.8571
  287TMC3     O 4332   3.585   1.781   1.377  0.1721  0.7734  0.3180
  287TMC3     H 4333   3.639   1.629   1.193 -0.2352 -0.9491  0.7206
  287TMC3    H1 4334   3.930   1.669   1.499 -1.9162 -0.1608  0.3718
  287TMC3    H2 4335   4.043   1.488   1.136 -1.0962 -0.1425 -0.5543
  287TMC3    C7 4336   4.133   1.595   1.383 -0.7201  0.3828  0.0961
  287TMC3    C8 4337   3.808   1.472   1.040 -0.3199 -0.5040  0.3834
  287TMC3    O1 4338   4.144   1.624   1.501  0.0455 -0.4225 -0.2657
  287TMC3    O2 4339   3.697   1.423   1.051 -0.6970  0.6176 -0.3921
  288TMC3    C1 4340   0.249   1.901  14.459 -0.5859 -0.2322 -0.0212
  288TMC3    C2 4341   0.210   1.851  14.576 -0.1197 -0.9545 -0.0731
  288TMC3    C3 4342   0.203   1.926  14.683 -0.6101 -0.0278 -0.9531
  288TMC3    C4 4343   0.267   2.039  14.451  0.3648 -0.3255 -0.4285
  288TMC3    C5 4344   0.248   2.119  14.556 -0.2104 -0.1194 -0.4372
  288TMC3    C6 4345   0.217   2.059  14.673 -0.5177  0.0734 -0.4789
  288TMC3     C 4346   0.281   1.816  14.347  0.3342 -0.2535  0.4721
  288TMC3     O 4347   0.208   1.719  14.334 -0.2066 -0.3166 -0.4982
  288TMC3     H 4348   0.198   1.744  14.588  0.8446 -1.3217 -2.3925
  288TMC3    H1 4349   0.312   2.070  14.358 -0.9640  1.1181 -0.5733
  288TMC3    H2 4350   0.204   2.121  14.761  1.7679  1.8930 -1.4142
  288TMC3    C7 4351   0.276   2.261  14.553 -0.1359  0.4655 -0.3963
  288TMC3    C8 4352   0.186   1.870  14.813  0.7172 -0.1480 -0.2587
  288TMC3    O1 4353   0.287   2.314  14.664  0.2849  0.5106 -0.0798
  288TMC3    O2 4354   0.215   1.953  14.901 -0.2025 -0.4264 -0.2843
  289MPD2     C 4355   0.626   1.331  14.144  0.3875  0.6004 -0.5658
  289MPD2    C1 4356   0.576   1.299  14.263  0.0951  0.4327  0.4345
  289MPD2    C2 4357   0.442   1.256  14.282  1.6004  0.3242  0.3669
  289MPD2    C3 4358   0.357   1.246  14.172  0.0743  0.6833 -0.3871
  289MPD2    C4 4359   0.407   1.285  14.051  0.0669 -0.1202  0.5236
  289MPD2    C5 4360   0.538   1.330  14.040  0.0916 -0.1437 -0.8896
  289MPD2     H 4361   0.403   1.231  14.380  1.3208  1.0256  0.4350
  289MPD2    H1 4362   0.353   1.260  13.959  1.8700 -2.0787 -0.0197
  289MPD2    H2 4363   0.728   1.364  14.131  0.8563 -0.5714  0.2400
  289MPD2    H3 4364   0.567   1.354  13.939 -3.2182  2.7970 -1.1540
  289MPD2     N 4365   0.227   1.201  14.176 -0.1095  0.4392  1.2438
  289MPD2    H5 4366   0.171   1.191  14.093  1.2017  3.1560  0.0432
  289MPD2    N1 4367   0.667   1.327  14.372  0.5372 -0.2493 -0.0931
  289MPD2    H7 4368   0.748   1.381  14.344 -0.6489  1.4744 -0.2254
  290TMC3    C1 4369   0.033   1.143  14.285  0.5772 -0.6127 -0.2902
  290TMC3    C2 4370   4.688   1.237  14.215 -0.1551  0.4069  0.0641
  290TMC3    C3 4371   4.550   1.233  14.224 -0.1342  0.1773  0.0983
  290TMC3    C4 4372   4.698   1.055  14.373  0.5339  0.1117  0.7758
  290TMC3    C5 4373   4.562   1.055  14.369 -0.1139 -0.2786 -0.8844
  290TMC3    C6 4374   4.485   1.148  14.311  0.0510 -0.1191  0.8841
  290TMC3     C 4375   0.175   1.150  14.291  0.1851 -0.3545  0.9158
  290TMC3     O 4376   0.223   1.121  14.398 -0.0998 -0.0513 -0.5312
  290TMC3     H 4377   0.011   1.321  14.164 -0.3262  1.9231  2.4339
  290TMC3    H1 4378   0.029   0.986  14.437  1.7985  0.1178 -0.2866
  290TMC3    H2 4379   4.377   1.142  14.314 -0.1385  2.1158 -1.8793
  290TMC3    C7 4380   4.475   0.964  14.445  1.0052 -0.3957  0.4444
  290TMC3    C8 4381   4.462   1.340  14.168  0.2048  0.0854  0.6744
  290TMC3    O1 4382   4.385   1.019  14.508  0.1320 -0.3380 -0.6376
  290TMC3    O2 4383   4.345   1.299  14.170  0.4071  0.1472 -0.6526
  291MPD2     C 4384   4.226   1.170   0.391 -0.4199 -0.6183 -0.4068
  291MPD2    C1 4385   4.349   1.132   0.425 -0.1809 -0.2963 -0.4483
  291MPD2    C2 4386   4.454   1.213   0.414  0.0283  0.3799 -0.2083
  291MPD2    C3 4387   4.432   1.343   0.378 -0.5845 -0.4587  0.3273
  291MPD2    C4 4388   4.300   1.384   0.349 -0.1371  0.1176  0.4521
  291MPD2    C5 4389   4.195   1.298   0.349 -0.0364 -0.1790  0.1515
  291MPD2     H 4390   4.553   1.171   0.425 -0.0405  0.8179  1.9826
  291MPD2    H1 4391   4.281   1.490   0.334 -1.4032 -0.2815 -0.7614
  291MPD2    H2 4392   4.138   1.107   0.399 -1.5803  1.0545  0.0559
  291MPD2    H3 4393   4.096   1.333   0.324  1.1207  1.7838 -1.7203
  291MPD2     N 4394   4.535   1.424   0.334  0.2604 -0.0967 -0.1642
  291MPD2    H5 4395   4.505   1.503   0.278  0.6546  0.0246 -0.2040
  291MPD2    N1 4396   4.377   0.993   0.450  0.3267  0.3214 -0.3156
  291MPD2    H7 4397   4.475   0.980   0.469  0.8600  1.0783 -2.4826
  292TMC3    C1 4398   4.368   0.763   0.420  0.3706  0.4658 -0.5576
  292TMC3    C2 4399   4.462   0.732   0.521  0.3028  0.1902  0.0298
  292TMC3    C3 4400   4.545   0.624   0.499  0.4288  0.9105  0.3621
  292TMC3    C4 4401   4.333   0.662   0.331 -0.5079  0.4479  0.0418
  292TMC3    C5 4402   4.416   0.548   0.320 -0.3105 -0.2663 -0.1978
  292TMC3    C6 4403   4.527   0.537   0.395 -0.4319  0.9700  0.7130
  292TMC3     C 4404   4.295   0.882   0.419  0.2981 -0.0796  1.5791
  292TMC3     O 4405   4.187   0.886   0.361  0.7420  0.1480 -0.0475
  292TMC3     H 4406   4.495   0.811   0.588  1.8004 -1.1699  0.8852
  292TMC3    H1 4407   4.240   0.671   0.276 -0.6616 -0.1895  0.2000
  292TMC3    H2 4408   4.596   0.454   0.389 -0.3681  0.9656  1.5444
  292TMC3    C7 4409   4.374   0.431   0.246 -0.2544  0.2621  0.2099
  292TMC3    C8 4410   4.670   0.610   0.570  0.2672 -0.2139  0.8481
  292TMC3    O1 4411   4.460   0.340   0.242 -0.0213  0.4043 -0.2942
  292TMC3    O2 4412   0.045   0.551   0.520  0.1434 -0.3522 -0.6126
  293MPD2     C 4413   1.461   2.941  12.357 -0.2473  0.6682 -0.0081
  293MPD2    C1 4414   1.387   2.843  12.419  0.0762 -0.3261  0.1613
  293MPD2    C2 4415   1.396   2.854  12.552 -0.5772 -0.0363 -0.2911
  293MPD2    C3 4416   1.479   2.941  12.623  0.9110  0.0246 -0.2175
  293MPD2    C4 4417   1.542   3.040  12.551 -0.8021 -0.4291 -0.2508
  293MPD2    C5 4418   1.540   3.033  12.418  0.4179  0.6154 -0.0753
  293MPD2     H 4419   1.341   2.781  12.611 -2.8967  0.7211 -1.5029
  293MPD2    H1 4420   1.590   3.125  12.597  0.6231 -1.2158 -0.2628
  293MPD2    H2 4421   1.468   2.955  12.250 -0.8739  1.1169  0.0068
  293MPD2    H3 4422   1.594   3.113  12.368  0.6549  0.6591  0.2528
  293MPD2     N 4423   1.490   2.928  12.758 -0.7608  0.4528  0.7974
  293MPD2    H5 4424   1.458   2.839  12.793  0.9882  0.1063  1.5387
  293MPD2    N1 4425   1.296   2.760  12.353  0.3865  0.3742 -0.1332
  293MPD2    H7 4426   1.279   2.768  12.253  1.0610  3.7178  0.0294
  294TMC3    C1 4427   1.131   2.592  12.340 -0.6827 -0.0486  1.2904
  294TMC3    C2 4428   1.082   2.471  12.395 -0.3512  0.0724  0.3474
  294TMC3    C3 4429   0.966   2.422  12.341 -0.2042 -0.1135 -0.1427
  294TMC3    C4 4430   1.059   2.662  12.255  0.1823  0.1417  0.3473
  294TMC3    C5 4431   0.949   2.599  12.204  0.4392 -0.3550 -0.4262
  294TMC3    C6 4432   0.895   2.482  12.246  0.2262 -0.9810 -0.4244
  294TMC3     C 4433   1.239   2.650  12.414  0.1802 -0.2032  0.1777
  294TMC3     O 4434   1.272   2.592  12.517  0.2264  0.3585 -0.1443
  294TMC3     H 4435   1.143   2.409  12.460 -2.2018 -0.3280  1.7260
  294TMC3    H1 4436   1.083   2.762  12.223 -3.0402  0.8925  0.2284
  294TMC3    H2 4437   0.805   2.443  12.197 -0.1203  1.7663 -1.9670
  294TMC3    C7 4438   0.867   2.683  12.122 -0.1016  0.2208  0.4547
  294TMC3    C8 4439   0.939   2.290  12.382  1.1411  0.2948 -0.5869
  294TMC3    O1 4440   0.747   2.698  12.147  0.2493  0.0084 -0.5688
  294TMC3    O2 4441   1.006   2.244  12.474  0.0050 -0.0213 -0.4476
  295MPD2     C 4442   2.471   0.946   0.369 -0.4460 -0.2575  0.1211
  295MPD2    C1 4443   2.337   0.916   0.349 -0.2198 -0.0382 -0.0604
  295MPD2    C2 4444   2.247   0.919   0.454  0.3785  0.6779 -0.4751
  295MPD2    C3 4445   2.283   0.981   0.572  0.3257 -0.2547  0.3435
  295MPD2    C4 4446   2.412   1.021   0.586 -0.4239 -0.3995  0.3192
  295MPD2    C5 4447   2.499   1.000   0.487 -0.0359 -0.4847 -0.4824
  295MPD2     H 4448   2.151   0.874   0.429 -0.3684  2.3560 -0.5820
  295MPD2    H1 4449   2.453   1.070   0.673 -0.1683 -1.2120  0.6614
  295MPD2    H2 4450   2.552   0.947   0.298 -2.1952  0.2974 -1.8502
  295MPD2    H3 4451   2.597   1.037   0.514  0.1802  0.0844 -2.0249
  295MPD2     N 4452   2.204   1.002   0.683  0.2731 -0.7384 -0.1031
  295MPD2    H5 4453   2.253   1.038   0.764  1.4189 -0.1035 -1.0819
  295MPD2    N1 4454   2.294   0.860   0.222 -0.4153 -0.3063  0.1346
  295MPD2    H7 4455   2.198   0.829   0.220 -0.1658 -0.8740 -2.9144
  296TMC3    C1 4456   2.017   1.012   0.823  0.0660  0.0616  0.3642
  296TMC3    C2 4457   2.102   1.052   0.920  0.5745 -0.1430  0.1457
  296TMC3    C3 4458   2.066   1.031   1.053 -0.7432 -0.2756  0.3033
  296TMC3    C4 4459   1.907   0.946   0.851 -0.0146 -0.0253  0.3516
  296TMC3    C5 4460   1.875   0.920   0.989 -0.4222 -0.1682  0.6269
  296TMC3    C6 4461   1.954   0.965   1.094  0.3879  0.3318  0.3331
  296TMC3     C 4462   2.071   0.974   0.690 -0.0146 -0.7606  0.0650
  296TMC3     O 4463   1.998   0.919   0.609 -0.4362  0.5716  0.2670
  296TMC3     H 4464   2.182   1.123   0.902  0.1082  0.4345  0.3443
  296TMC3    H1 4465   1.842   0.905   0.775  0.7798  1.0851 -0.9285
  296TMC3    H2 4466   1.919   0.954   1.196  0.5815  1.2011  0.4890
  296TMC3    C7 4467   1.777   0.811   1.007 -0.5663 -0.2272 -1.0367
  296TMC3    C8 4468   2.148   1.080   1.161 -0.0455 -0.4712  0.3541
  296TMC3    O1 4469   1.689   0.796   0.919  0.0874  0.6118  0.6636
  296TMC3    O2 4470   2.089   1.150   1.247 -0.1986 -0.3332  0.4686
  297MPD2     C 4471   4.072   2.672  16.653  0.6847 -0.2978 -0.7310
  297MPD2    C1 4472   4.024   2.710  16.526  0.3134 -0.5377 -0.0595
  297MPD2    C2 4473   4.104   2.802  16.455 -0.1867 -0.2031 -0.4389
  297MPD2    C3 4474   4.224   2.854  16.504  0.0697 -0.8766  0.4215
  297MPD2    C4 4475   4.269   2.797  16.618  0.1351 -0.1816 -0.4426
  297MPD2    C5 4476   4.192   2.720  16.697 -0.4242  0.3061  0.2790
  297MPD2     H 4477   4.061   2.846  16.365 -1.1872 -0.8886 -0.3043
  297MPD2    H1 4478   4.365   2.818  16.664  0.9855 -1.1744 -1.7343
  297MPD2    H2 4479   4.014   2.605  16.715 -1.6978  1.3125 -1.2074
  297MPD2    H3 4480   4.236   2.683  16.789  0.0962 -3.1686 -1.3760
  297MPD2     N 4481   4.311   2.947  16.440  0.0191 -0.2866 -0.0944
  297MPD2    H5 4482   4.388   2.983  16.496  0.7333 -0.1813 -1.1582
  297MPD2    N1 4483   3.892   2.676  16.480 -0.2658  0.1317 -0.1778
  297MPD2    H7 4484   3.848   2.742  16.417  0.6179 -0.1956 -1.1356
  298TMC3    C1 4485   3.675   2.583  16.478  0.4652 -0.2692 -0.1639
  298TMC3    C2 4486   3.649   2.623  16.351 -0.1582 -0.0672 -0.5705
  298TMC3    C3 4487   3.519   2.634  16.311  0.1985 -0.0668  0.3116
  298TMC3    C4 4488   3.582   2.567  16.573  0.1924 -0.5065 -0.3837
  298TMC3    C5 4489   3.455   2.586  16.534  0.4888 -0.0321 -0.6220
  298TMC3    C6 4490   3.416   2.617  16.406 -0.2743 -0.5512 -0.6386
  298TMC3     C 4491   3.809   2.575  16.533 -0.0489  0.1494  0.4331
  298TMC3     O 4492   3.831   2.489  16.614  0.2544  0.5510  0.3663
  298TMC3     H 4493   3.729   2.632  16.279 -0.3941  1.0474 -0.6912
  298TMC3    H1 4494   3.612   2.541  16.674  0.4220  1.4684  0.0540
  298TMC3    H2 4495   3.312   2.646  16.395  0.0466  1.0048  0.4601
  298TMC3    C7 4496   3.358   2.594  16.640  0.2752  0.3334 -0.3228
  298TMC3    C8 4497   3.494   2.712  16.189  0.1179  0.5104 -0.7692
  298TMC3    O1 4498   3.397   2.621  16.755 -0.5576 -0.0638  0.8649
  298TMC3    O2 4499   3.586   2.746  16.119  0.1633  0.0401  0.5500
  299MPD2     C 4500   4.523   3.006  10.793 -0.3855 -0.1104 -0.5455
  299MPD2    C1 4501   4.526   3.136  10.753  0.6573  1.0681 -0.3862
  299MPD2    C2 4502   4.468   3.160  10.631  0.1144 -0.3831 -0.3143
  299MPD2    C3 4503   4.420   3.065  10.544  0.1543  0.5115 -0.0235
  299MPD2    C4 4504   4.423   2.935  10.584 -0.8152 -0.2389 -0.5632
  299MPD2    C5 4505   4.470   2.908  10.709 -0.4016  0.2399 -0.9458
  299MPD2     H 4506   4.477   3.261  10.592 -1.6151 -0.0542  0.1483
  299MPD2    H1 4507   4.401   2.847  10.524 -0.5332  0.2526 -1.3785
  299MPD2    H2 4508   4.568   2.975  10.886 -0.3571  0.6316 -0.3153
  299MPD2    H3 4509   4.468   2.805  10.744  0.0374  0.1163 -1.2902
  299MPD2     N 4510   4.363   3.087  10.415  0.0288 -0.7525 -0.2611
  299MPD2    H5 4511   4.319   3.010  10.365  1.8192 -0.5169 -2.1959
  299MPD2    N1 4512   4.574   3.235  10.837 -0.7276 -0.4111 -0.4041
  299MPD2    H7 4513   4.594   3.212  10.934  1.9971 -2.0485 -1.3491
  300TMC3    C1 4514   4.267   3.204  10.243 -0.3580 -0.1832 -0.1364
  300TMC3    C2 4515   4.242   3.320  10.183  0.7003  0.7073 -0.3281
  300TMC3    C3 4516   4.129   3.346  10.112 -0.6100 -0.3936  1.3156
  300TMC3    C4 4517   4.164   3.107  10.231  0.0611  0.1017 -0.2453
  300TMC3    C5 4518   4.055   3.130  10.148  0.4969 -0.2494  0.1969
  300TMC3    C6 4519   4.037   3.253  10.088 -0.0627  0.4467  0.1332
  300TMC3     C 4520   4.354   3.211  10.357  0.4391 -0.7780 -0.0113
  300TMC3     O 4521   4.408   3.315  10.388 -0.0202  0.1189  0.1501
  300TMC3     H 4522   4.307   3.403  10.208 -0.3754  1.4530 -0.0075
  300TMC3    H1 4523   4.168   3.018  10.292  0.1648 -0.9996 -1.8675
  300TMC3    H2 4524   3.945   3.291  10.046  0.2082 -1.9233 -2.5328
  300TMC3    C7 4525   3.947   3.037  10.164  0.6713  0.5173  0.3181
  300TMC3    C8 4526   4.080   3.486  10.130  0.1560  0.0881  0.1855
  300TMC3    O1 4527   3.980   2.923  10.188 -0.4661  0.2239 -0.1576
  300TMC3    O2 4528   4.132   3.552  10.220  0.2873  0.1946 -0.4346
  301MPD2     C 4529   2.267   3.206   0.337  0.1756  0.2510  0.3815
  301MPD2    C1 4530   2.206   3.277   0.437  0.1387  0.6377 -0.4973
  301MPD2    C2 4531   2.234   3.244   0.563  0.7980  0.1077  0.3867
  301MPD2    C3 4532   2.316   3.131   0.595  0.1009 -0.2236 -0.5068
  301MPD2    C4 4533   2.377   3.062   0.490  0.3013 -0.0332  0.0040
  301MPD2    C5 4534   2.360   3.110   0.362 -0.6979  0.0845 -0.3437
  301MPD2     H 4535   2.187   3.311   0.634  3.2012 -1.4914  3.4885
  301MPD2    H1 4536   2.441   2.976   0.507  0.2934  0.5007  2.7797
  301MPD2    H2 4537   2.256   3.231   0.232  0.0364 -0.3469  0.2549
  301MPD2    H3 4538   2.403   3.056   0.279  0.3998  0.4477 -0.0074
  301MPD2     N 4539   2.320   3.071   0.724  0.1608 -0.1349 -0.5913
  301MPD2    H5 4540   2.372   2.986   0.744  2.1076  1.2960  0.2815
  301MPD2    N1 4541   2.113   3.381   0.411 -0.0673 -0.5725  0.5420
  301MPD2    H7 4542   2.081   3.437   0.489  0.0288  0.5507 -0.2309
  302TMC3    C1 4543   2.274   3.051   0.954  0.5692 -0.1480  0.3020
  302TMC3    C2 4544   2.364   2.948   0.959  0.5979  0.1043 -1.3099
  302TMC3    C3 4545   2.349   2.849   1.058 -0.0516  0.5254  0.0093
  302TMC3    C4 4546   2.167   3.051   1.046  0.8192 -0.1098  0.5163
  302TMC3    C5 4547   2.154   2.947   1.137 -0.2288  0.2366 -0.2602
  302TMC3    C6 4548   2.251   2.845   1.147  0.4139  0.2475  0.0237
  302TMC3     C 4549   2.254   3.125   0.831  0.8652  0.6484 -0.2701
  302TMC3     O 4550   2.173   3.217   0.836  0.2926 -0.1740 -0.3010
  302TMC3     H 4551   2.449   2.939   0.892  0.0549  1.0404 -2.1212
  302TMC3    H1 4552   2.096   3.133   1.042  0.7929 -0.0986  1.2486
  302TMC3    H2 4553   2.234   2.767   1.220 -1.4490  0.3640 -0.2725
  302TMC3    C7 4554   2.046   2.957   1.236  0.6090 -0.6025  0.0866
  302TMC3    C8 4555   2.473   2.806   1.119 -0.1820 -0.2985  0.2304
  302TMC3    O1 4556   2.054   2.871   1.321 -0.9151  0.2218 -0.1241
  302TMC3    O2 4557   2.566   2.882   1.097  0.3790 -0.2246 -0.2726
  303MPD2     C 4558   2.124   2.427  10.588  0.3335  0.1884  0.2679
  303MPD2    C1 4559   1.984   2.427  10.599  0.1712 -0.1573  0.5529
  303MPD2    C2 4560   1.905   2.447  10.488  1.1481  0.1323  0.4579
  303MPD2    C3 4561   1.961   2.473  10.368  0.8507  0.3421 -0.9893
  303MPD2    C4 4562   2.097   2.480  10.356 -0.3909 -0.2267  0.1566
  303MPD2    C5 4563   2.177   2.450  10.469 -0.2386  0.1091  0.2616
  303MPD2     H 4564   1.797   2.440  10.494  1.2141 -1.2369  0.0092
  303MPD2    H1 4565   2.132   2.497  10.255  0.3545 -3.6146 -0.1494
  303MPD2    H2 4566   2.202   2.391  10.654 -1.3570  2.0515  3.2590
  303MPD2    H3 4567   2.285   2.442  10.465 -0.2191  0.0520  0.9957
  303MPD2     N 4568   1.898   2.494  10.248 -0.2107 -0.5223  0.3197
  303MPD2    H5 4569   1.959   2.500  10.166 -1.4017 -0.9079 -0.5926
  303MPD2    N1 4570   1.928   2.389  10.728 -0.1572  0.2758 -0.5685
  303MPD2    H7 4571   1.997   2.356  10.795 -0.4475  1.8779  0.5104
  304TMC3    C1 4572   1.773   2.359  10.904 -0.6522 -0.3808 -0.2770
  304TMC3    C2 4573   1.655   2.403  10.953 -0.2847 -0.4619 -0.3504
  304TMC3    C3 4574   1.589   2.343  11.058 -0.8194  0.4099 -0.6366
  304TMC3    C4 4575   1.823   2.242  10.951 -0.1380 -0.3797  0.5449
  304TMC3    C5 4576   1.760   2.181  11.062  0.7423  0.0537 -0.2473
  304TMC3    C6 4577   1.644   2.235  11.118 -0.2027 -0.0398  0.3183
  304TMC3     C 4578   1.794   2.400  10.769 -0.1473 -0.5555 -0.5367
  304TMC3     O 4579   1.702   2.444  10.701  0.6563 -0.1583 -0.4127
  304TMC3     H 4580   1.610   2.486  10.900  1.9580  0.0848 -1.4199
  304TMC3    H1 4581   1.899   2.189  10.896 -0.9460 -0.9148 -0.0492
  304TMC3    H2 4582   1.590   2.179  11.194  1.5981 -1.2303  0.7114
  304TMC3    C7 4583   1.740   2.042  11.034 -0.2149 -0.3609  0.2926
  304TMC3    C8 4584   1.445   2.333  11.035  0.0975 -0.7226  0.0694
  304TMC3    O1 4585   1.840   1.973  11.045 -0.2713 -0.0173  0.1209
  304TMC3    O2 4586   1.413   2.213  11.028 -0.4325  0.1544  0.2288
  305MPD2     C 4587   4.325   3.731  13.995  0.8203  0.8827 -0.7122
  305MPD2    C1 4588   4.364   3.865  13.986 -0.2597 -0.0348 -0.2952
  305MPD2    C2 4589   4.397   3.917  13.864  0.0290 -0.5487  0.3675
  305MPD2    C3 4590   4.390   3.835  13.750  0.5848  0.2884  0.6060
  305MPD2    C4 4591   4.364   3.696  13.770  1.0170 -0.2773 -0.1354
  305MPD2    C5 4592   4.332   3.647  13.893  0.0649  0.6360  0.1716
  305MPD2     H 4593   4.417   4.024  13.857 -0.1403 -0.4450  1.4797
  305MPD2    H1 4594   4.356   3.624  13.689 -0.2712 -1.7901  1.3507
  305MPD2    H2 4595   4.310   3.686  14.093  2.4234 -2.0501 -1.7993
  305MPD2    H3 4596   4.306   3.545  13.917  1.6253 -0.2742 -2.0150
  305MPD2     N 4597   4.405   3.895  13.631  0.2814 -0.0858 -0.1275
  305MPD2    H5 4598   4.418   3.995  13.626 -0.0556 -0.0663 -0.5380
  305MPD2    N1 4599   4.369   3.940  14.106  0.2190 -0.1103 -0.4792
  305MPD2    H7 4600   4.353   3.886  14.191  3.7012 -1.9704 -0.9952
  306TMC3    C1 4601   4.403   4.102  14.266 -0.5497  0.1033  0.4516
  306TMC3    C2 4602   4.435   3.997  14.347 -0.2869 -0.1171  0.0729
  306TMC3    C3 4603   4.477   4.035  14.474 -0.1742  0.0535 -0.2798
  306TMC3    C4 4604   4.402   4.236  14.301 -0.5730  0.2889  0.0885
  306TMC3    C5 4605   4.434   4.267  14.429 -0.1590 -0.9310  0.0201
  306TMC3    C6 4606   4.475   4.167  14.516 -0.0423 -0.0983 -0.2917
  306TMC3     C 4607   4.375   4.073  14.124  0.3756 -0.0070  0.0692
  306TMC3     O 4608   4.377   4.163  14.042  0.1579  0.1860 -0.4183
  306TMC3     H 4609   4.462   3.901  14.305 -0.5056 -0.3719  0.5131
  306TMC3    H1 4610   4.396   4.312  14.224 -0.0080 -0.7814 -1.0013
  306TMC3    H2 4611   4.517   4.205  14.609 -0.0731  1.0348 -0.7370
  306TMC3    C7 4612   4.451   4.406  14.459 -0.3587 -0.0053  0.4940
  306TMC3    C8 4613   4.562   3.950  14.544 -0.6868 -0.4162  0.2393
  306TMC3    O1 4614   4.395   4.494  14.394  0.4030 -0.1698 -0.2996
  306TMC3    O2 4615   4.647   4.000  14.619 -0.0216 -0.4404  0.8210
  307MPD2     C 4616   3.031   2.005   1.118 -0.1309  0.1355  0.2229
  307MPD2    C1 4617   2.977   1.988   0.993  0.1726  0.3889 -0.4393
  307MPD2    C2 4618   2.864   2.056   0.956  0.0855 -0.3226 -0.5199
  307MPD2    C3 4619   2.795   2.122   1.051 -0.0658  0.3606  0.4328
  307MPD2    C4 4620   2.843   2.135   1.180  0.1853  0.4691  0.3317
  307MPD2    C5 4621   2.963   2.089   1.202 -0.6881 -0.2075  0.1795
  307MPD2     H 4622   2.814   2.035   0.862  0.4588 -1.5457 -0.4370
  307MPD2    H1 4623   2.788   2.196   1.250  0.2510 -2.5913  3.0492
  307MPD2    H2 4624   3.130   1.978   1.152 -0.1709  0.0603  0.2823
  307MPD2    H3 4625   2.998   2.113   1.301 -0.1197 -1.4416  0.2913
  307MPD2     N 4626   2.678   2.183   0.995  0.2114 -0.7612  0.0134
  307MPD2    H5 4627   2.663   2.170   0.896  0.2214  1.1027 -0.2464
  307MPD2    N1 4628   3.036   1.896   0.894 -0.0025 -0.1125  0.1976
  307MPD2    H7 4629   2.982   1.887   0.809 -0.5297 -1.8109  0.7097
  308TMC3    C1 4630   2.265   2.318   0.895  0.9932  0.1004 -0.0268
  308TMC3    C2 4631   2.314   2.399   0.793  0.2661  0.2085  0.4489
  308TMC3    C3 4632   2.447   2.424   0.792 -0.3499  0.0389  0.1235
  308TMC3    C4 4633   2.345   2.256   0.982 -0.4483  0.5017 -0.0959
  308TMC3    C5 4634   2.483   2.290   0.971 -0.3936 -0.0834  0.6441
  308TMC3    C6 4635   2.538   2.366   0.877  0.2654  0.9156  0.5402
  308TMC3     C 4636   2.143   2.241   0.873 -0.1088  0.3388  0.5731
  308TMC3     O 4637   2.132   2.154   0.960 -0.5225 -0.0384 -0.6263
  308TMC3     H 4638   2.262   2.463   0.723  0.8965  1.6228  1.2732
  308TMC3    H1 4639   2.306   2.211   1.073 -2.5558  0.3007 -1.1076
  308TMC3    H2 4640   2.643   2.394   0.875 -0.4296  3.3085 -2.4579
  308TMC3    C7 4641   2.572   2.234   1.068  0.2111  0.2557 -0.7608
  308TMC3    C8 4642   2.507   2.434   0.656 -0.2931 -0.1065  0.5337
  308TMC3    O1 4643   2.546   2.226   1.187  0.2671  0.2055  0.0382
  308TMC3    O2 4644   2.596   2.512   0.638  0.6173 -0.0920  0.1233
  309MPD2     C 4645   1.919   2.541  16.953 -0.2885 -0.6827  0.3334
  309MPD2    C1 4646   1.872   2.632  16.856 -0.3303  0.7519  0.2627
  309MPD2    C2 4647   1.737   2.658  16.856  0.6228 -0.4042  0.1315
  309MPD2    C3 4648   1.655   2.592  16.949  0.1080  0.1746 -0.2251
  309MPD2    C4 4649   1.709   2.504  17.038 -0.6716 -0.3363  0.2498
  309MPD2    C5 4650   1.841   2.478  17.038 -0.3840  0.0040 -0.3287
  309MPD2     H 4651   1.690   2.725  16.786  0.6627  0.0412  0.5360
  309MPD2    H1 4652   1.650   2.463  17.120 -2.2272 -0.0040 -0.7161
  309MPD2    H2 4653   2.024   2.514  16.954 -0.3285 -0.8713 -0.5011
  309MPD2    H3 4654   1.879   2.408  17.112 -0.0453 -2.4305 -2.8020
  309MPD2     N 4655   1.512   2.602  16.957 -0.4140  0.2447  0.1698
  309MPD2    H5 4656   1.465   2.536  17.018  3.6089 -0.0992  2.8603
  309MPD2    N1 4657   1.952   2.664  16.742  0.2687 -1.1120 -0.2963
  309MPD2    H7 4658   1.920   2.721  16.664 -0.7769 -0.2547  0.7592
  310TMC3    C1 4659   2.136   2.649  16.598  0.3415  0.2294  0.3580
  310TMC3    C2 4660   2.041   2.683  16.508  0.0145  0.2433  0.7905
  310TMC3    C3 4661   2.040   2.621  16.388  0.1478 -0.3595 -0.3501
  310TMC3    C4 4662   2.233   2.567  16.570 -0.7967  0.1839  0.4683
  310TMC3    C5 4663   2.230   2.510  16.439  0.7175 -0.2049  0.1950
  310TMC3    C6 4664   2.129   2.529  16.350  0.3749  0.4617  0.6483
  310TMC3     C 4665   2.086   2.649  16.737  0.1208 -0.4225  0.3209
  310TMC3     O 4666   2.166   2.601  16.816 -0.3961  0.2981 -0.6409
  310TMC3     H 4667   1.980   2.769  16.534 -0.5069  0.0595  0.1828
  310TMC3    H1 4668   2.313   2.543  16.640  0.1544 -2.6558 -1.6186
  310TMC3    H2 4669   2.133   2.477  16.255 -1.6092  2.6627 -0.6493
  310TMC3    C7 4670   2.331   2.409  16.409 -0.0600 -0.2651 -0.6097
  310TMC3    C8 4671   1.941   2.646  16.285  0.6409 -0.6910  0.2672
  310TMC3    O1 4672   2.407   2.389  16.498 -0.1884  0.0818  1.1514
  310TMC3    O2 4673   1.968   2.600  16.174  0.0420 -0.4147  0.4853
  311MPD2     C 4674   3.842   4.222  12.802 -0.2500  0.6598  0.3671
  311MPD2    C1 4675   3.843   4.359  12.802 -0.4149  0.0346  0.2019
  311MPD2    C2 4676   3.727   4.424  12.820  0.4133  0.2759 -0.1476
  311MPD2    C3 4677   3.605   4.360  12.814 -0.6033  0.0321  0.2335
  311MPD2    C4 4678   3.603   4.215  12.792  0.0247  0.5532 -0.6639
  311MPD2    C5 4679   3.722   4.147  12.784  0.1989  0.8919 -0.4046
  311MPD2     H 4680   3.715   4.532  12.812  0.7787  0.4122  1.0323
  311MPD2    H1 4681   3.515   4.152  12.793  0.8041 -0.5655 -1.9786
  311MPD2    H2 4682   3.933   4.164  12.808 -0.1818  0.9942  2.6888
  311MPD2    H3 4683   3.733   4.040  12.772 -1.2984  0.6738  0.1080
  311MPD2     N 4684   3.495   4.444  12.811 -0.0471 -0.0892 -0.2151
  311MPD2    H5 4685   3.518   4.542  12.826  1.1118 -0.1979 -1.2490
  311MPD2    N1 4686   3.958   4.443  12.800 -0.3005 -0.1920 -0.2793
  311MPD2    H7 4687   3.943   4.541  12.820  4.5573  0.8869 -2.0672
  312TMC3    C1 4688   3.265   4.509  12.781 -0.6939 -0.4869 -0.0333
  312TMC3    C2 4689   3.166   4.503  12.691 -0.0852  0.1922  0.2908
  312TMC3    C3 4690   3.074   4.607  12.689  1.1286 -0.1463  0.5657
  312TMC3    C4 4691   3.288   4.613  12.865 -0.2179 -0.3792  0.1345
  312TMC3    C5 4692   3.200   4.716  12.854 -0.5873 -0.6440  0.0334
  312TMC3    C6 4693   3.093   4.718  12.770  0.2489 -0.0189  0.2360
  312TMC3     C 4694   3.367   4.406  12.775  0.2714 -0.3333 -0.6344
  312TMC3     O 4695   3.332   4.297  12.736  1.0452 -0.4745 -0.3356
  312TMC3     H 4696   3.147   4.410  12.638 -2.3488  0.1895  1.1203
  312TMC3    H1 4697   3.359   4.598  12.946 -1.7509  2.0021  1.8968
  312TMC3    H2 4698   3.014   0.068  12.778 -1.2788 -1.7525  1.1653
  312TMC3    C7 4699   3.202   0.091  12.963  0.3034 -1.0507  0.5075
  312TMC3    C8 4700   2.964   4.609  12.599 -0.0201 -0.6777  0.6435
  312TMC3    O1 4701   3.152   0.200  12.943 -0.3020 -0.5965 -0.0486
  312TMC3    O2 4702   2.950   4.713  12.543 -0.2984 -0.3568 -0.0981
  313MPD2     C 4703   3.325   3.600  10.432  0.2328  0.0219  0.2524
  313MPD2    C1 4704   3.201   3.611  10.501 -0.2951 -0.3032  0.0001
  313MPD2    C2 4705   3.087   3.560  10.433 -0.4185 -0.0850  0.2186
  313MPD2    C3 4706   3.095   3.503  10.308 -0.3678  0.3058  0.0117
  313MPD2    C4 4707   3.219   3.491  10.244  0.2157  0.3688  0.1512
  313MPD2    C5 4708   3.328   3.541  10.307  0.1611  0.6754  0.8378
  313MPD2     H 4709   2.994   3.554  10.489  0.3265 -2.0492  1.2654
  313MPD2    H1 4710   3.230   3.449  10.145  1.2293  0.5733  0.1765
  313MPD2    H2 4711   3.422   3.635  10.467  1.3166  0.8394 -3.5552
  313MPD2    H3 4712   3.423   3.533  10.255 -0.8053  2.2483 -1.1742
  313MPD2     N 4713   2.978   3.472  10.239  0.6849  0.0842 -0.2617
  313MPD2    H5 4714   2.890   3.502  10.279  0.6037 -1.8302  0.9674
  313MPD2    N1 4715   3.176   3.683  10.621 -0.1686  0.8755  0.4395
  313MPD2    H7 4716   3.082   3.696  10.655 -1.0594  0.9768 -2.0138
  314TMC3    C1 4717   3.221   3.850  10.784 -0.2167  0.1870 -0.1154
  314TMC3    C2 4718   3.328   3.925  10.839  0.5824  0.2084 -0.3118
  314TMC3    C3 4719   3.293   4.049  10.891  0.2002  0.4273 -0.4575
  314TMC3    C4 4720   3.097   3.901  10.767  0.0673 -0.8041  0.7801
  314TMC3    C5 4721   3.071   4.024  10.821 -1.5336 -0.6654  0.3648
  314TMC3    C6 4722   3.170   4.105  10.872  0.6061 -0.0539 -0.1222
  314TMC3     C 4723   3.273   3.748  10.691 -0.0883 -0.4070 -0.5512
  314TMC3     O 4724   3.394   3.732  10.677 -0.4749 -0.3990  0.0969
  314TMC3     H 4725   3.424   3.876  10.856 -0.5490 -2.0958 -0.6558
  314TMC3    H1 4726   3.018   3.848  10.715 -0.5141  0.2998  0.5359
  314TMC3    H2 4727   3.144   4.201  10.915 -1.5023 -0.8144  0.2870
  314TMC3    C7 4728   2.971   4.093  10.742  0.3225 -0.4780  0.6163
  314TMC3    C8 4729   3.395   4.146  10.932  0.0463  0.1909 -0.5902
  314TMC3    O1 4730   2.852   4.053  10.738  0.2874  0.4015  0.3345
  314TMC3    O2 4731   3.357   4.254  10.974 -0.1415  0.1919  0.1304
  315MPD2     C 4732   2.898   2.605   0.561  0.0425  0.0570  0.0102
  315MPD2    C1 4733   3.025   2.571   0.589 -0.2201  0.0792  0.0278
  315MPD2    C2 4734   3.121   2.648   0.544 -0.6263  0.4505  0.1070
  315MPD2    C3 4735   3.102   2.732   0.437 -0.1977 -0.0945  0.2913
  315MPD2    C4 4736   2.971   2.756   0.396 -0.1970 -0.3080 -0.6308
  315MPD2    C5 4737   2.866   2.692   0.462  0.1090 -0.3752  0.8918
  315MPD2     H 4738   3.218   2.638   0.591 -0.7709  0.5889  0.4318
  315MPD2    H1 4739   2.943   2.818   0.312  0.2576 -1.0434 -1.3239
  315MPD2    H2 4740   2.816   2.557   0.613  2.6195 -1.7903  2.3694
  315MPD2    H3 4741   2.760   2.708   0.445 -0.2109 -3.5677 -0.1761
  315MPD2     N 4742   3.212   2.808   0.385 -0.1943 -0.1780  0.6759
  315MPD2    H5 4743   3.297   2.783   0.434 -0.4073 -1.3390  0.4586
  315MPD2    N1 4744   3.062   2.486   0.688 -0.1513 -0.0025 -0.0312
  315MPD2    H7 4745   3.157   2.504   0.720  0.3327 -1.7600 -0.4540
  316TMC3    C1 4746   3.320   2.968   0.248 -0.8403  0.2717 -0.3034
  316TMC3    C2 4747   3.429   2.955   0.327 -0.5153  0.7402 -0.2394
  316TMC3    C3 4748   3.528   3.056   0.317  0.3951  0.1822 -0.3445
  316TMC3    C4 4749   3.302   3.076   0.164 -0.6391 -0.2408 -0.2398
  316TMC3    C5 4750   3.401   3.172   0.161 -0.0794  0.7708 -0.1508
  316TMC3    C6 4751   3.517   3.165   0.237  0.7982 -0.0393  0.1907
  316TMC3     C 4752   3.204   2.893   0.280  0.2311 -0.5758  0.2837
  316TMC3     O 4753   3.117   2.909   0.196  0.3746 -0.4166 -0.7639
  316TMC3     H 4754   3.451   2.879   0.402 -1.7308  2.1198  1.5178
  316TMC3    H1 4755   3.213   3.098   0.105 -1.4986  0.8884  1.4772
  316TMC3    H2 4756   3.600   3.234   0.223  0.3311  0.3208 -0.7687
  316TMC3    C7 4757   3.389   3.280   0.068  0.0097  0.2444  0.1155
  316TMC3    C8 4758   3.621   3.056   0.425 -0.2093 -0.2380 -0.0174
  316TMC3    O1 4759   3.436   3.389   0.102  0.5157  0.0154  0.1556
  316TMC3    O2 4760   3.657   3.165   0.462  0.0504  0.0941  0.4559
  317MPD2     C 4761   0.180   1.462  12.636  0.5278  0.6967 -0.2354
  317MPD2    C1 4762   0.249   1.357  12.584 -0.2019  0.0886 -0.3294
  317MPD2    C2 4763   0.360   1.314  12.649 -0.0763  0.1864  0.2761
  317MPD2    C3 4764   0.402   1.374  12.765 -0.6569  0.1896  0.0247
  317MPD2    C4 4765   0.328   1.479  12.816 -0.1864  0.0164  0.7556
  317MPD2    C5 4766   0.219   1.526  12.747 -0.1299 -0.1471  0.0195
  317MPD2     H 4767   0.427   1.239  12.610 -1.3959 -1.9641  2.0961
  317MPD2    H1 4768   0.342   1.522  12.915  0.2534  3.9042 -0.9858
  317MPD2    H2 4769   0.097   1.513  12.589  0.7795  2.9849  1.8146
  317MPD2    H3 4770   0.159   1.608  12.786  0.0293  0.8233 -1.7715
  317MPD2     N 4771   0.508   1.309  12.835  0.2830 -0.2334 -0.6226
  317MPD2    H5 4772   0.561   1.244  12.778  0.5940  0.5342 -1.2022
  317MPD2    N1 4773   0.210   1.300  12.460 -0.4851 -0.0517  0.6642
  317MPD2    H7 4774   0.264   1.220  12.429 -1.8732  0.5442 -3.4137
  318TMC3    C1 4775   0.662   1.262  13.011 -0.9625  0.3399  0.3178
  318TMC3    C2 4776   0.648   1.131  12.982  0.3811 -0.2021  0.3451
  318TMC3    C3 4777   0.749   1.047  13.029 -0.5274 -0.2729  0.4188
  318TMC3    C4 4778   0.770   1.322  13.065 -0.1258  0.7538  0.0088
  318TMC3    C5 4779   0.871   1.236  13.109 -0.7467 -0.3598  0.1688
  318TMC3    C6 4780   0.855   1.102  13.100  0.2361  0.1131  0.1194
  318TMC3     C 4781   0.569   1.356  12.953  1.1117  0.3749 -0.1067
  318TMC3     O 4782   0.558   1.470  13.004 -0.0915  0.2326 -0.0495
  318TMC3     H 4783   0.552   1.090  12.954  1.1602 -0.5214 -1.8415
  318TMC3    H1 4784   0.769   1.428  13.087  1.3663  0.7212  0.1867
  318TMC3    H2 4785   0.931   1.040  13.146 -0.5368  0.5869  2.0381
  318TMC3    C7 4786   0.964   1.288  13.208 -0.0877 -0.1773  0.6226
  318TMC3    C8 4787   0.725   0.906  13.052 -0.3537 -0.3217  0.5087
  318TMC3    O1 4788   0.941   1.401  13.244  0.4357  0.0386  0.5445
  318TMC3    O2 4789   0.791   0.858  13.144  0.0421 -0.5300  0.0628
  319MPD2     C 4790   1.288   2.358  16.705 -0.3814  0.2566 -0.1433
  319MPD2    C1 4791   1.183   2.296  16.776 -0.3829 -1.0776  0.1129
  319MPD2    C2 4792   1.069   2.258  16.710 -0.3013  0.0550  0.2984
  319MPD2    C3 4793   1.063   2.270  16.578 -0.6054  0.5834  0.6611
  319MPD2    C4 4794   1.161   2.332  16.508 -0.5147  0.2581  0.5562
  319MPD2    C5 4795   1.270   2.379  16.568  0.1474 -0.3003 -0.3928
  319MPD2     H 4796   0.995   2.204  16.768  0.4230  0.3630  1.4907
  319MPD2    H1 4797   1.166   2.345  16.401 -0.1002  0.9977  0.6572
  319MPD2    H2 4798   1.382   2.383  16.753 -0.2224  0.8098 -0.7497
  319MPD2    H3 4799   1.342   2.435  16.510  0.6064  0.6656  1.1098
  319MPD2     N 4800   0.967   2.226  16.492 -0.0463  0.1507 -0.3930
  319MPD2    H5 4801   0.975   2.264  16.398  2.5494  2.1941  0.6415
  319MPD2    N1 4802   1.193   2.259  16.908  0.4112  0.2657  0.1347
  319MPD2    H7 4803   1.115   2.203  16.941 -0.3351  0.3583 -1.4845
  320TMC3    C1 4804   0.765   2.123  16.434  0.6880 -0.4634  0.1265
  320TMC3    C2 4805   0.755   2.205  16.321 -0.2616 -0.3333  0.1664
  320TMC3    C3 4806   0.677   2.156  16.223 -0.7215 -0.1407  0.7472
  320TMC3    C4 4807   0.708   1.996  16.454  0.9381 -0.0645  0.2606
  320TMC3    C5 4808   0.642   1.946  16.342  0.7326  0.0579  0.4056
  320TMC3    C6 4809   0.620   2.030  16.237 -0.6185 -0.4400 -0.1501
  320TMC3     C 4810   0.851   2.161  16.536  0.0683 -0.8116  0.3787
  320TMC3     O 4811   0.830   2.104  16.639 -0.2103  0.4709  0.1723
  320TMC3     H 4812   0.802   2.303  16.313 -1.3299  0.3997  2.8510
  320TMC3    H1 4813   0.736   1.933  16.538 -1.9755 -1.1233  0.4387
  320TMC3    H2 4814   0.554   1.987  16.162 -0.0367  2.0787 -2.0800
  320TMC3    C7 4815   0.593   1.814  16.338 -0.5516 -0.3141  0.2498
  320TMC3    C8 4816   0.634   2.253  16.120 -0.0905  0.2220 -0.4163
  320TMC3    O1 4817   0.559   1.766  16.229 -0.6255  0.5129  0.2155
  320TMC3    O2 4818   0.648   2.371  16.125 -0.1243 -0.0843 -0.5527
  321TMC3    C1 4819   1.284   2.200  17.118 -0.7952 -0.5738  0.7200
  321TMC3    C2 4820   1.193   2.101  17.126 -0.2508 -0.2314  0.8632
  321TMC3    C3 4821   1.196   2.038  17.248 -0.3415  0.3872 -0.3025
  321TMC3    C4 4822   1.380   2.226  17.207 -0.4649 -0.1519 -0.2366
  321TMC3    C5 4823   1.391   2.146  17.322 -0.3028  0.0113  0.5317
  321TMC3    C6 4824   1.286   2.063  17.348 -0.0785 -0.0481  0.1316
  321TMC3     C 4825   1.299   2.277  16.996 -0.0224  0.7859  0.4056
  321TMC3     O 4826   1.400   2.344  16.987 -0.0065 -0.1419 -0.3100
  321TMC3     H 4827   1.127   2.059  17.052  1.2975 -0.5954 -0.3237
  321TMC3    H1 4828   1.462   2.295  17.192 -1.1656  1.3706  2.8546
  321TMC3    H2 4829   1.279   2.010  17.443  0.1789 -0.6908 -0.2070
  321TMC3    C7 4830   1.517   2.096  17.338 -0.2130 -0.2774 -0.6634
  321TMC3    C8 4831   1.184   1.892  17.239 -0.0543 -0.3198  0.0038
  321TMC3    O1 4832   1.617   2.159  17.312  0.3576 -0.3157 -0.2510
  321TMC3    O2 4833   1.253   1.822  17.316 -0.0976 -0.3122 -0.0910
  322MPD2     C 4834   0.176   3.822  13.207  0.2928 -0.4958  0.1842
  322MPD2    C1 4835   0.142   3.761  13.329  0.1607  0.0274  0.3945
  322MPD2    C2 4836   0.141   3.626  13.338  0.1085 -0.4226 -0.2589
  322MPD2    C3 4837   0.159   3.541  13.232 -0.5280 -0.2420  1.1033
  322MPD2    C4 4838   0.188   3.599  13.109 -0.2519  0.0993 -0.2694
  322MPD2    C5 4839   0.193   3.739  13.101 -0.3585 -0.0908 -0.2336
  322MPD2     H 4840   0.129   3.576  13.433  2.0343 -0.6375 -0.1217
  322MPD2    H1 4841   0.203   3.554  13.012 -0.0256 -2.1751  0.8198
  322MPD2    H2 4842   0.189   3.929  13.198 -0.0112 -0.4429  0.3759
  322MPD2    H3 4843   0.218   3.783  13.005  1.5206  1.5103  0.9999
  322MPD2     N 4844   0.157   3.406  13.267  0.9929  0.7551  0.3154
  322MPD2    H5 4845   0.124   3.387  13.361 -2.2867  0.1555 -0.9383
  322MPD2    N1 4846   0.121   3.836  13.450  0.5779 -0.1802 -0.2874
  322MPD2    H7 4847   0.156   3.931  13.444 -0.1235  0.1389  0.5920
  323TMC3    C1 4848   0.083   3.865  13.677  1.1536  0.5940  1.1579
  323TMC3    C2 4849   0.180   3.959  13.694  0.0948 -0.6044  0.1429
  323TMC3    C3 4850   0.200   4.010  13.814  0.3208  0.2123 -0.0707
  323TMC3    C4 4851   0.011   3.825  13.783  0.0702 -0.0919  0.2386
  323TMC3    C5 4852   0.030   3.881  13.905  0.0622 -0.6831  0.0614
  323TMC3    C6 4853   0.126   3.977  13.923  0.3978 -0.3626 -0.5597
  323TMC3     C 4854   0.073   3.781  13.565  0.0859  0.2654  0.0999
  323TMC3     O 4855   0.009   3.677  13.583  0.7708 -0.4423  0.2424
  323TMC3     H 4856   0.248   3.984  13.614  1.9611 -1.4630  1.4605
  323TMC3    H1 4857   4.645   3.763  13.783 -1.0365  1.4994  0.8602
  323TMC3    H2 4858   0.170   4.008  14.017  0.4996  0.9560 -1.0405
  323TMC3    C7 4859   0.003   3.799  14.024  0.4759 -0.3619  0.5411
  323TMC3    C8 4860   0.332   4.072  13.845 -1.0740  1.2069  0.4748
  323TMC3    O1 4861   4.717   3.677  14.013  0.2595  0.1040  0.3082
  323TMC3    O2 4862   0.378   4.054  13.957 -0.0465  0.1998 -0.6954
  324MPD2     C 4863   1.780   0.744  14.706  0.1815  0.9713  0.7949
  324MPD2    C1 4864   1.838   0.623  14.707  0.0147 -0.5639 -0.4784
  324MPD2    C2 4865   1.750   0.516  14.719 -0.6507  0.4584  0.5980
  324MPD2    C3 4866   1.613   0.537  14.720 -0.1136 -0.4393 -0.8486
  324MPD2    C4 4867   1.560   0.658  14.702 -0.8639 -0.8743 -0.4996
  324MPD2    C5 4868   1.644   0.765  14.696 -0.6742  0.0608 -0.0259
  324MPD2     H 4869   1.799   0.422  14.741 -1.4646 -0.1801 -0.3169
  324MPD2    H1 4870   1.452   0.669  14.703 -0.7236  0.5520 -0.7372
  324MPD2    H2 4871   1.834   0.838  14.702  0.4741  0.8182  1.1812
  324MPD2    H3 4872   1.599   0.864  14.690 -0.8073 -0.0090 -0.1625
  324MPD2     N 4873   1.517   0.425  14.731 -0.0756  0.3256 -0.3411
  324MPD2    H5 4874   1.419   0.451  14.734  0.1248  0.7435  2.0265
  324MPD2    N1 4875   1.982   0.607  14.700  0.1885  0.5971 -0.3399
  324MPD2    H7 4876   2.026   0.515  14.706 -0.8684  0.1105  0.0290
  325TMC3    C1 4877   1.437   0.208  14.762  0.5196  0.4551  0.5258
  325TMC3    C2 4878   1.405   0.104  14.681  0.0962  0.2265  0.3245
  325TMC3    C3 4879   1.281   0.049  14.685  0.0648  0.2741  0.1902
  325TMC3    C4 4880   1.344   0.261  14.848  0.5784  0.5973 -0.8067
  325TMC3    C5 4881   1.221   0.219  14.826  0.2366 -0.4587  0.8960
  325TMC3    C6 4882   1.178   0.109  14.756 -0.5652  0.4882  0.9731
  325TMC3     C 4883   1.548   0.287  14.732  0.2047 -0.3688 -0.5351
  325TMC3     O 4884   1.652   0.231  14.707  0.2968 -0.3775 -0.0113
  325TMC3     H 4885   1.479   0.062  14.613 -0.4589 -1.2663  0.6402
  325TMC3    H1 4886   1.368   0.341  14.917  2.2699 -0.0517 -0.6385
  325TMC3    H2 4887   1.077   0.069  14.759  0.4156 -2.0793 -0.6236
  325TMC3    C7 4888   1.119   0.311  14.874  0.2394 -0.1856  0.3160
  325TMC3    C8 4889   1.247   4.722  14.551 -0.2432 -0.2632  0.0265
  325TMC3    O1 4890   1.157   0.389  14.962 -0.3648 -0.3253 -0.1888
  325TMC3    O2 4891   1.327   0.036  14.466  0.9685 -0.0863 -0.1949
  326MPD2     C 4892   2.746   1.555  10.582  0.7738 -0.5214  0.0393
  326MPD2    C1 4893   2.791   1.661  10.513  0.2140 -0.1502  0.6732
  326MPD2    C2 4894   2.923   1.707  10.519 -0.9342 -0.7514  0.0024
  326MPD2    C3 4895   3.014   1.622  10.590 -0.0517  0.3553  0.3815
  326MPD2    C4 4896   2.974   1.504  10.651  0.4946  0.2916 -0.0143
  326MPD2    C5 4897   2.839   1.477  10.651  0.0572  0.0947  0.1461
  326MPD2     H 4898   2.961   1.796  10.470 -1.3563 -1.5088 -1.6946
  326MPD2    H1 4899   3.048   1.447  10.705 -1.0281 -0.0780  1.6576
  326MPD2    H2 4900   2.645   1.516  10.577  0.7982 -0.9869  3.0853
  326MPD2    H3 4901   2.812   1.385  10.702 -0.1255  0.2299  0.2932
  326MPD2     N 4902   3.142   1.674  10.610  0.4779 -0.6963 -0.5790
  326MPD2    H5 4903   3.202   1.620  10.672  2.7963  2.4205 -0.1121
  326MPD2    N1 4904   2.707   1.752  10.449 -0.4257 -0.3271 -0.4350
  326MPD2    H7 4905   2.750   1.839  10.419 -1.0916  0.7722  1.8277
  327TMC3    C1 4906   2.559   1.800  10.284  0.3371  0.1628 -0.1580
  327TMC3    C2 4907   2.522   1.929  10.303 -0.3548  0.4028 -0.0572
  327TMC3    C3 4908   2.589   2.025  10.233 -0.1311  0.2804 -0.2562
  327TMC3    C4 4909   2.654   1.773  10.191 -0.1844  0.0297 -0.1703
  327TMC3    C5 4910   2.714   1.869  10.114 -0.7814 -0.3610 -0.6008
  327TMC3    C6 4911   2.677   1.999  10.132 -0.5443 -0.1174  0.3324
  327TMC3     C 4912   2.578   1.715  10.399  0.7865 -0.6936  0.5069
  327TMC3     O 4913   2.495   1.631  10.432  0.4534 -0.4303  0.1409
  327TMC3     H 4914   2.463   1.947  10.392  0.9606 -0.8202  1.0527
  327TMC3    H1 4915   2.678   1.670  10.168  0.3151  0.1564 -0.2263
  327TMC3    H2 4916   2.724   2.079  10.076  1.5206 -0.6860  1.2625
  327TMC3    C7 4917   2.857   1.854  10.096 -0.0836  0.1789 -0.1973
  327TMC3    C8 4918   2.565   2.162  10.263  0.6196  0.2854  0.5920
  327TMC3    O1 4919   2.910   1.939  10.025  0.3711 -0.6526 -0.4680
  327TMC3    O2 4920   2.576   2.241  10.168  0.3165 -0.1090 -0.4416
  328MPD2     C 4921   0.742   0.629  17.313  0.0847 -0.1912  1.0018
  328MPD2    C1 4922   0.617   0.599  17.262 -0.3128 -0.0027 -0.0408
  328MPD2    C2 4923   0.574   0.669  17.151  0.1684  0.2212 -0.2332
  328MPD2    C3 4924   0.652   0.768  17.102  0.1393 -0.3682 -0.6998
  328MPD2    C4 4925   0.776   0.799  17.158 -0.0582  0.4114  0.5917
  328MPD2    C5 4926   0.821   0.724  17.262 -0.2725  0.5245  0.1648
  328MPD2     H 4927   0.473   0.656  17.115 -0.2805 -1.5865  1.6817
  328MPD2    H1 4928   0.847   0.873  17.123  1.3216 -1.4307 -0.5212
  328MPD2    H2 4929   0.787   0.566  17.389  0.5090  0.5914  1.3996
  328MPD2    H3 4930   0.916   0.739  17.312 -1.3432  1.5396  1.8755
  328MPD2     N 4931   0.606   0.850  16.999 -0.3644 -0.3837 -0.5005
  328MPD2    H5 4932   0.656   0.937  16.983 -2.4166  1.2839  2.0181
  328MPD2    N1 4933   0.541   0.496  17.328 -0.8468  0.0324 -0.4806
  328MPD2    H7 4934   0.569   0.459  17.418 -1.1862 -0.0165 -0.3949
  329TMC3    C1 4935   0.337   0.377  17.384 -0.3250 -0.3817  0.5067
  329TMC3    C2 4936   0.208   0.409  17.357  0.0619  0.0818  0.0965
  329TMC3    C3 4937   0.143   0.475  17.458 -0.0841  0.3206 -0.7246
  329TMC3    C4 4938   0.388   0.374  17.510  0.2821 -0.0345  0.6951
  329TMC3    C5 4939   0.319   0.427  17.610 -0.3828 -0.5511 -0.1819
  329TMC3    C6 4940   0.199   0.485  17.582  0.0893 -0.5713 -0.3021
  329TMC3     C 4941   0.419   0.452  17.282 -0.2355 -0.4177 -0.2199
  329TMC3     O 4942   0.369   0.462  17.170 -0.0005 -0.5455 -0.2920
  329TMC3     H 4943   0.184   0.409  17.251 -0.6279  2.0574  0.2487
  329TMC3    H1 4944   0.486   0.338  17.539 -0.4878 -0.8292  2.3250
  329TMC3    H2 4945   0.136   0.528  17.659  1.0587 -0.6738  0.5451
  329TMC3    C7 4946   0.380   0.425   0.047 -0.4663  0.4351 -0.1436
  329TMC3    C8 4947   0.027   0.562  17.431 -0.0294 -0.1964  0.3824
  329TMC3    O1 4948   0.476   0.349   0.069 -0.1786 -0.1041  0.2962
  329TMC3    O2 4949   4.690   0.538  17.327  0.0683  0.1312  0.3622
  330TMC3    C1 4950   3.120   0.406   9.846 -0.3468 -0.6179 -0.2896
  330TMC3    C2 4951   3.046   0.364   9.740  0.4014  0.3039  0.2303
  330TMC3    C3 4952   2.922   0.307   9.760 -0.0941  0.4770 -0.2779
  330TMC3    C4 4953   3.069   0.405   9.975  0.6869 -0.2162 -0.6653
  330TMC3    C5 4954   2.945   0.356   9.986 -0.5896 -0.6332  0.7346
  330TMC3    C6 4955   2.866   0.313   9.881  0.2515 -0.1083  0.1223
  330TMC3     C 4956   3.232   0.493   9.816  0.0123  0.4244  0.8808
  330TMC3     O 4957   3.331   0.476   9.882 -0.0059 -0.2599  0.2650
  330TMC3     H 4958   3.090   0.360   9.641 -0.3873  1.1619 -0.1483
  330TMC3    H1 4959   3.131   0.435  10.059 -0.5245  0.7594 -0.1057
  330TMC3    H2 4960   2.779   0.253   9.904 -0.4533  0.5560 -0.7963
  330TMC3    C7 4961   2.931   0.305  10.121  0.3157 -0.4180 -0.2041
  330TMC3    C8 4962   2.855   0.276   9.632  0.1296  0.2941 -0.0516
  330TMC3    O1 4963   3.013   0.329  10.205 -0.0041  0.5995 -0.2522
  330TMC3    O2 4964   2.888   0.331   9.528 -0.6462  0.1175  0.0185
  331MPD2     C 4965   0.736   4.312  12.391 -0.4953 -0.1286  0.2688
  331MPD2    C1 4966   0.860   4.359  12.351 -0.5155  0.1111  0.2753
  331MPD2    C2 4967   0.938   4.274  12.272  0.2132 -0.1210 -0.1675
  331MPD2    C3 4968   0.898   4.131  12.253 -0.1440  0.4370  0.6560
  331MPD2    C4 4969   0.782   4.088  12.309  0.2272  0.0542 -0.0898
  331MPD2    C5 4970   0.706   4.184  12.370 -0.2976  0.2692  0.9253
  331MPD2     H 4971   1.037   4.300  12.236  1.1703  1.4651  3.6187
  331MPD2    H1 4972   0.739   3.988  12.310 -0.7481  0.4856  0.7192
  331MPD2    H2 4973   0.665   4.364  12.456  0.8512  0.1673  1.5039
  331MPD2    H3 4974   0.614   4.144  12.410 -0.7914 -0.8540 -1.3811
  331MPD2     N 4975   0.987   4.044  12.179 -0.1243  0.4506  0.3566
  331MPD2    H5 4976   1.075   4.085  12.148  0.8226 -1.2180  0.8600
  331MPD2    N1 4977   0.896   4.483  12.397 -0.2871 -0.4763 -0.0395
  331MPD2    H7 4978   0.839   4.545  12.453 -0.3426 -1.0810  0.5749
  332TMC3    C1 4979   1.081   3.868  12.089  0.6480  0.7741 -0.2837
  332TMC3    C2 4980   1.161   3.947  12.013  0.7495  0.2981 -0.5779
  332TMC3    C3 4981   1.297   3.947  12.031 -0.0541 -0.5008 -0.3230
  332TMC3    C4 4982   1.137   3.794  12.192 -0.1442  0.2555  0.7125
  332TMC3    C5 4983   1.277   3.803  12.207  0.1108  0.1957 -0.0372
  332TMC3    C6 4984   1.352   3.877  12.130  0.0679  0.3234 -0.5182
  332TMC3     C 4985   0.954   3.922  12.125  0.0520 -0.2324 -0.2447
  332TMC3     O 4986   0.860   3.848  12.157 -0.4205 -0.1611  0.7911
  332TMC3     H 4987   1.105   4.010  11.944 -1.8470 -1.7196 -0.3061
  332TMC3    H1 4988   1.069   3.737  12.252 -0.0257 -2.5664 -1.8273
  332TMC3    H2 4989   1.460   3.872  12.129  0.1848  2.7932 -1.1624
  332TMC3    C7 4990   1.333   3.755  12.333  0.8405 -0.1912  0.6559
  332TMC3    C8 4991   1.386   4.027  11.934 -0.1320  0.3563  0.1987
  332TMC3    O1 4992   1.265   3.679  12.399  0.8770 -0.0659 -0.3266
  332TMC3    O2 4993   1.496   4.052  11.987  0.7290  0.1901  0.2440
  333MPD2     C 4994   1.659   4.364  11.189 -0.0878  1.1954 -0.1889
  333MPD2    C1 4995   1.612   4.330  11.062 -0.1306  0.1844  0.4080
  333MPD2    C2 4996   1.512   4.232  11.054 -0.4535 -0.3124 -0.5617
  333MPD2    C3 4997   1.466   4.168  11.173  0.0179  0.0374 -0.0826
  333MPD2    C4 4998   1.540   4.187  11.287 -0.0445  0.1778 -0.6370
  333MPD2    C5 4999   1.636   4.288  11.297 -0.2930 -0.2267  0.6600
  333MPD2     H 5000   1.473   4.194  10.960 -1.9126  0.8631 -0.4306
  333MPD2    H1 5001   1.533   4.127  11.377 -2.2922  0.0555 -0.8749
  333MPD2    H2 5002   1.733   4.442  11.201 -1.9039  2.9973 -0.8265
  333MPD2    H3 5003   1.674   4.312  11.395  0.0082  1.3083  0.1696
  333MPD2     N 5004   1.366   4.076  11.157  0.1876  0.5574  0.4526
  333MPD2    H5 5005   1.317   4.068  11.068  1.8000  0.4423 -0.4232
  333MPD2    N1 5006   1.665   4.390  10.948  0.2568 -0.3370  0.1707
  333MPD2    H7 5007   1.750   4.440  10.971 -0.0984 -0.1508  1.0706
  334TMC3    C1 5008   1.725   4.397  10.725  0.5603 -0.5985 -0.7351
  334TMC3    C2 5009   1.855   4.388  10.767  0.5981 -0.0027 -0.5932
  334TMC3    C3 5010   1.948   4.453  10.691 -0.5650 -0.2419 -0.1202
  334TMC3    C4 5011   1.679   4.467  10.616 -0.1799  0.3272  0.4729
  334TMC3    C5 5012   1.777   4.533  10.544  0.2806 -0.4849 -0.4793
  334TMC3    C6 5013   1.911   4.522  10.573  0.0540  0.2206  0.4586
  334TMC3     C 5014   1.622   4.366  10.822  0.3688  0.6172 -0.0530
  334TMC3     O 5015   1.513   4.334  10.773 -0.6500  0.4932 -0.0435
  334TMC3     H 5016   1.879   4.344  10.863 -1.7883  2.3531  1.1016
  334TMC3    H1 5017   1.574   4.495  10.618 -0.3825 -0.4676  0.6737
  334TMC3    H2 5018   1.986   4.560  10.505  0.7387  0.3678  1.2968
  334TMC3    C7 5019   1.742   4.664  10.502 -0.3235 -0.8423  0.4231
  334TMC3    C8 5020   2.090   4.435  10.721  0.3960 -0.1943 -0.7523
  334TMC3    O1 5021   1.756   0.027  10.583 -0.7048 -0.0009  0.2921
  334TMC3    O2 5022   2.122   4.335  10.786 -0.1487  0.2271  0.2071
  335TMC3    C1 5023   1.474   0.069   0.011  0.1683 -0.4395 -0.4132
  335TMC3    C2 5024   1.385   0.155  17.638  0.5871  0.0923 -0.1548
  335TMC3    C3 5025   1.416   0.195  17.504 -0.7304 -0.7662 -0.0772
  335TMC3    C4 5026   1.595   0.036  17.647  0.0533  0.2325 -0.1092
  335TMC3    C5 5027   1.622   0.094  17.524  0.0876 -0.1731  0.1748
  335TMC3    C6 5028   1.529   0.158  17.452  0.5688 -0.0336  0.5684
  335TMC3     C 5029   1.460   0.045   0.151 -0.3808 -0.6540  0.0154
  335TMC3     O 5030   1.383   0.117   0.214 -0.2213 -0.0644 -0.4802
  335TMC3     H 5031   1.287   0.179  17.678  0.4271  0.6023 -0.8546
  335TMC3    H1 5032   1.679   4.704  17.687 -0.9160 -0.5196  0.8460
  335TMC3    H2 5033   1.548   0.178  17.347 -1.4671  1.7779  0.5278
  335TMC3    C7 5034   1.745   0.065  17.460 -0.3467  0.1399 -0.3507
  335TMC3    C8 5035   1.313   0.232  17.411  0.4984  1.1983  0.2628
  335TMC3    O1 5036   1.795   0.155  17.388 -0.1124  0.6688 -0.0362
  335TMC3    O2 5037   1.334   0.294  17.308  0.2686 -0.4448  0.1288
  336MPD2     C 5038   0.844   3.406  16.126 -0.4029  0.4605  0.3554
  336MPD2    C1 5039   0.862   3.354  15.995  0.3262  0.8751  0.3352
  336MPD2    C2 5040   0.861   3.216  15.978 -0.2096  0.0510 -0.4792
  336MPD2    C3 5041   0.836   3.136  16.085 -0.0403  0.2812 -0.1429
  336MPD2    C4 5042   0.821   3.183  16.213 -0.2753 -0.0840 -0.3466
  336MPD2    C5 5043   0.827   3.319  16.230 -0.0113 -0.5844 -0.2637
  336MPD2     H 5044   0.876   3.179  15.877  0.2394 -1.5654  0.1908
  336MPD2    H1 5045   0.816   3.112  16.296 -1.8583  1.1855  0.6341
  336MPD2    H2 5046   0.831   3.510  16.152  1.3921  1.0538 -1.2070
  336MPD2    H3 5047   0.820   3.357  16.331 -0.7756 -0.1055 -0.4913
  336MPD2     N 5048   0.831   2.995  16.073  0.5050 -0.1920  0.1186
  336MPD2    H5 5049   0.796   2.948  16.157  4.5777 -0.9642  1.4012
  336MPD2    N1 5050   0.880   3.438  15.881  0.1561  0.5708 -0.0441
  336MPD2    H7 5051   0.873   3.394  15.789 -0.4190  0.3653  0.1034
  337TMC3    C1 5052   0.933   3.624  15.755  0.3241  0.9338 -0.0550
  337TMC3    C2 5053   0.827   3.611  15.675 -0.4724 -0.2125 -0.3536
  337TMC3    C3 5054   0.816   3.683  15.564  0.1945  0.0697 -0.3584
  337TMC3    C4 5055   1.012   3.740  15.749 -0.2617 -0.0346  1.0786
  337TMC3    C5 5056   1.002   3.814  15.631 -0.1963 -0.4782  0.3679
  337TMC3    C6 5057   0.906   3.780  15.544 -0.4824  0.5029  0.0581
  337TMC3     C 5058   0.924   3.564  15.887  0.1110 -0.2921 -0.6643
  337TMC3     O 5059   0.951   3.629  15.988 -0.1103  0.2651 -0.2891
  337TMC3     H 5060   0.744   3.545  15.699 -0.8973 -0.6823 -3.0722
  337TMC3    H1 5061   1.076   3.770  15.831 -1.0124  1.8484  0.9713
  337TMC3    H2 5062   0.891   3.842  15.457  0.2260 -0.7979 -0.9962
  337TMC3    C7 5063   1.057   3.950  15.621  0.4463  0.2486  0.3508
  337TMC3    C8 5064   0.691   3.763  15.558 -0.3945  0.2773  0.7542
  337TMC3    O1 5065   1.054   3.999  15.507  0.0087 -0.7103  0.0972
  337TMC3    O2 5066   0.692   3.880  15.586  0.3157 -0.1609 -0.4984
  338MPD2     C 5067   1.377   2.892   0.702 -0.6598 -0.1612 -0.8551
  338MPD2    C1 5068   1.309   2.868   0.591  0.1958 -0.3478  0.0797
  338MPD2    C2 5069   1.181   2.901   0.587  0.4771 -0.1510 -0.0468
  338MPD2    C3 5070   1.114   2.947   0.698 -0.3741 -0.3989  0.3798
  338MPD2    C4 5071   1.186   2.981   0.818 -0.0461 -0.8191  0.1944
  338MPD2    C5 5072   1.319   2.954   0.807  0.2014  0.1304  0.6162
  338MPD2     H 5073   1.131   2.904   0.491 -0.8798 -0.6656  0.6440
  338MPD2    H1 5074   1.144   3.039   0.899  0.2674 -0.4203  0.0745
  338MPD2    H2 5075   1.485   2.885   0.710 -0.9107 -1.4757  1.2446
  338MPD2    H3 5076   1.378   2.981   0.894 -1.6914  0.1421  1.9005
  338MPD2     N 5077   0.976   2.979   0.692  0.6488  0.8129  0.3549
  338MPD2    H5 5078   0.926   2.959   0.606  0.4352  3.0581 -0.0321
  338MPD2    N1 5079   1.358   2.800   0.478 -0.0407  0.4462 -0.5820
  338MPD2    H7 5080   1.292   2.800   0.401 -0.3588  1.3400 -0.3036
  339TMC3    C1 5081   0.764   3.028   0.743  0.3621 -0.0032 -0.0588
  339TMC3    C2 5082   0.677   2.939   0.796  0.4615  0.2448  0.8995
  339TMC3    C3 5083   0.594   2.884   0.703 -0.3028  0.4575  0.0469
  339TMC3    C4 5084   0.765   3.058   0.610 -0.0099 -0.5268 -0.4568
  339TMC3    C5 5085   0.690   2.999   0.518  0.9327  0.8240  0.8020
  339TMC3    C6 5086   0.604   2.907   0.568  0.2841  0.1818  0.0956
  339TMC3     C 5087   0.899   3.007   0.797 -0.3515 -0.0409  0.1117
  339TMC3     O 5088   0.911   3.002   0.920  0.0695  0.3368 -0.0734
  339TMC3     H 5089   0.681   2.918   0.902  5.5743 -2.2527  0.1896
  339TMC3    H1 5090   0.840   3.126   0.571 -0.2253  0.7918  1.4900
  339TMC3    H2 5091   0.560   2.837   0.497  1.0770  0.1270 -0.3370
  339TMC3    C7 5092   0.751   2.975   0.383  0.2482  0.1521 -0.8624
  339TMC3    C8 5093   0.514   2.772   0.736  0.1556 -0.1127  0.3704
  339TMC3    O1 5094   0.869   2.979   0.378  0.2228 -0.4054  0.2940
  339TMC3    O2 5095   0.406   2.762   0.678 -0.2354 -0.5804  0.0129
  340MPD2     C 5096   1.034   1.557   9.672 -0.2200 -0.0322  0.2443
  340MPD2    C1 5097   1.102   1.458   9.745 -0.1634 -0.0861  0.0455
  340MPD2    C2 5098   1.128   1.473   9.888 -0.0045 -0.1943  0.9959
  340MPD2    C3 5099   1.091   1.585   9.947  0.2291  0.2825  0.7070
  340MPD2    C4 5100   1.026   1.682   9.867  0.2519  0.5219 -0.4588
  340MPD2    C5 5101   0.992   1.664   9.741  0.6385  0.3893  1.2399
  340MPD2     H 5102   1.183   1.390   9.931  2.0404  1.7361  2.1254
  340MPD2    H1 5103   0.996   1.774   9.916  0.3996  0.6682 -0.6428
  340MPD2    H2 5104   1.015   1.554   9.565  1.2579 -0.4754 -0.0038
  340MPD2    H3 5105   0.935   1.743   9.694 -2.0938 -2.1385  0.2665
  340MPD2     N 5106   1.117   1.618  10.086 -0.1442 -0.3315 -0.4305
  340MPD2    H5 5107   1.089   1.707  10.124  0.2471 -0.1875 -0.4754
  340MPD2    N1 5108   1.159   1.349   9.671  0.2531  0.6482 -0.3810
  340MPD2    H7 5109   1.141   1.339   9.571  0.3821  1.2434 -0.4645
  341TMC3    C1 5110   1.263   1.146   9.632 -0.5340  0.1677  0.1109
  341TMC3    C2 5111   1.261   1.024   9.696  0.2212 -0.4360  0.0609
  341TMC3    C3 5112   1.336   0.927   9.651  0.7641  0.1687 -0.1790
  341TMC3    C4 5113   1.346   1.169   9.526 -0.3799 -0.1791 -1.2361
  341TMC3    C5 5114   1.422   1.064   9.483 -0.2247 -0.7996 -0.1389
  341TMC3    C6 5115   1.424   0.944   9.546  0.2736 -0.2403  0.2553
  341TMC3     C 5116   1.240   1.252   9.726 -0.2718  0.6237 -0.6028
  341TMC3     O 5117   1.286   1.240   9.839  0.3655  0.4596 -0.1120
  341TMC3     H 5118   1.217   1.017   9.795 -0.5820  0.7002 -0.2098
  341TMC3    H1 5119   1.359   1.265   9.478  2.1075 -0.3103 -0.8340
  341TMC3    H2 5120   1.491   0.860   9.532  0.2676 -0.2415  0.2344
  341TMC3    C7 5121   1.535   1.084   9.402 -0.2665 -0.5120  0.3224
  341TMC3    C8 5122   1.391   0.845   9.758 -0.4422  0.3506  0.4863
  341TMC3    O1 5123   1.611   0.990   9.393 -0.3325 -0.2293  0.3266
  341TMC3    O2 5124   1.422   0.729   9.736  0.5329  0.3771 -0.5270
  342MPD2     C 5125   4.071   3.674   0.108  0.2322  0.3009  0.8132
  342MPD2    C1 5126   4.119   3.703  17.675  0.1222 -0.1142 -0.3645
  342MPD2    C2 5127   4.166   3.828  17.650  0.1665 -0.3065 -0.4828
  342MPD2    C3 5128   4.157   3.929   0.057 -0.5092 -0.4919 -0.6178
  342MPD2    C4 5129   4.119   3.891   0.191  0.4971  0.5496 -0.4543
  342MPD2    C5 5130   4.075   3.763   0.209  0.5088 -0.0126  0.4507
  342MPD2     H 5131   4.198   3.853  17.550  0.3499  1.8600  0.1262
  342MPD2    H1 5132   4.109   3.965   0.269  0.2140 -2.1905  2.1182
  342MPD2    H2 5133   4.030   3.576   0.130  0.1661 -0.1002 -1.0379
  342MPD2    H3 5134   4.017   3.736   0.296  1.3598 -2.1520  0.3447
  342MPD2     N 5135   4.207   4.060   0.048  0.3535 -0.1255 -0.8633
  342MPD2    H5 5136   4.175   4.123   0.122 -0.1960 -0.0322 -1.1816
  342MPD2    N1 5137   4.107   3.611  17.568 -0.0686 -0.1180 -0.0400
  342MPD2    H7 5138   4.152   3.631  17.479 -1.5908  0.1015 -0.7518
  343TMC3    C1 5139   4.031   3.403  17.460  0.1661 -0.4591  0.3812
  343TMC3    C2 5140   4.074   3.448  17.333 -0.2649 -0.3606 -1.2083
  343TMC3    C3 5141   4.095   3.349  17.232  0.2649 -0.6722 -0.4397
  343TMC3    C4 5142   3.989   3.276  17.473  0.7096  0.2311 -0.0013
  343TMC3    C5 5143   3.999   3.186  17.371  0.4641  0.1800  0.0470
  343TMC3    C6 5144   4.047   3.222  17.247 -0.4883 -0.0953  0.6621
  343TMC3     C 5145   4.030   3.496  17.574 -0.2494  0.3080 -0.1171
  343TMC3     O 5146   3.968   3.445  17.669 -0.3436  0.2117  0.1888
  343TMC3     H 5147   4.102   3.553  17.325  2.4380 -0.8042  2.2532
  343TMC3    H1 5148   3.938   3.248  17.564  0.0663 -1.0023 -0.7467
  343TMC3    H2 5149   4.064   3.153  17.166  0.1410  1.5265 -0.5748
  343TMC3    C7 5150   3.983   3.046  17.398  0.0428 -0.3559 -0.0529
  343TMC3    C8 5151   4.182   3.383  17.122 -0.0182  0.1278  0.3383
  343TMC3    O1 5152   3.961   2.971  17.302 -0.0862  0.4406 -0.1529
  343TMC3    O2 5153   4.169   3.497  17.082 -0.3209  0.3815  0.5571
  344MPD2     C 5154   0.465   3.803  10.928  0.3776  0.5175  0.4316
  344MPD2    C1 5155   0.351   3.806  10.856  0.6588 -0.1073  0.1545
  344MPD2    C2 5156   0.341   3.902  10.751 -0.3376 -0.3152 -0.2699
  344MPD2    C3 5157   0.436   4.000  10.733  0.4331  0.1577  0.1247
  344MPD2    C4 5158   0.546   4.000  10.813  0.0187  0.1761 -0.3820
  344MPD2    C5 5159   0.555   3.901  10.911 -0.2643  0.4477 -0.2126
  344MPD2     H 5160   0.248   3.906  10.696 -2.7768 -0.0213  3.8116
  344MPD2    H1 5161   0.625   4.073  10.807  2.1697 -2.0271  1.6538
  344MPD2    H2 5162   0.493   3.735  11.007 -3.2424 -0.8556  0.5671
  344MPD2    H3 5163   0.645   3.906  10.971 -0.2348 -4.6026  0.1422
  344MPD2     N 5164   0.428   4.099  10.631  0.0328 -0.4728 -0.2130
  344MPD2    H5 5165   0.509   4.159  10.624  0.5158 -1.2975 -1.7643
  344MPD2    N1 5166   0.249   3.710  10.876 -0.6561  0.1528 -0.3529
  344MPD2    H7 5167   0.164   3.718  10.821 -0.3291 -0.4076 -0.9391
  345TMC3    C1 5168   0.391   4.174  10.417 -0.1238 -0.4225 -0.3645
  345TMC3    C2 5169   0.451   4.295  10.452 -0.4598 -0.0285 -0.1103
  345TMC3    C3 5170   0.500   4.375  10.352  0.3974 -0.7292  0.8963
  345TMC3    C4 5171   0.356   4.150  10.290 -0.1766  0.3266  0.2037
  345TMC3    C5 5172   0.392   4.242  10.193  0.1380  0.0317 -0.0002
  345TMC3    C6 5173   0.462   4.346  10.226  0.7379 -0.2847  0.2779
  345TMC3     C 5174   0.354   4.079  10.515  0.1305  0.7656 -0.6108
  345TMC3     O 5175   0.271   3.993  10.490 -0.0548 -0.2604  0.2396
  345TMC3     H 5176   0.440   4.332  10.554  0.7140  0.8574 -0.3011
  345TMC3    H1 5177   0.307   4.060  10.254  1.9860 -0.5007 -0.7312
  345TMC3    H2 5178   0.493   4.420  10.152  0.0002 -0.1771  0.0787
  345TMC3    C7 5179   0.343   4.214  10.063 -0.8091 -0.0903  0.0814
  345TMC3    C8 5180   0.529   4.515  10.386 -0.2008  0.4288  0.3442
  345TMC3    O1 5181   0.263   4.121  10.051  0.4090  0.2669 -0.3338
  345TMC3    O2 5182   0.501   4.604  10.309  0.1246  0.0623 -0.2060
  346MPD2     C 5183   0.429   0.313  13.627 -0.1107 -0.8238  0.4942
  346MPD2    C1 5184   0.535   0.378  13.690 -0.0275 -0.7981 -0.8406
  346MPD2    C2 5185   0.537   0.398  13.823 -1.1286 -0.4393 -0.6987
  346MPD2    C3 5186   0.427   0.361  13.898  0.5999  0.1120  0.1064
  346MPD2    C4 5187   0.319   0.292  13.836 -0.3918  0.6316 -0.0061
  346MPD2    C5 5188   0.320   0.265  13.698 -0.5703  0.7043  0.1393
  346MPD2     H 5189   0.616   0.456  13.869 -0.2784 -1.1076 -1.3108
  346MPD2    H1 5190   0.231   0.257  13.889 -0.1704  1.0746  0.6619
  346MPD2    H2 5191   0.419   0.301  13.520 -4.0328 -0.4257  0.8238
  346MPD2    H3 5192   0.235   0.216  13.651  0.4871 -1.2631  0.2602
  346MPD2     N 5193   0.432   0.395  14.040  0.4767  0.3067  0.0684
  346MPD2    H5 5194   0.515   0.442  14.074  0.3017  2.0419 -1.9082
  346MPD2    N1 5195   0.644   0.427  13.619 -0.3863 -0.1261  0.0004
  346MPD2    H7 5196   0.723   0.474  13.662  1.1725 -0.1325 -2.9118
  347TMC3    C1 5197   0.341   0.432  14.262 -0.3845  0.1198 -0.7823
  347TMC3    C2 5198   0.457   0.415  14.326 -0.0136  0.6582 -0.0188
  347TMC3    C3 5199   0.459   0.432  14.460 -0.9734 -0.3184  0.0084
  347TMC3    C4 5200   0.220   0.449  14.323 -0.3668 -0.4419  1.0088
  347TMC3    C5 5201   0.219   0.458  14.460  0.0373 -0.0262  0.6078
  347TMC3    C6 5202   0.339   0.444  14.532  0.0478 -0.5097 -0.2831
  347TMC3     C 5203   0.324   0.384  14.127  0.0549 -0.0642  0.3495
  347TMC3     O 5204   0.218   0.329  14.111 -0.2783 -0.5699 -0.1209
  347TMC3     H 5205   0.544   0.396  14.265 -0.2155  0.6261 -0.2994
  347TMC3    H1 5206   0.125   0.453  14.271  0.6067  0.8496 -0.6681
  347TMC3    H2 5207   0.338   0.425  14.639  0.4697  1.7327  0.1164
  347TMC3    C7 5208   0.100   0.453  14.543 -0.1947  0.3862 -0.4044
  347TMC3    C8 5209   0.580   0.415  14.534  0.4535  0.1608 -0.9500
  347TMC3    O1 5210   4.719   0.426  14.487 -0.7332 -0.1289 -0.2690
  347TMC3    O2 5211   0.678   0.385  14.472  0.3696  0.0094 -0.0966
  348MPD2     C 5212   3.676   0.757  12.144  0.5187  1.0024 -0.2502
  348MPD2    C1 5213   3.772   0.744  12.048 -0.1213  0.2985  0.2393
  348MPD2    C2 5214   3.731   0.787  11.926  0.4333 -0.9408  0.0394
  348MPD2    C3 5215   3.603   0.839  11.902  0.1435 -0.3426 -0.0410
  348MPD2    C4 5216   3.505   0.852  12.002 -0.1761  0.3699  0.7281
  348MPD2    C5 5217   3.548   0.810  12.129  0.1815  0.0318 -0.0787
  348MPD2     H 5218   3.796   0.774  11.840 -0.1096  1.2648 -0.7018
  348MPD2    H1 5219   3.407   0.898  11.992  0.0686  0.6175 -0.5089
  348MPD2    H2 5220   3.701   0.741  12.248 -2.5545  1.1760  0.5017
  348MPD2    H3 5221   3.480   0.829  12.212  0.2961  1.9291 -0.4134
  348MPD2     N 5222   3.578   0.902  11.779  0.6874  0.4765 -0.1927
  348MPD2    H5 5223   3.652   0.915  11.710  1.3090 -3.5654 -0.3089
  348MPD2    N1 5224   3.907   0.702  12.052 -0.0303  0.7331 -0.4830
  348MPD2    H7 5225   3.950   0.695  11.961  1.8177  0.4346  0.4100
  349TMC3    C1 5226   4.101   0.594  12.117  0.2558  0.7351  0.0235
  349TMC3    C2 5227   4.124   0.473  12.167  0.2163  0.1985  0.2983
  349TMC3    C3 5228   4.200   0.384  12.096  0.1869 -0.3054  0.1014
  349TMC3    C4 5229   4.149   0.630  11.994  0.1760  0.5052  0.7304
  349TMC3    C5 5230   4.218   0.540  11.919 -0.2371  0.1860  0.3685
  349TMC3    C6 5231   4.247   0.412  11.970 -0.7941  0.7682 -0.1620
  349TMC3     C 5232   3.972   0.651  12.161  1.0313  0.0701  0.0433
  349TMC3     O 5233   3.923   0.623  12.270  0.5836  0.1689 -0.3037
  349TMC3     H 5234   4.067   0.445  12.254  1.4883 -0.0783  1.0447
  349TMC3    H1 5235   4.123   0.728  11.955 -2.2602  0.5299  2.4603
  349TMC3    H2 5236   4.284   0.339  11.899 -4.3270  0.2005 -1.4345
  349TMC3    C7 5237   4.172   0.529  11.782  0.0854 -0.0463  0.1917
  349TMC3    C8 5238   4.207   0.246  12.145 -0.8612 -0.3049  0.0044
  349TMC3    O1 5239   4.142   0.418  11.736  0.5791  0.4672  0.2148
  349TMC3    O2 5240   4.131   0.226  12.242 -0.0786 -0.0399 -0.7013
  350MPD2     C 5241   2.804   2.973   9.349 -0.2244 -0.3061 -0.2194
  350MPD2    C1 5242   2.877   2.934   9.454  0.2843 -0.3253  0.0968
  350MPD2    C2 5243   2.888   3.022   9.563  0.2879  0.5590 -0.2798
  350MPD2    C3 5244   2.815   3.141   9.559  0.0575  0.1792  0.8115
  350MPD2    C4 5245   2.729   3.161   9.457 -0.6112  0.5127 -0.0495
  350MPD2    C5 5246   2.722   3.082   9.348  0.2170 -1.1633  0.2031
  350MPD2     H 5247   2.945   2.997   9.651  0.0881  0.3783 -0.2009
  350MPD2    H1 5248   2.660   3.244   9.454 -0.9555  0.3150  2.3691
  350MPD2    H2 5249   2.785   2.909   9.263 -0.9953 -0.2633 -0.0804
  350MPD2    H3 5250   2.647   3.095   9.271  2.3411  0.1203 -1.6270
  350MPD2     N 5251   2.824   3.225   9.675  0.0923  0.2720  0.3434
  350MPD2    H5 5252   2.862   3.182   9.759  2.6540  1.5576 -0.1812
  350MPD2    N1 5253   2.922   2.803   9.480  0.5472  0.6383 -0.1289
  350MPD2    H7 5254   2.946   2.789   9.578 -0.2217 -0.1639 -0.0537
  351TMC3    C1 5255   2.968   2.575   9.431 -0.5393  0.0746 -0.1220
  351TMC3    C2 5256   3.096   2.570   9.479 -0.3410 -0.7374 -0.1807
  351TMC3    C3 5257   3.154   2.443   9.488  0.2508 -0.9424  0.1173
  351TMC3    C4 5258   2.910   2.467   9.368 -0.2133 -0.9626 -0.2639
  351TMC3    C5 5259   2.974   2.345   9.376  0.7555 -0.6157 -0.1622
  351TMC3    C6 5260   3.092   2.330   9.447 -0.0685 -0.4055 -0.2570
  351TMC3     C 5261   2.910   2.701   9.393 -0.3382 -0.2788 -0.8615
  351TMC3     O 5262   2.857   2.700   9.284  0.0793  0.1693  0.5032
  351TMC3     H 5263   3.148   2.658   9.514  0.0352 -0.6879 -0.8403
  351TMC3    H1 5264   2.807   2.474   9.336 -1.1752 -0.0848  2.9444
  351TMC3    H2 5265   3.137   2.233   9.462 -0.8589 -1.0930 -2.2676
  351TMC3    C7 5266   2.895   2.226   9.330  0.3637 -0.2312 -0.6944
  351TMC3    C8 5267   3.293   2.422   9.543  0.2625  0.1387 -0.0251
  351TMC3    O1 5268   2.893   2.119   9.389  0.0256  0.3607 -0.0993
  351TMC3    O2 5269   3.313   2.308   9.584 -0.3022 -0.4064 -0.4893
  352MPD2     C 5270   1.971   4.049   0.903  0.6325 -0.4112 -0.4056
  352MPD2    C1 5271   1.851   4.047   0.835  0.7724  0.3917  0.2210
  352MPD2    C2 5272   1.838   3.972   0.719 -0.1199  0.2540  0.1515
  352MPD2    C3 5273   1.941   3.888   0.675  0.0405  0.1929 -1.1403
  352MPD2    C4 5274   2.054   3.891   0.754 -0.5441  0.8624 -0.3943
  352MPD2    C5 5275   2.074   3.967   0.861  0.8138 -0.8616  0.8635
  352MPD2     H 5276   1.749   3.984   0.658 -1.5922 -0.8701  2.0729
  352MPD2    H1 5277   2.133   3.823   0.725 -2.7120 -2.5471  1.7326
  352MPD2    H2 5278   1.989   4.116   0.986 -0.9744 -0.2391 -0.1948
  352MPD2    H3 5279   2.156   3.951   0.930  0.1420  0.0402  1.8915
  352MPD2     N 5280   1.934   3.788   0.572  0.2786 -0.0485  0.2516
  352MPD2    H5 5281   2.020   3.737   0.554  1.8245  3.0632 -1.2974
  352MPD2    N1 5282   1.743   4.124   0.884 -0.1030 -0.1577  0.0500
  352MPD2    H7 5283   1.660   4.136   0.827  0.7113 -0.3582 -1.1830
  353TMC3    C1 5284   1.826   3.646   0.414  0.6221  0.1712 -0.2167
  353TMC3    C2 5285   1.946   3.602   0.370  0.3004 -0.2240 -0.8153
  353TMC3    C3 5286   1.942   3.489   0.299 -0.1596 -0.5068  0.1001
  353TMC3    C4 5287   1.712   3.580   0.386 -0.8569  0.6419  0.2806
  353TMC3    C5 5288   1.711   3.464   0.314  0.1204 -0.4765 -0.0835
  353TMC3    C6 5289   1.829   3.411   0.287  0.3177 -0.1954 -0.4051
  353TMC3     C 5290   1.820   3.773   0.494  0.5003  0.2607  0.3046
  353TMC3     O 5291   1.711   3.829   0.505 -0.5744 -0.4820 -0.0891
  353TMC3     H 5292   2.032   3.667   0.364  0.2234  0.1998  2.5862
  353TMC3    H1 5293   1.615   3.624   0.406 -1.1287  0.0786  0.1989
  353TMC3    H2 5294   1.832   3.314   0.239 -0.8354  0.1471 -1.1771
  353TMC3    C7 5295   1.602   3.380   0.351 -0.3584  0.4570 -0.2490
  353TMC3    C8 5296   2.066   3.412   0.288  0.0992  0.6660  0.0673
  353TMC3    O1 5297   1.568   3.291   0.274  0.1748 -0.0374  0.3888
  353TMC3    O2 5298   2.080   3.363   0.177  0.3296 -0.2076  0.1202
  354TMC3    C1 5299   3.437   1.453  13.067 -0.6005  0.4140 -0.2533
  354TMC3    C2 5300   3.340   1.528  13.005 -0.0511 -0.0901 -0.1600
  354TMC3    C3 5301   3.339   1.530  12.864 -0.0324  0.0350 -0.3682
  354TMC3    C4 5302   3.535   1.392  13.005  0.0341  0.0422  0.0973
  354TMC3    C5 5303   3.539   1.416  12.870  0.7722 -0.9558  0.0334
  354TMC3    C6 5304   3.443   1.473  12.796  0.5681 -0.2236 -0.0055
  354TMC3     C 5305   3.423   1.438  13.212 -0.4936  0.4026 -0.0954
  354TMC3     O 5306   3.428   1.324  13.257  0.3397 -0.4204 -0.1608
  354TMC3     H 5307   3.249   1.562  13.053 -0.9962 -0.7406 -1.4974
  354TMC3    H1 5308   3.624   1.358  13.057  0.2574  1.8943  0.9185
  354TMC3    H2 5309   3.433   1.452  12.690  0.0606  2.7225 -0.5353
  354TMC3    C7 5310   3.669   1.443  12.818  0.5197 -0.0283 -0.2046
  354TMC3    C8 5311   3.298   1.649  12.786 -0.1232 -0.5372  0.0747
  354TMC3    O1 5312   3.759   1.366  12.860 -0.3307 -0.2232 -0.0911
  354TMC3    O2 5313   3.357   1.671  12.681  0.4215  0.3269  0.7080
  355MPD2     C 5314   2.958   2.539  11.484  0.9603 -0.0557 -0.3716
  355MPD2    C1 5315   3.061   2.529  11.392 -0.4570 -0.0557  0.4249
  355MPD2    C2 5316   3.173   2.463  11.443 -0.7019 -0.1934 -0.1130
  355MPD2    C3 5317   3.195   2.439  11.580 -0.1584 -0.1403 -0.0173
  355MPD2    C4 5318   3.087   2.449  11.662  0.7753  0.4561 -0.2861
  355MPD2    C5 5319   2.973   2.497  11.608 -0.1798 -0.8732 -0.2442
  355MPD2     H 5320   3.245   2.429  11.370 -0.1660 -0.4495  0.5354
  355MPD2    H1 5321   3.098   2.430  11.768 -2.2899 -3.1154 -0.5950
  355MPD2    H2 5322   2.872   2.596  11.450  0.5434 -1.4039 -1.5751
  355MPD2    H3 5323   2.895   2.516  11.680 -0.1144 -0.9202 -0.1600
  355MPD2     N 5324   3.319   2.389  11.635 -0.2862 -0.3568 -0.5451
  355MPD2    H5 5325   3.320   2.374  11.736  0.5308 -2.4005 -0.8543
  355MPD2    N1 5326   3.066   2.595  11.266  0.1492  0.6262  0.3393
  355MPD2    H7 5327   3.150   2.579  11.211 -0.4124 -0.1469 -0.2918
  356TMC3    C1 5328   3.556   2.339  11.639 -0.0242 -0.4254  0.6906
  356TMC3    C2 5329   3.661   2.367  11.564 -0.2165  0.0835 -0.1498
  356TMC3    C3 5330   3.757   2.457  11.609 -0.3587  0.1840 -0.1739
  356TMC3    C4 5331   3.552   2.389  11.764  0.1191  0.4077 -0.5740
  356TMC3    C5 5332   3.654   2.470  11.813  0.0071 -0.1057  0.1127
  356TMC3    C6 5333   3.753   2.511  11.735 -0.7034  0.7122 -0.2209
  356TMC3     C 5334   3.435   2.367  11.563  1.0763  0.3195  0.3603
  356TMC3     O 5335   3.452   2.396  11.443  0.2935  0.2614  0.3448
  356TMC3     H 5336   3.671   2.340  11.460  0.2101 -0.5360  0.0519
  356TMC3    H1 5337   3.471   2.372  11.834 -0.3190 -1.3591 -1.5280
  356TMC3    H2 5338   3.840   2.568  11.766 -0.2518  0.2197 -0.5813
  356TMC3    C7 5339   3.630   2.519  11.945 -0.2221 -0.2929  0.3942
  356TMC3    C8 5340   3.869   2.484  11.525  0.0835 -0.1379 -0.0807
  356TMC3    O1 5341   3.559   2.447  12.024  0.0682  0.4662  0.4087
  356TMC3    O2 5342   3.897   2.402  11.437  0.3863 -0.3324 -0.5503
  357MPD2     C 5343   2.291   1.176   0.170 -0.8834 -0.4367 -0.5825
  357MPD2    C1 5344   2.333   1.283   0.237 -0.2760  0.2418  0.5772
  357MPD2    C2 5345   2.244   1.373   0.297  0.7408  0.0597  0.0409
  357MPD2    C3 5346   2.113   1.353   0.283  0.2552  0.2574 -0.3489
  357MPD2    C4 5347   2.065   1.236   0.230 -0.0643  0.9265  0.9162
  357MPD2    C5 5348   2.157   1.147   0.172  0.0957  0.0599 -0.6881
  357MPD2     H 5349   2.282   1.459   0.351  2.1875  0.0508 -0.9476
  357MPD2    H1 5350   1.960   1.209   0.223  0.4334 -0.2278 -2.2046
  357MPD2    H2 5351   2.357   1.101   0.127 -0.0525 -0.3859  0.5952
  357MPD2    H3 5352   2.122   1.053   0.129 -0.5839  1.0540 -2.3016
  357MPD2     N 5353   2.012   1.437   0.336  0.2412 -0.2434  0.5839
  357MPD2    H5 5354   1.916   1.404   0.332  0.5298 -0.8024 -1.6914
  357MPD2    N1 5355   2.474   1.301   0.264 -0.4398  0.2093 -0.4651
  357MPD2    H7 5356   2.486   1.384   0.322 -1.0212 -0.7373  1.0143
  358TMC3    C1 5357   2.706   1.252   0.286  0.2682 -0.5500 -0.9111
  358TMC3    C2 5358   2.811   1.186   0.228 -0.9604 -0.9655  0.0718
  358TMC3    C3 5359   2.923   1.163   0.301 -0.4999  0.8003  0.0194
  358TMC3    C4 5360   2.707   1.279   0.421  0.2987 -0.2900  0.1990
  358TMC3    C5 5361   2.813   1.246   0.495 -0.6131  0.4654  0.5451
  358TMC3    C6 5362   2.928   1.193   0.433  0.4432  0.1179  0.7998
  358TMC3     C 5363   2.579   1.235   0.211  0.1312  0.1299  0.3019
  358TMC3     O 5364   2.581   1.154   0.118  0.2979 -0.2216 -0.1502
  358TMC3     H 5365   2.813   1.175   0.120 -0.4576 -0.4274  0.0300
  358TMC3    H1 5366   2.619   1.313   0.476  0.7522  2.6390 -0.8775
  358TMC3    H2 5367   3.007   1.156   0.497 -0.1118  0.3055  1.5908
  358TMC3    C7 5368   2.842   1.319   0.623  0.0682 -0.0413 -0.0284
  358TMC3    C8 5369   3.043   1.143   0.221  0.1244  0.2848  0.0173
  358TMC3    O1 5370   2.956   1.304   0.664 -0.2474  0.2045 -0.0518
  358TMC3    O2 5371   3.034   1.130   0.099 -0.0378  0.6547  0.2618
  359MPD2     C 5372   3.427   1.695  12.004 -0.2657  0.0404 -0.2322
  359MPD2    C1 5373   3.374   1.589  11.932  0.0783  0.0744 -0.4743
  359MPD2    C2 5374   3.253   1.539  11.968 -0.3831 -0.0218 -0.1402
  359MPD2    C3 5375   3.191   1.569  12.086  0.6244  0.0802 -0.4640
  359MPD2    C4 5376   3.250   1.661  12.164  0.4294 -0.4528  0.0259
  359MPD2    C5 5377   3.371   1.724  12.127 -0.1665  0.6740  0.5981
  359MPD2     H 5378   3.208   1.454  11.917  0.3398  0.2863 -1.2812
  359MPD2    H1 5379   3.199   1.704  12.250 -1.6318 -1.3557 -0.7376
  359MPD2    H2 5380   3.529   1.730  11.990  0.2618 -0.5008  2.1986
  359MPD2    H3 5381   3.404   1.806  12.189  3.2185 -0.6667  0.5563
  359MPD2     N 5382   3.069   1.510  12.126 -0.3989  0.0071  0.4724
  359MPD2    H5 5383   3.042   1.519  12.223  1.2372 -0.2705  0.9481
  359MPD2    N1 5384   3.446   1.545  11.813 -0.1220  0.7338  0.2368
  359MPD2    H7 5385   3.525   1.599  11.781  0.5082  0.3415  1.1185
  360TMC3    C1 5386   3.476   1.439  11.612 -0.1157  0.2648  1.0493
  360TMC3    C2 5387   3.601   1.507  11.613 -0.2002 -0.5838 -0.1174
  360TMC3    C3 5388   3.661   1.517  11.494 -0.4602  1.0231 -0.6253
  360TMC3    C4 5389   3.413   1.411  11.495 -0.8501 -0.2629  0.2947
  360TMC3    C5 5390   3.476   1.432  11.373  0.1990 -0.0498  0.0402
  360TMC3    C6 5391   3.612   1.467  11.372 -0.4059  0.1453  0.2492
  360TMC3     C 5392   3.402   1.442  11.730  0.6008 -0.0314  0.1876
  360TMC3     O 5393   3.304   1.366  11.732 -0.2729 -0.0101  0.7263
  360TMC3     H 5394   3.667   1.526  11.697 -0.5656  0.2901 -0.0312
  360TMC3    H1 5395   3.313   1.371  11.504 -1.2286  0.4899 -0.5934
  360TMC3    H2 5396   3.665   1.488  11.279  0.8785 -0.8922  0.7510
  360TMC3    C7 5397   3.424   1.359  11.261  0.3639 -0.6987  0.1138
  360TMC3    C8 5398   3.779   1.593  11.488  0.7865  0.4833 -0.1735
  360TMC3    O1 5399   3.498   1.323  11.168  0.0179 -0.0769 -0.5772
  360TMC3    O2 5400   3.771   1.696  11.428  0.4637  0.0567 -0.0546
  361MPD2     C 5401   0.664   4.244  16.431  0.9635 -0.2729 -0.0424
  361MPD2    C1 5402   0.627   4.273  16.562  0.4166  0.4297 -0.2111
  361MPD2    C2 5403   0.658   4.186  16.661  0.1786  0.0638 -0.1709
  361MPD2    C3 5404   0.725   4.063  16.632 -0.5748  0.6243  0.3639
  361MPD2    C4 5405   0.758   4.032  16.499 -0.0787  0.5140 -0.7094
  361MPD2    C5 5406   0.727   4.124  16.398 -0.8942 -1.4167  0.4469
  361MPD2     H 5407   0.630   4.204  16.764  1.9281 -1.0348  0.5032
  361MPD2    H1 5408   0.805   3.937  16.479 -0.8190 -0.3495  1.5667
  361MPD2    H2 5409   0.643   4.315  16.352 -1.0162 -0.2053  0.5627
  361MPD2    H3 5410   0.758   4.109  16.295 -1.1976  2.3786 -0.2026
  361MPD2     N 5411   0.750   3.958  16.720  0.0690 -0.0331  0.9490
  361MPD2    H5 5412   0.807   3.879  16.692 -0.3536 -0.0141  0.0374
  361MPD2    N1 5413   0.560   4.402  16.581 -0.4235 -0.3730  0.3596
  361MPD2    H7 5414   0.568   4.469  16.506 -0.0013 -1.1138 -0.2644
  362TMC3    C1 5415   0.457   4.565  16.702 -0.6747 -0.0520  0.5704
  362TMC3    C2 5416   0.420   4.613  16.827 -0.0879 -0.5544  0.0801
  362TMC3    C3 5417   0.340   4.720  16.836 -0.0513  0.0806 -0.4742
  362TMC3    C4 5418   0.425   4.630  16.588 -0.6733  0.3265 -0.2280
  362TMC3    C5 5419   0.342   0.019  16.598 -0.0371 -0.6892  0.2596
  362TMC3    C6 5420   0.305   0.067  16.724 -0.3745  0.3364 -0.4655
  362TMC3     C 5421   0.501   4.431  16.697 -0.5658  1.0825 -0.7860
  362TMC3     O 5422   0.473   4.372  16.800  0.0720  0.0759  0.0209
  362TMC3     H 5423   0.447   4.561  16.919  0.9494  1.0492  0.6856
  362TMC3    H1 5424   0.420   4.581  16.492  0.2324  1.1635 -0.6979
  362TMC3    H2 5425   0.228   0.143  16.735  0.7019  1.6217 -1.8157
  362TMC3    C7 5426   0.278   0.076  16.476  0.2002  0.3381 -0.3747
  362TMC3    C8 5427   0.277   0.028  16.967  0.0452 -0.5316  0.1211
  362TMC3    O1 5428   0.175   0.137  16.499 -0.3298  0.2382  0.1244
  362TMC3    O2 5429   0.329   4.690  17.059  0.3413 -0.2604  0.6154
  363TMC3    C1 5430   0.524   1.961   9.314  0.0117 -0.2178  0.6205
  363TMC3    C2 5431   0.437   1.979   9.421 -0.6071 -0.4035 -0.1593
  363TMC3    C3 5432   0.439   2.093   9.499 -0.0869  0.9874 -0.4587
  363TMC3    C4 5433   0.619   2.057   9.288  0.3376  0.0098  0.2758
  363TMC3    C5 5434   0.630   2.156   9.378  0.1433  0.2178  0.2152
  363TMC3    C6 5435   0.542   2.181   9.472 -0.4044  0.9102 -0.3071
  363TMC3     C 5436   0.487   1.854   9.214  0.1596  0.1105  0.2180
  363TMC3     O 5437   0.375   1.800   9.215  0.0185  0.4317 -0.7737
  363TMC3     H 5438   0.354   1.910   9.433  1.9308 -3.3448  0.7165
  363TMC3    H1 5439   0.675   2.049   9.195 -0.7035 -3.0385 -0.0674
  363TMC3    H2 5440   0.539   2.281   9.515  0.3463  0.1222  1.5859
  363TMC3    C7 5441   0.730   2.255   9.346 -0.0084 -0.7609 -0.3804
  363TMC3    C8 5442   0.324   2.142   9.571  0.5928  0.1766 -1.0506
  363TMC3    O1 5443   0.775   2.234   9.235 -0.1760  0.3281  0.1625
  363TMC3    O2 5444   0.329   2.263   9.597 -0.1002  0.1991  0.7645
  364MPD2     C 5445   2.537   2.545  10.599  0.4256  0.3347 -0.4430
  364MPD2    C1 5446   2.586   2.550  10.473 -0.5552  0.4726 -0.3534
  364MPD2    C2 5447   2.584   2.430  10.406  0.4495 -0.1579  0.2407
  364MPD2    C3 5448   2.547   2.312  10.462 -0.2474 -0.9829  0.1286
  364MPD2    C4 5449   2.516   2.312  10.594  0.2993  0.6274 -0.5822
  364MPD2    C5 5450   2.513   2.428  10.666 -0.3612  0.7448  0.7248
  364MPD2     H 5451   2.613   2.421  10.302  0.0624 -1.0036  0.2050
  364MPD2    H1 5452   2.502   2.215  10.639  1.0081  0.7416 -0.1195
  364MPD2    H2 5453   2.533   2.638  10.653  2.5805  0.4227 -0.4415
  364MPD2    H3 5454   2.481   2.438  10.770  0.0050 -0.0000  0.9090
  364MPD2     N 5455   2.533   2.188  10.395  0.3936  0.8708  0.5718
  364MPD2    H5 5456   2.522   2.106  10.454 -1.6688 -0.7568 -2.1035
  364MPD2    N1 5457   2.637   2.678  10.431  0.0466 -0.0151 -0.1356
  364MPD2    H7 5458   2.602   2.760  10.479  0.6456  0.2997 -0.2345
  365TMC3    C1 5459   2.763   2.838  10.295  0.5911  0.6606 -0.4174
  365TMC3    C2 5460   2.780   2.863  10.162 -0.2028  0.6499  0.1311
  365TMC3    C3 5461   2.738   2.986  10.110  0.3976 -0.2995 -0.1820
  365TMC3    C4 5462   2.721   2.933  10.381  0.6460 -0.5559 -0.5193
  365TMC3    C5 5463   2.699   3.059  10.333 -0.1166 -0.6961 -0.3069
  365TMC3    C6 5464   2.698   3.087  10.198  0.4402  0.0522 -0.8707
  365TMC3     C 5465   2.719   2.696  10.320  0.3553  0.2547  0.2303
  365TMC3     O 5466   2.764   2.610  10.246  0.3787  0.2480  0.1485
  365TMC3     H 5467   2.800   2.774  10.103  3.7872  2.7112 -1.5704
  365TMC3    H1 5468   2.732   2.914  10.487 -1.5784 -0.6098 -0.2947
  365TMC3    H2 5469   2.655   3.182  10.167 -0.8426 -0.2900 -0.1628
  365TMC3    C7 5470   2.688   3.174  10.417 -0.6395  0.0199 -0.7385
  365TMC3    C8 5471   2.714   2.994   9.969 -0.1319  1.1310  0.0665
  365TMC3    O1 5472   2.700   3.283  10.358  0.6935 -0.2932  0.8436
  365TMC3    O2 5473   2.663   3.099   9.927  1.3341 -0.1706  0.5461
  366MPD2     C 5474   0.837   2.141  15.278 -0.0501  0.0099  0.0407
  366MPD2    C1 5475   0.794   2.251  15.213  0.0300 -0.6267 -0.5811
  366MPD2    C2 5476   0.822   2.268  15.077 -0.6421  1.0051 -0.2376
  366MPD2    C3 5477   0.900   2.176  15.010 -0.0633  0.1766  0.0275
  366MPD2    C4 5478   0.942   2.062  15.075 -0.0156  0.9034  0.6089
  366MPD2    C5 5479   0.921   2.050  15.212  0.6063 -0.1303  0.8343
  366MPD2     H 5480   0.794   2.360  15.026  3.0024  1.0962 -2.0541
  366MPD2    H1 5481   1.012   1.999  15.022 -0.5839  1.0485 -0.3001
  366MPD2    H2 5482   0.818   2.123  15.383  0.7911  2.6675  0.6482
  366MPD2    H3 5483   0.980   1.971  15.256  1.4860  0.0621  0.0172
  366MPD2     N 5484   0.952   2.195  14.877  0.4289 -0.2530  0.0647
  366MPD2    H5 5485   0.993   2.111  14.837 -0.8186  0.2338 -2.2474
  366MPD2    N1 5486   0.722   2.354  15.277  0.3529 -0.0579  0.2815
  366MPD2    H7 5487   0.707   2.437  15.220 -1.0730 -0.0511  0.6824
  367TMC3    C1 5488   0.633   2.493  15.435 -0.1650  0.2898  0.7391
  367TMC3    C2 5489   0.733   2.561  15.498 -0.7360  0.8553 -0.0935
  367TMC3    C3 5490   0.732   2.697  15.470  0.5208 -0.2633 -0.2213
  367TMC3    C4 5491   0.536   2.542  15.354  0.0512 -0.2633  0.4202
  367TMC3    C5 5492   0.548   2.676  15.330 -0.3440  0.0560  0.2988
  367TMC3    C6 5493   0.641   2.760  15.389  0.7470 -0.9568 -1.1131
  367TMC3     C 5494   0.678   2.357  15.405 -0.8100  0.4324 -0.7397
  367TMC3     O 5495   0.709   2.290  15.503 -0.5510  0.1239 -0.3807
  367TMC3     H 5496   0.803   2.504  15.558 -1.0148  0.4542 -0.1471
  367TMC3    H1 5497   0.478   2.476  15.292 -1.6589  2.5776 -1.0055
  367TMC3    H2 5498   0.637   2.865  15.364  0.5383 -0.8062 -0.4509
  367TMC3    C7 5499   0.443   2.746  15.262 -0.5944  0.1737 -0.0243
  367TMC3    C8 5500   0.855   2.771  15.489  0.0326  0.7000 -0.7106
  367TMC3    O1 5501   0.443   2.866  15.256 -0.3819  0.3136 -0.7117
  367TMC3    O2 5502   0.925   2.734  15.583  0.0752  0.0910  0.1162
  368MPD2     C 5503   2.558   4.717  13.081  0.4644 -1.0074  0.2887
  368MPD2    C1 5504   2.480   0.005  12.973 -0.4093 -0.0448  0.7014
  368MPD2    C2 5505   2.531   0.059  12.858  0.5419  0.9479  0.4092
  368MPD2    C3 5506   2.666   0.089  12.840  0.0181 -0.5469  0.0118
  368MPD2    C4 5507   2.749   0.067  12.951 -0.1343 -0.0935 -0.5891
  368MPD2    C5 5508   2.689   0.033  13.065  0.4352 -0.0489 -0.2012
  368MPD2     H 5509   2.463   0.067  12.774  1.4076 -0.3456 -0.4256
  368MPD2    H1 5510   2.855   0.084  12.936  0.0486  0.6768  1.6587
  368MPD2    H2 5511   2.518   4.688  13.178  2.4741 -1.3451  1.0125
  368MPD2    H3 5512   2.753   0.012  13.150  1.3362 -2.0994 -1.3844
  368MPD2     N 5513   2.717   0.144  12.726 -0.5120 -0.9363 -0.0860
  368MPD2    H5 5514   2.816   0.168  12.718 -0.8952  0.4531 -0.6969
  368MPD2    N1 5515   2.341   4.715  12.971 -0.1378  0.4592  0.6073
  368MPD2    H7 5516   2.289   0.007  12.884  0.5412 -2.6385 -0.3518
  369TMC3    C1 5517   2.119   4.703  13.027 -0.4215  0.4873 -0.5755
  369TMC3    C2 5518   2.100   0.098  12.953 -0.4361  0.6388 -0.3104
  369TMC3    C3 5519   1.968   0.129  12.911  0.0158  0.1263  0.2554
  369TMC3    C4 5520   2.005   4.636  13.076  0.0749  0.4788 -0.2598
  369TMC3    C5 5521   1.881   4.665  13.029 -0.4348 -0.4127  0.7355
  369TMC3    C6 5522   1.856   0.056  12.953 -0.4537 -0.2653 -0.1307
  369TMC3     C 5523   2.256   4.665  13.064 -0.2693  0.9066  0.1458
  369TMC3     O 5524   2.277   4.626  13.177  0.3701  0.0150  0.0783
  369TMC3     H 5525   2.183   0.163  12.928 -0.0442  0.2322 -0.0607
  369TMC3    H1 5526   2.013   4.556  13.149 -1.4786 -2.3324 -3.1878
  369TMC3    H2 5527   1.764   0.066  12.898 -0.7579  4.0429  1.1622
  369TMC3    C7 5528   1.765   4.611  13.099 -0.0544 -0.7658  0.2706
  369TMC3    C8 5529   1.950   0.228  12.801  0.2616  0.1453  0.3253
  369TMC3    O1 5530   1.781   4.543  13.198  0.1058  0.2255 -0.5195
  369TMC3    O2 5531   1.834   0.261  12.778  1.4410  0.5166 -0.3549
  370TMC3    C1 5532   1.535   0.465  16.310 -0.0593  0.2659  0.6758
  370TMC3    C2 5533   1.441   0.413  16.401 -0.0300 -0.0790 -0.5141
  370TMC3    C3 5534   1.355   0.312  16.348 -0.3652 -0.0524 -0.6100
  370TMC3    C4 5535   1.546   0.423  16.178 -0.1065 -0.1804  0.3929
  370TMC3    C5 5536   1.453   0.328  16.141 -0.0655  0.8025  0.2259
  370TMC3    C6 5537   1.355   0.272  16.219 -0.1088 -0.1316 -0.8884
  370TMC3     C 5538   1.644   0.535  16.371 -0.2525 -0.9855  0.3442
  370TMC3     O 5539   1.648   0.514  16.490  0.0598 -0.1737 -0.3995
  370TMC3     H 5540   1.430   0.459  16.499 -0.2002  1.2086 -1.1280
  370TMC3    H1 5541   1.629   0.455  16.116  0.1086 -1.0099  0.2475
  370TMC3    H2 5542   1.291   0.193  16.183 -0.1969 -0.8934  0.9564
  370TMC3    C7 5543   1.456   0.295  15.997  0.0440  0.1476 -0.4749
  370TMC3    C8 5544   1.275   0.244  16.445 -0.3500  0.2745 -0.1391
  370TMC3    O1 5545   1.502   0.382  15.928  0.2981  0.8255 -0.2227
  370TMC3    O2 5546   1.228   0.139  16.411  0.2821 -0.3192 -0.2104
  371TMC3    C1 5547   2.728   3.463  15.480  0.0061  0.3259 -0.3237
  371TMC3    C2 5548   2.607   3.463  15.417 -0.0892 -0.5592  0.0296
  371TMC3    C3 5549   2.533   3.578  15.413  0.4361  0.0340 -0.1462
  371TMC3    C4 5550   2.782   3.579  15.512  0.4285 -0.5131  0.4088
  371TMC3    C5 5551   2.714   3.698  15.499 -0.7563 -0.4590  0.4722
  371TMC3    C6 5552   2.585   3.697  15.468 -0.2740 -0.0285  0.6115
  371TMC3     C 5553   2.806   3.343  15.511  0.4970  0.1519  0.9202
  371TMC3     O 5554   2.926   3.348  15.533 -0.6473 -0.7501  0.7166
  371TMC3     H 5555   2.569   3.376  15.365 -2.6999 -0.5836  2.0271
  371TMC3    H1 5556   2.880   3.574  15.558 -0.9669 -0.4380  3.3658
  371TMC3    H2 5557   2.533   3.791  15.460 -0.2615 -0.0419  0.3572
  371TMC3    C7 5558   2.783   3.817  15.467 -0.2681  0.4366  0.4928
  371TMC3    C8 5559   2.405   3.574  15.360  0.2604 -0.5863 -0.9397
  371TMC3    O1 5560   2.743   3.866  15.361 -0.2617 -0.9581 -0.0635
  371TMC3    O2 5561   2.371   3.495  15.269 -0.1053 -0.0162 -0.4516
  372MPD2     C 5562   2.048   0.372  13.189  0.1673 -0.0205  0.3418
  372MPD2    C1 5563   2.148   0.276  13.229 -0.0333  0.6877 -0.2210
  372MPD2    C2 5564   2.109   0.169  13.308 -0.0762  0.0056 -0.4724
  372MPD2    C3 5565   1.978   0.149  13.354 -0.1074 -0.5027  0.0512
  372MPD2    C4 5566   1.886   0.242  13.318 -0.0579 -0.8605  0.7089
  372MPD2    C5 5567   1.919   0.344  13.235 -0.4772  0.2147  0.0272
  372MPD2     H 5568   2.183   0.094  13.333  1.4628  0.0684 -4.9393
  372MPD2    H1 5569   1.784   0.232  13.355 -0.0863  0.9231  1.1118
  372MPD2    H2 5570   2.066   0.455  13.122 -1.4540 -2.0419 -2.6130
  372MPD2    H3 5571   1.836   0.403  13.196 -2.2108 -0.7516  2.2686
  372MPD2     N 5572   1.967   0.035  13.430  0.1262 -0.1896 -0.8073
  372MPD2    H5 5573   2.051   4.710  13.458 -1.3183 -0.4714  2.9646
  372MPD2    N1 5574   2.281   0.289  13.182  0.3140 -0.6892  0.4407
  372MPD2    H7 5575   2.353   0.226  13.214  3.1913  2.0296 -0.7382
  373TMC3    C1 5576   1.847   4.578  13.527  0.8201  0.1119 -0.2838
  373TMC3    C2 5577   1.802   4.554  13.656 -0.3153 -0.1571  0.2425
  373TMC3    C3 5578   1.841   4.442  13.726  0.6255  0.6259  0.3242
  373TMC3    C4 5579   1.926   4.491  13.465  0.6212 -0.4966  0.5174
  373TMC3    C5 5580   1.954   4.374  13.534 -0.3022  1.1086 -0.8620
  373TMC3    C6 5581   1.902   4.341  13.661 -0.0390 -0.3609  0.4965
  373TMC3     C 5582   1.839   4.713  13.471 -0.0626  0.5318 -1.2009
  373TMC3     O 5583   1.727   0.025  13.454 -0.0297  0.0119 -0.1622
  373TMC3     H 5584   1.735   4.627  13.699 -0.9409 -0.4166 -0.2960
  373TMC3    H1 5585   1.966   4.498  13.365 -2.9269 -4.5339 -1.1709
  373TMC3    H2 5586   1.920   4.244  13.706  0.4544 -1.0308 -1.1561
  373TMC3    C7 5587   2.065   4.297  13.499  0.6514 -0.3576 -0.6468
  373TMC3    C8 5588   1.934   4.485  13.827  0.1876  0.7162  0.6973
  373TMC3    O1 5589   2.104   4.299  13.384 -0.3230  0.5986 -0.5927
  373TMC3    O2 5590   2.050   4.439  13.822 -0.0134 -0.0788 -0.6193
  374TMC3    C1 5591   2.452   0.430   9.576 -0.0602 -0.0892  0.5270
  374TMC3    C2 5592   2.559   0.510   9.573 -0.1416 -0.2679  0.1012
  374TMC3    C3 5593   2.620   0.543   9.689  1.1150 -0.0403 -0.5509
  374TMC3    C4 5594   2.430   0.352   9.686 -0.8827  0.1128  0.6682
  374TMC3    C5 5595   2.508   0.371   9.797  1.4087  0.1271  0.5394
  374TMC3    C6 5596   2.601   0.473   9.806  0.0022 -0.5393 -0.4760
  374TMC3     C 5597   2.392   0.386   9.455 -0.3724 -0.1111 -0.2811
  374TMC3     O 5598   2.326   0.281   9.451  0.0844  0.3792  0.0040
  374TMC3     H 5599   2.584   0.558   9.479  1.6669 -1.0964  0.1670
  374TMC3    H1 5600   2.357   0.272   9.675 -1.8410  1.1321 -0.3788
  374TMC3    H2 5601   2.654   0.490   9.898  2.2661 -2.6870 -1.3706
  374TMC3    C7 5602   2.487   0.303   9.927 -0.4343  0.4303 -0.3143
  374TMC3    C8 5603   2.727   0.644   9.687  0.3886  0.0387 -0.1123
  374TMC3    O1 5604   2.577   0.315  10.012  0.0661 -0.1069 -0.2214
  374TMC3    O2 5605   2.762   0.688   9.579  0.6373 -0.4632 -0.0877
  375MPD2     C 5606   2.856   4.663  16.897  0.2116  0.0161 -0.0132
  375MPD2    C1 5607   2.787   0.017  16.802 -0.7126  0.3159  0.1013
  375MPD2    C2 5608   2.855   0.049  16.690  0.3385 -0.0806 -1.2393
  375MPD2    C3 5609   2.990   0.008  16.659 -0.0474 -0.6806  0.3877
  375MPD2    C4 5610   3.057   4.662  16.758  0.0636  0.1681 -0.0760
  375MPD2    C5 5611   2.989   4.630  16.871 -0.0148  0.4569  0.3951
  375MPD2     H 5612   2.798   0.120  16.631 -1.1972 -0.4592 -0.1919
  375MPD2    H1 5613   3.162   4.636  16.752  0.4304  1.8958 -1.1491
  375MPD2    H2 5614   2.800   4.645  16.988 -0.5343  0.1551 -0.4434
  375MPD2    H3 5615   3.040   4.582  16.953  0.7601  2.0089  0.8190
  375MPD2     N 5616   3.061   0.048  16.544 -0.5155 -0.1420 -0.2379
  375MPD2    H5 5617   3.161   0.033  16.538 -0.4227  0.7993 -1.0701
  375MPD2    N1 5618   2.644   0.053  16.810 -0.3541  0.3732  0.0623
  375MPD2    H7 5619   2.612   0.115  16.736  0.6588 -0.2677 -0.9222
  376TMC3    C1 5620   3.095   0.149  16.337  0.5412 -0.7185 -0.0341
  376TMC3    C2 5621   3.215   0.205  16.379 -0.3139 -0.1831  0.0541
  376TMC3    C3 5622   3.295   0.260  16.285 -0.3696 -0.0446 -0.2049
  376TMC3    C4 5623   3.062   0.147  16.202 -0.0115 -0.4009 -0.0066
  376TMC3    C5 5624   3.150   0.194  16.110 -0.6655  0.9587 -0.0419
  376TMC3    C6 5625   3.271   0.251  16.151 -0.6450 -0.0775 -0.3096
  376TMC3     C 5626   2.997   0.108  16.439 -0.6042 -0.2871  0.2017
  376TMC3     O 5627   2.880   0.128  16.420 -0.5157 -0.2585 -0.0959
  376TMC3     H 5628   3.232   0.212  16.486 -1.2099  0.4725  0.1590
  376TMC3    H1 5629   2.963   0.111  16.175  0.9673 -1.5935 -1.9898
  376TMC3    H2 5630   3.350   0.277  16.081 -1.5160  0.1000 -1.2247
  376TMC3    C7 5631   3.108   0.217  15.970 -0.1689 -0.1118 -0.5299
  376TMC3    C8 5632   3.394   0.367  16.324 -1.2759 -0.7657  0.3672
  376TMC3    O1 5633   3.159   0.317  15.929 -0.0178 -0.3755  0.2615
  376TMC3    O2 5634   3.451   0.428  16.229  0.1368 -0.6282  0.0806
  377MPD2     C 5635   0.865   0.302  12.956  0.6227 -0.5333 -0.0014
  377MPD2    C1 5636   0.792   0.381  12.870  0.1325 -0.4517  0.1395
  377MPD2    C2 5637   0.659   0.375  12.865 -0.5721  0.2587 -0.1688
  377MPD2    C3 5638   0.591   0.308  12.970 -0.1491 -0.1491  0.0080
  377MPD2    C4 5639   0.661   0.236  13.063 -0.2047 -0.0202  0.5821
  377MPD2    C5 5640   0.799   0.226  13.051  0.4777  0.2846 -0.2668
  377MPD2     H 5641   0.603   0.425  12.787  2.6867  1.6261 -1.6526
  377MPD2    H1 5642   0.610   0.189  13.146  0.9766 -0.3745  1.1049
  377MPD2    H2 5643   0.970   0.297  12.932  0.6624  1.4509 -0.2752
  377MPD2    H3 5644   0.860   0.169  13.119 -2.1746 -1.1112  0.9371
  377MPD2     N 5645   0.452   0.304  12.973  0.1877  0.0870 -0.6379
  377MPD2    H5 5646   0.413   0.253  13.052 -0.9357 -0.6317 -1.6533
  377MPD2    N1 5647   0.872   0.449  12.778 -0.2496 -0.7627  0.4986
  377MPD2    H7 5648   0.973   0.437  12.783  0.0948  1.6041 -0.5786
  378TMC3    C1 5649   1.025   0.684  12.402  0.6639 -0.3465 -0.1999
  378TMC3    C2 5650   0.931   0.663  12.507  0.0558  0.0551  0.1934
  378TMC3    C3 5651   0.933   0.549  12.569  0.3887 -0.2874  0.9331
  378TMC3    C4 5652   1.124   0.593  12.376  0.1184 -0.7622  0.2671
  378TMC3    C5 5653   1.121   0.474  12.448 -0.1280 -0.0559  0.5778
  378TMC3    C6 5654   1.024   0.448  12.544 -0.7367 -0.4294  0.5687
  378TMC3     C 5655   0.985   0.778  12.296 -0.3606  0.4303 -0.1571
  378TMC3     O 5656   0.883   0.846  12.312  0.0667  0.4290  0.2685
  378TMC3     H 5657   0.847   0.731  12.515 -1.4492 -1.8081  0.2982
  378TMC3    H1 5658   1.203   0.620  12.307 -0.7119  0.8361 -0.0346
  378TMC3    H2 5659   1.019   0.352  12.595 -2.5409 -1.1344 -0.9526
  378TMC3    C7 5660   1.242   0.395  12.450  0.4286 -0.0978 -0.0089
  378TMC3    C8 5661   0.835   0.528  12.676  0.1761 -0.5081 -0.0675
  378TMC3    O1 5662   1.263   0.312  12.541  0.1643  0.4080 -0.1798
  378TMC3    O2 5663   0.739   0.604  12.681  0.1673  0.5230  0.3728
  379MPD2     C 5664   1.545   2.902  16.076 -0.2633  0.4800  0.9151
  379MPD2    C1 5665   1.647   2.832  16.021  0.7469  0.0814  0.0100
  379MPD2    C2 5666   1.740   2.767  16.101 -0.2258 -0.2995  0.0346
  379MPD2    C3 5667   1.751   2.791  16.235 -0.5351 -0.1577 -0.0379
  379MPD2    C4 5668   1.649   2.873  16.288 -0.2772  0.5807  0.1852
  379MPD2    C5 5669   1.548   2.922  16.210 -0.0746  0.0025 -0.4559
  379MPD2     H 5670   1.799   2.690  16.052 -0.5426 -0.7943  0.4330
  379MPD2    H1 5671   1.639   2.893  16.394 -0.8561  0.3317  0.1770
  379MPD2    H2 5672   1.467   2.955  16.022 -1.3361 -2.0650 -0.0562
  379MPD2    H3 5673   1.472   2.985  16.256  0.4070  0.5129 -0.3702
  379MPD2     N 5674   1.846   2.736  16.323  0.2824  0.0214 -0.2751
  379MPD2    H5 5675   1.839   2.741  16.424 -2.0265  2.0805 -0.5254
  379MPD2    N1 5676   1.641   2.827  15.885  0.3341  0.4334  0.1314
  379MPD2    H7 5677   1.572   2.889  15.844 -0.8663 -0.3803  0.9456
  380TMC3    C1 5678   1.725   2.803  15.661 -0.2942  0.0736 -0.0091
  380TMC3    C2 5679   1.844   2.789  15.601 -0.1912  0.2916 -0.7819
  380TMC3    C3 5680   1.844   2.796  15.463  0.3559  0.1632 -0.4606
  380TMC3    C4 5681   1.606   2.811  15.598 -0.0187 -0.4423  0.4548
  380TMC3    C5 5682   1.613   2.805  15.460  0.1388  0.1986 -0.6103
  380TMC3    C6 5683   1.729   2.796  15.390  0.2801  0.0179 -0.1899
  380TMC3     C 5684   1.718   2.752  15.796  0.1649  0.2693  0.1849
  380TMC3     O 5685   1.777   2.647  15.821  0.1815 -0.0275 -0.2401
  380TMC3     H 5686   1.935   2.809  15.657 -0.3672 -2.6387  0.5422
  380TMC3    H1 5687   1.515   2.819  15.657 -0.9163 -0.3499 -0.9562
  380TMC3    H2 5688   1.734   2.794  15.281 -0.6541 -0.8581 -0.2197
  380TMC3    C7 5689   1.508   2.844  15.378 -0.0548 -0.3904 -0.4587
  380TMC3    C8 5690   1.952   2.865  15.400  0.3045 -0.8662 -0.0512
  380TMC3    O1 5691   1.530   2.864  15.260  0.0679 -0.2330  0.0435
  380TMC3    O2 5692   1.969   2.860  15.280  0.7696  0.3180 -0.2045
  381TMC3    C1 5693   1.015   4.480  16.269  0.2126  0.5545 -0.1865
  381TMC3    C2 5694   1.131   4.544  16.236  0.5099 -0.6646 -1.2289
  381TMC3    C3 5695   1.228   4.551  16.327 -0.3383  0.2982  0.3527
  381TMC3    C4 5696   0.999   4.418  16.388 -0.4855  0.4375  0.3364
  381TMC3    C5 5697   1.094   4.435  16.485 -0.1828 -0.2113  0.3668
  381TMC3    C6 5698   1.212   4.492  16.450  0.3043  0.5810  0.2566
  381TMC3     C 5699   0.936   4.438  16.158 -0.1071  0.5501  0.0277
  381TMC3     O 5700   0.920   4.521  16.067 -0.5256 -0.1697  0.0602
  381TMC3     H 5701   1.143   4.585  16.137 -0.5639 -1.8149 -1.8388
  381TMC3    H1 5702   0.919   4.347  16.405  1.0716 -1.1255  1.1677
  381TMC3    H2 5703   1.288   4.484  16.528  1.0185  2.3645 -0.2453
  381TMC3    C7 5704   1.108   4.326  16.573 -0.9319 -0.1140  0.1707
  381TMC3    C8 5705   1.355   4.586  16.266  1.1595  0.0561  0.0670
  381TMC3    O1 5706   1.191   4.242  16.538 -0.0316 -0.1771 -0.6994
  381TMC3    O2 5707   1.362   4.602  16.143  0.2117 -0.0740 -0.9523
  382MPD2     C 5708   0.373   2.135  17.613  0.2065 -0.2860  0.5465
  382MPD2    C1 5709   0.467   2.138  17.510 -0.0806 -0.4660  1.0478
  382MPD2    C2 5710   0.514   2.022  17.463 -0.0555  0.1623 -0.0575
  382MPD2    C3 5711   0.463   1.901  17.512 -0.3299  0.5578  1.1229
  382MPD2    C4 5712   0.362   1.903  17.602  0.1700 -0.2168 -0.0557
  382MPD2    C5 5713   0.313   2.019  17.656  0.1925  0.2510  0.7836
  382MPD2     H 5714   0.598   2.020  17.395 -0.1183  0.2100 -0.1366
  382MPD2    H1 5715   0.309   1.814  17.632 -0.3807  0.0056 -0.3623
  382MPD2    H2 5716   0.357   2.229  17.665 -3.8412  0.1204 -1.4246
  382MPD2    H3 5717   0.235   2.035   0.032 -0.8084 -1.2042  0.0303
  382MPD2     N 5718   0.501   1.772  17.469 -0.0393  0.3771  0.0309
  382MPD2    H5 5719   0.451   1.696  17.515  1.6167 -1.9780 -2.0703
  382MPD2    N1 5720   0.508   2.263  17.459  0.2882 -0.2675  0.2116
  382MPD2    H7 5721   0.488   2.340  17.521 -0.7364 -0.9841  0.7788
  383TMC3    C1 5722   0.647   1.604  17.410 -0.3418  0.5667  0.3573
  383TMC3    C2 5723   0.538   1.515  17.426 -0.3642 -0.1855  0.3997
  383TMC3    C3 5724   0.561   1.377  17.418  0.0934 -0.3147 -0.4993
  383TMC3    C4 5725   0.773   1.557  17.390 -0.5138 -0.2172 -0.3878
  383TMC3    C5 5726   0.796   1.421  17.376 -0.4645 -0.0894  0.4389
  383TMC3    C6 5727   0.689   1.335  17.395 -0.6448  0.0832 -0.0321
  383TMC3     C 5728   0.619   1.746  17.412  0.7469 -0.5227 -0.2380
  383TMC3     O 5729   0.710   1.824  17.385  0.1794 -0.0304 -0.2383
  383TMC3     H 5730   0.437   1.553  17.439  0.2709  2.2394 -1.7561
  383TMC3    H1 5731   0.860   1.621  17.396  0.1030 -1.0643 -0.4156
  383TMC3    H2 5732   0.715   1.230  17.394 -0.0117  0.2472 -1.2174
  383TMC3    C7 5733   0.931   1.375  17.400  0.0648 -0.2857  0.1897
  383TMC3    C8 5734   0.450   1.297  17.377  0.1769 -0.1716  0.8696
  383TMC3    O1 5735   1.018   1.449  17.451 -0.2557  0.3192  0.0954
  383TMC3    O2 5736   0.344   1.354  17.358  0.0466  0.3847  0.2398
  384MPD2     C 5737   2.126   3.865  11.857 -0.0922 -0.1022  0.6009
  384MPD2    C1 5738   2.115   3.782  11.962  1.2225 -0.0249 -0.1486
  384MPD2    C2 5739   2.219   3.713  12.005  0.0593 -0.7435 -0.3766
  384MPD2    C3 5740   2.345   3.714  11.942 -0.3560 -0.5523 -0.2688
  384MPD2    C4 5741   2.363   3.795  11.832 -0.4198  0.4885  0.7341
  384MPD2    C5 5742   2.252   3.872  11.793  0.1232  0.0260 -0.2071
  384MPD2     H 5743   2.214   3.654  12.095  0.0110 -0.4538 -0.1906
  384MPD2    H1 5744   2.460   3.813  11.788 -0.1100 -1.0672  0.7738
  384MPD2    H2 5745   2.047   3.930  11.822  0.0302 -0.6226 -0.6622
  384MPD2    H3 5746   2.260   3.935  11.705 -0.3378 -0.8204 -0.8585
  384MPD2     N 5747   2.448   3.640  12.001  0.6302 -0.0435 -0.1009
  384MPD2    H5 5748   2.431   3.603  12.094  2.5235  1.7573  0.9631
  384MPD2    N1 5749   2.005   3.791  12.050  0.4502 -0.0064 -0.1579
  384MPD2    H7 5750   2.012   3.731  12.131  2.1765  0.9152  0.3987
  385TMC3    C1 5751   2.649   3.550  12.040  0.6645 -0.6379 -0.2611
  385TMC3    C2 5752   2.694   3.429  11.980 -0.5272 -0.1203  0.2230
  385TMC3    C3 5753   2.693   3.317  12.060 -0.4837 -0.7519  0.3132
  385TMC3    C4 5754   2.605   3.560  12.169  0.1103  0.3199 -0.6114
  385TMC3    C5 5755   2.584   3.440  12.229  0.2727 -0.8378 -0.3493
  385TMC3    C6 5756   2.635   3.320  12.187  0.5070 -0.9021 -0.2171
  385TMC3     C 5757   2.575   3.634  11.947  0.3904  1.0672  0.1377
  385TMC3     O 5758   2.633   3.673  11.848 -0.3040  0.3980 -0.0230
  385TMC3     H 5759   2.711   3.418  11.873 -0.1763 -0.5473  0.3257
  385TMC3    H1 5760   2.569   3.655  12.208 -1.6029 -0.2499 -0.8071
  385TMC3    H2 5761   2.632   3.241  12.261  0.7880 -2.6755 -2.1008
  385TMC3    C7 5762   2.474   3.444  12.323  0.3033  0.0674  0.4159
  385TMC3    C8 5763   2.743   3.193  12.023 -0.1617 -0.3482  0.0859
  385TMC3    O1 5764   2.444   3.558  12.359  0.6735  0.3802  0.5468
  385TMC3    O2 5765   2.786   3.129  12.119 -0.7517  0.4179 -0.1718
  386TMC3    C1 5766   2.470   0.976  11.522  0.0520 -0.4614  0.3585
  386TMC3    C2 5767   2.491   0.916  11.404  1.0008  0.4249 -0.9256
  386TMC3    C3 5768   2.412   0.806  11.368  0.3894 -0.0779 -0.0288
  386TMC3    C4 5769   2.375   0.934  11.606 -0.2932  0.4872 -0.1669
  386TMC3    C5 5770   2.285   0.837  11.562 -0.6626  0.2786  0.0272
  386TMC3    C6 5771   2.314   0.765  11.448  0.4726 -0.5652 -0.5251
  386TMC3     C 5772   2.572   1.054  11.578 -0.3678 -0.4060 -0.3808
  386TMC3     O 5773   2.540   1.141  11.657 -0.2375  0.1103 -0.4629
  386TMC3     H 5774   2.543   0.972  11.328  0.6431  0.7234 -0.9497
  386TMC3    H1 5775   2.354   0.979  11.702  3.2869 -0.9264  1.2764
  386TMC3    H2 5776   2.252   0.681  11.421 -0.2432  0.3409 -1.7153
  386TMC3    C7 5777   2.180   0.798  11.649 -0.4300  0.7879 -0.4065
  386TMC3    C8 5778   2.428   0.745  11.232  1.3187  0.6853  0.0337
  386TMC3    O1 5779   2.184   0.855  11.759 -0.3757  0.3379 -0.0703
  386TMC3    O2 5780   2.466   0.808  11.137 -0.4748  0.1109 -0.0925
  387MPD2     C 5781   0.043   0.911   9.566 -0.8499  0.5115  0.4397
  387MPD2    C1 5782   0.178   0.895   9.573 -0.4229  0.0436 -0.1845
  387MPD2    C2 5783   0.236   0.780   9.526  0.5181 -0.4696  0.4334
  387MPD2    C3 5784   0.159   0.676   9.476  0.7538  0.6877  0.1555
  387MPD2    C4 5785   0.026   0.693   9.474  0.3988  1.1216  1.1863
  387MPD2    C5 5786   4.696   0.810   9.520 -0.4535  1.1118 -0.1721
  387MPD2     H 5787   0.343   0.771   9.541  0.3170 -0.4605  1.8331
  387MPD2    H1 5788   4.685   0.611   9.444  2.5032  0.3150 -1.1019
  387MPD2    H2 5789   4.716   1.006   9.583 -0.2545  1.1577 -1.3117
  387MPD2    H3 5790   4.589   0.824   9.505 -0.4606  1.7772  0.5330
  387MPD2     N 5791   0.231   0.556   9.458  0.6717 -0.6525 -0.2197
  387MPD2    H5 5792   0.332   0.565   9.465  0.7101 -1.5389  0.3217
  387MPD2    N1 5793   0.257   0.965   9.653 -0.3586  0.0566 -0.1572
  387MPD2    H7 5794   0.356   0.941   9.650 -0.4498 -0.1344 -1.4338
  388TMC3    C1 5795   0.317   1.115   9.822  0.2898 -0.4812  0.5027
  388TMC3    C2 5796   0.317   1.239   9.872 -0.0505 -1.0829 -0.6436
  388TMC3    C3 5797   0.415   1.279   9.964 -0.1121  0.6354 -0.3197
  388TMC3    C4 5798   0.410   1.020   9.860 -0.4945  0.2629 -0.0453
  388TMC3    C5 5799   0.503   1.064   9.953  0.1450 -0.0376  0.3131
  388TMC3    C6 5800   0.503   1.192  10.014  0.3367 -0.2444  0.0835
  388TMC3     C 5801   0.222   1.077   9.723 -0.0885  0.2579 -0.5069
  388TMC3     O 5802   0.120   1.143   9.717 -0.2348 -0.2478 -0.2513
  388TMC3     H 5803   0.236   1.307   9.851 -1.0691 -2.0791  0.0943
  388TMC3    H1 5804   0.400   0.918   9.825 -4.3490  0.3417  0.8266
  388TMC3    H2 5805   0.576   1.218  10.090  0.6357 -2.9397  0.7205
  388TMC3    C7 5806   0.611   0.974   9.988  0.4251  0.1371  0.7033
  388TMC3    C8 5807   0.395   1.403  10.042  1.2152 -0.3782 -0.9926
  388TMC3    O1 5808   0.674   0.991  10.089  0.3557  0.3347 -0.3833
  388TMC3    O2 5809   0.411   1.395  10.162 -0.3934  0.0355 -0.0501
  389MPD2     C 5810   4.309   4.117  11.013 -0.4112  0.6575 -0.0005
  389MPD2    C1 5811   4.219   4.040  10.951 -0.1717 -0.2068 -0.3221
  389MPD2    C2 5812   4.169   3.929  11.018 -0.2245  0.0351 -0.4674
  389MPD2    C3 5813   4.197   3.908  11.155  0.1107  0.0742 -0.0198
  389MPD2    C4 5814   4.292   3.982  11.219 -0.7972 -1.0364 -0.4261
  389MPD2    C5 5815   4.344   4.091  11.143 -0.7011  0.6960  0.4953
  389MPD2     H 5816   4.108   3.853  10.970  1.0932 -1.3727  0.0478
  389MPD2    H1 5817   4.312   3.981  11.325 -2.0865  2.5023 -0.1345
  389MPD2    H2 5818   4.345   4.208  10.967  0.3332  0.6817  0.6163
  389MPD2    H3 5819   4.417   4.161  11.183  1.8238 -1.1156 -0.9226
  389MPD2     N 5820   4.134   3.806  11.232 -0.5093  0.0968 -0.5890
  389MPD2    H5 5821   4.169   3.808  11.327 -1.7792 -0.5366 -0.1116
  389MPD2    N1 5822   4.199   4.064  10.813 -0.0639  0.4428  0.6260
  389MPD2    H7 5823   4.250   4.138  10.768  0.1140  0.6226  1.1281
  390TMC3    C1 5824   3.966   3.656  11.300 -0.9670 -0.3415 -0.3869
  390TMC3    C2 5825   3.876   3.559  11.281  0.7626 -0.0541  0.2665
  390TMC3    C3 5826   3.780   3.531  11.374  0.1183 -0.0570  0.0030
  390TMC3    C4 5827   3.949   3.739  11.409  0.2961 -0.2092  0.2819
  390TMC3    C5 5828   3.855   3.710  11.503 -0.1444  0.1245 -0.2108
  390TMC3    C6 5829   3.773   3.609  11.488  0.2330 -0.7721 -0.9119
  390TMC3     C 5830   4.039   3.721  11.182 -0.1379  0.0194  0.4790
  390TMC3     O 5831   4.000   3.693  11.066 -0.6456  0.0736 -0.8231
  390TMC3     H 5832   3.884   3.491  11.196  1.5256  1.0486 -0.5504
  390TMC3    H1 5833   4.020   3.818  11.430 -0.3351  1.0503 -2.4330
  390TMC3    H2 5834   3.712   3.572  11.569 -2.0968  0.6225 -2.0211
  390TMC3    C7 5835   3.860   3.791  11.624  0.2549  0.4851  0.7192
  390TMC3    C8 5836   3.665   3.448  11.327  0.5554  0.8610  0.7907
  390TMC3    O1 5837   3.953   3.867  11.645 -1.0506 -0.5374 -0.3320
  390TMC3    O2 5838   3.692   3.358  11.245 -0.7167  0.4070  0.1651
  391MPD2     C 5839   3.018   0.904  11.215  0.1078  0.3255  0.2825
  391MPD2    C1 5840   3.150   0.922  11.184 -0.0634 -0.0649  0.6496
  391MPD2    C2 5841   3.197   0.892  11.058 -0.1372  0.1972  0.4920
  391MPD2    C3 5842   3.114   0.847  10.961 -0.8149 -0.3921  0.5955
  391MPD2    C4 5843   2.980   0.832  10.989  0.3353 -0.4617  0.5471
  391MPD2    C5 5844   2.932   0.859  11.115 -0.0081  0.1489  0.4261
  391MPD2     H 5845   3.296   0.920  11.023  0.0868 -1.5519 -0.3276
  391MPD2    H1 5846   2.903   0.802  10.920  0.9402 -0.3862 -0.1574
  391MPD2    H2 5847   2.974   0.932  11.311  0.6858 -1.1233  0.9663
  391MPD2    H3 5848   2.825   0.857  11.137  0.0217  0.4087  0.5881
  391MPD2     N 5849   3.167   0.819  10.829 -0.4478  0.0512 -0.2200
  391MPD2    H5 5850   3.268   0.815  10.818 -0.2886  2.8176  0.1276
  391MPD2    N1 5851   3.235   0.971  11.282  0.2762  0.4385 -0.1279
  391MPD2    H7 5852   3.189   1.003  11.366 -0.3993 -0.2584 -0.2282
  392TMC3    C1 5853   3.177   0.769  10.597 -0.0910 -0.2143 -0.5842
  392TMC3    C2 5854   3.105   0.754  10.479  0.1640 -0.2130 -0.6242
  392TMC3    C3 5855   3.171   0.784  10.361  0.5117 -0.1761  0.5237
  392TMC3    C4 5856   3.313   0.792  10.593 -0.4901 -0.3407 -0.4233
  392TMC3    C5 5857   3.378   0.816  10.475  0.6971 -0.6421 -0.2765
  392TMC3    C6 5858   3.308   0.810  10.355 -0.3867 -0.2300 -0.0708
  392TMC3     C 5859   3.099   0.781  10.717  0.3841  0.1749  0.6309
  392TMC3     O 5860   2.979   0.795  10.699  0.3199  0.0843  0.1151
  392TMC3     H 5861   3.002   0.724  10.490  0.0774  0.2280 -0.2424
  392TMC3    H1 5862   3.381   0.782  10.678  0.9898  2.1348 -1.3216
  392TMC3    H2 5863   3.345   0.834  10.255 -1.7984 -1.0239 -0.7679
  392TMC3    C7 5864   3.519   0.783  10.467  0.3430 -0.1716 -0.1779
  392TMC3    C8 5865   3.096   0.743  10.238  0.7296  0.3508  0.3081
  392TMC3    O1 5866   3.579   0.808  10.568 -0.4234  0.9364  0.8361
  392TMC3    O2 5867   3.016   0.651  10.247 -0.2801  0.2440  0.2779
  393TMC3    C1 5868   1.750   3.108  10.054  0.1240  0.0861 -0.1084
  393TMC3    C2 5869   1.617   3.130  10.080  0.9514  0.4428  1.1587
  393TMC3    C3 5870   1.582   3.192  10.194  0.4351  0.2186 -0.6836
  393TMC3    C4 5871   1.855   3.164  10.127  0.1426  0.2008 -0.4570
  393TMC3    C5 5872   1.810   3.231  10.236  1.0836  0.7789  0.1633
  393TMC3    C6 5873   1.677   3.252  10.275 -0.0250  0.0673 -0.7011
  393TMC3     C 5874   1.795   3.088   9.920 -0.0367 -0.4509  0.0311
  393TMC3     O 5875   1.888   3.162   9.887  0.2266  0.4546  0.3831
  393TMC3     H 5876   1.550   3.071  10.019  0.1521  1.7997  0.7257
  393TMC3    H1 5877   1.949   3.113  10.110 -0.3846 -0.3014 -1.8097
  393TMC3    H2 5878   1.648   3.317  10.357  0.2066  0.6240 -1.0615
  393TMC3    C7 5879   1.908   3.302  10.309 -0.9574  0.1873 -0.0518
  393TMC3    C8 5880   1.438   3.197  10.222 -0.3182 -0.4020 -0.0229
  393TMC3    O1 5881   1.872   3.344  10.417 -0.2891 -0.6370 -0.3767
  393TMC3    O2 5882   1.370   3.172  10.122 -0.0852  0.7001 -1.0067
  394TMC3    C1 5883   4.076   4.068  10.602  0.2221 -0.3785 -0.4893
  394TMC3    C2 5884   3.954   4.051  10.537 -0.5050  0.2786  0.0821
  394TMC3    C3 5885   3.947   4.072  10.404  0.1598 -0.1975  0.9149
  394TMC3    C4 5886   4.189   4.113  10.538 -0.1602 -0.1206  0.2437
  394TMC3    C5 5887   4.173   4.141  10.405  0.1760  0.0761  0.0589
  394TMC3    C6 5888   4.055   4.128  10.337 -0.5922 -0.0267  0.0387
  394TMC3     C 5889   4.096   4.005  10.731 -0.3383 -0.0001 -0.6159
  394TMC3     O 5890   4.007   3.920  10.758 -0.1222  0.0470  0.2910
  394TMC3     H 5891   3.869   3.998  10.579  0.5768 -0.8252  0.8814
  394TMC3    H1 5892   4.288   4.091  10.576  0.3165  0.8393 -0.4125
  394TMC3    H2 5893   4.044   4.160  10.234 -1.8549 -1.4637 -0.2693
  394TMC3    C7 5894   4.278   4.164  10.306  0.2610 -0.5636  0.5237
  394TMC3    C8 5895   3.892   3.960  10.331 -0.1418  0.1362  0.2326
  394TMC3    O1 5896   4.241   4.202  10.194  0.1366  0.2191  0.0847
  394TMC3    O2 5897   3.883   3.851  10.390  0.6759 -0.7289 -0.0254
  395TMC3    C1 5898   3.395   0.849  14.419  1.0012  0.0586 -0.0377
  395TMC3    C2 5899   3.284   0.816  14.496 -0.2290 -0.3779 -0.1003
  395TMC3    C3 5900   3.269   0.858  14.627 -0.9110  0.3852  0.0849
  395TMC3    C4 5901   3.488   0.938  14.458  0.2536 -0.1521 -0.1810
  395TMC3    C5 5902   3.473   0.975  14.596  0.2461  0.6045 -0.3641
  395TMC3    C6 5903   3.370   0.934  14.681  0.2173  0.8269  0.6422
  395TMC3     C 5904   3.414   0.802  14.282 -0.9246 -0.1597 -0.7166
  395TMC3     O 5905   3.461   0.889  14.206 -0.0277  0.2856  0.1770
  395TMC3     H 5906   3.223   0.741  14.446  1.3129 -0.9202 -1.1588
  395TMC3    H1 5907   3.564   0.980  14.393  1.2227 -2.1823 -0.3738
  395TMC3    H2 5908   3.363   0.965  14.784 -0.5757 -0.2979  0.9287
  395TMC3    C7 5909   3.584   1.053  14.647 -0.6664 -0.6809 -0.0620
  395TMC3    C8 5910   3.191   0.772  14.717  0.2714 -0.1143  0.3966
  395TMC3    O1 5911   3.570   1.113  14.752 -0.3884 -0.1669  0.0982
  395TMC3    O2 5912   3.171   0.824  14.826 -0.5794 -0.4095  0.6678
  396MPD2     C 5913   3.832   1.493  17.004  0.0079 -0.2468  0.3806
  396MPD2    C1 5914   3.918   1.576  17.068 -0.4240  0.2899 -0.6444
  396MPD2    C2 5915   3.954   1.693  17.001  0.8450 -0.3296 -0.2340
  396MPD2    C3 5916   3.899   1.731  16.878 -0.1136 -0.0656 -0.4543
  396MPD2    C4 5917   3.812   1.643  16.826 -0.5279  0.4163 -0.7058
  396MPD2    C5 5918   3.769   1.530  16.889  0.1582 -0.0290  0.1331
  396MPD2     H 5919   4.022   1.754  17.060  0.9388 -1.8866  1.2990
  396MPD2    H1 5920   3.759   1.682  16.740  2.1650  1.7631 -1.7567
  396MPD2    H2 5921   3.807   1.397  17.049  0.7263 -1.4926 -1.9219
  396MPD2    H3 5922   3.693   1.471  16.839  0.4635  1.5818 -2.2790
  396MPD2     N 5923   3.947   1.840  16.820 -1.3109 -0.6626 -0.0735
  396MPD2    H5 5924   4.022   1.888  16.869 -0.6138 -1.4751 -0.3323
  396MPD2    N1 5925   3.964   1.528  17.186  0.3561  0.5323 -0.1690
  396MPD2    H7 5926   3.923   1.441  17.216 -0.3471  0.8476 -0.2112
  397TMC3    C1 5927   4.115   1.500  17.357 -0.1709  0.2744 -0.1211
  397TMC3    C2 5928   4.239   1.444  17.352 -0.5551 -0.0058  0.1497
  397TMC3    C3 5929   4.258   1.314  17.357 -0.1928  0.0098 -0.2604
  397TMC3    C4 5930   4.017   1.418  17.403  0.6723  0.1067 -0.4724
  397TMC3    C5 5931   4.042   1.293  17.437  0.0508  0.1613  0.2602
  397TMC3    C6 5932   4.162   1.231  17.404 -0.3628  0.4911  0.4266
  397TMC3     C 5933   4.074   1.582  17.249 -0.4007 -0.0530 -0.0519
  397TMC3     O 5934   4.142   1.675  17.214 -0.0807 -0.0649 -0.4007
  397TMC3     H 5935   4.309   1.510  17.302  1.7523 -1.6808  1.1327
  397TMC3    H1 5936   3.911   1.442  17.402  0.6392 -0.0594 -0.7857
  397TMC3    H2 5937   4.171   1.125  17.383  3.6025  0.9180  0.0799
  397TMC3    C7 5938   3.932   1.207  17.409  0.5451 -0.1097  0.1362
  397TMC3    C8 5939   4.340   1.263  17.254  0.1763  0.0449 -0.2811
  397TMC3    O1 5940   3.847   1.237  17.329 -0.3304 -0.8161  0.0386
  397TMC3    O2 5941   4.295   1.164  17.196 -0.4723 -0.4551  0.2486
  398MPD2     C 5942   1.720   1.300  17.549 -0.0067 -0.1123 -0.1938
  398MPD2    C1 5943   1.834   1.222  17.576  0.2559 -0.2110  0.2444
  398MPD2    C2 5944   1.947   1.290  17.624 -0.8231 -0.0267 -0.3519
  398MPD2    C3 5945   1.951   1.427  17.643  0.3568  0.2398 -0.1257
  398MPD2    C4 5946   1.837   1.497  17.615  0.5373 -0.2282  0.1189
  398MPD2    C5 5947   1.721   1.433  17.568  0.1140 -0.3682 -0.4708
  398MPD2     H 5948   2.024   1.220  17.652 -0.8600 -0.2154 -0.7307
  398MPD2    H1 5949   1.832   1.606  17.616 -0.5453 -0.2681 -0.6661
  398MPD2    H2 5950   1.629   1.251  17.517 -0.2882 -0.1529  0.6587
  398MPD2    H3 5951   1.633   1.488  17.536  0.0203 -0.3460 -0.1769
  398MPD2     N 5952   2.069   1.492  17.677  0.1765 -0.3065  0.3400
  398MPD2    H5 5953   2.146   1.427  17.667  0.6920  0.2186  0.9220
  398MPD2    N1 5954   1.827   1.083  17.600  0.5315  0.5300  0.3021
  398MPD2    H7 5955   1.913   1.032  17.615  0.9090  1.6209  1.7922
  399TMC3    C1 5956   1.747   0.870  17.631 -0.3209  0.1410  0.0235
  399TMC3    C2 5957   1.852   0.842   0.020 -0.0095  0.8274 -0.0421
  399TMC3    C3 5958   1.854   0.723   0.078 -0.5035 -0.3384 -0.9036
  399TMC3    C4 5959   1.648   0.780  17.604 -0.3175 -0.7471 -0.4615
  399TMC3    C5 5960   1.670   0.652  17.654 -0.1191  0.2394 -0.2513
  399TMC3    C6 5961   1.773   0.621   0.037  0.1216 -0.7540 -0.9569
  399TMC3     C 5962   1.716   1.006  17.590 -0.1023  0.4951  0.2806
  399TMC3     O 5963   1.611   1.031  17.535 -0.3241  0.1988  0.1874
  399TMC3     H 5964   1.907   0.925   0.062  1.2377 -0.8030  1.5255
  399TMC3    H1 5965   1.559   0.810  17.550 -0.9821  0.6002  1.4031
  399TMC3    H2 5966   1.785   0.517   0.066  1.8196  0.3176  2.1809
  399TMC3    C7 5967   1.564   0.561  17.657 -0.1645 -0.1738  0.1934
  399TMC3    C8 5968   1.967   0.687   0.165  0.0187 -0.0222  0.1901
  399TMC3    O1 5969   1.542   0.500   0.063  0.2588  0.1068 -0.3417
  399TMC3    O2 5970   2.018   0.778   0.229 -0.2169 -0.6756 -0.2035
  400TMC3    C1 5971   0.434   0.947  16.877  0.1523 -0.5448 -0.1734
  400TMC3    C2 5972   0.328   0.954  16.788  0.7848 -0.0463 -0.1061
  400TMC3    C3 5973   0.270   1.079  16.765 -0.1230 -0.8406  0.2461
  400TMC3    C4 5974   0.464   1.057  16.954 -0.1709 -0.3508  0.4001
  400TMC3    C5 5975   0.399   1.175  16.929  0.0323 -0.2520 -0.7443
  400TMC3    C6 5976   0.304   1.183  16.836  0.2517 -0.1784  0.1183
  400TMC3     C 5977   0.490   0.823  16.926 -0.4326 -0.4666  0.0810
  400TMC3     O 5978   0.434   0.718  16.899 -0.3999 -0.6397  0.7799
  400TMC3     H 5979   0.303   0.864  16.734 -0.3609  0.3820 -0.2797
  400TMC3    H1 5980   0.542   1.061  17.030 -3.5932  1.9116  3.8311
  400TMC3    H2 5981   0.275   1.284  16.808  1.9287  0.9014  2.3224
  400TMC3    C7 5982   0.473   1.299  16.966 -0.0419  0.0563  0.1610
  400TMC3    C8 5983   0.168   1.098  16.660  1.1438  0.6382  0.1763
  400TMC3    O1 5984   0.595   1.299  16.966  0.0868  0.5858  0.5909
  400TMC3    O2 5985   0.142   1.212  16.632 -0.2470  0.7680 -0.0778
  401MPD2     C 5986   4.126   0.420   1.391  0.1000  0.0447  0.4857
  401MPD2    C1 5987   4.262   0.414   1.426 -0.3571 -0.2685 -0.2749
  401MPD2    C2 5988   4.316   0.285   1.430  0.8567  0.5339  0.2312
  401MPD2    C3 5989   4.248   0.176   1.382 -0.3378  0.0975 -0.5235
  401MPD2    C4 5990   4.118   0.184   1.337  0.5066  0.0501  0.6605
  401MPD2    C5 5991   4.058   0.309   1.346  0.2345 -0.1398 -0.0244
  401MPD2     H 5992   4.420   0.277   1.456  1.2384  0.2949 -1.3227
  401MPD2    H1 5993   4.059   0.100   1.301  3.1900 -1.6178  0.0992
  401MPD2    H2 5994   4.070   0.513   1.396 -0.5877 -0.3693  0.5512
  401MPD2    H3 5995   3.955   0.317   1.315  0.0491  1.1538  0.9498
  401MPD2     N 5996   4.319   0.056   1.387  0.0012 -0.2103  0.2923
  401MPD2    H5 5997   4.414   0.056   1.423  0.0602  0.1009  0.1408
  401MPD2    N1 5998   4.347   0.527   1.467 -0.2149  0.1097  0.0130
  401MPD2    H7 5999   4.437   0.508   1.511 -0.2863  1.3720  0.7258
  402TMC3    C1 6000   4.383   4.562   1.338  0.2355  0.7977  0.3193
  402TMC3    C2 6001   4.352   4.429   1.305 -0.2312  0.1052 -0.0253
  402TMC3    C3 6002   4.442   4.343   1.245 -0.3143 -0.3137 -0.2763
  402TMC3    C4 6003   4.512   4.595   1.315 -0.0477  0.2028 -0.5933
  402TMC3    C5 6004   4.608   4.499   1.267 -0.3752  0.0410  0.2105
  402TMC3    C6 6005   4.570   4.372   1.228  0.5959 -0.3639 -0.6558
  402TMC3     C 6006   4.278   4.658   1.343  0.4139 -0.9001  0.2596
  402TMC3     O 6007   4.160   4.632   1.315 -0.2361 -0.2603  0.1200
  402TMC3     H 6008   4.245   4.412   1.291 -0.2485 -1.8393  2.5246
  402TMC3    H1 6009   4.546   4.697   1.302  0.3181  0.0854 -0.5479
  402TMC3    H2 6010   4.638   4.291   1.204  0.2605 -0.8649  0.0841
  402TMC3    C7 6011   4.714   4.552   1.187 -0.0756  0.7239 -0.5375
  402TMC3    C8 6012   4.400   4.216   1.186 -0.3402 -0.7482  0.1975
  402TMC3    O1 6013   0.044   4.650   1.240 -0.1796 -0.1202  0.2376
  402TMC3    O2 6014   4.470   4.117   1.215 -0.4257 -0.1499 -0.0701
  403MPD2     C 6015   1.725   3.460  13.274 -0.4722 -0.4751 -0.2443
  403MPD2    C1 6016   1.726   3.337  13.339 -0.4307  0.5523  0.1233
  403MPD2    C2 6017   1.795   3.336  13.458 -0.0083  0.4179 -0.0887
  403MPD2    C3 6018   1.855   3.447  13.518 -0.1108 -0.2657 -0.1888
  403MPD2    C4 6019   1.851   3.567  13.454 -0.9077 -0.0355 -0.3038
  403MPD2    C5 6020   1.789   3.570  13.329 -0.8274  0.2366  0.2705
  403MPD2     H 6021   1.812   3.241  13.508 -1.6475 -0.6204 -1.5224
  403MPD2    H1 6022   1.894   3.658  13.494  0.8425  0.5603 -3.4780
  403MPD2    H2 6023   1.685   3.473  13.174  1.2855  0.4543 -0.8285
  403MPD2    H3 6024   1.781   3.665  13.278 -2.9549  0.0285  0.2008
  403MPD2     N 6025   1.947   3.418  13.627 -0.6210 -0.1078 -0.1071
  403MPD2    H5 6026   1.966   3.324  13.661  3.9502  0.8090 -0.0702
  403MPD2    N1 6027   1.665   3.225  13.271  0.3452 -0.1955  0.5134
  403MPD2    H7 6028   1.600   3.252  13.198  0.7454  0.6612  0.4726
  404TMC3    C1 6029   1.611   3.008  13.208  0.2902  0.1989  0.1518
  404TMC3    C2 6030   1.587   2.876  13.243  0.1733 -0.1211 -0.0881
  404TMC3    C3 6031   1.545   2.791  13.143 -0.3237  0.2471  0.4883
  404TMC3    C4 6032   1.606   3.043  13.076 -0.3123  0.1472  0.2820
  404TMC3    C5 6033   1.572   2.954  12.983 -0.7655  0.0422 -0.1844
  404TMC3    C6 6034   1.537   2.829  13.016 -0.0021  0.0842 -0.6217
  404TMC3     C 6035   1.679   3.089  13.305  0.1154 -0.3381 -0.0783
  404TMC3     O 6036   1.724   3.041  13.412  0.1129 -0.2076 -0.0207
  404TMC3     H 6037   1.594   2.852  13.349 -0.7613  0.0853  0.0182
  404TMC3    H1 6038   1.620   3.147  13.049 -1.6843  0.7026  1.7376
  404TMC3    H2 6039   1.520   2.752  12.941  2.1648 -0.8402 -0.1664
  404TMC3    C7 6040   1.560   3.004  12.846  0.0475  0.0689 -0.4464
  404TMC3    C8 6041   1.544   2.644  13.173  0.2489  0.0050 -0.3936
  404TMC3    O1 6042   1.604   3.121  12.828 -0.0567 -0.2709  0.1190
  404TMC3    O2 6043   1.549   2.562  13.080  0.2462  0.0870  0.1310
  405MPD2     C 6044   1.845   3.549  14.339 -0.9067  0.5830 -0.7090
  405MPD2    C1 6045   1.797   3.497  14.223  0.3828  0.2649 -0.1644
  405MPD2    C2 6046   1.667   3.519  14.196  0.0474  0.0651 -0.0505
  405MPD2    C3 6047   1.582   3.587  14.276  0.1935  0.3019  0.6802
  405MPD2    C4 6048   1.640   3.660  14.383  0.1018  0.1821  0.5448
  405MPD2    C5 6049   1.770   3.629  14.417 -0.5935  0.2664  0.2424
  405MPD2     H 6050   1.619   3.458  14.121  0.4973  0.3359 -0.5613
  405MPD2    H1 6051   1.583   3.719  14.454  2.0827  1.5685  0.9890
  405MPD2    H2 6052   1.951   3.540  14.363 -0.8164 -0.0517 -1.3456
  405MPD2    H3 6053   1.820   3.679  14.499 -3.0198 -1.0969  2.5533
  405MPD2     N 6054   1.448   3.589  14.235  0.0592 -0.0450 -0.2177
  405MPD2    H5 6055   1.419   3.534  14.154  0.9265  0.2091 -0.7037
  405MPD2    N1 6056   1.881   3.411  14.142  0.0086 -0.4500 -0.3484
  405MPD2    H7 6057   1.949   3.349  14.183  0.8529 -0.9390 -2.5109
  406TMC3    C1 6058   1.001   3.666  14.203  0.3529 -0.2926  0.2775
  406TMC3    C2 6059   0.988   3.573  14.103 -0.4169 -0.9521 -0.7336
  406TMC3    C3 6060   1.091   3.494  14.069 -0.0366 -0.1852 -0.8991
  406TMC3    C4 6061   1.117   3.705  14.263 -0.0747 -0.0760 -0.1700
  406TMC3    C5 6062   1.229   3.638  14.215  0.8446  0.1890  0.5367
  406TMC3    C6 6063   1.216   3.529  14.121  0.1610 -0.1452 -0.6076
  406TMC3     C 6064   0.878   3.734  14.238  0.0311 -0.1709 -0.2940
  406TMC3     O 6065   0.790   3.730  14.153 -0.2631 -0.4944  0.2947
  406TMC3     H 6066   0.893   3.530  14.075 -0.9032 -0.9845  0.9582
  406TMC3    H1 6067   1.133   3.780  14.340 -0.8926 -0.3696  0.2802
  406TMC3    H2 6068   1.299   3.474  14.077 -0.5977 -1.4119 -0.4753
  406TMC3    C7 6069   1.347   3.651  14.298 -0.0860  0.1470  0.2913
  406TMC3    C8 6070   1.069   3.378  13.976 -0.5204 -0.1032 -0.6032
  406TMC3    O1 6071   1.335   3.712  14.403  0.0915  0.0874  0.0947
  406TMC3    O2 6072   0.987   3.399  13.886 -0.0606 -0.3073  0.7892
  407MPD2     C 6073   4.340   0.537   9.276 -0.0925  0.6109  0.3611
  407MPD2    C1 6074   4.456   0.477   9.325  0.1397 -0.4935  0.2148
  407MPD2    C2 6075   4.468   0.455   9.465  0.2495 -0.4258  0.0947
  407MPD2    C3 6076   4.364   0.500   9.543  0.2376 -0.3946  1.2224
  407MPD2    C4 6077   4.248   0.560   9.491 -0.3753 -0.3668  0.3252
  407MPD2    C5 6078   4.239   0.577   9.359  0.4574  0.0553  0.7605
  407MPD2     H 6079   4.562   0.410   9.496  1.1934  0.0163 -2.0929
  407MPD2    H1 6080   4.173   0.605   9.555  1.7339  2.3776  0.8896
  407MPD2    H2 6081   4.320   0.553   9.171 -0.6859  0.5463  0.4638
  407MPD2    H3 6082   4.154   0.627   9.313  0.5570  0.0234  0.5410
  407MPD2     N 6083   4.369   0.510   9.685  0.0298 -0.1689 -0.3037
  407MPD2    H5 6084   4.299   0.562   9.737  0.0994 -0.6360  0.2588
  407MPD2    N1 6085   4.575   0.460   9.254 -0.0903 -0.2314  0.1352
  407MPD2    H7 6086   4.650   0.398   9.284  0.5357  1.2807  1.6405
  408TMC3    C1 6087   0.011   0.523   9.086  0.1532 -0.5443  0.2580
  408TMC3    C2 6088   0.088   0.418   9.089 -0.1183 -0.8906 -0.1334
  408TMC3    C3 6089   0.223   0.447   9.091  0.0184  0.5893 -0.1676
  408TMC3    C4 6090   0.052   0.653   9.075  0.0792  0.4313 -0.8913
  408TMC3    C5 6091   0.187   0.679   9.082 -0.9789 -0.2873  0.1877
  408TMC3    C6 6092   0.275   0.574   9.082 -0.6024  0.2875  0.7664
  408TMC3     C 6093   4.597   0.513   9.127  0.1902  0.6364 -0.0856
  408TMC3     O 6094   4.512   0.569   9.053  0.5315 -0.0029 -0.0161
  408TMC3     H 6095   0.047   0.320   9.110  0.7931 -0.8445  1.8416
  408TMC3    H1 6096   4.703   0.732   9.065 -0.2925  0.2385  0.3059
  408TMC3    H2 6097   0.380   0.588   9.056 -1.7232  4.0365 -1.7151
  408TMC3    C7 6098   0.228   0.816   9.074  0.1831  0.1703  0.9443
  408TMC3    C8 6099   0.314   0.331   9.091 -0.0417 -0.1863 -0.1660
  408TMC3    O1 6100   0.339   0.838   9.128 -0.0174 -0.1096 -0.9292
  408TMC3    O2 6101   0.258   0.220   9.075 -0.2838  0.1415  0.7970
  409MPD2     C 6102   4.131   0.635  16.632  0.1850  0.1954 -0.1591
  409MPD2    C1 6103   4.152   0.653  16.770 -0.5338 -0.0163 -0.1511
  409MPD2    C2 6104   4.219   0.766  16.806  0.1322 -1.2663 -0.7853
  409MPD2    C3 6105   4.254   0.862  16.715  0.5891  0.4851  0.3311
  409MPD2    C4 6106   4.224   0.845  16.587  0.7286 -0.3081  0.1309
  409MPD2    C5 6107   4.169   0.733  16.544  0.4469  0.7925 -0.5472
  409MPD2     H 6108   4.231   0.772  16.914  2.2269  1.1403 -1.1567
  409MPD2    H1 6109   4.245   0.925  16.518 -1.2373  0.8040  0.8396
  409MPD2    H2 6110   4.080   0.545  16.600  3.0659 -1.7150  0.6026
  409MPD2    H3 6111   4.154   0.714  16.439 -3.7436 -0.5548  0.2903
  409MPD2     N 6112   4.331   0.985  16.748  0.1313 -0.2703  0.2799
  409MPD2    H5 6113   4.349   1.044  16.667  2.2583  0.2998  1.1889
  409MPD2    N1 6114   4.108   0.562  16.868 -0.8630  0.3120 -0.3600
  409MPD2    H7 6115   4.143   0.575  16.962 -2.6552  1.0720  0.1979
  410TMC3    C1 6116   4.476   1.120  16.871  0.3678 -0.3882 -0.6958
  410TMC3    C2 6117   4.586   1.102  16.955  0.1064  0.6191  0.0002
  410TMC3    C3 6118   4.680   1.193  16.943 -0.1392  0.3802 -0.2602
  410TMC3    C4 6119   4.476   1.211  16.768  0.3885 -0.8637 -0.3669
  410TMC3    C5 6120   4.579   1.302  16.768  0.0494  0.3234  0.3324
  410TMC3    C6 6121   4.677   1.299  16.863 -0.1128 -0.0735 -0.2452
  410TMC3     C 6122   4.385   1.007  16.868  0.2462 -0.1512  0.4985
  410TMC3     O 6123   4.376   0.940  16.967  0.7191  0.0156  0.2937
  410TMC3     H 6124   4.594   1.026  17.031 -1.9478  0.2149 -0.1815
  410TMC3    H1 6125   4.402   1.221  16.689  1.1842 -0.9209 -1.1190
  410TMC3    H2 6126   0.032   1.374  16.858  0.4239 -0.6810 -0.9104
  410TMC3    C7 6127   4.577   1.405  16.667 -0.8968 -0.2569  0.9785
  410TMC3    C8 6128   0.063   1.195  17.040  0.3572 -0.3319  0.1105
  410TMC3    O1 6129   4.475   1.459  16.624  0.1433  0.7254 -0.1229
  410TMC3    O2 6130   0.131   1.294  17.056  0.5106 -0.0973  0.4018
  411MPD2     C 6131   4.381   1.657  14.670 -0.7524  0.5021  1.0468
  411MPD2    C1 6132   4.266   1.707  14.623 -0.2352  0.2209  0.8993
  411MPD2    C2 6133   4.186   1.631  14.539 -0.1466  0.2241 -0.4148
  411MPD2    C3 6134   4.220   1.502  14.503 -0.2906 -0.2668 -0.1839
  411MPD2    C4 6135   4.349   1.460  14.538 -0.1551  0.4338 -0.8570
  411MPD2    C5 6136   4.424   1.535  14.627 -0.7051 -0.4973  0.0852
  411MPD2     H 6137   4.093   1.680  14.511 -0.4477  0.3659  0.8559
  411MPD2    H1 6138   4.386   1.361  14.517  1.4822  0.9180 -0.2802
  411MPD2    H2 6139   4.442   1.713  14.740  1.4536 -0.8845  0.2505
  411MPD2    H3 6140   4.513   1.485  14.663 -0.0862  0.3411 -0.3065
  411MPD2     N 6141   4.142   1.404  14.431 -0.5355  0.0433  0.5515
  411MPD2    H5 6142   4.187   1.315  14.410 -1.2512 -0.1429 -0.2283
  411MPD2    N1 6143   4.225   1.836  14.655 -0.6387  0.2900 -0.0049
  411MPD2    H7 6144   4.138   1.862  14.612  0.9213  0.2339 -3.1702
  412TMC3    C1 6145   3.944   1.314  14.333  0.5166 -0.7283  0.1670
  412TMC3    C2 6146   3.811   1.293  14.350 -0.2140  0.6311  0.1554
  412TMC3    C3 6147   3.757   1.190  14.290  0.0170 -0.2184 -0.0016
  412TMC3    C4 6148   4.019   1.247  14.244 -0.4702  0.1076 -0.2035
  412TMC3    C5 6149   3.955   1.149  14.166 -0.2949 -1.1215  1.0518
  412TMC3    C6 6150   3.826   1.113  14.202 -0.0923  0.1491 -0.1368
  412TMC3     C 6151   4.006   1.420  14.405 -0.5313  0.5528  0.8135
  412TMC3     O 6152   3.925   1.496  14.448 -0.0984  0.1394 -0.7635
  412TMC3     H 6153   3.750   1.360  14.409 -0.4571  0.0216  0.5912
  412TMC3    H1 6154   4.119   1.285  14.224  0.3854 -1.5044  1.0055
  412TMC3    H2 6155   3.786   1.018  14.167  0.6260 -0.2868  0.2389
  412TMC3    C7 6156   3.960   1.168  14.029  0.7556 -0.4037 -0.1335
  412TMC3    C8 6157   3.615   1.216  14.265  0.5303 -0.1761 -0.4523
  412TMC3    O1 6158   3.848   1.169  13.978 -0.8015  0.0742  0.2736
  412TMC3    O2 6159   3.545   1.256  14.353  0.1041  0.0111  0.0717
  413MPD2     C 6160   0.856   4.361  15.302  0.1396  0.2375  0.4128
  413MPD2    C1 6161   0.811   4.361  15.172 -0.8234  0.6754 -0.0536
  413MPD2    C2 6162   0.890   4.303  15.073  0.1452  0.0397 -0.3697
  413MPD2    C3 6163   1.014   4.248  15.104  0.7196 -0.6821  0.0555
  413MPD2    C4 6164   1.060   4.254  15.236  0.6254 -0.6289 -0.3331
  413MPD2    C5 6165   0.983   4.319  15.328 -0.2155 -0.1555  0.9126
  413MPD2     H 6166   0.856   4.298  14.971 -0.5438 -0.5587 -0.1126
  413MPD2    H1 6167   1.162   4.228  15.261  0.1691 -1.1663  0.9324
  413MPD2    H2 6168   0.791   4.397  15.380  0.0554  0.3657  0.2848
  413MPD2    H3 6169   1.015   4.317  15.432  0.7476  1.8268  0.6493
  413MPD2     N 6170   1.075   4.164  15.010 -1.0010 -0.9134  0.3047
  413MPD2    H5 6171   1.043   4.177  14.914  1.7118  0.8876 -0.3479
  413MPD2    N1 6172   0.689   4.432  15.155 -0.7240  0.3883 -0.1340
  413MPD2    H7 6173   0.649   4.484  15.233  1.2014 -0.1150  1.2108
  414TMC3    C1 6174   1.242   3.999  14.922  0.2512  0.2027  0.3576
  414TMC3    C2 6175   1.340   3.915  14.961  0.1911  0.4503  0.0734
  414TMC3    C3 6176   1.398   3.832  14.866  0.7014 -0.5749  0.4325
  414TMC3    C4 6177   1.222   4.021  14.791  0.3566 -0.5914  0.2126
  414TMC3    C5 6178   1.288   3.951  14.698  0.2039 -0.4910  0.0263
  414TMC3    C6 6179   1.366   3.848  14.733  0.1443 -0.0497  0.2375
  414TMC3     C 6180   1.185   4.080  15.041  0.2844 -0.2970 -0.1046
  414TMC3     O 6181   1.246   4.067  15.147 -0.4089  0.3795 -0.2869
  414TMC3     H 6182   1.372   3.906  15.064 -0.6850 -0.6999  0.2437
  414TMC3    H1 6183   1.148   4.093  14.757 -0.3969 -3.0307 -3.2062
  414TMC3    H2 6184   1.425   3.785  14.667  0.3388  0.1238  0.2439
  414TMC3    C7 6185   1.354   4.045  14.611  0.5451 -0.1733 -0.2409
  414TMC3    C8 6186   1.533   3.777  14.883 -0.9088 -0.1267  0.1156
  414TMC3    O1 6187   1.381   4.152  14.663  0.0062  0.6273 -0.0435
  414TMC3    O2 6188   1.557   3.690  14.807 -0.2456 -0.3723 -0.1637
  415TMC3    C1 6189   1.716   2.477  10.101  0.1826 -0.3917 -0.5569
  415TMC3    C2 6190   1.793   2.523   9.999  0.7882 -0.5178 -0.1905
  415TMC3    C3 6191   1.755   2.501   9.866 -0.4442  0.0461  0.6106
  415TMC3    C4 6192   1.601   2.398  10.084 -0.8060  0.8041  0.5026
  415TMC3    C5 6193   1.568   2.379   9.953 -0.4239  0.2371  0.2352
  415TMC3    C6 6194   1.647   2.418   9.845 -0.5949  0.1710  0.0430
  415TMC3     C 6195   1.761   2.493  10.236 -0.1655 -0.3060  0.2182
  415TMC3     O 6196   1.665   2.481  10.319 -0.2341 -0.6177  1.1578
  415TMC3     H 6197   1.887   2.575  10.008  0.8493 -1.0336  2.1161
  415TMC3    H1 6198   1.553   2.356  10.172 -2.4476  1.3040 -0.1514
  415TMC3    H2 6199   1.614   2.377   9.749 -1.5199  0.5320  0.2009
  415TMC3    C7 6200   1.446   2.300   9.921 -0.5355 -0.1154 -0.2712
  415TMC3    C8 6201   1.817   2.560   9.754  0.2375  0.2248 -0.0239
  415TMC3    O1 6202   1.423   2.261   9.806  0.0189  0.0701  0.1405
  415TMC3    O2 6203   1.791   2.503   9.649  0.3606 -0.5815  0.7572
  416MPD2     C 6204   3.833   1.546  11.076 -0.1316 -0.3746 -0.4330
  416MPD2    C1 6205   3.708   1.575  11.034 -0.5085 -0.1368  0.1562
  416MPD2    C2 6206   3.656   1.498  10.933  0.5888 -0.1435 -0.1262
  416MPD2    C3 6207   3.736   1.410  10.861  0.3528 -1.0682  0.5424
  416MPD2    C4 6208   3.865   1.395  10.901  0.0680  0.4200 -0.1755
  416MPD2    C5 6209   3.908   1.455  11.016  0.3926 -0.0614  0.0929
  416MPD2     H 6210   3.555   1.517  10.898  0.7008 -0.8800 -0.8413
  416MPD2    H1 6211   3.926   1.314  10.863 -1.5390 -0.6629 -0.4491
  416MPD2    H2 6212   3.863   1.576  11.176  1.3562 -0.8789 -0.7212
  416MPD2    H3 6213   3.993   1.422  11.075  0.6318 -0.3303 -0.4022
  416MPD2     N 6214   3.688   1.347  10.746  0.2745  0.4973  0.3684
  416MPD2    H5 6215   3.743   1.269  10.712 -1.0031 -1.2318  2.2183
  416MPD2    N1 6216   3.632   1.677  11.101 -0.0123 -0.2751 -1.3951
  416MPD2    H7 6217   3.689   1.739  11.159 -0.6913  0.0308 -1.0602
  417TMC3    C1 6218   3.439   1.810  11.151 -0.0091  0.1205 -0.0456
  417TMC3    C2 6219   3.486   1.858  11.272  0.1358 -0.0709  0.9721
  417TMC3    C3 6220   3.437   1.978  11.316  0.0056  0.0352  0.1977
  417TMC3    C4 6221   3.328   1.861  11.091  0.3970  0.8732 -0.8254
  417TMC3    C5 6222   3.277   1.973  11.149 -0.3424 -0.4737 -0.0230
  417TMC3    C6 6223   3.326   2.035  11.259  0.4788 -0.3550  0.5441
  417TMC3     C 6224   3.492   1.692  11.094  0.5727  0.7672  0.4089
  417TMC3     O 6225   3.400   1.620  11.051  0.2211  0.0004 -0.1823
  417TMC3     H 6226   3.575   1.818  11.319  1.4102 -0.1531 -1.5065
  417TMC3    H1 6227   3.292   1.824  10.996  0.5870 -1.9753  0.1913
  417TMC3    H2 6228   3.276   2.121  11.300  0.0027 -0.3510 -0.0370
  417TMC3    C7 6229   3.156   2.027  11.099  0.3857 -0.5575  0.2119
  417TMC3    C8 6230   3.450   2.015  11.455  0.2716  0.3912  0.4273
  417TMC3    O1 6231   3.150   2.151  11.092  0.1035 -0.0118  0.2488
  417TMC3    O2 6232   3.361   2.086  11.500  0.1989 -0.4162 -0.0230
  418TMC3    C1 6233   2.434   1.642   0.064  0.0629 -0.1273 -1.0001
  418TMC3    C2 6234   2.316   1.583   0.039 -0.0313  0.4075  0.0206
  418TMC3    C3 6235   2.208   1.663   0.062 -0.4085  0.5343 -0.5140
  418TMC3    C4 6236   2.448   1.764   0.131 -0.2483  0.7971 -0.0149
  418TMC3    C5 6237   2.339   1.835   0.153  0.3634 -0.2985 -0.4207
  418TMC3    C6 6238   2.213   1.790   0.122 -0.5711  0.3466  0.3980
  418TMC3     C 6239   2.551   1.561   0.038 -0.5018 -0.3048  0.1476
  418TMC3     O 6240   2.557   1.491  17.632 -0.2110 -0.4942 -0.3836
  418TMC3     H 6241   2.314   1.483  17.693  0.0152  0.7312 -0.7535
  418TMC3    H1 6242   2.547   1.805   0.145 -0.0092  0.3031 -0.2951
  418TMC3    H2 6243   2.125   1.854   0.128  1.0226  2.7951 -2.3398
  418TMC3    C7 6244   2.346   1.961   0.219  1.0028  0.1891  0.9149
  418TMC3    C8 6245   2.077   1.619   0.030  0.1861  0.1372 -0.6114
  418TMC3    O1 6246   2.244   2.002   0.268  0.3810  0.2806  0.4168
  418TMC3    O2 6247   1.990   1.692   0.068  0.2460 -0.3375 -1.0786
  419MPD2     C 6248   1.231   1.460  12.394  0.1027  0.1854 -0.4751
  419MPD2    C1 6249   1.165   1.578  12.361 -0.0460 -0.6336  0.0310
  419MPD2    C2 6250   1.119   1.662  12.461  0.2082  0.1286  0.0460
  419MPD2    C3 6251   1.156   1.639  12.589  0.4850 -0.3955 -0.0306
  419MPD2    C4 6252   1.243   1.532  12.619 -0.3892 -0.3591 -0.7747
  419MPD2    C5 6253   1.281   1.443  12.522 -0.6061 -0.0168  0.1841
  419MPD2     H 6254   1.055   1.745  12.435 -1.1624 -1.1182 -0.5534
  419MPD2    H1 6255   1.278   1.514  12.720 -0.0580  0.7681 -0.6868
  419MPD2    H2 6256   1.260   1.398  12.309 -0.9671 -1.0668  0.0562
  419MPD2    H3 6257   1.344   1.363  12.559  1.9695  1.4718 -0.9880
  419MPD2     N 6258   1.118   1.746  12.674 -0.6788  0.3339  0.3942
  419MPD2    H5 6259   1.093   1.836  12.635 -0.9467 -0.0510 -0.3298
  419MPD2    N1 6260   1.119   1.600  12.231 -0.0732  0.8151  1.0143
  419MPD2    H7 6261   1.059   1.682  12.220  0.7507  1.0053 -2.1307
  420TMC3    C1 6262   1.075   1.858  12.871  0.2906 -0.0125  0.0676
  420TMC3    C2 6263   0.974   1.928  12.813  0.3165 -0.8241  0.6395
  420TMC3    C3 6264   0.910   2.016  12.895 -0.4404  1.1584  0.1869
  420TMC3    C4 6265   1.112   1.865  13.003  0.1648 -0.6847  0.3090
  420TMC3    C5 6266   1.052   1.955  13.082  0.3987  0.0382  0.1495
  420TMC3    C6 6267   0.941   2.029  13.030 -0.7744  0.1902  0.0256
  420TMC3     C 6268   1.133   1.742  12.808 -0.9322 -0.3097 -0.2236
  420TMC3     O 6269   1.173   1.643  12.871  0.4942  0.6478  0.3048
  420TMC3     H 6270   0.946   1.908  12.710  0.5917 -3.0338  1.0098
  420TMC3    H1 6271   1.196   1.809  13.043  0.0809 -0.4098  0.8715
  420TMC3    H2 6272   0.864   2.069  13.095  0.3841 -1.7173  2.5450
  420TMC3    C7 6273   1.055   1.925  13.228  0.3821 -0.1964 -0.0148
  420TMC3    C8 6274   0.791   2.081  12.842  0.3613  0.0730  1.0720
  420TMC3    O1 6275   1.100   1.820  13.277  0.0685  0.2025  0.0346
  420TMC3    O2 6276   0.722   2.016  12.765  0.6130  0.4575  0.2146
  421TMC3    C1 6277   2.111   3.456  13.781 -0.0768  0.1508  0.4496
  421TMC3    C2 6278   2.148   3.516  13.902  0.7044 -0.2711 -0.7355
  421TMC3    C3 6279   2.254   3.461  13.970  0.1132  0.2515  0.2258
  421TMC3    C4 6280   2.188   3.351  13.728  0.4550 -0.3634  0.0670
  421TMC3    C5 6281   2.300   3.307  13.796 -0.0465 -0.5988  0.2133
  421TMC3    C6 6282   2.341   3.359  13.913 -0.0358 -0.0070 -0.4036
  421TMC3     C 6283   2.006   3.516  13.702  0.2487  0.4937  0.3498
  421TMC3     O 6284   1.992   3.636  13.705  0.3951  0.4260  0.4988
  421TMC3     H 6285   2.082   3.592  13.943  2.9016  0.5066  1.3721
  421TMC3    H1 6286   2.164   3.304  13.634  0.7687 -1.8272  0.7169
  421TMC3    H2 6287   2.428   3.321  13.965 -1.7300  0.0661  2.4899
  421TMC3    C7 6288   2.349   3.176  13.760 -0.0496  0.2272 -0.0523
  421TMC3    C8 6289   2.274   3.516  14.108 -0.9229 -0.1913 -0.1992
  421TMC3    O1 6290   2.466   3.154  13.792  0.1217 -0.0652  0.9332
  421TMC3    O2 6291   2.178   3.579  14.145  0.6109  0.0404  0.3818
  422TMC3    C1 6292   4.350   4.576  12.590  0.1933  0.3497  0.2049
  422TMC3    C2 6293   4.338   4.701  12.656 -0.1303  0.4964  0.5800
  422TMC3    C3 6294   4.251   4.714  12.759  0.2765  0.7501 -0.4298
  422TMC3    C4 6295   4.273   4.468  12.622 -0.1359 -0.6395 -0.5097
  422TMC3    C5 6296   4.177   4.490  12.724 -0.3694  0.0589 -0.2933
  422TMC3    C6 6297   4.175   4.607  12.794  0.5607  0.1836 -0.2364
  422TMC3     C 6298   4.474   4.552  12.519 -0.5889 -0.0610 -0.4174
  422TMC3     O 6299   4.538   4.654  12.488  0.0154 -0.1404 -0.1246
  422TMC3     H 6300   4.403   0.059  12.627 -0.2390 -0.0759 -1.2751
  422TMC3    H1 6301   4.284   4.376  12.566  4.2821 -0.5438  0.2210
  422TMC3    H2 6302   4.123   4.611  12.889 -0.4378 -1.3759 -0.7169
  422TMC3    C7 6303   4.077   4.390  12.749 -0.1034  0.4448  0.1631
  422TMC3    C8 6304   4.270   0.099  12.845  0.5724 -0.0895 -0.1270
  422TMC3    O1 6305   4.099   4.284  12.690  0.1605  0.3139 -0.3532
  422TMC3    O2 6306   4.380   0.158  12.828 -0.2298 -0.0171  0.2102
  423MPD2     C 6307   1.292   4.692   0.709 -0.0553 -0.0852 -0.2167
  423MPD2    C1 6308   1.347   4.570   0.696 -0.3477 -0.6415 -0.3389
  423MPD2    C2 6309   1.335   4.503   0.577 -0.3383  0.2060 -0.0435
  423MPD2    C3 6310   1.272   4.555   0.465 -0.2057  0.5014  0.5258
  423MPD2    C4 6311   1.235   4.683   0.478 -0.4443 -0.2735  0.1024
  423MPD2    C5 6312   1.245   0.028   0.597 -0.5707  0.3514 -0.3544
  423MPD2     H 6313   1.392   4.411   0.567 -0.5655  0.1018 -0.3936
  423MPD2    H1 6314   1.210   0.017   0.389 -1.0840  2.7966  2.2909
  423MPD2    H2 6315   1.293   0.034   0.795  1.2517  0.1156 -0.3897
  423MPD2    H3 6316   1.194   0.123   0.595  0.5106  0.9186 -1.1172
  423MPD2     N 6317   1.269   4.495   0.338  0.2705 -0.1406  0.4606
  423MPD2    H5 6318   1.252   4.555   0.258  0.0825  0.2936  0.8249
  423MPD2    N1 6319   1.411   4.500   0.807  0.2007 -0.5026 -0.2452
  423MPD2    H7 6320   1.446   4.406   0.793 -0.9093 -1.0520  0.7108
  424TMC3    C1 6321   1.477   4.441   1.011  0.5718  0.4170 -0.9075
  424TMC3    C2 6322   1.573   4.358   0.954 -0.2413  0.9526  1.0680
  424TMC3    C3 6323   1.616   4.254   1.036  0.2861  0.6332  0.1894
  424TMC3    C4 6324   1.421   4.423   1.131 -0.4200  0.2704 -0.1654
  424TMC3    C5 6325   1.466   4.310   1.200  0.5766 -0.0059  0.3893
  424TMC3    C6 6326   1.559   4.229   1.157 -0.5141 -0.3265 -0.2887
  424TMC3     C 6327   1.420   4.545   0.933 -0.2732  0.3271  0.4381
  424TMC3     O 6328   1.363   4.636   0.989 -0.1200 -0.6266 -0.1210
  424TMC3     H 6329   1.633   4.396   0.872 -2.3870  1.1255 -0.4396
  424TMC3    H1 6330   1.336   4.488   1.152 -1.0800 -0.8947  0.7503
  424TMC3    H2 6331   1.597   4.155   1.226 -1.2443 -0.9333 -0.5302
  424TMC3    C7 6332   1.414   4.275   1.337  0.2386  0.7664  0.2256
  424TMC3    C8 6333   1.735   4.178   1.012  0.6181  0.3089  0.5175
  424TMC3    O1 6334   1.451   4.171   1.390  0.4350  0.3775 -0.5937
  424TMC3    O2 6335   1.807   4.164   1.110  0.0768  0.4237  0.6623
  425MPD2     C 6336   0.189   4.429  17.136  0.8420  1.1631  0.7645
  425MPD2    C1 6337   0.215   4.342  17.241 -0.8738  0.4746 -0.0718
  425MPD2    C2 6338   0.114   4.334  17.340 -0.7617 -0.5885  0.7728
  425MPD2    C3 6339   0.006   4.424  17.343  0.4805  0.1371 -0.1763
  425MPD2    C4 6340   4.708   4.507  17.235 -0.6704  0.3545 -0.0516
  425MPD2    C5 6341   0.071   4.504  17.129 -0.2451 -0.6978  0.5949
  425MPD2     H 6342   0.116   4.266  17.424  0.6295  1.5319  2.4578
  425MPD2    H1 6343   4.623   4.575  17.234  0.1169  1.3083 -1.7906
  425MPD2    H2 6344   0.256   4.439  17.051  1.0082 -0.9602  0.6386
  425MPD2    H3 6345   0.067   4.571  17.044 -1.5681 -0.7885  0.5846
  425MPD2     N 6346   4.635   4.403  17.451 -0.0797 -0.0980  0.1914
  425MPD2    H5 6347   4.649   4.332  17.523 -0.5037 -1.4840 -1.0787
  425MPD2    N1 6348   0.322   4.258  17.237  0.0479 -0.1506  0.3176
  425MPD2    H7 6349   0.377   4.250  17.152  0.9331  2.1818  0.6686
  426TMC3    C1 6350   0.419   4.055  17.283 -0.5741  0.2911  0.4103
  426TMC3    C2 6351   0.370   3.987  17.176  0.3647 -0.1152  0.6133
  426TMC3    C3 6352   0.408   3.855  17.161 -0.2806  0.0222  0.2570
  426TMC3    C4 6353   0.503   4.001  17.375  0.5681  0.2467 -0.6729
  426TMC3    C5 6354   0.535   3.866  17.365  0.5142  0.4253 -0.4474
  426TMC3    C6 6355   0.482   3.793  17.263 -0.3422  0.1172 -0.4785
  426TMC3     C 6356   0.355   4.172  17.337 -0.8309  0.4347  0.1457
  426TMC3     O 6357   0.319   4.166  17.452  0.0615 -0.3215 -0.0323
  426TMC3     H 6358   0.295   4.035  17.113 -0.4257 -1.0869  0.8097
  426TMC3    H1 6359   0.545   4.063  17.454 -1.5793  0.1420  0.5763
  426TMC3    H2 6360   0.525   3.695  17.244  0.7397  0.3036  0.9561
  426TMC3    C7 6361   0.613   3.802  17.469  0.5631  0.0880  0.0044
  426TMC3    C8 6362   0.393   3.797  17.027  0.0304  0.4756  0.2264
  426TMC3    O1 6363   0.652   3.690  17.436  0.1086  0.2563 -0.4906
  426TMC3    O2 6364   0.398   3.672  17.018  0.2560  0.2319  0.0202
  427MPD2     C 6365   3.491   1.895  14.794  0.4609  0.5872 -0.0190
  427MPD2    C1 6366   3.443   1.814  14.895 -0.1535 -0.0725  0.1241
  427MPD2    C2 6367   3.310   1.799  14.936 -0.4744  0.1774 -0.1471
  427MPD2    C3 6368   3.215   1.860  14.861 -0.3049 -0.8937  0.1916
  427MPD2    C4 6369   3.260   1.915  14.745  0.8271  1.0174  0.2696
  427MPD2    C5 6370   3.390   1.951  14.719  0.0829 -0.1016 -0.1844
  427MPD2     H 6371   3.297   1.726  15.015 -1.2701  0.1513 -0.3080
  427MPD2    H1 6372   3.189   1.945  14.669  0.6750  1.8595  0.7508
  427MPD2    H2 6373   3.592   1.912  14.758  1.2278 -0.9158  1.4334
  427MPD2    H3 6374   3.404   2.018  14.634  0.3998 -1.8339 -1.4891
  427MPD2     N 6375   3.078   1.840  14.882  0.5734  0.3342 -0.6860
  427MPD2    H5 6376   3.014   1.869  14.809  0.3096  0.4663 -0.4014
  427MPD2    N1 6377   3.534   1.730  14.959 -0.3832 -0.3723  0.0799
  427MPD2    H7 6378   3.507   1.651  15.017  0.4481 -1.4326 -0.9712
  428TMC3    C1 6379   3.735   1.619  15.002 -0.0068 -0.0227 -0.1735
  428TMC3    C2 6380   3.688   1.495  14.998  0.4665 -0.6095  0.7087
  428TMC3    C3 6381   3.758   1.399  15.074 -0.0026  0.1292  0.0697
  428TMC3    C4 6382   3.849   1.655  15.066 -0.3963 -0.4605 -0.1588
  428TMC3    C5 6383   3.921   1.559  15.133 -1.0223  0.0315  0.5915
  428TMC3    C6 6384   3.871   1.434  15.142 -0.0930  0.2403 -0.5100
  428TMC3     C 6385   3.670   1.726  14.936  0.0603  0.1082  0.9255
  428TMC3     O 6386   3.744   1.809  14.883  0.2098 -0.0045  0.3556
  428TMC3     H 6387   3.604   1.477  14.932 -1.6140 -0.4039  3.3019
  428TMC3    H1 6388   3.895   1.750  15.044 -4.4711  1.0852 -2.0445
  428TMC3    H2 6389   3.930   1.357  15.191 -1.6526 -1.2394 -0.9744
  428TMC3    C7 6390   3.986   1.600  15.252  0.0660 -0.0139 -0.6037
  428TMC3    C8 6391   3.724   1.258  15.067 -0.3753  0.7587  0.2824
  428TMC3    O1 6392   3.943   1.574  15.363 -0.0676  0.1159 -0.4928
  428TMC3    O2 6393   3.819   1.176  15.066  0.4374 -0.6303  0.4868
  429MPD2     C 6394   4.129   1.520   0.036  0.2596 -0.3685  0.6254
  429MPD2    C1 6395   4.248   1.464  17.693 -0.1332 -0.1814  0.2366
  429MPD2    C2 6396   4.347   1.544  17.631 -0.4643 -0.1005  0.0669
  429MPD2    C3 6397   4.311   1.672  17.588  0.0276 -1.0583  0.2927
  429MPD2    C4 6398   4.192   1.727  17.627  0.0752  0.5994  0.1341
  429MPD2    C5 6399   4.106   1.651  17.692 -0.2933  0.5522  0.2198
  429MPD2     H 6400   4.443   1.495  17.617 -0.3033  0.6558 -1.5372
  429MPD2    H1 6401   4.158   1.829  17.612  1.5578  1.3517  2.0201
  429MPD2    H2 6402   4.048   1.478   0.095 -2.0006  1.3290 -1.2192
  429MPD2    H3 6403   4.012   1.689   0.034  0.4310  0.5479  2.0428
  429MPD2     N 6404   4.414   1.737  17.518  0.1485  0.6267 -0.2469
  429MPD2    H5 6405   4.483   1.674  17.479 -0.3897  2.1731 -3.6670
  429MPD2    N1 6406   4.278   1.331   0.018  0.9602  0.1638 -0.0824
  429MPD2    H7 6407   4.369   1.305  17.677 -0.6419 -3.1442 -1.6180
  430TMC3    C1 6408   4.529   1.903  17.390  0.2076  0.1721 -0.8357
  430TMC3    C2 6409   4.485   1.976  17.280 -1.3123  0.3554 -0.5623
  430TMC3    C3 6410   4.579   2.000  17.179 -0.3089 -0.0622 -0.8639
  430TMC3    C4 6411   4.656   1.844  17.384 -0.0055  0.5826 -0.0455
  430TMC3    C5 6412   0.015   1.869  17.279  0.2451 -0.1932 -0.0916
  430TMC3    C6 6413   4.704   1.946  17.177  0.2136  0.5989 -0.7953
  430TMC3     C 6414   4.421   1.872  17.485  0.0963  0.1036 -0.3644
  430TMC3     O 6415   4.335   1.957  17.505  0.7769  0.3785  0.4188
  430TMC3     H 6416   4.384   2.014  17.274 -0.4807  2.9224  1.4916
  430TMC3    H1 6417   4.700   1.784  17.463 -1.0737  1.9066  1.5509
  430TMC3    H2 6418   0.040   1.940  17.086 -0.0089  0.2117 -0.9154
  430TMC3    C7 6419   0.126   1.768  17.266 -0.2601 -0.0668  0.8052
  430TMC3    C8 6420   4.540   2.049  17.048  1.4422 -0.3445 -0.2187
  430TMC3    O1 6421   0.116   1.658  17.322 -0.3039  0.5230  0.2069
  430TMC3    O2 6422   4.566   1.975  16.954  0.2123 -0.3486  0.2542
  431MPD2     C 6423   0.817   2.026  12.427  0.8369  0.0532 -0.8764
  431MPD2    C1 6424   0.825   2.090  12.304 -0.2085 -0.1191 -0.0857
  431MPD2    C2 6425   0.830   2.011  12.193 -0.7664 -0.5164  0.0815
  431MPD2    C3 6426   0.800   1.873  12.199 -0.1870  0.2817 -0.7702
  431MPD2    C4 6427   0.766   1.822  12.321  0.2091 -0.1976  0.4800
  431MPD2    C5 6428   0.784   1.890  12.435  0.9022 -0.1310 -0.5596
  431MPD2     H 6429   0.827   2.062  12.097 -2.0988 -0.5901  0.0936
  431MPD2    H1 6430   0.731   1.721  12.338  0.3465 -0.5855 -1.5692
  431MPD2    H2 6431   0.837   2.075  12.522 -3.2909  1.2411 -0.6301
  431MPD2    H3 6432   0.767   1.847  12.533 -0.3253  0.8098 -0.3675
  431MPD2     N 6433   0.795   1.784  12.090 -0.2961  0.0626 -0.0855
  431MPD2    H5 6434   0.764   1.689  12.106 -1.3643  0.2368 -1.1266
  431MPD2    N1 6435   0.869   2.221  12.287  0.0849  0.0925 -1.3599
  431MPD2    H7 6436   0.860   2.256  12.193  1.4515  1.2000 -1.0734
  432TMC3    C1 6437   0.889   1.689  11.920 -0.1925  0.4555 -0.5325
  432TMC3    C2 6438   0.944   1.716  11.797 -0.8128 -0.7782  0.2294
  432TMC3    C3 6439   1.073   1.668  11.774 -0.1698  0.1271 -0.0693
  432TMC3    C4 6440   0.957   1.623  12.013 -0.3637  0.2726  0.6515
  432TMC3    C5 6441   1.083   1.585  11.995 -0.6183 -0.1179  0.9110
  432TMC3    C6 6442   1.145   1.612  11.876 -0.2894 -0.0634 -0.7903
  432TMC3     C 6443   0.828   1.809  11.965 -0.3202 -0.1278  0.1285
  432TMC3     O 6444   0.861   1.913  11.908 -0.2318 -0.3468  0.4802
  432TMC3     H 6445   0.897   1.781  11.724 -0.3679  0.1921  0.8096
  432TMC3    H1 6446   0.908   1.582  12.100 -1.5393  0.1602 -0.0563
  432TMC3    H2 6447   1.250   1.584  11.877 -0.3986 -0.3409  3.2335
  432TMC3    C7 6448   1.163   1.544  12.111 -0.4530 -0.6819 -0.4908
  432TMC3    C8 6449   1.135   1.698  11.647 -0.0979  0.3701  0.2185
  432TMC3    O1 6450   1.236   1.448  12.090  0.5549  0.0920  0.7212
  432TMC3    O2 6451   1.063   1.734  11.557  0.3056 -0.0860 -0.2595
  433MPD2     C 6452   4.650   0.880  10.776  0.1534 -0.6828 -0.5220
  433MPD2    C1 6453   4.531   0.820  10.818 -0.1313  0.0019  0.8204
  433MPD2    C2 6454   4.478   0.878  10.936  0.4582 -0.5787  0.2020
  433MPD2    C3 6455   4.541   0.976  11.004 -0.0925  0.0943  0.8661
  433MPD2    C4 6456   4.654   1.031  10.956  0.8122 -0.5630 -0.3176
  433MPD2    C5 6457   4.716   0.976  10.850  0.9311 -0.1679  0.8194
  433MPD2     H 6458   4.387   0.835  10.976 -0.3994 -0.5063 -1.6953
  433MPD2    H1 6459   4.694   1.122  10.998 -1.4180  0.8209 -1.1793
  433MPD2    H2 6460   4.702   0.848  10.687  1.2802  1.4148 -0.6218
  433MPD2    H3 6461   0.072   1.038  10.809 -0.3768  1.7290  1.1388
  433MPD2     N 6462   4.479   1.023  11.122  0.2942  0.2064  0.6226
  433MPD2    H5 6463   4.401   0.967  11.156  1.1990  0.3158  2.9132
  433MPD2    N1 6464   4.468   0.721  10.740 -0.3682 -0.7690  1.1724
  433MPD2    H7 6465   4.521   0.689  10.660  0.1686 -1.1162  1.6681
  434TMC3    C1 6466   4.322   0.538  10.685 -0.5306  0.4926 -0.1949
  434TMC3    C2 6467   4.276   0.424  10.749 -0.3293 -0.9788 -0.2908
  434TMC3    C3 6468   4.311   0.309  10.684 -0.2097  0.0344  0.1001
  434TMC3    C4 6469   4.382   0.536  10.557  0.2530 -0.3370  0.1656
  434TMC3    C5 6470   4.376   0.422  10.489  0.9211 -0.1018 -0.3374
  434TMC3    C6 6471   4.359   0.301  10.559 -0.3332 -0.3188  0.3629
  434TMC3     C 6472   4.349   0.650  10.770  0.9481 -0.0814 -0.4763
  434TMC3     O 6473   4.290   0.658  10.873 -0.3248 -0.2105  0.3660
  434TMC3     H 6474   4.223   0.422  10.843  1.9187  0.7693  1.0175
  434TMC3    H1 6475   4.412   0.630  10.512 -2.8167  0.5882  0.0472
  434TMC3    H2 6476   4.358   0.204  10.510  2.2040 -1.3107  2.2660
  434TMC3    C7 6477   4.336   0.429  10.350  0.7971  0.4999 -0.2427
  434TMC3    C8 6478   4.366   0.208  10.780  1.1347  0.3590 -0.2352
  434TMC3    O1 6479   4.293   0.536  10.309 -0.2178 -0.4737 -0.1303
  434TMC3    O2 6480   4.313   0.200  10.889 -0.2776  0.4702  0.3850
  435MPD2     C 6481   1.767   0.639  15.388  0.0822  0.0277  0.1034
  435MPD2    C1 6482   1.686   0.590  15.486  0.2520  0.0246  0.4981
  435MPD2    C2 6483   1.713   0.471  15.545 -0.3665  0.0353 -0.1975
  435MPD2    C3 6484   1.819   0.394  15.511  0.2507  0.3853  0.3904
  435MPD2    C4 6485   1.903   0.443  15.415 -0.1710  0.1998  0.6539
  435MPD2    C5 6486   1.872   0.560  15.357  0.0679 -0.4340 -0.1025
  435MPD2     H 6487   1.643   0.435  15.620 -0.1599 -0.6549 -0.3273
  435MPD2    H1 6488   1.994   0.397  15.377 -0.7802 -1.7086  1.5238
  435MPD2    H2 6489   1.757   0.739  15.349 -0.8111  0.6979  2.0708
  435MPD2    H3 6490   1.936   0.591  15.276 -0.8218 -0.3145 -0.7664
  435MPD2     N 6491   1.842   0.278  15.593 -0.2963 -0.9334  0.0698
  435MPD2    H5 6492   1.772   0.261  15.665  0.9342 -0.3066  1.4125
  435MPD2    N1 6493   1.573   0.658  15.527 -0.2979 -1.5940  0.6314
  435MPD2    H7 6494   1.519   0.625  15.607 -1.2006 -1.1673  0.2028
  436TMC3    C1 6495   1.288   0.819  15.759 -0.7062 -0.0365  0.1146
  436TMC3    C2 6496   1.409   0.809  15.685  0.6658 -0.6048  0.3333
  436TMC3    C3 6497   1.393   0.799  15.550  0.7845 -0.0220 -0.1158
  436TMC3    C4 6498   1.169   0.839  15.691  0.1620  0.1106 -0.0674
  436TMC3    C5 6499   1.164   0.849  15.555 -0.4663 -0.5910 -0.5950
  436TMC3    C6 6500   1.275   0.820  15.484 -0.1187  0.3735  0.4130
  436TMC3     C 6501   1.298   0.775  15.895  0.1131  0.1219  0.2322
  436TMC3     O 6502   1.410   0.767  15.942  0.3907 -0.1882  0.2571
  436TMC3     H 6503   1.506   0.779  15.722 -0.6698 -2.6686  2.1473
  436TMC3    H1 6504   1.087   0.865  15.758  1.5718  0.4789  1.5175
  436TMC3    H2 6505   1.279   0.827  15.376  0.3907 -2.0031  0.2772
  436TMC3    C7 6506   1.050   0.897  15.476  0.2063  0.7552  0.8448
  436TMC3    C8 6507   1.508   0.760  15.468 -0.1022 -0.1819 -0.0574
  436TMC3    O1 6508   1.075   0.937  15.364  0.1810 -0.3338 -0.1368
  436TMC3    O2 6509   1.524   0.796  15.352  0.2131 -0.5386 -0.4194
  437TMC3    C1 6510   4.631   2.843  12.620 -0.5189  0.1187 -0.0165
  437TMC3    C2 6511   4.500   2.816  12.590  0.0342 -1.0007  0.0947
  437TMC3    C3 6512   4.448   2.868  12.476 -0.5545  0.3317  0.0093
  437TMC3    C4 6513   4.710   2.905  12.526  0.0214  0.4717 -0.3346
  437TMC3    C5 6514   4.657   2.956  12.410 -0.9103  0.4042  0.0641
  437TMC3    C6 6515   4.519   2.939  12.389 -0.0658 -0.0364  0.2868
  437TMC3     C 6516   4.696   2.766  12.720 -0.3889 -0.0637 -0.2287
  437TMC3     O 6517   0.093   2.755  12.701  0.0336 -0.5193 -0.5243
  437TMC3     H 6518   4.447   2.748  12.656  0.1064 -2.0002 -0.8827
  437TMC3    H1 6519   0.087   2.935  12.553 -0.5742  1.2577  1.0012
  437TMC3    H2 6520   4.473   2.992  12.305  0.8901 -2.0479 -1.5098
  437TMC3    C7 6521   0.012   3.044  12.333  0.1131 -0.0441  0.2717
  437TMC3    C8 6522   4.319   2.839  12.421  0.2143  0.0183  0.1691
  437TMC3    O1 6523   4.674   3.119  12.257 -0.4824 -0.3017  0.3315
  437TMC3    O2 6524   4.294   2.857  12.301  0.1811  0.1046 -0.0517
  438MPD2     C 6525   2.482   2.303  16.849  0.3573 -0.3424 -0.7934
  438MPD2    C1 6526   2.610   2.305  16.897 -0.0344  0.8572  0.4640
  438MPD2    C2 6527   2.624   2.353  17.028 -0.3245  0.5805 -0.3535
  438MPD2    C3 6528   2.521   2.392  17.113 -0.3604  0.5547  0.0303
  438MPD2    C4 6529   2.398   2.404  17.057  0.2540 -0.0778 -0.1895
  438MPD2    C5 6530   2.379   2.355  16.935  0.4535  0.8143  0.7152
  438MPD2     H 6531   2.727   2.343  17.060 -1.0781 -0.2347  1.8238
  438MPD2    H1 6532   2.310   2.440  17.108  1.1509  1.4222  0.3046
  438MPD2    H2 6533   2.459   2.274  16.748 -3.9868  0.1515  0.0565
  438MPD2    H3 6534   2.280   2.365  16.892  0.9653 -0.1698 -0.6955
  438MPD2     N 6535   2.534   2.429  17.242  0.1866  0.4198  0.0190
  438MPD2    H5 6536   2.450   2.446  17.296  0.0827  0.8140 -0.2689
  438MPD2    N1 6537   2.722   2.254  16.834 -0.9514 -0.0576  0.1241
  438MPD2    H7 6538   2.806   2.263  16.890 -0.9484  1.2920 -0.0951
  439TMC3    C1 6539   2.857   2.154  16.674  0.5463 -0.3730  0.1097
  439TMC3    C2 6540   2.878   2.120  16.546  0.1451  0.7405 -0.4647
  439TMC3    C3 6541   2.996   2.067  16.508  0.3303 -0.3734 -1.2360
  439TMC3    C4 6542   2.960   2.162  16.765 -0.9881  0.5607 -0.0055
  439TMC3    C5 6543   3.084   2.133  16.713 -0.1075 -0.0336 -0.0074
  439TMC3    C6 6544   3.104   2.073  16.593  0.2774  0.2482  0.1113
  439TMC3     C 6545   2.725   2.191  16.714  0.5026  0.4259 -0.3153
  439TMC3     O 6546   2.634   2.155  16.637 -0.0452  0.2951 -0.2668
  439TMC3     H 6547   2.797   2.131  16.475 -1.1900 -1.0070  0.7801
  439TMC3    H1 6548   2.945   2.173  16.872 -1.9624 -4.6103  0.3991
  439TMC3    H2 6549   3.200   2.042  16.554 -0.2522 -0.4355 -0.6486
  439TMC3    C7 6550   3.194   2.148  16.803 -0.4299 -0.1010  0.4119
  439TMC3    C8 6551   3.035   2.075  16.373  0.5181 -0.0421  0.2293
  439TMC3    O1 6552   3.151   2.152  16.916 -0.1981 -0.2876  0.1095
  439TMC3    O2 6553   3.155   2.077  16.350 -0.3147 -0.3730 -0.1405
  440MPD2     C 6554   1.574   3.256  14.444 -0.5858 -0.0702  0.0948
  440MPD2    C1 6555   1.601   3.329  14.555  0.2537  0.1504 -0.1747
  440MPD2    C2 6556   1.727   3.345  14.605 -1.2309 -0.3149 -0.1283
  440MPD2    C3 6557   1.828   3.271  14.554 -0.0026 -0.3215  0.6558
  440MPD2    C4 6558   1.803   3.189  14.439 -0.0942  0.6848  0.1907
  440MPD2    C5 6559   1.679   3.182  14.388  0.5168 -0.4447  0.5360
  440MPD2     H 6560   1.735   3.408  14.692  3.1580  1.4291 -1.7870
  440MPD2    H1 6561   1.890   3.147  14.389 -2.5006 -0.4036 -3.0708
  440MPD2    H2 6562   1.479   3.258  14.393 -0.8290  0.1062  0.5605
  440MPD2    H3 6563   1.650   3.122  14.303  0.9610 -0.2407  0.2343
  440MPD2     N 6564   1.959   3.287  14.598 -0.7425  0.1130  0.1781
  440MPD2    H5 6565   2.027   3.214  14.579  0.6205  1.0606  1.4571
  440MPD2    N1 6566   1.497   3.399  14.621 -0.2703 -0.3759  0.2202
  440MPD2    H7 6567   1.521   3.464  14.695 -0.7700 -2.5764  2.3158
  441TMC3    C1 6568   2.131   3.380  14.722  0.3431 -0.3024 -0.1859
  441TMC3    C2 6569   2.194   3.504  14.740  0.0386 -0.1867 -1.0096
  441TMC3    C3 6570   2.244   3.550  14.858  0.4078  0.3757  0.1243
  441TMC3    C4 6571   2.123   3.295  14.828 -0.1106  0.4168 -0.2784
  441TMC3    C5 6572   2.180   3.332  14.948 -0.2841 -0.3329  0.2096
  441TMC3    C6 6573   2.234   3.459  14.965  0.5232 -0.6061 -0.2829
  441TMC3     C 6574   2.002   3.400  14.660  0.6458  0.6571 -0.3413
  441TMC3     O 6575   1.959   3.515  14.654  0.2157  0.0126 -0.0835
  441TMC3     H 6576   2.186   3.559  14.647  1.7204 -0.7982 -1.5129
  441TMC3    H1 6577   2.071   3.200  14.824 -1.9413  1.2717  3.1197
  441TMC3    H2 6578   2.239   3.499  15.066 -2.6836 -2.3494  0.5666
  441TMC3    C7 6579   2.156   3.238  15.062  0.1937 -0.4026 -0.2528
  441TMC3    C8 6580   2.194   3.678  14.899  0.0601  0.5212 -0.1936
  441TMC3    O1 6581   2.092   3.138  15.035  0.4496  0.1753  0.4623
  441TMC3    O2 6582   2.271   3.737  14.973 -0.2087 -0.1890 -0.4477
  442MPD2     C 6583   4.579   3.909  16.574  1.4311 -0.2622  0.0226
  442MPD2    C1 6584   4.474   3.827  16.613  0.0729  0.7623  0.6804
  442MPD2    C2 6585   4.472   3.696  16.566  0.3900 -0.3986  0.9480
  442MPD2    C3 6586   4.564   3.644  16.472 -0.9885 -0.4197 -0.2495
  442MPD2    C4 6587   4.667   3.729  16.431  0.4035 -0.4103 -0.3944
  442MPD2    C5 6588   4.670   3.858  16.485  0.0756 -0.2189  0.1991
  442MPD2     H 6589   4.393   3.629  16.599 -0.5711  0.0894 -0.3724
  442MPD2    H1 6590   0.024   3.705  16.362 -1.1845 -2.3614 -1.5887
  442MPD2    H2 6591   4.605   4.009  16.607 -0.9569  0.5054 -0.4694
  442MPD2    H3 6592   0.021   3.933  16.463 -1.8364  1.0155 -2.0407
  442MPD2     N 6593   4.554   3.523  16.403 -0.2123  0.0149 -0.5388
  442MPD2    H5 6594   4.612   3.501  16.323  1.0884 -4.6896  1.6973
  442MPD2    N1 6595   4.369   3.877  16.697 -0.3565  0.0310  0.2090
  442MPD2    H7 6596   4.289   3.817  16.714 -2.9867  3.3443 -0.4644
  443TMC3    C1 6597   4.230   4.034  16.805 -0.5580 -0.6842 -0.8871
  443TMC3    C2 6598   4.199   4.166  16.797 -0.6968  0.3063  0.8788
  443TMC3    C3 6599   4.076   4.202  16.853  0.0665  0.1102 -0.1962
  443TMC3    C4 6600   4.165   3.945  16.885  0.0382  0.6056 -0.0361
  443TMC3    C5 6601   4.057   3.993  16.958  0.4047  0.0375  0.1893
  443TMC3    C6 6602   4.006   4.118  16.936 -0.1521 -0.2691  0.1899
  443TMC3     C 6603   4.358   3.995  16.748 -0.2771 -0.1039 -0.1156
  443TMC3     O 6604   4.442   4.089  16.741 -0.0946 -0.0296 -0.8317
  443TMC3     H 6605   4.251   4.217  16.717  1.1344  1.0418  2.5485
  443TMC3    H1 6606   4.189   3.839  16.894 -2.9995 -0.1013 -0.3233
  443TMC3    H2 6607   3.916   4.154  16.985 -0.0276 -0.1962  0.3628
  443TMC3    C7 6608   3.981   3.904  17.040  0.1728  0.7148 -1.1233
  443TMC3    C8 6609   4.000   4.323  16.833  0.0614 -0.6184 -0.4791
  443TMC3    O1 6610   3.960   3.792  17.001 -0.1556  0.5976  0.0789
  443TMC3    O2 6611   3.965   4.395  16.926 -0.0427 -0.1483 -0.9827
  444MPD2     C 6612   4.404   3.407  16.905  0.3074  0.3062  0.0796
  444MPD2    C1 6613   4.381   3.302  17.000 -0.0857  0.2853 -0.1759
  444MPD2    C2 6614   4.472   3.197  16.996  0.2553 -0.1998 -0.0935
  444MPD2    C3 6615   4.585   3.200  16.917 -0.5388 -0.1471  0.7800
  444MPD2    C4 6616   4.605   3.319  16.842  0.0469  0.3393 -0.2923
  444MPD2    C5 6617   4.509   3.415  16.823 -0.0106 -0.4624  0.0538
  444MPD2     H 6618   4.460   3.112  17.062  0.5262  0.3279  0.6439
  444MPD2    H1 6619   4.699   3.337  16.793  0.1554  0.5895  0.0106
  444MPD2    H2 6620   4.329   3.485  16.894  0.5862  0.8184  1.7701
  444MPD2    H3 6621   4.531   3.500  16.759 -2.1626  1.3701  1.7323
  444MPD2     N 6622   4.677   3.092  16.925  0.3625 -0.2420  0.0533
  444MPD2    H5 6623   4.648   3.009  16.976 -0.0770 -0.1347 -0.0191
  444MPD2    N1 6624   4.285   3.299  17.101 -0.3392  0.4766 -0.3220
  444MPD2    H7 6625   4.301   3.230  17.173 -1.8708  0.0174 -0.4273
  445TMC3    C1 6626   0.160   2.970  16.888  0.1454 -0.3295 -0.4496
  445TMC3    C2 6627   0.151   2.913  17.016  0.4051 -0.3402 -0.5186
  445TMC3    C3 6628   0.217   2.798  17.036 -0.4931 -0.7279  0.1721
  445TMC3    C4 6629   0.231   2.920  16.787 -0.1210 -0.0612 -0.4864
  445TMC3    C5 6630   0.291   2.796  16.804 -0.2508  0.2532  0.1364
  445TMC3    C6 6631   0.290   2.740  16.930  0.0436  0.1389  0.1950
  445TMC3     C 6632   0.076   3.085  16.860 -0.5074 -0.3068 -0.3214
  445TMC3     O 6633   0.133   3.177  16.801  0.1212 -0.1342  0.0799
  445TMC3     H 6634   0.077   2.937  17.092  1.5557 -1.4741  0.9664
  445TMC3    H1 6635   0.238   2.969  16.691  3.3349  0.4995  0.0379
  445TMC3    H2 6636   0.342   2.648  16.954  0.4341 -0.0043 -1.2105
  445TMC3    C7 6637   0.384   2.749  16.711  0.2334 -0.4343 -0.0629
  445TMC3    C8 6638   0.258   2.756  17.168 -0.3107 -0.4428  0.3170
  445TMC3    O1 6639   0.384   2.802  16.601 -1.0764 -0.1408  0.0529
  445TMC3    O2 6640   0.289   2.641  17.191  0.4814  0.6433  0.4266
  446MPD2     C 6641   4.087   0.228  11.335 -0.7499  0.0338  0.1142
  446MPD2    C1 6642   4.096   0.262  11.203 -0.2383  0.0458 -0.0977
  446MPD2    C2 6643   4.213   0.320  11.156  0.5057  0.1172  0.6400
  446MPD2    C3 6644   4.317   0.351  11.246  0.3611  0.5422  0.0978
  446MPD2    C4 6645   4.294   0.340  11.379 -0.2973  0.3425 -0.1877
  446MPD2    C5 6646   4.181   0.272  11.421  0.0061  0.4457 -0.2709
  446MPD2     H 6647   4.226   0.341  11.051  0.1051 -0.7270  0.4264
  446MPD2    H1 6648   4.371   0.364  11.452  2.2111 -0.7413 -2.4716
  446MPD2    H2 6649   4.000   0.171  11.365 -0.8184  0.5088  0.8042
  446MPD2    H3 6650   4.175   0.246  11.526 -0.7420 -1.1608 -0.7180
  446MPD2     N 6651   4.431   0.402  11.182  0.4621  0.2866  0.2512
  446MPD2    H5 6652   4.429   0.408  11.081  0.5898  1.0343  0.2933
  446MPD2    N1 6653   3.997   0.216  11.115 -0.3427  0.4720 -0.0983
  446MPD2    H7 6654   3.920   0.158  11.147  0.5616  0.6431  2.3928
  447TMC3    C1 6655   4.659   0.449  11.162 -0.2228  0.3852 -0.2569
  447TMC3    C2 6656   4.641   0.443  11.027 -0.6088  0.2811  0.8135
  447TMC3    C3 6657   0.019   0.397  10.949 -0.1065  0.7390  0.5393
  447TMC3    C4 6658   0.058   0.410  11.221 -0.0837 -0.3522 -0.0508
  447TMC3    C5 6659   0.145   0.352  11.132  0.2774  0.0439 -0.4315
  447TMC3    C6 6660   0.135   0.349  10.999 -0.5726 -0.0100  1.0441
  447TMC3     C 6661   4.546   0.430  11.253  0.2217 -0.0827  0.5535
  447TMC3     O 6662   4.573   0.412  11.372 -0.3044  0.0901  1.0271
  447TMC3     H 6663   4.555   0.496  10.989  0.1025  0.9051  0.0955
  447TMC3    H1 6664   0.070   0.404  11.328  0.1211 -1.4002 -0.1362
  447TMC3    H2 6665   0.220   0.319  10.938 -1.0073 -2.3839  1.6106
  447TMC3    C7 6666   0.273   0.312  11.181  0.0538 -0.2554 -0.7553
  447TMC3    C8 6667   0.013   0.405  10.800 -0.3761 -0.7774  0.4071
  447TMC3    O1 6668   0.339   0.256  11.097 -0.1201  0.5536 -0.3009
  447TMC3    O2 6669   4.627   0.444  10.756  0.3078 -0.2648  0.3823
  448TMC3    C1 6670   2.600   4.155  16.388 -0.7830  0.3459 -0.3033
  448TMC3    C2 6671   2.527   4.047  16.413 -0.2799 -0.0266 -0.0367
  448TMC3    C3 6672   2.569   3.965  16.514 -0.2573 -0.0380  0.6026
  448TMC3    C4 6673   2.709   4.189  16.464 -0.5643 -0.4421 -0.1531
  448TMC3    C5 6674   2.762   4.099  16.554 -0.4211 -0.0292 -0.1686
  448TMC3    C6 6675   2.689   3.982  16.588 -0.0078 -0.1570  0.6256
  448TMC3     C 6676   2.552   4.251  16.285 -0.0864  0.2581 -0.1687
  448TMC3     O 6677   2.506   4.203  16.182 -0.4247 -0.4057 -0.0447
  448TMC3     H 6678   2.448   4.024  16.342 -1.1350  0.5949  0.7148
  448TMC3    H1 6679   2.781   4.261  16.427  1.2555 -2.4074 -0.4362
  448TMC3    H2 6680   2.715   3.919  16.672 -3.1214 -1.1342  0.8539
  448TMC3    C7 6681   2.857   4.151  16.648  0.0485  0.0517  0.0269
  448TMC3    C8 6682   2.502   3.836  16.519  0.9485 -0.0011 -0.2393
  448TMC3    O1 6683   2.905   4.256  16.607  0.0554 -0.3172 -0.3980
  448TMC3    O2 6684   2.413   3.817  16.435  0.4244  0.0097 -0.4254
  449MPD2     C 6685   3.508   3.424  13.098  0.3117 -0.6340  0.8840
  449MPD2    C1 6686   3.518   3.285  13.075 -0.1311 -0.1972 -0.4239
  449MPD2    C2 6687   3.556   3.201  13.177 -0.7218  0.7485  0.6534
  449MPD2    C3 6688   3.595   3.256  13.300  0.9169  0.0225 -0.3675
  449MPD2    C4 6689   3.577   3.388  13.321 -0.1086  0.5753 -0.8619
  449MPD2    C5 6690   3.535   3.471  13.222  0.0516 -0.3178 -0.0418
  449MPD2     H 6691   3.569   3.096  13.154 -1.4218  0.7588  0.2157
  449MPD2    H1 6692   3.617   3.432  13.412 -0.1157  2.0182 -1.5565
  449MPD2    H2 6693   3.477   3.496  13.023 -0.9600  1.9139  3.8987
  449MPD2    H3 6694   3.546   3.578  13.227 -1.0398 -0.2215  0.3416
  449MPD2     N 6695   3.649   3.161  13.393 -0.6006 -0.5793 -0.4365
  449MPD2    H5 6696   3.655   3.066  13.358  1.4281 -0.3378 -0.7346
  449MPD2    N1 6697   3.498   3.240  12.943 -0.1130 -0.4324 -0.0498
  449MPD2    H7 6698   3.511   3.140  12.932 -1.8591 -0.5591 -0.9301
  450TMC3    C1 6699   3.463   3.226  12.714  0.8002 -0.5828  0.3292
  450TMC3    C2 6700   3.558   3.240  12.618  1.2074 -0.9632  0.2359
  450TMC3    C3 6701   3.613   3.130  12.576  0.3553  0.2620 -0.3943
  450TMC3    C4 6702   3.421   3.102  12.742  1.1309  0.1382  0.4066
  450TMC3    C5 6703   3.489   2.990  12.706  0.5200 -0.2735 -0.1106
  450TMC3    C6 6704   3.592   3.006  12.617  0.0065 -0.4177 -0.1423
  450TMC3     C 6705   3.483   3.318  12.834 -0.0650  0.3488 -0.8653
  450TMC3     O 6706   3.511   3.433  12.814 -0.0379 -0.3568  0.1681
  450TMC3     H 6707   3.596   3.336  12.585  1.7777 -1.1588  0.3098
  450TMC3    H1 6708   3.344   3.090  12.817  0.0642  0.4036 -0.6459
  450TMC3    H2 6709   3.639   2.917  12.577 -0.1941 -0.5380 -0.1116
  450TMC3    C7 6710   3.530   2.914  12.823  0.5978  0.4882  0.1005
  450TMC3    C8 6711   3.739   3.157  12.505 -0.2451 -0.4401  0.5177
  450TMC3    O1 6712   3.594   2.979  12.909  0.2090 -0.3598  0.4587
  450TMC3    O2 6713   3.736   3.236  12.414  0.3233 -0.3989 -0.1281
  451MPD2     C 6714   0.493   1.214   1.613  0.1560 -0.1346 -0.1113
  451MPD2    C1 6715   0.560   1.240   1.496  0.3051  1.8088 -0.4284
  451MPD2    C2 6716   0.677   1.176   1.463  0.4224  0.0132 -0.4127
  451MPD2    C3 6717   0.729   1.081   1.547 -0.6074 -0.2264 -0.1323
  451MPD2    C4 6718   0.663   1.054   1.665 -0.2510 -0.1349 -0.0856
  451MPD2    C5 6719   0.539   1.115   1.695 -0.7050  0.2435  0.3002
  451MPD2     H 6720   0.717   1.193   1.364 -0.0197 -2.5179 -1.0059
  451MPD2    H1 6721   0.706   0.989   1.741 -0.4204 -0.3141 -0.1439
  451MPD2    H2 6722   0.409   1.279   1.637 -0.7982 -0.6527 -2.0379
  451MPD2    H3 6723   0.484   1.085   1.783  2.8355  0.6527  2.6222
  451MPD2     N 6724   0.839   0.995   1.513  0.1215 -0.4779 -0.5858
  451MPD2    H5 6725   0.866   0.932   1.587 -0.5104 -0.3116 -0.2094
  451MPD2    N1 6726   0.504   1.344   1.418 -0.6415 -0.4010 -0.9238
  451MPD2    H7 6727   0.417   1.381   1.455 -1.0200  0.4558 -2.6207
  452TMC3    C1 6728   0.995   0.886   1.383 -0.9700  0.5771  0.3147
  452TMC3    C2 6729   1.073   0.872   1.500 -0.5080  0.4620  0.1344
  452TMC3    C3 6730   1.179   0.789   1.488  0.4273  0.1638 -0.2190
  452TMC3    C4 6731   1.012   0.814   1.269  0.8206 -0.4341 -0.6136
  452TMC3    C5 6732   1.095   0.713   1.280 -0.0035 -0.7625 -0.6065
  452TMC3    C6 6733   1.184   0.714   1.380  0.0892 -0.7854  0.5495
  452TMC3     C 6734   0.884   0.978   1.386 -0.3702  0.1598 -0.8339
  452TMC3     O 6735   0.874   1.047   1.284  0.1066 -0.0037 -0.3216
  452TMC3     H 6736   1.067   0.938   1.586  0.2508  1.0183 -0.2315
  452TMC3    H1 6737   0.934   0.815   1.194 -0.2018  0.4300  0.4611
  452TMC3    H2 6738   1.250   0.627   1.375 -0.4474 -1.1099 -0.9358
  452TMC3    C7 6739   1.101   0.623   1.168  0.1985  0.3160 -0.2382
  452TMC3    C8 6740   1.290   0.817   1.567 -0.0149 -0.3880 -0.7070
  452TMC3    O1 6741   1.074   0.672   1.060 -0.2723 -0.2253 -0.6480
  452TMC3    O2 6742   1.268   0.849   1.683 -0.5581 -0.1058  0.0985
  453TMC3    C1 6743   1.791   3.948  11.312  0.2982  0.8088 -0.1213
  453TMC3    C2 6744   1.724   3.848  11.377  0.8926 -0.1360 -0.5229
  453TMC3    C3 6745   1.643   3.773  11.297 -0.2726  0.6691  0.4039
  453TMC3    C4 6746   1.792   3.979  11.181  0.0564 -0.5659 -0.0487
  453TMC3    C5 6747   1.716   3.888  11.104 -0.0878 -0.3380 -0.5259
  453TMC3    C6 6748   1.633   3.790  11.162 -0.9210  0.6203 -0.8301
  453TMC3     C 6749   1.875   4.041  11.390 -0.5087  0.0733 -0.1893
  453TMC3     O 6750   1.960   4.109  11.335  0.2997  0.3999 -0.8754
  453TMC3     H 6751   1.732   3.828  11.483  1.1423  1.1440 -0.3032
  453TMC3    H1 6752   1.843   4.067  11.142 -2.3766  0.4516 -0.9213
  453TMC3    H2 6753   1.587   3.710  11.105 -0.7978  0.6010 -0.9031
  453TMC3    C7 6754   1.687   3.932  10.973 -0.3618  0.0737  0.1040
  453TMC3    C8 6755   1.565   3.659  11.350  0.0982  0.2804  0.0597
  453TMC3    O1 6756   1.605   3.864  10.917 -0.1638 -0.9735 -0.5140
  453TMC3    O2 6757   1.468   3.613  11.288 -0.1312  0.6067  0.2787
  454MPD2     C 6758   0.574   3.294  15.788 -0.3652  0.1961 -0.1256
  454MPD2    C1 6759   0.548   3.177  15.856 -0.5418 -0.1624  0.3538
  454MPD2    C2 6760   0.511   3.176  15.992 -0.1571 -0.0742  0.0462
  454MPD2    C3 6761   0.492   3.300  16.055 -0.0093 -0.4624  0.5287
  454MPD2    C4 6762   0.512   3.413  15.981  0.0767  0.0029 -0.0162
  454MPD2    C5 6763   0.552   3.409  15.848  0.0339  0.5488  0.0988
  454MPD2     H 6764   0.491   3.080  16.040  2.2717 -1.5002 -1.7760
  454MPD2    H1 6765   0.504   3.511  16.026 -2.1938 -0.0388 -0.3082
  454MPD2    H2 6766   0.601   3.290  15.683 -0.8237 -0.4651 -0.2174
  454MPD2    H3 6767   0.564   3.504  15.797 -1.5902  0.0969 -1.1398
  454MPD2     N 6768   0.466   3.314  16.195  0.0545 -0.1650  0.2878
  454MPD2    H5 6769   0.441   3.407  16.226  0.3383 -0.3943  1.2243
  454MPD2    N1 6770   0.553   3.049  15.790 -0.2267  0.1094  0.6445
  454MPD2    H7 6771   0.525   2.970  15.847  1.5167 -0.4365  0.7547
  455TMC3    C1 6772   0.359   3.237  16.380 -0.4211 -0.7098  0.7717
  455TMC3    C2 6773   0.353   3.371  16.424  0.7268  0.1829  0.5782
  455TMC3    C3 6774   0.243   3.405  16.501 -0.3802  0.1433 -0.1032
  455TMC3    C4 6775   0.259   3.147  16.397  0.3164  0.3111  0.0102
  455TMC3    C5 6776   0.152   3.192  16.454 -0.9228 -0.0519  0.4505
  455TMC3    C6 6777   0.144   3.311  16.524  0.0306 -0.6591  0.2127
  455TMC3     C 6778   0.447   3.202  16.277  0.1346  0.2039  0.3594
  455TMC3     O 6779   0.470   3.084  16.266 -0.0749 -0.5069  0.4169
  455TMC3     H 6780   0.441   3.434  16.422  0.8550  0.0538  1.8612
  455TMC3    H1 6781   0.265   3.055  16.339 -1.0511  0.9288 -1.1145
  455TMC3    H2 6782   0.051   3.339  16.572  1.3469  1.5489  1.4960
  455TMC3    C7 6783   0.030   3.112  16.442 -0.5424 -0.1193  1.2528
  455TMC3    C8 6784   0.249   3.516  16.588 -0.4331  0.0387 -0.1593
  455TMC3    O1 6785   4.664   3.119  16.524  0.0827 -0.2348  0.1889
  455TMC3    O2 6786   0.185   3.511  16.693  0.2060  0.7134 -0.7757
  456MPD2     C 6787   3.014   2.496  16.619  0.1553 -0.0542 -0.7291
  456MPD2    C1 6788   3.107   2.580  16.667  0.1723  0.3684  0.5021
  456MPD2    C2 6789   3.098   2.663  16.770 -0.4206 -0.1525  0.4085
  456MPD2    C3 6790   2.971   2.689  16.816  0.5945 -0.0263  0.0289
  456MPD2    C4 6791   2.860   2.615  16.769  0.6955 -0.0036 -0.5209
  456MPD2    C5 6792   2.885   2.522  16.666  0.4983  0.2644  0.0256
  456MPD2     H 6793   3.178   2.726  16.808 -1.4707  0.1018  2.1902
  456MPD2    H1 6794   2.754   2.626  16.787  0.7299 -1.3567  0.4226
  456MPD2    H2 6795   3.032   2.422  16.541 -2.4343 -0.6207 -0.7674
  456MPD2    H3 6796   2.801   2.468  16.624  0.7108  1.3168 -1.7651
  456MPD2     N 6797   2.948   2.806  16.893 -0.0946 -0.3598  0.3499
  456MPD2    H5 6798   3.023   2.857  16.937 -0.3998 -1.3753  2.0487
  456MPD2    N1 6799   3.231   2.557  16.600 -0.1380  0.2099 -0.4756
  456MPD2    H7 6800   3.221   2.513  16.509  1.4751 -0.0621 -0.5292
  457TMC3    C1 6801   2.840   2.992  16.975  0.2356  0.2416 -0.4651
  457TMC3    C2 6802   2.775   3.096  16.917 -0.1549 -0.2782  0.3677
  457TMC3    C3 6803   2.806   3.227  16.957 -0.5761 -0.8154 -0.7421
  457TMC3    C4 6804   2.938   3.007  17.074  0.0301  0.1328  0.2917
  457TMC3    C5 6805   2.968   3.135  17.109 -0.1364  0.6315  0.8060
  457TMC3    C6 6806   2.908   3.243  17.047 -0.0251 -0.5044 -0.4112
  457TMC3     C 6807   2.824   2.867  16.902  0.4298 -0.2864  0.3217
  457TMC3     O 6808   2.718   2.845  16.844  0.0618 -0.5739 -0.5486
  457TMC3     H 6809   2.719   3.069  16.829  0.4361  1.1502 -0.4422
  457TMC3    H1 6810   2.995   2.925  17.116  0.0685 -0.7338 -1.4461
  457TMC3    H2 6811   2.942   3.342  17.073  3.2880 -1.1958 -2.1509
  457TMC3    C7 6812   3.052   3.152  17.227  0.3272  0.3941 -0.5215
  457TMC3    C8 6813   2.739   3.338  16.904 -0.0608  0.3228 -0.0916
  457TMC3    O1 6814   3.038   3.073  17.316 -0.4412  0.3865  0.4098
  457TMC3    O2 6815   2.803   3.444  16.899 -0.4962  0.1424 -0.3900
  458MPD2     C 6816   0.454   3.257  12.157 -0.1703 -0.1145  0.1693
  458MPD2    C1 6817   0.485   3.152  12.237 -0.2094 -1.1080  0.1618
  458MPD2    C2 6818   0.383   3.077  12.300 -0.6814  0.0569 -0.4280
  458MPD2    C3 6819   0.252   3.108  12.277 -0.1087 -0.5389 -0.5689
  458MPD2    C4 6820   0.221   3.213  12.189  0.3077 -0.1742  0.1916
  458MPD2    C5 6821   0.323   3.282  12.127  0.1136 -0.1923 -0.3232
  458MPD2     H 6822   0.400   2.986  12.356 -0.7597 -0.0391 -0.5593
  458MPD2    H1 6823   0.118   3.235  12.163  1.1340  1.4095 -1.6692
  458MPD2    H2 6824   0.531   3.317  12.109  0.2395 -0.3053  0.5921
  458MPD2    H3 6825   0.293   3.362  12.061  1.0526 -0.4244 -1.0261
  458MPD2     N 6826   0.149   3.031  12.346  0.2592 -0.0464 -0.9865
  458MPD2    H5 6827   0.181   2.965  12.416 -2.5394 -0.1208  0.2119
  458MPD2    N1 6828   0.623   3.124  12.252 -0.0965  0.0803 -0.4262
  458MPD2    H7 6829   0.695   3.173  12.200 -1.0837  0.7264 -1.1754
  459TMC3    C1 6830   0.820   3.026  12.352  0.3085  0.3677  0.6747
  459TMC3    C2 6831   0.900   3.123  12.303  0.2334  0.1627  0.0584
  459TMC3    C3 6832   1.037   3.118  12.327 -0.6131 -0.6297  0.5429
  459TMC3    C4 6833   0.872   2.929  12.431 -0.9170  0.2525 -0.5870
  459TMC3    C5 6834   1.009   2.928  12.458 -0.4982 -0.3539 -0.6325
  459TMC3    C6 6835   1.092   3.014  12.400  0.1115  0.2487 -0.8219
  459TMC3     C 6836   0.675   3.036  12.347  0.1869 -0.1602 -0.3924
  459TMC3     O 6837   0.619   2.953  12.415 -0.2051 -0.0612  0.2426
  459TMC3     H 6838   0.858   3.202  12.241  1.4883  2.0282  1.5964
  459TMC3    H1 6839   0.811   2.854  12.478  1.3066  0.1648  2.1418
  459TMC3    H2 6840   1.198   3.021  12.422  0.0215 -2.2311  0.4302
  459TMC3    C7 6841   1.049   2.857  12.574  0.6105  0.5536  0.1080
  459TMC3    C8 6842   1.124   3.209  12.258 -0.3552 -0.7336  0.4367
  459TMC3    O1 6843   1.002   2.750  12.601  0.5784  0.1150  0.7651
  459TMC3    O2 6844   1.241   3.175  12.276 -0.1579 -0.3725 -0.5583
  460MPD2     C 6845   0.238   0.258  10.554  0.4489 -0.4715 -0.1574
  460MPD2    C1 6846   0.136   0.343  10.596  0.4089  0.1636 -0.6583
  460MPD2    C2 6847   0.058   0.403  10.503 -0.0469  0.8754 -0.4701
  460MPD2    C3 6848   0.079   0.375  10.369 -0.0152  0.4220 -0.6456
  460MPD2    C4 6849   0.181   0.287  10.333  0.2622  0.2391 -0.2263
  460MPD2    C5 6850   0.269   0.241  10.425  0.1489  0.4726 -0.3396
  460MPD2     H 6851   4.699   0.469  10.528 -0.1417 -0.0333  1.6284
  460MPD2    H1 6852   0.202   0.272  10.228 -0.7645  0.9183 -0.5350
  460MPD2    H2 6853   0.304   0.210  10.624  0.6812 -2.5997 -1.8371
  460MPD2    H3 6854   0.344   0.166  10.403 -0.6151 -0.5209  0.4295
  460MPD2     N 6855   4.717   0.436  10.276 -0.3144  0.2936 -0.2989
  460MPD2    H5 6856   4.658   0.512  10.307  0.1530  0.4339  0.2434
  460MPD2    N1 6857   0.122   0.347  10.737 -0.0341 -0.7574  0.4891
  460MPD2    H7 6858   0.192   0.300  10.792  1.5823  0.3584 -0.6213
  461TMC3    C1 6859   4.633   0.477  10.069  0.4165 -0.6245  0.2633
  461TMC3    C2 6860   4.561   0.415   9.969 -0.6050  0.6585 -0.3454
  461TMC3    C3 6861   4.470   0.488   9.897  0.1340  0.2797  0.4815
  461TMC3    C4 6862   4.616   0.611  10.100 -0.4402  0.1628 -0.3591
  461TMC3    C5 6863   4.528   0.684  10.021  0.1423  0.2376  0.1663
  461TMC3    C6 6864   4.460   0.624   9.918  0.5192  0.9450 -0.3050
  461TMC3     C 6865   4.713   0.391  10.150 -0.5104 -0.0361  0.0917
  461TMC3     O 6866   0.008   0.274  10.114 -0.6624 -0.1047 -0.3899
  461TMC3     H 6867   4.584   0.313   9.942  1.0928  0.9847 -0.1839
  461TMC3    H1 6868   4.668   0.654  10.185 -1.0358 -1.1360  0.6517
  461TMC3    H2 6869   4.400   0.680   9.848 -0.3095  0.8537  0.3245
  461TMC3    C7 6870   4.526   0.830  10.009  0.2606  0.3415  0.2344
  461TMC3    C8 6871   4.462   0.445   9.763  0.0240  0.1224  0.4114
  461TMC3    O1 6872   4.420   0.877   9.968 -0.0128 -0.8596  0.0239
  461TMC3    O2 6873   4.549   0.368   9.729 -0.4906  0.4597  0.4416
  462TMC3    C1 6874   0.210   1.357   0.105 -0.7090 -0.2875  0.2765
  462TMC3    C2 6875   0.144   1.326  17.683 -0.2663 -0.3232 -0.2023
  462TMC3    C3 6876   0.006   1.349  17.682  0.3127 -0.6059  0.7808
  462TMC3    C4 6877   0.145   1.412   0.212 -0.0122 -0.0376 -0.8318
  462TMC3    C5 6878   0.008   1.430   0.213  0.5810  0.2279  0.4574
  462TMC3    C6 6879   4.660   1.415   0.091  0.1521 -0.0199  0.4492
  462TMC3     C 6880   0.353   1.363   0.100 -0.1801 -0.8761  0.8311
  462TMC3     O 6881   0.412   1.296   0.014 -0.0675 -0.1339 -0.2614
  462TMC3     H 6882   0.191   1.269  17.603 -1.8666 -1.2537 -0.4964
  462TMC3    H1 6883   0.212   1.422   0.296  0.0048  1.4489 -1.0215
  462TMC3    H2 6884   4.554   1.396   0.099  0.5074 -2.3978 -0.3039
  462TMC3    C7 6885   4.668   1.397   0.339  0.0032 -0.4932  0.5358
  462TMC3    C8 6886   4.653   1.256  17.607 -0.3426  0.4582  0.2740
  462TMC3    O1 6887   0.018   1.338   0.416 -0.1675 -0.4179  0.4238
  462TMC3    O2 6888   4.542   1.291  17.573 -0.7958  0.9250 -0.1418
  463MPD2     C 6889   1.435   4.574   2.392 -0.5605  0.0457  0.1016
  463MPD2    C1 6890   1.371   4.590   2.265  0.3029  0.3149  0.4268
  463MPD2    C2 6891   1.436   4.665   2.170  0.1563 -0.1470  0.1139
  463MPD2    C3 6892   1.557   0.003   2.194 -0.9266 -0.6511  0.3956
  463MPD2    C4 6893   1.622   4.699   2.312 -0.3635 -0.1636 -0.3591
  463MPD2    C5 6894   1.564   4.626   2.407  0.8934 -0.4427  0.2362
  463MPD2     H 6895   1.381   4.684   2.079  1.2661  1.1901 -0.2842
  463MPD2    H1 6896   1.718   0.020   2.334  0.2699 -2.1740  0.9928
  463MPD2    H2 6897   1.389   4.521   2.475  1.0324 -0.4737  0.6415
  463MPD2    H3 6898   1.614   4.599   2.499  1.9364 -0.1636 -0.2479
  463MPD2     N 6899   1.615   0.088   2.096 -0.1601 -1.0144  0.2105
  463MPD2    H5 6900   1.704   0.136   2.106 -0.7889 -0.1009  1.2927
  463MPD2    N1 6901   1.242   4.552   2.233 -0.1225 -0.3829  0.2282
  463MPD2    H7 6902   1.198   4.588   2.149  1.7781 -1.0835 -1.0504
  464TMC3    C1 6903   1.049   4.446   2.253 -0.1773  0.2125 -0.3268
  464TMC3    C2 6904   0.997   4.547   2.181  0.1868  0.2525 -0.3003
  464TMC3    C3 6905   0.887   4.510   2.119 -0.3045 -0.5060  0.0800
  464TMC3    C4 6906   1.007   4.317   2.266  0.4208 -0.6622 -0.1962
  464TMC3    C5 6907   0.880   4.290   2.215  0.0980 -0.3413 -0.0638
  464TMC3    C6 6908   0.824   4.385   2.129  0.5289  0.2883 -0.0828
  464TMC3     C 6909   1.169   4.470   2.316 -0.1052 -0.2813 -0.0478
  464TMC3     O 6910   1.198   4.418   2.421  0.4273  0.1216  0.2052
  464TMC3     H 6911   1.034   4.648   2.179  2.1957 -0.4446  1.9797
  464TMC3    H1 6912   1.035   4.248   2.344 -1.2396 -2.1302 -0.8809
  464TMC3    H2 6913   0.724   4.375   2.088  0.5336 -1.7479  0.4415
  464TMC3    C7 6914   0.826   4.151   2.214  0.0716 -0.1194  0.1467
  464TMC3    C8 6915   0.819   4.606   2.033 -0.2103  1.0746 -0.2613
  464TMC3    O1 6916   0.866   4.063   2.287 -0.2919 -0.1086 -0.0984
  464TMC3    O2 6917   0.748   4.569   1.944 -0.2537 -0.0557  0.2577
  465MPD2     C 6918   1.862   3.156  15.704 -0.1050  0.1105  0.6917
  465MPD2    C1 6919   1.833   3.152  15.837  0.6624 -0.2354  0.0578
  465MPD2    C2 6920   1.735   3.240  15.879  0.4073 -0.1697 -0.1933
  465MPD2    C3 6921   1.660   3.318  15.798 -0.4857  0.4061 -0.5249
  465MPD2    C4 6922   1.693   3.323  15.664  0.0965 -0.9216 -0.2949
  465MPD2    C5 6923   1.796   3.243  15.619  0.1019  0.2445  0.2059
  465MPD2     H 6924   1.707   3.234  15.984  0.5546 -1.0496 -0.1984
  465MPD2    H1 6925   1.648   3.395  15.596  0.3864  0.4147  0.9173
  465MPD2    H2 6926   1.941   3.098  15.659 -0.0791  0.3084  0.4861
  465MPD2    H3 6927   1.822   3.259  15.515 -0.2253 -0.7253 -0.0275
  465MPD2     N 6928   1.555   3.397  15.846 -0.0560  0.5390  0.6381
  465MPD2    H5 6929   1.545   3.404  15.947  1.2215  1.7673  0.6812
  465MPD2    N1 6930   1.895   3.067  15.935 -0.5473 -0.1352  0.3115
  465MPD2    H7 6931   1.870   3.077  16.032  1.1690 -0.2180  0.7600
  466TMC3    C1 6932   1.255   3.539  16.065 -0.0994 -0.9604 -0.1409
  466TMC3    C2 6933   1.257   3.673  16.083  0.2621 -0.1264 -0.3118
  466TMC3    C3 6934   1.333   3.744  15.993 -0.0303 -0.4685  0.5109
  466TMC3    C4 6935   1.336   3.476  15.971 -0.4190  0.1539 -0.3454
  466TMC3    C5 6936   1.392   3.553  15.878  0.6178  0.1690  0.1578
  466TMC3    C6 6937   1.389   3.691  15.881  0.0205  0.6960 -0.5654
  466TMC3     C 6938   1.188   3.462  16.173 -0.0459  0.0103  0.8566
  466TMC3     O 6939   1.163   3.526  16.275 -0.1546  0.2709 -0.0681
  466TMC3     H 6940   1.197   3.720  16.161 -0.9747 -3.4133  0.7543
  466TMC3    H1 6941   1.335   3.368  15.960 -1.8460 -0.1101  2.2003
  466TMC3    H2 6942   1.469   3.748  15.835 -1.4618  2.5568 -0.8247
  466TMC3    C7 6943   1.470   3.487  15.781  0.2389  0.0006 -0.4160
  466TMC3    C8 6944   1.350   3.890  16.011  0.2506 -0.2943  0.8652
  466TMC3    O1 6945   1.490   3.540  15.671  0.7802 -0.7437  0.0335
  466TMC3    O2 6946   1.377   3.950  15.906 -0.3740  0.4857 -0.7350
  467TMC3    C1 6947   2.660   2.156  13.559  0.4997  0.0143  0.7737
  467TMC3    C2 6948   2.571   2.207  13.471  0.6932 -0.5181 -0.2043
  467TMC3    C3 6949   2.436   2.231  13.501 -0.1705 -0.0433  0.1609
  467TMC3    C4 6950   2.614   2.110  13.677 -0.2243 -0.4318  0.4405
  467TMC3    C5 6951   2.480   2.134  13.706 -0.4072 -0.1630 -0.3072
  467TMC3    C6 6952   2.390   2.203  13.628  0.1667  0.0781 -0.5364
  467TMC3     C 6953   2.786   2.230  13.559  0.0032 -0.6205  0.1727
  467TMC3     O 6954   2.812   2.267  13.673 -0.1052  0.0334  0.2139
  467TMC3     H 6955   2.607   2.249  13.379  1.4798 -1.2924 -0.2471
  467TMC3    H1 6956   2.684   2.063  13.744  0.3399 -0.7806 -0.3917
  467TMC3    H2 6957   2.289   2.230  13.658  0.5540  2.0642 -1.0416
  467TMC3    C7 6958   2.440   2.106  13.839 -0.1013 -0.5325 -0.4016
  467TMC3    C8 6959   2.421   2.368  13.457  0.0962 -0.1467 -0.0437
  467TMC3    O1 6960   2.515   2.151  13.928  0.0964 -0.3128  0.0246
  467TMC3    O2 6961   2.516   2.431  13.500 -0.0918 -0.0512 -0.7962
  468MPD2     C 6962   1.836   0.278  10.127  0.9806 -0.4321 -0.8599
  468MPD2    C1 6963   1.865   0.278  10.261  0.3062 -0.0345  0.2190
  468MPD2    C2 6964   1.830   0.168  10.343 -0.0145 -0.6214  0.0932
  468MPD2    C3 6965   1.765   0.061  10.287 -0.0476 -0.5564  0.3640
  468MPD2    C4 6966   1.739   0.064  10.154  0.6014  0.0710 -0.2155
  468MPD2    C5 6967   1.770   0.173  10.078  0.0183 -0.1445 -0.3126
  468MPD2     H 6968   1.858   0.168  10.447 -2.0134 -0.4191  0.6265
  468MPD2    H1 6969   1.698   4.700  10.106 -1.0289  0.1660  0.9985
  468MPD2    H2 6970   1.873   0.355  10.060  1.1340 -0.1125 -0.4136
  468MPD2    H3 6971   1.744   0.181   9.973 -1.5760  0.9340  0.1592
  468MPD2     N 6972   1.735   4.669  10.364  0.0988 -0.5041 -0.6246
  468MPD2    H5 6973   1.717   4.584  10.311 -0.5695 -1.6026  1.3623
  468MPD2    N1 6974   1.936   0.375  10.329 -0.0769  0.8040 -0.4000
  468MPD2    H7 6975   1.944   0.362  10.430 -1.6581  1.1326 -0.2301
  469TMC3    C1 6976   2.086   0.558  10.361 -0.2491 -0.7183 -0.3701
  469TMC3    C2 6977   2.119   0.510  10.483 -0.7591  0.3354 -0.2624
  469TMC3    C3 6978   2.213   0.572  10.559  0.5444 -0.3794  0.2421
  469TMC3    C4 6979   2.151   0.663  10.301  0.3201  0.5300 -0.8862
  469TMC3    C5 6980   2.254   0.720  10.377 -0.0414 -0.6208  0.4482
  469TMC3    C6 6981   2.288   0.674  10.506 -0.5125  1.1590  0.0256
  469TMC3     C 6982   1.989   0.491  10.276  0.2559  1.0268 -0.0555
  469TMC3     O 6983   1.978   0.545  10.167  0.2389  0.1673 -0.0702
  469TMC3     H 6984   2.063   0.431  10.531  2.2969 -0.3521  2.1482
  469TMC3    H1 6985   2.131   0.695  10.200 -1.7931 -3.3275 -1.6668
  469TMC3    H2 6986   2.362   0.726  10.566  1.2815  0.3280 -1.4896
  469TMC3    C7 6987   2.313   0.840  10.321  0.2930 -0.4062  0.2671
  469TMC3    C8 6988   2.266   0.486  10.661  0.0286  0.1482  0.0697
  469TMC3    O1 6989   2.297   0.862  10.198  0.5026  0.3732  0.0422
  469TMC3    O2 6990   2.229   0.373  10.652 -0.5364 -0.4911  0.3332
  470TMC3    C1 6991   4.205   0.840   0.840 -0.4486  1.1139  1.1840
  470TMC3    C2 6992   4.265   0.966   0.827 -0.1681 -0.0073  0.0535
  470TMC3    C3 6993   4.191   1.068   0.872  0.8386 -0.1569 -0.1796
  470TMC3    C4 6994   4.075   0.826   0.871  0.3552  0.1789  0.0959
  470TMC3    C5 6995   4.008   0.931   0.929  0.3220  0.5648  0.6471
  470TMC3    C6 6996   4.066   1.053   0.918  0.9825 -0.5521 -0.7360
  470TMC3     C 6997   4.286   0.723   0.803  0.3688  0.0228  0.6062
  470TMC3     O 6998   4.407   0.738   0.805 -0.7411  1.0025 -0.3942
  470TMC3     H 6999   4.370   0.970   0.801 -0.7996  0.8649 -2.4610
  470TMC3    H1 7000   4.024   0.731   0.883  2.4103 -0.9342  0.0009
  470TMC3    H2 7001   4.021   1.144   0.956  1.8625 -0.1837 -0.5745
  470TMC3    C7 7002   3.870   0.923   0.972  0.0715 -0.1195 -0.2850
  470TMC3    C8 7003   4.252   1.202   0.899 -0.6662 -0.5657  0.2881
  470TMC3    O1 7004   3.809   0.820   0.946  1.3084  0.2587 -0.8310
  470TMC3    O2 7005   4.210   1.264   0.995  0.2027  0.3799  1.2213
  471MPD2     C 7006   4.393   2.430  16.728 -0.3448 -0.5454  0.8106
  471MPD2    C1 7007   4.437   2.298  16.708  0.1599 -0.3989  0.2099
  471MPD2    C2 7008   4.457   2.208  16.807  0.4117 -0.3097 -0.5259
  471MPD2    C3 7009   4.438   2.251  16.939 -0.3193 -0.8812 -0.1854
  471MPD2    C4 7010   4.405   2.379  16.969 -0.3606  1.0268  0.3783
  471MPD2    C5 7011   4.382   2.469  16.865  0.0846 -0.0165 -0.6964
  471MPD2     H 7012   4.490   2.107  16.783  1.7550 -0.0584  0.2453
  471MPD2    H1 7013   4.400   2.413  17.072  1.6434  0.0729  0.8045
  471MPD2    H2 7014   4.391   2.506  16.651 -0.8744 -1.9320 -0.5339
  471MPD2    H3 7015   4.363   2.571  16.893 -0.7796  0.0971 -1.7191
  471MPD2     N 7016   4.478   2.175  17.051  0.3123 -0.1586 -1.0815
  471MPD2    H5 7017   4.464   2.218  17.142 -1.9587 -0.1956 -1.4186
  471MPD2    N1 7018   4.461   2.245  16.583  0.0312  0.1292 -0.7459
  471MPD2    H7 7019   4.515   2.159  16.579  1.0429  0.7252  0.1096
  472TMC3    C1 7020   4.453   2.206  16.352  0.1463  0.3686  0.7877
  472TMC3    C2 7021   4.364   2.213  16.247  0.0195  0.1373  0.7678
  472TMC3    C3 7022   4.383   2.130  16.141  0.2430  0.1048  0.3171
  472TMC3    C4 7023   4.548   2.107  16.364  0.0320  0.0035 -0.4215
  472TMC3    C5 7024   4.561   2.030  16.249  0.2418  0.3209  0.0863
  472TMC3    C6 7025   4.491   2.045  16.136 -0.0317 -0.0853  0.2066
  472TMC3     C 7026   4.420   2.292  16.465  0.0241  0.1129 -0.1769
  472TMC3     O 7027   4.332   2.377  16.442 -0.1130 -0.3410 -0.1184
  472TMC3     H 7028   4.279   2.279  16.237 -0.1677 -0.2158  0.0438
  472TMC3    H1 7029   4.622   2.092  16.442 -0.2359 -0.3835 -0.2392
  472TMC3    H2 7030   4.507   1.979  16.051 -3.1097 -0.6058  0.0078
  472TMC3    C7 7031   4.651   1.915  16.249 -0.3212  0.4311  0.1658
  472TMC3    C8 7032   4.270   2.040  16.125 -0.3004 -0.5783  0.7790
  472TMC3    O1 7033   4.721   1.901  16.146 -0.0143  0.1120 -0.7163
  472TMC3    O2 7034   4.301   1.925  16.112  0.4149 -0.2220  0.2488
  473MPD2     C 7035   4.619   4.386  13.663  0.2792  0.3091 -0.0933
  473MPD2    C1 7036   4.537   4.497  13.689  0.4113  0.2271 -0.0365
  473MPD2    C2 7037   4.535   4.562  13.811  0.0684  0.3396  0.5452
  473MPD2    C3 7038   4.583   4.495  13.916 -0.8318 -0.8422  0.3389
  473MPD2    C4 7039   4.665   4.386  13.902  0.2962  0.3659  0.1163
  473MPD2    C5 7040   4.681   4.332  13.775  0.3093  0.2453 -0.9661
  473MPD2     H 7041   4.490   4.660  13.822  0.2777  0.2101  2.4965
  473MPD2    H1 7042   4.704   4.335  13.989  0.2612  1.0156  0.5114
  473MPD2    H2 7043   4.645   4.346  13.566 -1.2613  2.4510 -1.3668
  473MPD2    H3 7044   0.013   4.239  13.769  0.7566  0.4172  0.5652
  473MPD2     N 7045   4.560   4.536  14.051 -0.2859  0.3383 -0.3858
  473MPD2    H5 7046   4.621   4.488  14.117 -3.2319 -2.3573  0.3268
  473MPD2    N1 7047   4.473   4.569  13.589  0.2165 -0.4465  0.4321
  473MPD2    H7 7048   4.456   4.664  13.620  1.1142 -0.1785  0.0885
  474TMC3    C1 7049   4.526   4.698  14.226  0.2272  0.5474  0.7976
  474TMC3    C2 7050   4.432   0.057  14.276 -0.7923  1.2812 -0.5458
  474TMC3    C3 7051   4.473   0.134  14.377 -0.2955 -0.4763 -0.7394
  474TMC3    C4 7052   4.662   4.706  14.252 -0.2376 -0.2635  1.0490
  474TMC3    C5 7053   4.703   0.051  14.361 -0.9463 -0.5072  0.2973
  474TMC3    C6 7054   4.607   0.126  14.417 -0.5981  0.4118 -0.4191
  474TMC3     C 7055   4.487   4.640  14.102 -0.2898  0.2248 -0.4702
  474TMC3     O 7056   4.402   4.707  14.044 -0.4669 -0.0653 -0.1572
  474TMC3     H 7057   4.329   0.051  14.245 -0.5372 -1.7692 -0.7715
  474TMC3    H1 7058   0.006   4.641  14.199 -2.1560 -0.9571 -0.5285
  474TMC3    H2 7059   4.638   0.197  14.493  3.0744 -2.4349  0.7269
  474TMC3    C7 7060   0.118   0.068  14.393  0.1042  0.0290 -0.2644
  474TMC3    C8 7061   4.387   0.250  14.400  0.5898 -0.1527  0.0169
  474TMC3    O1 7062   0.198   0.001  14.329  0.2022 -0.0377  0.2995
  474TMC3    O2 7063   4.268   0.239  14.397 -0.2727  0.0538 -0.6584
  475MPD2     C 7064   2.382   3.448  10.411  0.1379  0.0884 -0.0022
  475MPD2    C1 7065   2.370   3.437  10.274 -0.1592  0.0648 -0.4009
  475MPD2    C2 7066   2.249   3.397  10.221 -0.6662 -0.3097 -0.1003
  475MPD2    C3 7067   2.144   3.366  10.304 -0.2194  0.0557  0.0892
  475MPD2    C4 7068   2.165   3.365  10.440  0.0205  0.3356 -0.6117
  475MPD2    C5 7069   2.281   3.410  10.496  0.3911 -0.3979  0.1277
  475MPD2     H 7070   2.236   3.387  10.114 -1.8245 -3.1941  0.3197
  475MPD2    H1 7071   2.084   3.329  10.504  0.9569  0.3335  0.5663
  475MPD2    H2 7072   2.470   3.490  10.457 -1.0863  1.1923  1.3168
  475MPD2    H3 7073   2.294   3.411  10.604  1.2702  0.3089  0.0174
  475MPD2     N 7074   2.028   3.310  10.246  0.1773 -0.1604 -0.3038
  475MPD2    H5 7075   2.026   3.286  10.147  1.3173  0.2095 -0.4216
  475MPD2    N1 7076   2.487   3.471  10.191  0.2088 -0.2950 -0.0290
  475MPD2    H7 7077   2.571   3.506  10.235 -0.5217  0.1958  1.0017
  476TMC3    C1 7078   2.627   3.455  10.008 -0.4762  0.0727 -0.4910
  476TMC3    C2 7079   2.631   3.438   9.870  1.1206  0.0696  0.0673
  476TMC3    C3 7080   2.758   3.387   9.831 -0.1656 -0.5407  0.5799
  476TMC3    C4 7081   2.734   3.452  10.093 -0.0261 -0.1090 -1.1256
  476TMC3    C5 7082   2.856   3.412  10.042 -0.1693  0.7245  0.7590
  476TMC3    C6 7083   2.863   3.372   9.913 -0.3339  0.5809 -0.6727
  476TMC3     C 7084   2.492   3.450  10.058 -0.2825  0.1191  0.0004
  476TMC3     O 7085   2.410   3.416   9.976  0.5779  0.2250 -0.0562
  476TMC3     H 7086   2.543   3.454   9.809  1.0102  0.4046  0.3171
  476TMC3    H1 7087   2.726   3.470  10.199 -1.2182  0.5025 -1.3192
  476TMC3    H2 7088   2.954   3.331   9.872  0.9581  2.9672 -0.1873
  476TMC3    C7 7089   2.976   3.402  10.116  0.3617 -0.4345 -0.4468
  476TMC3    C8 7090   2.761   3.347   9.693 -0.0279  0.1868 -0.2286
  476TMC3    O1 7091   3.061   3.336  10.059 -0.3891 -0.1126  0.7921
  476TMC3    O2 7092   2.702   3.416   9.611 -0.0711  0.6362 -0.2069
  477MPD2     C 7093   0.484   4.573  11.653 -0.1517 -0.3353  0.1251
  477MPD2    C1 7094   0.366   4.518  11.702 -0.4897  0.0455 -0.3495
  477MPD2    C2 7095   0.365   4.402  11.782 -0.0174  0.0886 -0.1878
  477MPD2    C3 7096   0.484   4.339  11.810 -0.3237 -0.7673  0.1068
  477MPD2    C4 7097   0.601   4.393  11.752 -0.0106 -0.3458 -0.2253
  477MPD2    C5 7098   0.598   4.511  11.678 -0.2608  0.1095  0.3245
  477MPD2     H 7099   0.270   4.364  11.819 -0.5059  0.4485 -1.0816
  477MPD2    H1 7100   0.696   4.342  11.743 -0.0159 -0.1675 -1.2301
  477MPD2    H2 7101   0.476   4.658  11.586 -1.2054 -1.0461 -0.6463
  477MPD2    H3 7102   0.690   4.553  11.637 -0.4958  1.6587  1.3513
  477MPD2     N 7103   0.479   4.221  11.888  0.2598  0.8958  0.1735
  477MPD2    H5 7104   0.390   4.177  11.907  0.3955 -0.3620 -2.0666
  477MPD2    N1 7105   0.249   4.580  11.655 -0.6901 -0.3832  0.3538
  477MPD2    H7 7106   0.262   4.643  11.577  4.3299 -1.4379  0.3271
  478TMC3    C1 7107   0.047   4.661  11.631 -0.0781 -0.3285 -0.0829
  478TMC3    C2 7108   4.666   0.005  11.687  0.3231 -0.2210  0.4308
  478TMC3    C3 7109   4.600   0.100  11.614 -0.0609  0.1566  0.8811
  478TMC3    C4 7110   0.084   4.683  11.501  0.1397  0.2005  0.1824
  478TMC3    C5 7111   0.004   0.040  11.422 -0.1236  0.7965  0.4637
  478TMC3    C6 7112   4.625   0.117  11.481  0.0046  0.1310  0.4919
  478TMC3     C 7113   0.128   4.570  11.714  0.3471 -0.4904  0.1872
  478TMC3     O 7114   0.092   4.536  11.823 -1.1028  0.2973  0.4364
  478TMC3     H 7115   4.640   4.709  11.790  1.3538 -1.5598  0.4323
  478TMC3    H1 7116   0.143   4.614  11.442  1.5044 -0.0649  1.8808
  478TMC3    H2 7117   4.557   0.181  11.425  1.1629  0.7697 -0.1917
  478TMC3    C7 7118   0.052   0.060  11.286 -0.4437  0.1632 -0.1953
  478TMC3    C8 7119   4.546   0.199  11.696  0.1317  0.0704  0.1285
  478TMC3    O1 7120   0.172   0.043  11.272  0.3477  0.0276 -0.3048
  478TMC3    O2 7121   4.496   0.164  11.801  0.5596 -0.2480  0.1894
  479MPD2     C 7122   4.265   1.833  15.229  0.4223  0.5459  0.8886
  479MPD2    C1 7123   4.182   1.748  15.296 -0.3356  0.0621 -0.6195
  479MPD2    C2 7124   4.164   1.758  15.432  0.4633  0.0183 -0.4126
  479MPD2    C3 7125   4.240   1.861  15.490  0.7527  0.5062  0.0590
  479MPD2    C4 7126   4.329   1.937  15.425 -0.1160 -0.2515 -0.5156
  479MPD2    C5 7127   4.343   1.922  15.292  0.8946 -0.3436 -0.6598
  479MPD2     H 7128   4.089   1.699  15.483 -0.1267  0.7444 -0.4490
  479MPD2    H1 7129   4.387   2.015  15.475 -1.6029  0.5669 -0.0772
  479MPD2    H2 7130   4.274   1.834  15.121 -1.7737 -1.7920  0.6959
  479MPD2    H3 7131   4.411   1.989  15.241 -0.7772  0.1223 -2.2795
  479MPD2     N 7132   4.213   1.864  15.627  0.7972  0.0368  0.0458
  479MPD2    H5 7133   4.169   1.782  15.667  0.4844 -0.6232 -1.6739
  479MPD2    N1 7134   4.099   1.665  15.214  0.0250 -0.3703  0.4367
  479MPD2    H7 7135   4.123   1.656  15.116  1.1416 -1.1410  0.7785
  480TMC3    C1 7136   4.041   1.779  15.901  0.1797  0.2886  0.3516
  480TMC3    C2 7137   3.916   1.796  15.850  0.5389  0.2965 -0.7363
  480TMC3    C3 7138   3.903   1.899  15.761  0.0175  0.0047 -0.1184
  480TMC3    C4 7139   4.149   1.856  15.864 -0.7708  0.4217 -0.0936
  480TMC3    C5 7140   4.124   1.970  15.795 -0.2473 -0.3580  0.5554
  480TMC3    C6 7141   4.005   1.987  15.737  0.3765  0.4998 -0.1025
  480TMC3     C 7142   4.063   1.654  15.983  0.2717  0.0855 -0.2484
  480TMC3     O 7143   3.968   1.578  15.990 -0.3154 -0.0375 -0.4443
  480TMC3     H 7144   3.842   1.719  15.870  2.0022 -0.7480  0.6208
  480TMC3    H1 7145   4.253   1.849  15.895 -0.6548 -2.4658 -1.1635
  480TMC3    H2 7146   3.994   2.068  15.666  3.3121  1.2738  0.3550
  480TMC3    C7 7147   4.234   1.981  15.704  0.3055 -0.2677  0.6044
  480TMC3    C8 7148   3.814   1.866  15.651  0.0367 -0.6470  0.1199
  480TMC3    O1 7149   4.263   2.095  15.672 -0.1305 -0.0656 -0.7343
  480TMC3    O2 7150   3.732   1.775  15.672 -0.1987  0.1772 -0.1714
  481MPD2     C 7151   1.217   1.733  14.442  0.4144  0.2249 -0.4376
  481MPD2    C1 7152   1.149   1.619  14.414  0.5272  0.0714 -0.3559
  481MPD2    C2 7153   1.123   1.518  14.512  0.3213 -0.4392 -0.0656
  481MPD2    C3 7154   1.177   1.530  14.641  0.1144 -0.3560 -0.3699
  481MPD2    C4 7155   1.256   1.644  14.664 -1.2175 -0.4251  0.6800
  481MPD2    C5 7156   1.269   1.744  14.569 -0.8411 -0.3574  0.5941
  481MPD2     H 7157   1.079   1.425  14.479  1.1735 -0.3144 -1.5763
  481MPD2    H1 7158   1.307   1.646  14.760  0.1419 -1.3706 -0.0248
  481MPD2    H2 7159   1.229   1.811  14.368  1.3727  1.4894  1.0463
  481MPD2    H3 7160   1.331   1.831  14.591 -0.5314 -0.6241  0.7721
  481MPD2     N 7161   1.155   1.434  14.743  0.0021 -0.7618  0.4114
  481MPD2    H5 7162   1.181   1.460  14.838 -3.6062  0.9303  0.9288
  481MPD2    N1 7163   1.097   1.620  14.283 -0.4515 -0.1434  0.5316
  481MPD2    H7 7164   1.132   1.693  14.222 -0.6113  0.5170  1.2352
  482TMC3    C1 7165   0.985   1.536  14.081 -0.5720 -0.1108 -1.0537
  482TMC3    C2 7166   0.969   1.431  13.996  0.9234 -0.1654  0.1426
  482TMC3    C3 7167   0.942   1.439  13.858 -0.9142  0.1191 -0.9875
  482TMC3    C4 7168   0.961   1.660  14.030 -0.1133 -0.0745 -0.8454
  482TMC3    C5 7169   0.945   1.667  13.896 -0.3288  0.3942  0.3607
  482TMC3    C6 7170   0.940   1.564  13.805 -0.3398  0.1764 -0.6946
  482TMC3     C 7171   1.008   1.526  14.227 -0.3083 -0.2291 -0.5463
  482TMC3     O 7172   0.957   1.431  14.287 -0.0571 -0.0477 -0.0724
  482TMC3     H 7173   0.969   1.332  14.042 -1.3982 -0.8660 -1.3942
  482TMC3    H1 7174   0.963   1.753  14.087 -2.3169 -0.2421 -0.4812
  482TMC3    H2 7175   0.924   1.576  13.698  0.7439  0.8718 -0.7886
  482TMC3    C7 7176   0.898   1.795  13.838  0.0723  0.1484  0.4227
  482TMC3    C8 7177   0.910   1.329  13.781 -0.6789  0.2994 -0.1085
  482TMC3    O1 7178   0.810   1.856  13.895  0.1872  0.5652 -0.7200
  482TMC3    O2 7179   0.959   1.222  13.815  0.8280  0.4356  0.1097
  483TMC3    C1 7180   4.436   0.746   1.474  0.5756  0.0988 -0.2263
  483TMC3    C2 7181   4.475   0.824   1.372 -0.0438 -0.3041 -0.0903
  483TMC3    C3 7182   4.606   0.813   1.340  0.6736 -0.0268  0.1148
  483TMC3    C4 7183   4.526   0.676   1.547  0.7620 -0.9282 -0.5587
  483TMC3    C5 7184   4.660   0.683   1.518 -0.1710  0.0631 -0.0224
  483TMC3    C6 7185   4.705   0.741   1.402 -0.3259  0.0910  0.3171
  483TMC3     C 7186   4.318   0.658   1.449  0.2293  0.2642  0.3048
  483TMC3     O 7187   4.223   0.702   1.392  0.1242  0.6368 -0.1893
  483TMC3     H 7188   4.398   0.857   1.304  0.0121 -1.4486 -0.7161
  483TMC3    H1 7189   4.494   0.643   1.645  1.5928 -0.9958 -0.3083
  483TMC3    H2 7190   0.086   0.736   1.372  0.1140  0.7734  1.7087
  483TMC3    C7 7191   0.004   0.557   1.555  0.5598 -0.0688 -0.2056
  483TMC3    C8 7192   4.626   0.810   1.191  0.2569 -0.4692  0.0379
  483TMC3    O1 7193   4.701   0.468   1.477 -0.1323  0.2457  0.5471
  483TMC3    O2 7194   4.522   0.820   1.129  0.5765  0.8656 -0.2514
  484MPD2     C 7195   1.068   3.449  11.986 -0.1166  0.7564 -1.0007
  484MPD2    C1 7196   1.138   3.389  12.081  0.1739 -0.4562  0.1097
  484MPD2    C2 7197   1.267   3.428  12.101 -0.1830 -0.0874 -0.6898
  484MPD2    C3 7198   1.334   3.518  12.018 -0.0217 -0.8005 -0.6548
  484MPD2    C4 7199   1.252   3.577  11.921 -0.1937 -0.9232  0.5929
  484MPD2    C5 7200   1.125   3.535  11.901 -0.0893 -0.0835 -0.3781
  484MPD2     H 7201   1.316   3.378  12.184  1.6820  0.3100 -1.5513
  484MPD2    H1 7202   1.294   3.642  11.845  0.7265  0.5269  2.3488
  484MPD2    H2 7203   0.966   3.417  11.963 -0.3653  0.4269  0.5982
  484MPD2    H3 7204   1.073   3.570  11.812  0.8241  0.6238 -0.6324
  484MPD2     N 7205   1.465   3.567  12.037 -0.1342  0.0217 -0.0943
  484MPD2    H5 7206   1.499   3.643  11.978 -1.6801  1.1910  0.5484
  484MPD2    N1 7207   1.064   3.295  12.167  0.7108  0.3863 -1.0537
  484MPD2    H7 7208   0.963   3.302  12.168  0.7682  1.1475  0.2660
  485TMC3    C1 7209   1.665   3.600  12.153 -0.2451 -0.7284 -0.6659
  485TMC3    C2 7210   1.734   3.561  12.265 -0.1543 -0.6068  0.3337
  485TMC3    C3 7211   1.836   3.641  12.304  0.0877  0.1356 -0.2494
  485TMC3    C4 7212   1.695   3.714  12.084  0.1626 -0.2886  0.3116
  485TMC3    C5 7213   1.794   3.790  12.132 -0.2585  0.2202 -0.8119
  485TMC3    C6 7214   1.861   3.757  12.242  0.1054  0.8090 -0.1522
  485TMC3     C 7215   1.555   3.513  12.128  0.1339 -0.3602 -0.0666
  485TMC3     O 7216   1.548   3.409  12.190 -0.1219  0.5302  0.2763
  485TMC3     H 7217   1.715   3.476  12.329  1.3489 -0.9663  0.3108
  485TMC3    H1 7218   1.648   3.732  11.988  2.2423 -0.1014 -0.6791
  485TMC3    H2 7219   1.946   3.814  12.276  0.5364  1.2196 -1.9156
  485TMC3    C7 7220   1.880   3.833  12.021 -0.5855 -1.2964  0.9805
  485TMC3    C8 7221   1.963   3.582  12.343  0.2783 -0.1827 -0.0289
  485TMC3    O1 7222   1.827   3.838  11.911  0.0961  0.3876  0.5333
  485TMC3    O2 7223   2.057   3.618  12.276 -0.8646  0.0566  0.3736
  486MPD2     C 7224   3.165   2.298  12.901  0.3121 -0.2834 -0.9000
  486MPD2    C1 7225   3.228   2.322  12.781  0.3533  0.4308  0.0787
  486MPD2    C2 7226   3.163   2.402  12.688 -0.4545  0.3755 -0.6957
  486MPD2    C3 7227   3.044   2.470  12.711  0.2614 -0.1313 -0.7254
  486MPD2    C4 7228   2.976   2.433  12.822  0.7343 -0.5006  0.0549
  486MPD2    C5 7229   3.037   2.348  12.912  0.1417 -0.4560 -0.2472
  486MPD2     H 7230   3.220   2.432  12.601 -1.2402 -0.5612 -1.5291
  486MPD2    H1 7231   2.877   2.469  12.847  0.3356 -0.9393 -0.8863
  486MPD2    H2 7232   3.213   2.253  12.987 -1.0995 -0.0087  0.0218
  486MPD2    H3 7233   2.985   2.336  13.007  0.1459  3.6040  0.2506
  486MPD2     N 7234   2.992   2.570  12.627  0.0267 -0.3137 -0.0559
  486MPD2    H5 7235   3.047   2.582  12.543  0.7200 -0.8619  0.3233
  486MPD2    N1 7236   3.363   2.284  12.771  0.4691  0.0575  0.2636
  486MPD2    H7 7237   3.402   2.226  12.844  1.0932 -0.1601 -0.2386
  487TMC3    C1 7238   3.580   2.277  12.689 -0.3730 -0.0126  0.0361
  487TMC3    C2 7239   3.652   2.224  12.586  0.9295 -0.0148  0.3660
  487TMC3    C3 7240   3.773   2.172  12.614  0.0445 -0.3775  0.0021
  487TMC3    C4 7241   3.621   2.286  12.817 -0.2502 -0.1329 -0.2709
  487TMC3    C5 7242   3.756   2.255  12.835 -0.3442  0.7039  0.2971
  487TMC3    C6 7243   3.841   2.210  12.735 -0.1146  0.2341  0.1542
  487TMC3     C 7244   3.442   2.303  12.656  0.1043 -0.0703  0.2942
  487TMC3     O 7245   3.415   2.324  12.538 -0.3609 -0.0069  0.2074
  487TMC3     H 7246   3.610   2.213  12.487 -1.3740 -0.9798  1.4283
  487TMC3    H1 7247   3.567   2.339  12.895  1.1660 -0.0622  0.6554
  487TMC3    H2 7248   3.926   2.152  12.767  0.2742  0.8285  0.1891
  487TMC3    C7 7249   3.774   2.176  12.956  0.2258  0.3803  0.1057
  487TMC3    C8 7250   3.774   2.038  12.568 -0.4680 -0.6551 -0.6451
  487TMC3    O1 7251   3.780   2.054  12.939  0.2939  0.0247  0.8533
  487TMC3    O2 7252   3.693   1.996  12.488 -0.4545  0.4373  0.2016
  488MPD2     C 7253   3.990   3.140  16.620  0.1336 -0.5459 -0.6027
  488MPD2    C1 7254   3.995   3.266  16.676 -0.9870 -0.5807  0.2565
  488MPD2    C2 7255   3.943   3.281  16.810  0.1744 -0.0102  0.3712
  488MPD2    C3 7256   3.872   3.180  16.862 -1.0404 -0.6346  0.8519
  488MPD2    C4 7257   3.848   3.062  16.792 -0.0465  0.3353  0.1853
  488MPD2    C5 7258   3.923   3.038  16.675 -0.3406  0.3503 -0.7944
  488MPD2     H 7259   3.964   3.378  16.855 -0.1927 -0.2965  1.1481
  488MPD2    H1 7260   3.785   2.978  16.817  0.6972  0.2459  1.7616
  488MPD2    H2 7261   4.042   3.127  16.526 -0.6880  0.2066 -1.1640
  488MPD2    H3 7262   3.911   2.943  16.624 -0.8229 -0.3623  0.6282
  488MPD2     N 7263   3.801   3.213  16.979 -0.0656 -0.4581 -1.0727
  488MPD2    H5 7264   3.823   3.305  17.017  0.4145 -0.8686 -0.3521
  488MPD2    N1 7265   4.041   3.382  16.600  0.3601  0.0985 -0.0160
  488MPD2    H7 7266   4.036   3.470  16.649  3.4734 -0.5176  1.4018
  489TMC3    C1 7267   3.659   3.191  17.169  0.4098 -0.3070 -0.3751
  489TMC3    C2 7268   3.662   3.323  17.163  0.4722 -0.3220  0.0015
  489TMC3    C3 7269   3.658   3.385  17.277 -0.3508  0.7158 -0.8323
  489TMC3    C4 7270   3.636   3.117  17.284  0.3321 -0.0426 -0.2557
  489TMC3    C5 7271   3.643   3.188  17.403 -0.6835  1.0982  0.7932
  489TMC3    C6 7272   3.659   3.324  17.395  0.4280  0.3746 -0.0332
  489TMC3     C 7273   3.717   3.130  17.051 -0.3492 -0.3075 -0.0654
  489TMC3     O 7274   3.687   3.013  17.036  0.1023 -0.7409 -0.5771
  489TMC3     H 7275   3.645   3.372  17.068  1.0404  1.1539  0.6517
  489TMC3    H1 7276   3.646   3.010  17.276  1.3468  0.1578 -1.6883
  489TMC3    H2 7277   3.660   3.383  17.485 -1.3496  0.3084  0.0150
  489TMC3    C7 7278   3.637   3.114  17.527 -0.6041 -0.3505  0.2084
  489TMC3    C8 7279   3.671   3.531  17.265 -0.4696 -0.0695 -0.4389
  489TMC3    O1 7280   3.696   3.164  17.620  0.3903  0.1279 -0.3571
  489TMC3    O2 7281   3.641   3.577  17.155  0.1427  0.5928  0.3174
  490MPD2     C 7282   4.507   3.330  17.339 -0.1430 -0.3921 -0.3471
  490MPD2    C1 7283   4.559   3.234  17.422 -0.3436  0.8104 -0.2594
  490MPD2    C2 7284   4.692   3.250  17.459 -0.4681 -0.1407  0.0534
  490MPD2    C3 7285   0.043   3.354  17.412  0.0894 -0.1421  0.9125
  490MPD2    C4 7286   4.711   3.435  17.318 -0.0413  0.0843  0.3683
  490MPD2    C5 7287   4.584   3.425  17.276 -0.4931 -0.3808 -0.4629
  490MPD2     H 7288   0.014   3.177  17.524 -0.7167 -0.3355  0.0097
  490MPD2    H1 7289   0.035   3.525  17.279 -1.6889  0.8448  0.1279
  490MPD2    H2 7290   4.402   3.333  17.310 -0.3714 -2.8153  0.2178
  490MPD2    H3 7291   4.536   3.485  17.199  2.0393 -0.4853 -2.1084
  490MPD2     N 7292   0.178   3.381  17.453  0.8895 -0.3014 -0.5988
  490MPD2    H5 7293   0.226   3.464  17.420 -0.0143 -0.1465 -1.5510
  490MPD2    N1 7294   4.491   3.118  17.464 -0.0252 -0.0180 -0.1180
  490MPD2    H7 7295   4.530   3.055  17.533 -0.0638 -0.2009 -0.2646
  491TMC3    C1 7296   4.342   2.933  17.449 -0.5433 -0.5180  0.1027
  491TMC3    C2 7297   4.382   2.882  17.569 -0.4816  0.2067  1.1386
  491TMC3    C3 7298   4.365   2.750  17.582 -0.6554  0.6961 -0.4526
  491TMC3    C4 7299   4.265   2.863  17.352 -0.3296  0.4300 -0.0163
  491TMC3    C5 7300   4.243   2.731  17.378  0.3166 -0.3939 -0.0394
  491TMC3    C6 7301   4.297   2.676  17.490 -1.7386 -0.7282 -0.0482
  491TMC3     C 7302   4.375   3.067  17.408 -0.7699  0.4097  0.0279
  491TMC3     O 7303   4.320   3.107  17.306 -0.7018  0.0537 -0.2355
  491TMC3     H 7304   4.424   2.939  17.650  0.2929  0.6030  0.4553
  491TMC3    H1 7305   4.253   2.910  17.255  0.7508  3.1734  1.1828
  491TMC3    H2 7306   4.281   2.570  17.506 -1.4381 -0.5618  1.3988
  491TMC3    C7 7307   4.171   2.643  17.295 -0.5541  0.4644 -0.1697
  491TMC3    C8 7308   4.407   2.679   0.001 -0.5825 -0.1536  0.3186
  491TMC3    O1 7309   4.226   2.537  17.266  0.1469  0.2916 -0.3362
  491TMC3    O2 7310   4.358   2.570   0.025 -0.0467 -0.1530  0.4138
  492MPD2     C 7311   0.171   3.399  11.563 -0.6176 -0.3407  0.2063
  492MPD2    C1 7312   0.091   3.327  11.478 -0.5479 -0.0949 -0.3599
  492MPD2    C2 7313   0.022   3.214  11.522  0.3116  0.1735  0.2991
  492MPD2    C3 7314   0.036   3.170  11.658  0.0355  1.1989 -0.1259
  492MPD2    C4 7315   0.108   3.247  11.749  0.4157 -0.8874  0.2071
  492MPD2    C5 7316   0.179   3.356  11.694 -0.2923 -0.4627  0.4622
  492MPD2     H 7317   4.693   3.156  11.446 -0.7146 -0.4223  1.4791
  492MPD2    H1 7318   0.111   3.229  11.856 -0.6677 -2.5676 -0.0474
  492MPD2    H2 7319   0.211   3.497  11.540 -0.9355 -0.4725 -0.8949
  492MPD2    H3 7320   0.227   3.428  11.758  0.1568 -0.7401  0.4327
  492MPD2     N 7321   4.700   3.051  11.707 -0.2006  0.6600 -0.3258
  492MPD2    H5 7322   4.701   3.046  11.808 -2.4724 -0.6318 -0.3831
  492MPD2    N1 7323   0.075   3.369  11.341 -0.7078 -0.5878 -0.1289
  492MPD2    H7 7324   0.154   3.420  11.304 -1.0476  0.9891  1.3027
  493TMC3    C1 7325   4.705   3.437  11.144 -0.2490  0.4617  0.0123
  493TMC3    C2 7326   0.093   3.514  11.119  0.4263 -0.1551  0.4001
  493TMC3    C3 7327   0.126   3.551  10.995 -0.3871 -1.0984  0.4032
  493TMC3    C4 7328   4.617   3.403  11.041 -0.1711 -0.4163  0.2355
  493TMC3    C5 7329   4.656   3.444  10.914  0.4120 -0.4425 -0.5025
  493TMC3    C6 7330   0.050   3.505  10.891  0.4532  0.4674  0.2970
  493TMC3     C 7331   4.684   3.368  11.274  0.8515 -0.0595 -0.1147
  493TMC3     O 7332   4.585   3.302  11.283  0.2140  0.4379  0.8875
  493TMC3     H 7333   0.141   3.563  11.203 -2.0538  1.2184  1.0058
  493TMC3    H1 7334   4.520   3.358  11.060 -1.4318  1.4420 -1.7464
  493TMC3    H2 7335   0.088   3.514  10.790 -1.4381 -2.7219 -0.7024
  493TMC3    C7 7336   4.602   3.365  10.801 -0.5398 -0.0184 -0.6225
  493TMC3    C8 7337   0.245   3.619  10.978  0.2840 -0.7230 -0.3464
  493TMC3    O1 7338   4.633   3.405  10.687 -0.0977 -0.1444  0.2290
  493TMC3    O2 7339   0.337   3.601  11.058  0.0744  1.0574  0.0671
  494TMC3    C1 7340   0.961   4.517   0.811 -0.2788  0.4323  0.3613
  494TMC3    C2 7341   1.051   4.468   0.900 -0.0486  0.4047 -0.0379
  494TMC3    C3 7342   1.116   4.358   0.857 -0.0032 -0.1852 -0.2083
  494TMC3    C4 7343   0.944   4.477   0.679  0.3231 -0.4871  0.2856
  494TMC3    C5 7344   1.029   4.379   0.641 -0.4243  0.0993 -0.4113
  494TMC3    C6 7345   1.116   4.317   0.727  0.5617 -0.1987  0.1179
  494TMC3     C 7346   0.865   4.608   0.863  0.3081  0.3291  0.1905
  494TMC3     O 7347   0.838   4.598   0.978  0.9669  0.0713 -0.0522
  494TMC3     H 7348   1.067   4.506   1.000 -1.6751 -2.6988  1.4335
  494TMC3    H1 7349   0.862   4.509   0.616  1.1989 -0.4848 -0.8307
  494TMC3    H2 7350   1.190   4.246   0.690 -1.4296 -0.4441 -3.4130
  494TMC3    C7 7351   1.004   4.331   0.505 -0.3870 -0.4251  0.3021
  494TMC3    C8 7352   1.150   4.253   0.954  0.1507  0.5105 -0.0711
  494TMC3    O1 7353   0.945   4.407   0.433 -0.1326 -0.2471  0.4763
  494TMC3    O2 7354   1.221   4.164   0.919 -0.2033 -0.1328 -0.1583
  495TMC3    C1 7355   4.163   2.023  14.770 -0.4726  0.3728  0.1042
  495TMC3    C2 7356   4.075   2.058  14.668  0.5035 -0.0836 -0.3580
  495TMC3    C3 7357   3.958   2.121  14.698  0.6577 -0.1827  0.9743
  495TMC3    C4 7358   4.141   2.065  14.898  0.0076 -0.1735  0.5614
  495TMC3    C5 7359   4.015   2.120  14.924  0.0770  0.2141  0.3505
  495TMC3    C6 7360   3.921   2.147  14.827 -0.4530 -0.3593  0.2833
  495TMC3     C 7361   4.273   1.927  14.744  0.5148 -1.2278 -0.1257
  495TMC3     O 7362   4.349   1.903  14.832 -0.4106  0.0374 -0.4613
  495TMC3     H 7363   4.109   2.051  14.565 -0.0581  0.6148 -0.5916
  495TMC3    H1 7364   4.212   2.042  14.976  1.2536  0.6538 -0.3244
  495TMC3    H2 7365   3.832   2.203  14.853 -2.5672 -3.6906  0.1925
  495TMC3    C7 7366   3.979   2.089  15.064  0.2928  0.8011  0.0699
  495TMC3    C8 7367   3.877   2.174  14.593  0.0399  0.8081 -0.0024
  495TMC3    O1 7368   4.059   2.110  15.153 -0.3594  0.2359 -0.0482
  495TMC3    O2 7369   3.755   2.162  14.616 -0.5966 -0.2233 -0.0418
  496MPD2     C 7370   1.765   2.035  15.730 -0.0207  0.6216  0.3835
  496MPD2    C1 7371   1.665   1.998  15.646  0.0993 -0.1706 -0.7812
  496MPD2    C2 7372   1.541   1.998  15.688  0.0798 -0.8501 -0.5606
  496MPD2    C3 7373   1.509   2.034  15.821  0.8434 -0.5037 -0.2178
  496MPD2    C4 7374   1.616   2.078  15.903 -0.6365 -0.5610  0.2784
  496MPD2    C5 7375   1.744   2.076  15.856 -0.2402  0.7100 -0.6303
  496MPD2     H 7376   1.460   1.963  15.624 -0.0667 -2.8076  0.6736
  496MPD2    H1 7377   1.591   2.100  16.006 -1.3180 -0.5991  0.1190
  496MPD2    H2 7378   1.866   2.044  15.692  0.4136 -3.5003  0.5029
  496MPD2    H3 7379   1.825   2.121  15.913  2.3673 -1.8427 -2.3051
  496MPD2     N 7380   1.379   2.040  15.881  0.0325  0.3964 -0.1656
  496MPD2    H5 7381   1.371   2.062  15.980  0.4736 -1.9574  0.3985
  496MPD2    N1 7382   1.712   1.955  15.515  0.2483 -0.1682  0.1732
  496MPD2    H7 7383   1.811   1.953  15.496  0.0197  2.2800 -1.2655
  497TMC3    C1 7384   1.149   1.986  15.915 -0.4568 -0.6494  0.3956
  497TMC3    C2 7385   1.030   1.944  15.857  0.3950 -0.5982  0.1870
  497TMC3    C3 7386   0.921   1.908  15.940 -0.1503 -0.5185  0.5710
  497TMC3    C4 7387   1.161   1.972  16.052  0.0349  0.1746 -0.0703
  497TMC3    C5 7388   1.054   1.946  16.128  1.0672 -0.3496  0.2667
  497TMC3    C6 7389   0.933   1.914  16.074  0.0704 -1.0719 -0.1917
  497TMC3     C 7390   1.266   1.996  15.822  0.8979  0.0713  0.0686
  497TMC3     O 7391   1.239   1.963  15.709 -0.0632  0.6663  0.0252
  497TMC3     H 7392   1.009   1.946  15.750 -0.8731 -1.5983  0.4120
  497TMC3    H1 7393   1.258   1.994  16.097  0.6930 -1.6217 -0.6510
  497TMC3    H2 7394   0.842   1.898  16.132  1.0689  0.6857  1.8465
  497TMC3    C7 7395   1.062   1.940  16.273  0.7891  0.3910 -0.5232
  497TMC3    C8 7396   0.789   1.870  15.888  0.0622  0.3516  0.4677
  497TMC3    O1 7397   0.968   1.886  16.328 -0.7447  0.9393 -0.2488
  497TMC3    O2 7398   0.694   1.925  15.946 -0.3304 -0.1832  0.8806
  498MPD2     C 7399   2.120   2.878   9.516  0.8970  0.5177 -0.0622
  498MPD2    C1 7400   2.098   2.932   9.645 -1.1252 -0.1402 -0.0228
  498MPD2    C2 7401   2.018   2.856   9.736 -0.5023 -0.5662  0.0095
  498MPD2    C3 7402   1.979   2.735   9.701 -1.4442  0.4529 -0.1076
  498MPD2    C4 7403   2.004   2.677   9.576 -0.1489 -0.1017 -0.2290
  498MPD2    C5 7404   2.062   2.755   9.485 -0.1183  0.2429  0.0419
  498MPD2     H 7405   1.995   2.907   9.829  0.4165  1.7174 -1.0157
  498MPD2    H1 7406   1.966   2.585   9.532 -2.1715  0.5389  0.1675
  498MPD2    H2 7407   2.164   2.945   9.443  0.2523  1.6604  0.6008
  498MPD2    H3 7408   2.083   2.704   9.392  1.5660  0.0374  0.5303
  498MPD2     N 7409   1.894   2.674   9.784 -0.3284 -0.2686  0.0696
  498MPD2    H5 7410   1.883   2.721   9.873 -2.0142 -0.6789  0.0660
  498MPD2    N1 7411   2.144   3.062   9.685  0.3194 -0.3054 -0.4450
  498MPD2    H7 7412   2.112   3.099   9.774  1.0701  0.4614 -0.4966
  499TMC3    C1 7413   2.227   3.286   9.660 -0.1881 -0.2087  0.6252
  499TMC3    C2 7414   2.149   3.325   9.768 -0.3281 -0.5939 -0.0518
  499TMC3    C3 7415   2.165   3.447   9.815 -0.3476  0.2574  0.4240
  499TMC3    C4 7416   2.315   3.370   9.593 -0.1981 -0.0474  0.7536
  499TMC3    C5 7417   2.317   3.500   9.637 -0.3362  0.2331 -0.1728
  499TMC3    C6 7418   2.245   3.536   9.746  0.1532 -0.7375 -0.8263
  499TMC3     C 7419   2.217   3.153   9.607 -0.4607 -0.2278 -0.2107
  499TMC3     O 7420   2.272   3.135   9.500 -0.2073  0.2774  0.1241
  499TMC3     H 7421   2.085   3.253   9.817  1.0436 -1.1242  0.9448
  499TMC3    H1 7422   2.372   3.329   9.511  1.2133 -2.1105  2.7875
  499TMC3    H2 7423   2.255   3.634   9.792 -0.7580  0.1372 -2.4709
  499TMC3    C7 7424   2.398   3.603   9.578 -0.2219  0.5395  0.0832
  499TMC3    C8 7425   2.061   3.520   9.887 -0.3790  0.4356  0.1599
  499TMC3    O1 7426   2.398   3.713   9.634  0.1862  0.1381  0.6278
  499TMC3    O2 7427   2.084   3.627   9.934 -1.3780 -0.1170  0.2469
  500MPD2     C 7428   3.777   4.506  10.563  0.2518 -0.6289  0.3460
  500MPD2    C1 7429   3.808   4.588  10.461 -0.4721  0.2504  0.1121
  500MPD2    C2 7430   3.704   4.665  10.407 -0.7078  0.9341 -1.1612
  500MPD2    C3 7431   3.575   4.654  10.451 -0.5294 -0.4425 -0.2299
  500MPD2    C4 7432   3.546   4.557  10.541 -0.1149 -0.1408  0.0362
  500MPD2    C5 7433   3.645   4.491  10.608  0.0292  0.1995 -0.2123
  500MPD2     H 7434   3.722   0.020  10.334  1.9839 -0.3047 -1.8506
  500MPD2    H1 7435   3.445   4.548  10.579 -0.6577  2.2746 -0.8473
  500MPD2    H2 7436   3.852   4.455  10.623  0.7908 -0.5681 -0.2799
  500MPD2    H3 7437   3.614   4.433  10.694  1.4735  1.8936  1.4505
  500MPD2     N 7438   3.465   0.006  10.395 -0.3567  0.4314  0.5831
  500MPD2    H5 7439   3.371   0.023  10.429 -0.9940  0.6205 -1.2721
  500MPD2    N1 7440   3.942   4.595  10.414  0.0872 -0.5042 -0.6858
  500MPD2    H7 7441   3.963   4.659  10.339 -0.4238 -0.8178 -1.0924
  501TMC3    C1 7442   4.171   4.580  10.406  0.5338  0.1355  0.1736
  501TMC3    C2 7443   4.172   4.574  10.270  0.7858  0.1078  0.5181
  501TMC3    C3 7444   4.293   4.553  10.210  0.1399  0.0142  0.3028
  501TMC3    C4 7445   4.284   4.559  10.482 -0.9766 -0.1337  0.8715
  501TMC3    C5 7446   4.404   4.548  10.416  0.0581  0.2522 -0.0785
  501TMC3    C6 7447   4.411   4.549  10.278  0.0530 -0.4584 -0.0711
  501TMC3     C 7448   4.052   4.541  10.477 -0.2614  0.3299  0.2990
  501TMC3     O 7449   4.069   4.498  10.591 -0.5355 -0.9590  0.2197
  501TMC3     H 7450   4.083   4.572  10.208  0.8150  1.2053  0.4494
  501TMC3    H1 7451   4.283   4.566  10.590  2.5936  2.7243  0.7009
  501TMC3    H2 7452   4.510   4.538  10.236  0.5674  0.3117  0.9306
  501TMC3    C7 7453   4.512   4.519  10.503 -0.3302 -0.4757  0.1097
  501TMC3    C8 7454   4.305   4.549  10.068  0.3590 -0.1347  0.9723
  501TMC3    O1 7455   4.487   4.457  10.607  0.5374 -0.0973  0.6099
  501TMC3    O2 7456   4.325   4.441  10.015  0.9313 -0.5092 -0.1439
  502TMC3    C1 7457   3.313   2.552  14.892 -0.1440 -0.3531  0.0765
  502TMC3    C2 7458   3.253   2.655  14.818 -0.8734 -0.1278 -0.4009
  502TMC3    C3 7459   3.121   2.686  14.842  0.1544 -0.2217 -0.8433
  502TMC3    C4 7460   3.232   2.470  14.968  0.2615  0.5515  0.0688
  502TMC3    C5 7461   3.094   2.502  14.979  0.7328  0.2558  0.4563
  502TMC3    C6 7462   3.040   2.610  14.921 -0.2474  0.7397  0.7674
  502TMC3     C 7463   3.435   2.602  14.959  0.8136  0.0150  0.0520
  502TMC3     O 7464   3.489   2.699  14.908 -0.6126  0.7831  0.8063
  502TMC3     H 7465   3.315   2.728  14.768  2.1460 -1.9514  0.6988
  502TMC3    H1 7466   3.271   2.382  15.018  0.9574 -0.5793 -2.4795
  502TMC3    H2 7467   2.934   2.623  14.902 -0.3687  1.2338  1.8025
  502TMC3    C7 7468   3.026   2.436  15.088  0.2995 -0.4036 -0.4456
  502TMC3    C8 7469   3.108   2.832  14.857  1.1230  0.7510  0.7154
  502TMC3    O1 7470   3.075   2.341  15.148  0.3570 -0.7198  0.7288
  502TMC3    O2 7471   3.198   2.901  14.820  0.1478 -0.4787 -0.0849
  503MPD2     C 7472   0.698   3.206  16.641  0.0766 -0.7691  0.2537
  503MPD2    C1 7473   0.738   3.225  16.777  0.1829 -0.1896 -0.3228
  503MPD2    C2 7474   0.806   3.120  16.831  0.1814 -0.2849  0.1746
  503MPD2    C3 7475   0.845   3.006  16.764  0.6785 -1.0730  0.7499
  503MPD2    C4 7476   0.802   2.990  16.638 -0.4905 -0.4433 -0.3159
  503MPD2    C5 7477   0.720   3.086  16.579 -0.0769 -0.2210 -0.1657
  503MPD2     H 7478   0.832   3.131  16.936  0.1146  0.1042  0.1512
  503MPD2    H1 7479   0.816   2.898  16.583  0.2930 -0.6359  0.2162
  503MPD2    H2 7480   0.654   3.291  16.591  1.1183 -2.8005 -4.1947
  503MPD2    H3 7481   0.679   3.068  16.480 -2.0184 -0.9375  0.7622
  503MPD2     N 7482   0.926   2.914  16.829  0.0828  0.6866 -0.6005
  503MPD2    H5 7483   0.944   2.932  16.928 -1.2272  0.9531 -0.4137
  503MPD2    N1 7484   0.730   3.342  16.850 -0.0587  0.2119 -0.3388
  503MPD2    H7 7485   0.768   3.344  16.944 -0.3357 -1.1434 -0.2080
  504TMC3    C1 7486   1.081   2.745  16.861 -0.7505  0.3296 -0.3052
  504TMC3    C2 7487   1.035   2.692  16.971  0.1034 -1.0744 -0.4235
  504TMC3    C3 7488   1.125   2.634  17.059 -0.1075 -0.3768 -0.3651
  504TMC3    C4 7489   1.205   2.717  16.815 -0.6421 -0.2762 -0.1507
  504TMC3    C5 7490   1.295   2.661  16.898  0.4753  0.3685  0.2568
  504TMC3    C6 7491   1.256   2.615  17.023  0.0406 -0.6537 -0.4685
  504TMC3     C 7492   0.987   2.804  16.770  0.6918 -0.0855 -0.4163
  504TMC3     O 7493   1.007   2.780  16.652 -0.5355  0.0529 -0.2352
  504TMC3     H 7494   0.932   2.697  17.004 -0.5349 -0.9521 -2.4559
  504TMC3    H1 7495   1.239   2.761  16.722 -1.1754  1.0777  0.2949
  504TMC3    H2 7496   1.308   2.538  17.078  1.9326  1.3926  0.5657
  504TMC3    C7 7497   1.433   2.678  16.869  0.0527 -0.4477  0.5572
  504TMC3    C8 7498   1.072   2.531  17.149  0.1561  0.3388  0.4162
  504TMC3    O1 7499   1.463   2.734  16.766  0.0617  0.4754  0.0018
  504TMC3    O2 7500   0.983   2.458  17.108  0.3131  0.5087 -0.0246
  505MPD2     C 7501   1.004   2.462  10.817 -0.4299  0.5305 -0.0236
  505MPD2    C1 7502   1.065   2.343  10.832 -0.0646  0.0155  0.1793
  505MPD2    C2 7503   1.190   2.340  10.896 -0.0761  0.8450 -0.4609
  505MPD2    C3 7504   1.250   2.457  10.951 -0.0026 -0.1066 -0.2855
  505MPD2    C4 7505   1.183   2.576  10.939  0.4066  0.6281  0.5744
  505MPD2    C5 7506   1.066   2.573  10.873 -0.3675 -0.0287 -0.2297
  505MPD2     H 7507   1.243   2.245  10.901 -0.6124  0.5644 -0.1896
  505MPD2    H1 7508   1.216   2.665  10.990 -2.9304  1.9989  0.3564
  505MPD2    H2 7509   0.910   2.480  10.767 -0.2087 -1.3960 -1.1217
  505MPD2    H3 7510   1.012   2.668  10.865  0.7273  0.6922  0.9734
  505MPD2     N 7511   1.382   2.448  11.009 -0.0125 -0.3351 -0.4849
  505MPD2    H5 7512   1.435   2.532  11.025 -0.3174 -0.3308  0.4878
  505MPD2    N1 7513   0.999   2.233  10.781  0.5355 -0.7189  0.5268
  505MPD2    H7 7514   0.914   2.245  10.727 -0.4984  0.4699  2.3917
  506TMC3    C1 7515   0.970   2.006  10.715  0.1206 -0.0294  0.3057
  506TMC3    C2 7516   0.963   2.022  10.580  1.0300 -0.4376  0.1059
  506TMC3    C3 7517   0.976   1.909  10.505  0.0097 -0.0966 -0.9478
  506TMC3    C4 7518   0.996   1.880  10.769 -0.2219 -0.0601 -0.1694
  506TMC3    C5 7519   1.023   1.776  10.687  0.8053 -0.1816  0.1733
  506TMC3    C6 7520   1.012   1.790  10.556  0.2699  0.2884 -0.2232
  506TMC3     C 7521   1.045   2.105  10.783 -0.3897 -0.8472  0.1133
  506TMC3     O 7522   1.127   2.059  10.856 -0.2615 -0.0079 -0.0904
  506TMC3     H 7523   0.938   2.119  10.539  1.8244  0.2752  1.3105
  506TMC3    H1 7524   0.992   1.873  10.877  3.1976  1.1930  0.0619
  506TMC3    H2 7525   1.039   1.707  10.492  0.3682  0.0245  0.1576
  506TMC3    C7 7526   1.140   1.705  10.744 -0.3610 -0.0720  1.0968
  506TMC3    C8 7527   1.006   1.914  10.361  0.1829  0.2234 -0.2648
  506TMC3    O1 7528   1.174   1.591  10.712  0.2783  0.0009  0.3070
  506TMC3    O2 7529   0.992   1.811  10.296  0.3162  0.3312 -0.0354
  507TMC3    C1 7530   1.932   3.044  14.065  0.6270 -0.0489  0.0184
  507TMC3    C2 7531   1.844   2.982  13.980  0.1211 -0.3362 -0.2936
  507TMC3    C3 7532   1.780   3.057  13.888  0.2964 -0.7921  0.1517
  507TMC3    C4 7533   1.956   3.177  14.070  0.0379 -0.2161 -0.0718
  507TMC3    C5 7534   1.893   3.251  13.978  0.4223  0.7041  0.4236
  507TMC3    C6 7535   1.813   3.194  13.885  0.2352  0.3221  0.4644
  507TMC3     C 7536   1.937   2.974  14.189 -0.2854  0.4580 -0.3229
  507TMC3     O 7537   2.029   3.010  14.260 -0.0518 -0.1840 -0.7046
  507TMC3     H 7538   1.830   2.875  13.983  1.3056 -0.4071  1.9880
  507TMC3    H1 7539   2.019   3.215  14.149  0.9199 -2.3288  0.2412
  507TMC3    H2 7540   1.774   3.261  13.810  0.0949  2.0761  2.0981
  507TMC3    C7 7541   1.855   3.386  14.017  0.0099 -0.1906 -0.3647
  507TMC3    C8 7542   1.637   3.056  13.913  0.3410  0.0395 -0.5987
  507TMC3    O1 7543   1.769   3.441  13.948  0.4028  0.0999 -0.4629
  507TMC3    O2 7544   1.610   3.084  14.031  0.6316 -0.1781 -0.5981
  508MPD2     C 7545   2.830   0.083  15.769 -1.1261 -0.8349 -0.9496
  508MPD2    C1 7546   2.907   0.183  15.821 -0.1602  0.1874 -0.2806
  508MPD2    C2 7547   2.899   0.313  15.763  0.2222 -0.3306 -0.1000
  508MPD2    C3 7548   2.811   0.342  15.661 -0.7056  0.0585 -0.2811
  508MPD2    C4 7549   2.731   0.239  15.616 -0.0599 -0.1628 -0.0576
  508MPD2    C5 7550   2.745   0.115  15.669 -0.2722  0.3252  0.2928
  508MPD2     H 7551   2.965   0.387  15.806 -1.1647  0.5747  0.4582
  508MPD2    H1 7552   2.672   0.255  15.527 -0.6622  3.7096  1.0147
  508MPD2    H2 7553   2.836   4.704  15.804  1.1810 -0.1305  0.6505
  508MPD2    H3 7554   2.692   0.034  15.621  0.6471  0.2190 -0.5485
  508MPD2     N 7555   2.806   0.475  15.610 -0.6716  0.1803  0.0185
  508MPD2    H5 7556   2.870   0.547  15.641  0.5960 -0.5712 -0.8697
  508MPD2    N1 7557   2.988   0.149  15.930 -0.0959  0.1018  0.0980
  508MPD2    H7 7558   2.981   0.057  15.972 -1.2420  0.1264 -0.0419
  509TMC3    C1 7559   2.670   0.817  15.310  0.3494 -0.4224 -0.2372
  509TMC3    C2 7560   2.782   0.898  15.345 -0.8381 -0.0811  0.4592
  509TMC3    C3 7561   2.882   0.839  15.426  0.4443 -0.2209 -0.2144
  509TMC3    C4 7562   2.644   0.703  15.374 -0.0913  0.1812  0.6473
  509TMC3    C5 7563   2.744   0.656  15.459  0.1305  0.0001  0.6543
  509TMC3    C6 7564   2.863   0.715  15.484  0.7313  0.1214  0.4122
  509TMC3     C 7565   2.554   0.899  15.280 -0.3398  0.3214 -0.2397
  509TMC3     O 7566   2.447   0.845  15.301 -0.0654 -0.8874 -0.1634
  509TMC3     H 7567   2.797   0.996  15.300 -0.0353  0.5654  2.1450
  509TMC3    H1 7568   2.552   0.648  15.358  0.3310 -0.2832 -0.1927
  509TMC3    H2 7569   2.941   0.663  15.539  1.1362 -0.5858 -0.8472
  509TMC3    C7 7570   2.713   0.518  15.516 -0.5049  0.1926 -0.1279
  509TMC3    C8 7571   3.013   0.898  15.441 -0.1764  0.6536  0.2741
  509TMC3    O1 7572   2.618   0.461  15.470 -0.8905 -0.1996 -1.6144
  509TMC3    O2 7573   3.106   0.834  15.493  0.0873  0.0450  0.1718
  510MPD2     C 7574   0.671   2.565  14.337  0.9242 -0.1806  0.6829
  510MPD2    C1 7575   0.760   2.494  14.411  0.0743 -0.4886  0.2071
  510MPD2    C2 7576   0.889   2.469  14.365 -0.6042 -1.0137  0.6102
  510MPD2    C3 7577   0.928   2.516  14.240 -0.1648 -0.6575 -0.2986
  510MPD2    C4 7578   0.843   2.590  14.170 -1.1650 -0.5045  0.0251
  510MPD2    C5 7579   0.710   2.612  14.215 -0.1514  0.7552  0.8547
  510MPD2     H 7580   0.960   2.420  14.430 -1.3591  0.1091  2.2900
  510MPD2    H1 7581   0.872   2.635  14.075 -2.6367  1.0006  0.3006
  510MPD2    H2 7582   0.581   2.608  14.381  0.2418 -1.0095  0.1101
  510MPD2    H3 7583   0.649   2.682  14.159 -1.0304 -0.0722  0.7749
  510MPD2     N 7584   1.060   2.478  14.203 -0.5025  0.1269 -0.1366
  510MPD2    H5 7585   1.118   2.435  14.274 -1.9003  1.0185  1.5227
  510MPD2    N1 7586   0.734   2.438  14.540 -0.0124  0.1540  1.6165
  510MPD2    H7 7587   0.793   2.365  14.577  1.9834 -1.2311 -4.3239
  511TMC3    C1 7588   0.617   2.370  14.723  0.0413  0.0371 -0.1174
  511TMC3    C2 7589   0.550   2.395  14.838 -1.1437  0.1411 -0.6178
  511TMC3    C3 7590   0.484   2.297  14.898 -0.1449  0.4703 -0.0969
  511TMC3    C4 7591   0.647   2.244  14.683  0.1946 -0.2596 -0.1759
  511TMC3    C5 7592   0.582   2.146  14.745 -0.1223  0.2673 -0.4642
  511TMC3    C6 7593   0.495   2.168  14.850  0.5146  0.4511 -0.2275
  511TMC3     C 7594   0.630   2.467  14.616 -0.8713  0.2565  0.3387
  511TMC3     O 7595   0.572   2.575  14.620 -0.2328 -0.6555 -0.3563
  511TMC3     H 7596   0.538   2.494  14.879  1.4994  1.5275 -3.2129
  511TMC3    H1 7597   0.709   2.210  14.601  0.4328  0.0638 -0.1277
  511TMC3    H2 7598   0.426   2.091  14.883  1.3385  0.1085  0.6712
  511TMC3    C7 7599   0.580   2.018  14.681  0.1065 -0.4554 -0.6408
  511TMC3    C8 7600   0.416   2.322  15.027  0.0276 -0.1149 -0.1995
  511TMC3    O1 7601   0.583   2.023  14.560  0.8042  0.0240  0.1586
  511TMC3    O2 7602   0.391   2.440  15.060  0.0760  0.2350  0.4876
  512TMC3    C1 7603   4.066   1.981  13.329  0.0926  0.3134 -1.0614
  512TMC3    C2 7604   4.085   1.951  13.466 -0.5414  0.8700  1.0374
  512TMC3    C3 7605   4.135   1.830  13.493 -0.3947  0.4435 -0.7747
  512TMC3    C4 7606   4.084   1.885  13.230 -0.0446 -0.2051  0.0695
  512TMC3    C5 7607   4.149   1.775  13.266 -0.6871 -0.6687 -0.1013
  512TMC3    C6 7608   4.172   1.742  13.398 -0.3048 -0.0915  1.2113
  512TMC3     C 7609   4.046   2.117  13.276  0.3988  0.2809  0.5352
  512TMC3     O 7610   4.070   2.135  13.160 -0.0792  0.2676 -0.2561
  512TMC3     H 7611   4.064   2.031  13.536  0.7256  2.7852 -0.7789
  512TMC3    H1 7612   4.066   1.908  13.126  2.1457  0.0773 -0.2419
  512TMC3    H2 7613   4.227   1.655  13.432 -1.6955 -1.6496 -0.5423
  512TMC3    C7 7614   4.225   1.701  13.164 -0.6228 -0.0151 -0.0198
  512TMC3    C8 7615   4.202   1.816  13.623  0.9167  0.1606  0.8118
  512TMC3    O1 7616   4.277   1.776  13.083  0.6896  0.6612 -0.0486
  512TMC3    O2 7617   4.226   1.702  13.658 -0.6840  0.0308  0.3140
  513MPD2     C 7618   1.500   1.605  13.003  0.0937 -0.0323  0.8092
  513MPD2    C1 7619   1.574   1.547  12.903  0.0531  0.3677 -0.3266
  513MPD2    C2 7620   1.689   1.611  12.858  0.1213  0.2205  0.1701
  513MPD2    C3 7621   1.728   1.730  12.912 -0.3892 -0.2945  0.1150
  513MPD2    C4 7622   1.660   1.787  13.012  0.4513  0.1118 -0.0338
  513MPD2    C5 7623   1.552   1.720  13.058 -0.3281  0.3327  0.1166
  513MPD2     H 7624   1.750   1.572  12.778  2.0320  1.9368  0.8090
  513MPD2    H1 7625   1.685   1.881  13.059  3.8728 -1.3104  1.0000
  513MPD2    H2 7626   1.409   1.565  13.047  1.0822 -2.9178  0.2201
  513MPD2    H3 7627   1.495   1.769  13.136  3.2774  1.0800  2.2857
  513MPD2     N 7628   1.838   1.785  12.846  0.3876 -0.4811 -0.3083
  513MPD2    H5 7629   1.870   1.742  12.760  2.5490 -0.2321  0.3817
  513MPD2    N1 7630   1.531   1.422  12.854  0.2043 -0.6431 -0.2492
  513MPD2    H7 7631   1.450   1.384  12.901  0.9907 -1.2412  0.5907
  514TMC3    C1 7632   1.656   1.392  12.648 -0.7131  0.3698 -1.0078
  514TMC3    C2 7633   1.609   1.500  12.575 -0.1496 -0.8100  0.0900
  514TMC3    C3 7634   1.660   1.522  12.450  0.3510  1.0779 -0.7291
  514TMC3    C4 7635   1.751   1.306  12.591  0.6416  0.1786 -0.1887
  514TMC3    C5 7636   1.802   1.337  12.464  0.1693  0.3248 -0.4659
  514TMC3    C6 7637   1.754   1.440  12.389 -0.0098  0.1450 -0.2675
  514TMC3     C 7638   1.574   1.335  12.755  0.1986  0.0997  0.2679
  514TMC3     O 7639   1.535   1.218  12.732  0.8600  0.6505 -0.0039
  514TMC3     H 7640   1.522   1.551  12.614  0.6598  0.6457 -0.0384
  514TMC3    H1 7641   1.793   1.221  12.644  0.3326 -0.1084 -0.4078
  514TMC3    H2 7642   1.794   1.448  12.288 -1.2509 -1.8520 -0.9205
  514TMC3    C7 7643   1.877   1.229  12.397 -0.5616  0.0046  0.0721
  514TMC3    C8 7644   1.666   1.667  12.417 -0.1594 -0.5984 -0.2256
  514TMC3    O1 7645   1.831   1.121  12.415 -1.2470  0.2839  0.1724
  514TMC3    O2 7646   1.582   1.738  12.473  0.4407  0.5499  0.2924
  515MPD2     C 7647   4.171   3.690  14.730 -0.3857 -0.6866 -0.0086
  515MPD2    C1 7648   4.152   3.558  14.766 -0.4099 -0.1953  0.0477
  515MPD2    C2 7649   4.239   3.504  14.859 -0.1744  0.4613 -0.3956
  515MPD2    C3 7650   4.333   3.577  14.932 -0.2732  0.3175  0.4255
  515MPD2    C4 7651   4.353   3.713  14.897 -0.0460  0.1823  0.6878
  515MPD2    C5 7652   4.271   3.762  14.801  0.0892 -0.3466 -0.2145
  515MPD2     H 7653   4.231   3.396  14.863 -0.1087  0.5457  2.2085
  515MPD2    H1 7654   4.421   3.778  14.951 -0.1056  0.6273  0.2226
  515MPD2    H2 7655   4.116   3.745  14.654  1.5585  2.2061  0.6889
  515MPD2    H3 7656   4.275   3.864  14.765 -1.8391 -0.6037 -1.1606
  515MPD2     N 7657   4.419   3.523  15.025  0.4059  0.1549 -0.1925
  515MPD2    H5 7658   4.482   3.591  15.067  0.0187 -0.4490  1.3536
  515MPD2    N1 7659   4.053   3.471  14.709 -0.2330 -0.1462  0.4029
  515MPD2    H7 7660   4.064   3.376  14.741 -0.5783 -0.6357 -0.8942
  516TMC3    C1 7661   3.881   3.394  14.573 -0.5430  0.2307  0.7628
  516TMC3    C2 7662   3.784   3.416  14.480 -0.2672 -0.1158 -0.1819
  516TMC3    C3 7663   3.712   3.304  14.444 -0.3040 -0.6828  0.3837
  516TMC3    C4 7664   3.884   3.280  14.639  0.9117 -0.3260  0.0145
  516TMC3    C5 7665   3.818   3.169  14.592  0.2956  0.3798  0.0920
  516TMC3    C6 7666   3.726   3.178  14.492 -1.1336 -0.2937 -0.2815
  516TMC3     C 7667   3.963   3.506  14.613 -0.7818 -0.9323  0.1537
  516TMC3     O 7668   3.936   3.617  14.567  0.0401 -0.2527 -0.0744
  516TMC3     H 7669   3.773   3.515  14.438 -0.9367 -0.6226 -1.2020
  516TMC3    H1 7670   3.967   3.259  14.706  0.2846 -2.0979  0.2226
  516TMC3    H2 7671   3.675   3.088  14.461  0.7218 -1.5260  0.2433
  516TMC3    C7 7672   3.858   3.038  14.651  0.7263 -0.1688  0.2108
  516TMC3    C8 7673   3.621   3.329  14.337 -0.3530 -1.1753  0.3389
  516TMC3    O1 7674   3.926   3.041  14.752  0.2412  1.1546  0.6037
  516TMC3    O2 7675   3.615   3.245  14.249  0.3152  0.2742  0.1682
  517MPD2     C 7676   4.024   0.102   0.058  0.1494  0.0368 -0.0783
  517MPD2    C1 7677   4.151   0.080   0.109 -0.1815 -0.0304 -0.4060
  517MPD2    C2 7678   4.221   0.184   0.160 -0.2066  0.2410 -0.2200
  517MPD2    C3 7679   4.168   0.315   0.156 -0.4401 -0.5239  0.5008
  517MPD2    C4 7680   4.042   0.333   0.109 -0.1672  0.4919 -0.5516
  517MPD2    C5 7681   3.968   0.227   0.062  0.3064 -0.3953 -0.0266
  517MPD2     H 7682   4.322   0.164   0.195  0.4727  0.7149 -1.8963
  517MPD2    H1 7683   4.003   0.434   0.110  0.9940  0.9121  1.6763
  517MPD2    H2 7684   3.965   0.026   0.009  1.3591 -0.4239 -0.8225
  517MPD2    H3 7685   3.867   0.246   0.029 -0.0290 -2.7260 -0.3439
  517MPD2     N 7686   4.242   0.428   0.206  0.0580 -0.1211 -1.1116
  517MPD2    H5 7687   4.191   0.514   0.219 -0.5530 -1.0088  2.2009
  517MPD2    N1 7688   4.211   4.676   0.101 -0.0304  0.0403 -0.0466
  517MPD2    H7 7689   4.307   4.663   0.132 -0.7294 -0.6997  1.8246
  518TMC3    C1 7690   4.243   4.471   0.011 -0.2756 -0.8625 -0.1650
  518TMC3    C2 7691   4.213   4.338   0.012  0.6383 -0.4974  0.6440
  518TMC3    C3 7692   4.301   4.254  17.653 -0.3528  0.0250 -0.9322
  518TMC3    C4 7693   4.353   4.520  17.641 -0.3545  0.3650 -0.6213
  518TMC3    C5 7694   4.437   4.431  17.585  0.3423  0.4961 -0.1867
  518TMC3    C6 7695   4.412   4.295  17.587 -0.4812  0.5702 -0.6916
  518TMC3     C 7696   4.141   4.565   0.061  0.3768  0.2063  0.4189
  518TMC3     O 7697   4.023   4.535   0.039  0.2942  0.4411 -0.4435
  518TMC3     H 7698   4.122   4.313   0.065 -0.3110  0.5830 -0.4750
  518TMC3    H1 7699   4.376   4.625  17.624 -0.0190  0.3476 -0.2660
  518TMC3    H2 7700   4.461   4.224  17.522  0.7348 -0.6772  1.5861
  518TMC3    C7 7701   4.538   4.481  17.493 -0.0805 -0.2468 -0.2322
  518TMC3    C8 7702   4.266   4.111  17.638 -0.1644 -0.1157 -0.9533
  518TMC3    O1 7703   4.517   4.598  17.456 -0.0721 -0.1717  0.3593
  518TMC3    O2 7704   4.307   4.051  17.536 -0.0948 -0.2312  0.6058
  519MPD2     C 7705   0.794   3.421  14.426  0.0898  0.1423 -0.0466
  519MPD2    C1 7706   0.735   3.371  14.313  0.8468 -0.0129  0.0624
  519MPD2    C2 7707   0.796   3.262  14.255  0.5493  0.3285 -0.5824
  519MPD2    C3 7708   0.905   3.203  14.321 -0.7983  0.0853 -0.4240
  519MPD2    C4 7709   0.967   3.266  14.419 -0.5828 -0.3815 -0.1105
  519MPD2    C5 7710   0.907   3.373  14.483  0.1199  0.5445  0.2439
  519MPD2     H 7711   0.745   3.214  14.172 -0.8415 -1.0727  1.0778
  519MPD2    H1 7712   1.064   3.234  14.454 -0.7363  0.6291  1.2328
  519MPD2    H2 7713   0.752   3.512  14.467  3.0556  2.1460 -1.4422
  519MPD2    H3 7714   0.954   3.416  14.571 -1.7049 -0.7879  1.8877
  519MPD2     N 7715   0.970   3.091  14.266 -0.0096 -0.7055 -0.2196
  519MPD2    H5 7716   1.069   3.078  14.285  0.3773 -0.2992 -1.8886
  519MPD2    N1 7717   0.632   3.443  14.249  0.0313 -0.5434 -0.1143
  519MPD2    H7 7718   0.589   3.519  14.302 -0.4766 -1.6441  1.0658
  520TMC3    C1 7719   1.008   2.920  14.107  0.4636  0.6371  0.7302
  520TMC3    C2 7720   0.978   2.917  13.969 -0.1429  0.2111 -0.3432
  520TMC3    C3 7721   1.080   2.859  13.890 -0.3577 -0.1676 -0.3036
  520TMC3    C4 7722   1.138   2.897  14.158 -0.3357  0.2180  0.5832
  520TMC3    C5 7723   1.228   2.855  14.074  0.8165 -0.4140  0.3742
  520TMC3    C6 7724   1.203   2.825  13.939 -0.3069  0.3354  0.1705
  520TMC3     C 7725   0.908   3.001  14.176 -0.3633  0.0816  0.2920
  520TMC3     O 7726   0.793   2.986  14.143 -0.3205  0.5018 -0.4369
  520TMC3     H 7727   0.877   2.943  13.939 -0.5715 -0.7603  0.2580
  520TMC3    H1 7728   1.158   2.884  14.264 -0.8339  0.4551  0.7062
  520TMC3    H2 7729   1.260   2.758  13.876  0.1990  0.3339  0.6206
  520TMC3    C7 7730   1.343   2.786  14.132  0.1071 -0.8420  0.5906
  520TMC3    C8 7731   1.067   2.837  13.746  0.1337  0.1495 -0.5231
  520TMC3    O1 7732   1.354   2.735  14.243 -0.6099 -0.3544 -0.1617
  520TMC3    O2 7733   1.163   2.791  13.684  0.2832  0.2596  0.1677
  521MPD2     C 7734   1.860   4.447  17.401 -0.5617  0.2434  0.6664
  521MPD2    C1 7735   1.865   4.585  17.392 -0.3823  1.1485 -0.2571
  521MPD2    C2 7736   1.953   4.644  17.306 -0.0203 -0.4430 -0.9400
  521MPD2    C3 7737   2.039   4.568  17.228  0.4390  0.8919  0.4811
  521MPD2    C4 7738   2.042   4.431  17.246  0.2395 -0.1225 -0.3050
  521MPD2    C5 7739   1.953   4.373  17.334 -0.1216 -0.0710  0.6374
  521MPD2     H 7740   1.970   0.027  17.309  5.0210 -1.3228  2.4838
  521MPD2    H1 7741   2.105   4.365  17.188 -0.3795 -0.3423 -0.7317
  521MPD2    H2 7742   1.791   4.397  17.468  0.3482  0.4318  1.7282
  521MPD2    H3 7743   1.961   4.265  17.336  0.6488 -0.0024  1.2663
  521MPD2     N 7744   2.125   4.632  17.133  0.9941  0.1406  0.7632
  521MPD2    H5 7745   2.205   4.580  17.100  0.8446  0.5900 -0.3272
  521MPD2    N1 7746   1.780   4.650  17.473  0.4946 -0.2872 -0.0518
  521MPD2    H7 7747   1.729   4.589  17.536 -0.8599 -0.4584 -1.3136
  522TMC3    C1 7748   2.212   0.086  17.001  0.2630 -0.1511  0.0670
  522TMC3    C2 7749   2.324   0.010  16.970  0.4550  0.2808 -0.2744
  522TMC3    C3 7750   2.430   0.069  16.907  0.0963  0.0472 -0.6018
  522TMC3    C4 7751   2.198   0.212  16.950  0.9575 -0.0474  0.1037
  522TMC3    C5 7752   2.299   0.269  16.884 -0.0544 -0.8424 -0.2988
  522TMC3    C6 7753   2.419   0.200  16.863 -0.2725  0.0202  0.7461
  522TMC3     C 7754   2.105   0.036  17.081  0.4147 -0.3718 -0.5147
  522TMC3     O 7755   2.011   0.115  17.096 -0.4183 -0.1621  0.3969
  522TMC3     H 7756   2.339   4.643  17.026  2.6927 -0.3022 -1.7846
  522TMC3    H1 7757   2.108   0.269  16.971  0.9122  0.7633 -2.2488
  522TMC3    H2 7758   2.508   0.255  16.836  0.6672 -1.7562  0.2143
  522TMC3    C7 7759   2.304   0.418  16.865  0.5687 -0.6568 -0.3155
  522TMC3    C8 7760   2.554   0.001  16.903 -0.4821  0.0400 -0.1859
  522TMC3    O1 7761   2.417   0.461  16.837 -0.3509  0.1910 -0.1040
  522TMC3    O2 7762   2.572   4.620  16.967 -0.3013 -0.0626 -1.1888
  523MPD2     C 7763   0.070   1.081  10.083 -0.8107  0.7089  0.9352
  523MPD2    C1 7764   4.669   1.034  10.037  0.2196 -0.8464 -0.1071
  523MPD2    C2 7765   4.574   1.131   9.993  0.2511 -0.7280  0.1343
  523MPD2    C3 7766   4.611   1.264   9.988  0.3027 -0.4235 -0.0173
  523MPD2    C4 7767   0.007   1.307  10.049 -0.2778 -0.0926  0.2132
  523MPD2    C5 7768   0.102   1.213  10.082 -0.2512  0.8018 -0.1652
  523MPD2     H 7769   4.478   1.101   9.953 -0.8539  1.0210  1.5071
  523MPD2    H1 7770   0.027   1.412  10.038  0.5408 -0.2068  0.6559
  523MPD2    H2 7771   0.151   1.022  10.124 -0.2388  0.0596 -1.1597
  523MPD2    H3 7772   0.203   1.233  10.117 -0.8564 -0.4586  2.2934
  523MPD2     N 7773   4.526   1.365   9.942 -0.1621  0.4131 -0.0821
  523MPD2    H5 7774   4.578   1.447   9.911  0.6858 -0.5778 -1.2746
  523MPD2    N1 7775   4.643   0.898  10.042 -0.0277  0.4106 -0.1163
  523MPD2    H7 7776   4.709   0.828  10.074  0.4227  1.7950  1.9711
  524TMC3    C1 7777   4.334   1.483   9.866 -0.5092  0.2614  0.6206
  524TMC3    C2 7778   4.202   1.470   9.822 -0.6599  0.1157 -0.5227
  524TMC3    C3 7779   4.161   1.577   9.747 -0.3184  0.1528 -0.0822
  524TMC3    C4 7780   4.409   1.598   9.853 -0.7503 -0.5728 -0.4279
  524TMC3    C5 7781   4.349   1.711   9.798  0.3795  0.5501  1.0658
  524TMC3    C6 7782   4.229   1.697   9.737  0.2203 -0.1241  0.3481
  524TMC3     C 7783   4.390   1.366   9.928  0.2552  0.7936 -0.3788
  524TMC3     O 7784   4.316   1.272   9.952  0.0576 -0.0894 -0.1722
  524TMC3     H 7785   4.158   1.372   9.812 -0.5495  0.4236 -3.8424
  524TMC3    H1 7786   4.505   1.618   9.899 -0.2255  1.1931 -2.2832
  524TMC3    H2 7787   4.181   1.786   9.699  1.2259  0.4665  0.4590
  524TMC3    C7 7788   4.410   1.842   9.803 -0.4447 -0.4330 -0.0851
  524TMC3    C8 7789   4.038   1.557   9.671 -0.0382  0.2091 -0.1849
  524TMC3    O1 7790   4.337   1.936   9.829 -0.2760  0.0854  0.4391
  524TMC3    O2 7791   3.968   1.461   9.692 -0.0301 -0.1215 -0.0320
  525MPD2     C 7792   2.270   2.607  14.383  0.1295 -0.2119 -0.0718
  525MPD2    C1 7793   2.381   2.612  14.460  0.2977 -0.3269  0.6112
  525MPD2    C2 7794   2.482   2.708  14.437  0.2571 -0.1797 -0.4568
  525MPD2    C3 7795   2.458   2.800  14.336 -0.0695  0.8621  0.5657
  525MPD2    C4 7796   2.341   2.799  14.261 -0.4694  0.2174 -0.6656
  525MPD2    C5 7797   2.245   2.707  14.291 -0.1948 -0.2397 -0.1980
  525MPD2     H 7798   2.578   2.711  14.488  0.1570  1.3261 -0.3754
  525MPD2    H1 7799   2.326   2.882  14.193  0.3918 -1.2713 -2.6799
  525MPD2    H2 7800   2.187   2.538  14.391 -0.4835  0.3198 -1.9828
  525MPD2    H3 7801   2.154   2.704  14.231 -1.6199 -0.2049  1.9682
  525MPD2     N 7802   2.544   2.911  14.304 -0.1437 -0.1799  0.4714
  525MPD2    H5 7803   2.517   2.962  14.221 -0.7967 -3.9276 -1.6524
  525MPD2    N1 7804   2.393   2.527  14.569 -0.1620  0.7553 -0.6372
  525MPD2    H7 7805   2.480   2.542  14.620 -1.5731  0.1893  1.9590
  526TMC3    C1 7806   2.340   2.392  14.745  0.3241  0.4070 -0.3450
  526TMC3    C2 7807   2.246   2.366  14.845  0.3895 -0.1711  0.2724
  526TMC3    C3 7808   2.270   2.300  14.959  0.2497  0.1146  0.0697
  526TMC3    C4 7809   2.468   2.350  14.755 -0.1372 -0.3553 -0.1388
  526TMC3    C5 7810   2.498   2.293  14.876 -0.1748  0.3971 -0.1324
  526TMC3    C6 7811   2.400   2.264  14.970  0.0339 -0.3413  0.0726
  526TMC3     C 7812   2.294   2.455  14.624 -0.0614  1.0324 -0.2261
  526TMC3     O 7813   2.171   2.456  14.603 -0.1139  0.3479  0.0887
  526TMC3     H 7814   2.154   2.422  14.834 -0.4375 -1.2529  1.6457
  526TMC3    H1 7815   2.532   2.363  14.668 -1.1596  1.7287 -0.5881
  526TMC3    H2 7816   2.434   2.247  15.071 -2.6999 -3.9706  0.3683
  526TMC3    C7 7817   2.634   2.259  14.900  0.0807 -0.0127  0.4522
  526TMC3    C8 7818   2.228   2.376  15.075  0.4943  0.1181 -0.4445
  526TMC3    O1 7819   2.657   2.173  14.981 -0.5915 -0.3321 -0.2429
  526TMC3    O2 7820   2.308   2.460  15.113  0.5924  0.8221 -0.4522
  527MPD2     C 7821   1.148   4.411   1.746 -0.0727 -0.3179 -0.5360
  527MPD2    C1 7822   1.178   4.526   1.679 -0.2417 -0.5849  0.3353
  527MPD2    C2 7823   1.228   4.511   1.552  0.2820  0.6864 -0.7440
  527MPD2    C3 7824   1.267   4.386   1.512  0.3441 -0.6882 -0.1283
  527MPD2    C4 7825   1.255   4.275   1.588 -0.2223  1.0763 -0.4543
  527MPD2    C5 7826   1.184   4.292   1.698 -0.5430 -0.0494 -0.5392
  527MPD2     H 7827   1.257   4.596   1.492  0.1398 -0.3673 -2.3131
  527MPD2    H1 7828   1.304   4.180   1.568 -1.4330 -0.0258  1.8449
  527MPD2    H2 7829   1.090   4.419   1.837  0.1815  1.8807 -0.5649
  527MPD2    H3 7830   1.180   4.200   1.755  1.1564 -0.8284 -1.6680
  527MPD2     N 7831   1.337   4.381   1.392  0.6247  0.0072 -0.7532
  527MPD2    H5 7832   1.342   4.464   1.334  0.1726  0.3241 -0.3337
  527MPD2    N1 7833   1.148   4.657   1.735 -0.5011 -0.4073 -0.8683
  527MPD2    H7 7834   1.151   0.016   1.675 -1.6544  0.1386 -0.1678
  528TMC3    C1 7835   1.094   0.099   1.879 -0.1236  0.5789 -0.6938
  528TMC3    C2 7836   1.156   0.171   1.978  0.0201 -0.4319  0.2651
  528TMC3    C3 7837   1.135   0.303   1.994  0.4466  0.3394  0.0613
  528TMC3    C4 7838   1.035   0.166   1.774  0.6269  0.3852  0.9078
  528TMC3    C5 7839   1.041   0.302   1.774 -0.5511  0.1860  0.5953
  528TMC3    C6 7840   1.087   0.372   1.884 -0.3292  0.1956  0.3273
  528TMC3     C 7841   1.134   4.685   1.865  0.3673 -0.1821  0.2596
  528TMC3     O 7842   1.151   4.620   1.964  0.3615  0.5514  0.6215
  528TMC3     H 7843   1.226   0.118   2.042 -0.0362 -0.6693  0.1293
  528TMC3    H1 7844   1.002   0.111   1.687  1.4541  0.6700  0.4189
  528TMC3    H2 7845   1.080   0.480   1.889  2.0139  0.3407  0.6047
  528TMC3    C7 7846   0.976   0.380   1.671 -0.1387 -0.0566 -0.0620
  528TMC3    C8 7847   1.226   0.383   2.075  0.1353  0.3720 -0.1229
  528TMC3    O1 7848   0.964   0.502   1.679 -0.8871  0.2587 -0.2800
  528TMC3    O2 7849   1.238   0.499   2.043 -0.3403 -0.0569  0.0548
  529MPD2     C 7850   3.680   3.860   0.286  0.4474 -0.6138  0.8013
  529MPD2    C1 7851   3.566   3.789   0.313  0.4388  0.4576 -0.4732
  529MPD2    C2 7852   3.466   3.774   0.219 -0.2264  0.0201 -0.8931
  529MPD2    C3 7853   3.475   3.826   0.097  0.4622 -0.7714 -0.7291
  529MPD2    C4 7854   3.585   3.895   0.062 -0.1028  0.2067 -0.5733
  529MPD2    C5 7855   3.680   3.919   0.156  0.4289 -0.3255  0.6092
  529MPD2     H 7856   3.390   3.702   0.246  0.6205 -1.7390 -3.2298
  529MPD2    H1 7857   3.595   3.947  17.664 -0.4144  2.4743  0.6479
  529MPD2    H2 7858   3.767   3.880   0.347  1.1947 -1.2078 -0.0606
  529MPD2    H3 7859   3.770   3.973   0.133 -0.4146  0.0934 -1.6728
  529MPD2     N 7860   3.380   3.815  17.695 -0.2125 -0.0710  0.2516
  529MPD2    H5 7861   3.396   3.841  17.598  0.8799  1.1103  0.7387
  529MPD2    N1 7862   3.533   3.735   0.438  0.1999  0.2290 -0.3954
  529MPD2    H7 7863   3.459   3.666   0.441 -0.4845  0.9599 -0.2972
  530TMC3    C1 7864   3.526   3.736   0.676  0.0397 -0.4873 -0.1388
  530TMC3    C2 7865   3.598   3.737   0.794 -0.9938 -0.8090 -0.0626
  530TMC3    C3 7866   3.562   3.668   0.899 -0.1394  0.7683  0.4133
  530TMC3    C4 7867   3.410   3.661   0.680  0.4766 -0.5139  0.9962
  530TMC3    C5 7868   3.375   3.587   0.799 -0.4232  0.0203  0.4517
  530TMC3    C6 7869   3.442   3.602   0.911 -0.7974  0.0580  0.6153
  530TMC3     C 7870   3.591   3.783   0.556  0.2783 -0.6289 -0.2931
  530TMC3     O 7871   3.677   3.867   0.583  0.4212 -0.3904  0.5996
  530TMC3     H 7872   3.697   3.782   0.796 -1.0994 -0.5937  0.2169
  530TMC3    H1 7873   3.349   3.645   0.592 -0.1979 -0.1857  1.4042
  530TMC3    H2 7874   3.413   3.566   1.009  1.6081  1.2064  1.7336
  530TMC3    C7 7875   3.264   3.501   0.798  0.6130  0.6486  0.4422
  530TMC3    C8 7876   3.645   3.699   1.013 -0.1552  0.7192 -0.9102
  530TMC3    O1 7877   3.191   3.502   0.696  0.1212 -0.1242  0.0967
  530TMC3    O2 7878   3.685   3.815   1.016 -0.2978 -0.1564  0.4220
  531MPD2     C 7879   2.193   1.594  12.197  0.0031 -1.0706 -0.4348
  531MPD2    C1 7880   2.119   1.599  12.316  0.2634 -0.6720 -0.0262
  531MPD2    C2 7881   2.062   1.482  12.355  0.2253 -0.1206  0.9613
  531MPD2    C3 7882   2.045   1.376  12.271 -0.1795  0.1671 -0.0327
  531MPD2    C4 7883   2.117   1.373  12.152 -0.2194  0.1539 -0.2882
  531MPD2    C5 7884   2.188   1.483  12.114 -0.4324 -0.1092 -0.3329
  531MPD2     H 7885   2.023   1.477  12.456 -0.6247 -2.1041  0.5464
  531MPD2    H1 7886   2.120   1.291  12.082  2.0184 -0.6032  0.6685
  531MPD2    H2 7887   2.226   1.685  12.148  0.5120 -0.3553  1.2344
  531MPD2    H3 7888   2.232   1.483  12.015  0.3669  0.6747  0.0295
  531MPD2     N 7889   1.971   1.258  12.299 -0.3614  0.6326  0.2422
  531MPD2    H5 7890   1.997   1.184  12.234  1.9742 -0.7237  2.6957
  531MPD2    N1 7891   2.118   1.725  12.391  0.3897 -0.3081  0.3347
  531MPD2    H7 7892   2.176   1.803  12.362 -0.9418  0.7581  0.5195
  532TMC3    C1 7893   2.085   1.854  12.579 -0.2567 -0.2785  0.2334
  532TMC3    C2 7894   1.985   1.904  12.654  0.5861  0.4616 -0.1079
  532TMC3    C3 7895   2.013   1.924  12.788  0.0838 -0.0960  1.4044
  532TMC3    C4 7896   2.205   1.816  12.637 -0.2808 -0.1189 -1.2255
  532TMC3    C5 7897   2.230   1.864  12.764  0.5086 -0.0046 -0.0280
  532TMC3    C6 7898   2.137   1.917  12.843 -0.3938  0.4330 -0.0816
  532TMC3     C 7899   2.034   1.741  12.502  0.0863 -0.7009 -0.2755
  532TMC3     O 7900   1.953   1.669  12.556  0.0164  0.0436 -0.3207
  532TMC3     H 7901   1.883   1.893  12.618  0.3083 -0.2490  0.8802
  532TMC3    H1 7902   2.276   1.761  12.577  1.5491  1.2178 -0.3072
  532TMC3    H2 7903   2.159   1.935  12.947  0.7387 -3.6633  0.3976
  532TMC3    C7 7904   2.333   1.801  12.836  0.1540  0.3684 -0.7455
  532TMC3    C8 7905   1.903   1.900  12.881  0.3053  0.0989  0.0640
  532TMC3    O1 7906   2.369   1.856  12.936 -0.0836  0.5799 -0.1958
  532TMC3    O2 7907   1.907   1.935  13.000 -0.4588  0.1450  0.2501
  533TMC3    C1 7908   2.682   3.086  14.326  0.3818  0.3262  0.6825
  533TMC3    C2 7909   2.809   3.125  14.362  1.0211  0.2498  0.3008
  533TMC3    C3 7910   2.831   3.263  14.378  0.0958  0.0721 -0.5743
  533TMC3    C4 7911   2.573   3.171  14.349 -0.2603 -0.6974  0.5390
  533TMC3    C5 7912   2.597   3.301  14.384  0.1225  0.0474  0.0525
  533TMC3    C6 7913   2.725   3.351  14.386  0.3189 -1.2961 -0.3141
  533TMC3     C 7914   2.651   2.952  14.372 -0.0959 -0.0938  0.2262
  533TMC3     O 7915   2.708   2.916  14.475 -0.2588  0.2047 -0.0298
  533TMC3     H 7916   2.883   3.046  14.355 -1.2682 -1.8164 -0.7768
  533TMC3    H1 7917   2.471   3.134  14.350  0.6640 -3.2789  0.7079
  533TMC3    H2 7918   2.752   3.455  14.378 -4.6213 -0.2270 -2.9570
  533TMC3    C7 7919   2.534   3.338  14.510  0.6327  0.3600 -0.2633
  533TMC3    C8 7920   2.952   3.303  14.449 -0.5873  0.0863  0.1023
  533TMC3    O1 7921   2.428   3.278  14.536 -0.7879 -0.0828  0.2854
  533TMC3    O2 7922   2.937   3.392  14.530 -0.6515 -0.0381 -0.3669
  534MPD2     C 7923   0.609   3.945   2.190  0.0425  0.3771  0.4421
  534MPD2    C1 7924   0.664   4.015   2.083  0.3272  0.2275 -0.3801
  534MPD2    C2 7925   0.616   3.988   1.956 -0.5415  0.0582  0.3258
  534MPD2    C3 7926   0.530   3.881   1.921 -0.4202 -0.1786 -0.3989
  534MPD2    C4 7927   0.477   3.806   2.030  0.8999  0.1078  0.2717
  534MPD2    C5 7928   0.517   3.845   2.160  0.1710 -0.2430 -0.4757
  534MPD2     H 7929   0.648   4.050   1.873 -0.9199  0.3745  0.4196
  534MPD2    H1 7930   0.405   3.726   2.017  1.3631 -0.2988  0.2392
  534MPD2    H2 7931   0.640   3.958   2.293 -1.2610 -0.7481  0.9729
  534MPD2    H3 7932   0.474   3.786   2.240 -0.9065  0.4278 -0.5640
  534MPD2     N 7933   0.478   3.857   1.795  0.1514  0.4053 -0.0141
  534MPD2    H5 7934   0.403   3.789   1.792  1.3005 -0.8911  0.8720
  534MPD2    N1 7935   0.749   4.132   2.101 -0.7668  0.1719 -0.4241
  534MPD2    H7 7936   0.763   4.179   2.012 -0.4694 -1.5296 -1.2706
  535TMC3    C1 7937   0.443   3.872   1.562 -0.0602  0.0512 -0.2082
  535TMC3    C2 7938   0.351   3.773   1.565 -0.2506  0.2568  0.9734
  535TMC3    C3 7939   0.310   3.708   1.450  0.2642  0.4142 -0.6164
  535TMC3    C4 7940   0.501   3.908   1.443  0.0429 -0.1803  0.0816
  535TMC3    C5 7941   0.465   3.837   1.332 -0.0600  0.0239  0.0598
  535TMC3    C6 7942   0.362   3.745   1.328 -0.5926  0.3349  0.8624
  535TMC3     C 7943   0.510   3.925   1.682 -0.1428  0.4815  0.1302
  535TMC3     O 7944   0.580   4.024   1.668  0.3154 -0.2907  0.1215
  535TMC3     H 7945   0.317   3.746   1.664 -1.6863 -0.7010  0.2234
  535TMC3    H1 7946   0.577   3.986   1.441 -1.3112  1.1182 -0.5063
  535TMC3    H2 7947   0.321   3.703   1.237  0.9687  1.7176 -0.4845
  535TMC3    C7 7948   0.547   3.848   1.212 -0.5584  0.2687 -0.2804
  535TMC3    C8 7949   0.173   3.655   1.448 -0.0633 -0.4516  0.2726
  535TMC3    O1 7950   0.541   3.744   1.146  0.0530  0.4865  0.4732
  535TMC3    O2 7951   0.134   3.645   1.333  0.2238 -0.3850  0.0154
  536MPD2     C 7952   4.138   2.549  16.231  0.2500  0.7566 -0.2199
  536MPD2    C1 7953   4.044   2.453  16.260  0.1800  0.6429 -0.2294
  536MPD2    C2 7954   3.936   2.442  16.172 -0.1222  0.3108  0.1148
  536MPD2    C3 7955   3.923   2.528  16.063 -0.3656 -0.2000 -0.2133
  536MPD2    C4 7956   4.018   2.626  16.042  0.0586 -0.5739 -0.3445
  536MPD2    C5 7957   4.121   2.633  16.128 -0.0044  0.1069  0.6289
  536MPD2     H 7958   3.866   2.362  16.196 -0.1295  0.5963  1.0584
  536MPD2    H1 7959   4.010   2.697  15.960  2.2484 -1.9355 -1.7795
  536MPD2    H2 7960   4.226   2.576  16.289  0.5435  0.0447 -0.3229
  536MPD2    H3 7961   4.206   2.697  16.104  0.3264  0.4119  2.5694
  536MPD2     N 7962   3.811   2.518  15.977 -0.1411  0.0304 -0.7588
  536MPD2    H5 7963   3.793   2.604  15.927 -1.6825  0.9808  1.4581
  536MPD2    N1 7964   4.063   2.373  16.382 -0.5155 -0.2714  0.0067
  536MPD2    H7 7965   4.148   2.392  16.434 -1.5526  1.0124  1.2314
  537TMC3    C1 7966   4.020   2.204  16.544  0.0694 -0.3534 -0.3096
  537TMC3    C2 7967   4.074   2.274  16.650 -0.5888 -0.5718  0.3084
  537TMC3    C3 7968   4.087   2.218  16.773 -0.0364 -0.2555 -0.1719
  537TMC3    C4 7969   3.948   2.090  16.569 -0.5111 -0.1527 -0.2899
  537TMC3    C5 7970   3.967   2.026  16.687  0.1688  0.2232  0.3096
  537TMC3    C6 7971   4.037   2.092  16.787 -0.4074  0.1663  0.2381
  537TMC3     C 7972   3.976   2.275  16.427  0.0353  0.1011  0.5811
  537TMC3     O 7973   3.868   2.234  16.383 -0.3383 -0.0791 -0.6040
  537TMC3     H 7974   4.110   2.376  16.638  0.9672 -1.4208 -2.1843
  537TMC3    H1 7975   3.908   2.033  16.486  0.9591  0.1667 -1.2316
  537TMC3    H2 7976   4.065   2.052  16.883 -3.0490 -1.6899  0.2060
  537TMC3    C7 7977   3.891   1.908  16.714 -0.5811 -0.3364 -0.1726
  537TMC3    C8 7978   4.082   2.303  16.887  0.2349  0.4677 -0.3848
  537TMC3    O1 7979   3.793   1.889  16.650  0.0706 -0.0434 -0.2731
  537TMC3    O2 7980   4.116   2.267  16.995  0.4421 -0.7213  0.0987
  538TMC3    C1 7981   0.392   0.679  10.774 -0.1322  0.1161 -0.1371
  538TMC3    C2 7982   0.507   0.746  10.813  0.5117  0.3847 -1.0990
  538TMC3    C3 7983   0.543   0.851  10.742 -0.0640 -0.9689  0.3483
  538TMC3    C4 7984   0.332   0.694  10.658 -0.0408 -0.4366  0.4789
  538TMC3    C5 7985   0.379   0.799  10.584  0.3307  0.9746 -0.2795
  538TMC3    C6 7986   0.473   0.889  10.629 -0.3724  1.1308  0.2831
  538TMC3     C 7987   0.303   0.652  10.880  0.4534  0.2970  0.3917
  538TMC3     O 7988   0.190   0.627  10.847  0.1553  0.6984  0.1449
  538TMC3     H 7989   0.566   0.719  10.899 -2.0621 -0.6378  0.3497
  538TMC3    H1 7990   0.248   0.638  10.618 -1.4462  1.2626  1.0486
  538TMC3    H2 7991   0.499   0.984  10.584 -0.4165  0.9092 -0.2182
  538TMC3    C7 7992   0.277   0.852  10.497  0.8253 -0.1048  0.9292
  538TMC3    C8 7993   0.641   0.936  10.803  0.3237 -0.0295 -1.2513
  538TMC3    O1 7994   0.173   0.791  10.470  0.3709 -0.1329 -0.2430
  538TMC3    O2 7995   0.630   0.949  10.923  0.6090  0.4011  0.1450
  539MPD2     C 7996   4.567   0.450  11.869 -0.3268 -0.8316  0.7833
  539MPD2    C1 7997   4.545   0.441  11.732 -0.1145  0.3726  0.6191
  539MPD2    C2 7998   4.500   0.556  11.663 -0.7800 -0.1180 -0.2128
  539MPD2    C3 7999   4.489   0.680  11.723 -0.1824 -0.3114 -0.6129
  539MPD2    C4 8000   4.518   0.680  11.857  0.1296  0.1230 -0.4696
  539MPD2    C5 8001   4.550   0.569  11.928 -0.8705  0.0049  0.5799
  539MPD2     H 8002   4.468   0.551  11.559  1.7308 -0.6852 -0.9622
  539MPD2    H1 8003   4.491   0.765  11.918 -0.8200 -0.9652  0.6364
  539MPD2    H2 8004   4.600   0.365  11.927  0.8816 -0.8979 -0.0098
  539MPD2    H3 8005   4.555   0.573  12.036  0.5287  0.2704  0.5064
  539MPD2     N 8006   4.444   0.801  11.666 -0.7401  0.2373  0.1102
  539MPD2    H5 8007   4.435   0.880  11.728 -0.5224  1.6496 -1.6714
  539MPD2    N1 8008   4.560   0.324  11.651 -0.3091 -0.3137 -0.0327
  539MPD2    H7 8009   4.575   0.344  11.552  0.2455 -2.2695 -0.3393
  540TMC3    C1 8010   4.437   0.955  11.499  0.0572 -0.0696 -0.1508
  540TMC3    C2 8011   4.483   0.974  11.375 -0.2076 -0.0590 -0.1315
  540TMC3    C3 8012   4.482   1.105  11.332  0.2598 -0.2055 -0.7192
  540TMC3    C4 8013   4.411   1.056  11.589 -0.2880 -0.3895  0.5662
  540TMC3    C5 8014   4.416   1.188  11.542  0.2107 -0.1331 -0.3746
  540TMC3    C6 8015   4.457   1.212  11.413 -0.3081  1.3210  0.0033
  540TMC3     C 8016   4.430   0.814  11.533 -0.0388  0.9923  0.0681
  540TMC3     O 8017   4.426   0.737  11.439 -0.1945 -0.3606 -0.4881
  540TMC3     H 8018   4.523   0.890  11.320 -2.1231 -1.0044 -0.0891
  540TMC3    H1 8019   4.369   1.046  11.688  0.1652 -1.6883  0.6288
  540TMC3    H2 8020   4.438   1.307  11.365  1.3610  2.5409  1.7899
  540TMC3    C7 8021   4.330   1.282  11.614 -0.3498  0.6284  0.2332
  540TMC3    C8 8022   4.513   1.130  11.197 -0.3240  0.7582 -0.1314
  540TMC3    O1 8023   4.257   1.240  11.702  0.3981 -0.0535  0.2532
  540TMC3    O2 8024   4.587   1.222  11.170  0.7085 -0.3250  0.1682
  541MPD2     C 8025   3.046   1.890  12.889 -0.3466  0.1618 -0.0858
  541MPD2    C1 8026   3.139   1.836  12.805  0.4271 -0.0516 -0.2289
  541MPD2    C2 8027   3.161   1.899  12.683  0.1595 -0.6027  0.1662
  541MPD2    C3 8028   3.095   2.020  12.656  0.4004  0.0849  0.2500
  541MPD2    C4 8029   2.999   2.065  12.738  0.8575 -0.7782  0.2398
  541MPD2    C5 8030   2.974   2.001  12.857  0.1076 -0.9943 -0.0796
  541MPD2     H 8031   3.238   1.845  12.630 -0.4573 -1.9799  0.6858
  541MPD2    H1 8032   2.934   2.145  12.703 -0.9870 -2.2093  0.4155
  541MPD2    H2 8033   3.025   1.847  12.987 -1.6646 -2.3665 -1.4799
  541MPD2    H3 8034   2.889   2.032  12.917  0.6490  2.0560 -0.8874
  541MPD2     N 8035   3.115   2.088  12.529 -0.1687 -0.6502 -0.4757
  541MPD2    H5 8036   3.068   2.172  12.497  2.2684  0.1289 -1.9518
  541MPD2    N1 8037   3.193   1.711  12.846 -0.4470  0.2400 -0.1680
  541MPD2    H7 8038   3.177   1.680  12.942 -1.2216  4.9715  1.2558
  542TMC3    C1 8039   3.221   2.159  12.327  0.1704  0.4566 -0.4530
  542TMC3    C2 8040   3.289   2.118  12.215  0.1875  0.1255  0.3904
  542TMC3    C3 8041   3.258   2.168  12.092  0.0163 -0.4720  0.2624
  542TMC3    C4 8042   3.122   2.256  12.315  0.0057 -0.1173  0.3234
  542TMC3    C5 8043   3.088   2.296  12.193  0.4539  0.2341 -0.3922
  542TMC3    C6 8044   3.154   2.264  12.080  0.1812  0.3277 -0.1991
  542TMC3     C 8045   3.225   2.069  12.449  0.0815 -0.1635  0.0238
  542TMC3     O 8046   3.310   1.985  12.458  0.0454  0.5956  0.3728
  542TMC3     H 8047   3.355   2.032  12.220 -1.6689 -1.4298 -1.7463
  542TMC3    H1 8048   3.076   2.310  12.397 -1.3446 -0.8780  0.0651
  542TMC3    H2 8049   3.133   2.294  11.979  0.0568  0.2291 -0.2021
  542TMC3    C7 8050   2.984   2.390  12.188 -0.2637 -0.2619 -0.7721
  542TMC3    C8 8051   3.329   2.133  11.971  0.5907 -0.1060 -0.3414
  542TMC3    O1 8052   2.970   2.458  12.285  0.0028 -0.3220 -0.1544
  542TMC3    O2 8053   3.275   2.169  11.867 -0.0381  0.5973 -0.1174
  543TMC3    C1 8054   2.615   2.410  17.457 -0.5499 -0.1831  0.2481
  543TMC3    C2 8055   2.593   2.283  17.496 -0.5774  0.2562 -0.0237
  543TMC3    C3 8056   2.487   2.245  17.569  0.2627 -0.0386 -0.1326
  543TMC3    C4 8057   2.537   2.507  17.516 -0.2332 -0.6124  0.2500
  543TMC3    C5 8058   2.445   2.468  17.601 -0.2435 -0.7386 -0.2580
  543TMC3    C6 8059   2.414   2.337  17.633 -0.0655 -0.0505  0.1334
  543TMC3     C 8060   2.649   2.423  17.319  0.3325  0.5964 -0.9228
  543TMC3     O 8061   2.765   2.417  17.277  0.0333  1.3273  0.2601
  543TMC3     H 8062   2.639   2.200  17.443 -1.5467 -0.9209  0.9642
  543TMC3    H1 8063   2.551   2.615  17.512 -2.5409 -0.3100  0.1305
  543TMC3    H2 8064   2.342   2.314   0.015 -2.1103  2.4908 -1.0009
  543TMC3    C7 8065   2.371   2.567  17.677 -0.4224 -0.4987  0.3168
  543TMC3    C8 8066   2.452   2.109  17.568 -0.4261  0.2264 -0.0058
  543TMC3    O1 8067   2.316   2.536   0.084 -0.3128  0.6728  0.4519
  543TMC3    O2 8068   2.542   2.028  17.570  0.2448 -0.2891 -0.3279
  544MPD2     C 8069   2.090   1.757  17.433  0.3206  0.1963 -0.1608
  544MPD2    C1 8070   2.224   1.766  17.401  0.2594 -0.7264  0.0841
  544MPD2    C2 8071   2.300   1.869  17.446 -0.0887 -0.2914  0.8465
  544MPD2    C3 8072   2.241   1.971  17.530 -0.1971  0.3273 -0.2725
  544MPD2    C4 8073   2.103   1.963  17.561 -0.0831 -0.1276 -0.9984
  544MPD2    C5 8074   2.034   1.861  17.500  0.0708  0.0299 -0.1903
  544MPD2     H 8075   2.403   1.884  17.416 -0.2671 -0.1876  0.2923
  544MPD2    H1 8076   2.045   2.019  17.633  1.1040 -0.5291  0.2541
  544MPD2    H2 8077   2.028   1.683  17.384  2.0101 -0.3514 -1.4771
  544MPD2    H3 8078   1.926   1.862  17.506 -0.0263 -1.7018 -1.6470
  544MPD2     N 8079   2.316   2.089  17.568 -0.2489 -0.1354 -0.3065
  544MPD2    H5 8080   2.263   2.168  17.602  1.2315  1.6158 -2.0666
  544MPD2    N1 8081   2.281   1.660  17.334  0.1340  0.5320  0.0858
  544MPD2    H7 8082   2.227   1.582  17.299 -0.2899 -0.2236  2.4247
  545TMC3    C1 8083   2.406   1.603  17.158 -0.3328 -0.8774 -0.5385
  545TMC3    C2 8084   2.300   1.637  17.077  0.7852  0.5564  0.5185
  545TMC3    C3 8085   2.309   1.612  16.944 -0.3588 -0.2044 -0.1037
  545TMC3    C4 8086   2.515   1.543  17.098  0.4064 -0.2985  0.1953
  545TMC3    C5 8087   2.523   1.520  16.966 -0.3928  0.4465  0.4310
  545TMC3    C6 8088   2.424   1.566  16.888  0.2755 -0.3508 -0.0432
  545TMC3     C 8089   2.413   1.646  17.293 -1.1827  0.4938 -0.4024
  545TMC3     O 8090   2.517   1.702  17.327  0.0132  0.1230  0.5125
  545TMC3     H 8091   2.213   1.695  17.107  0.5854  0.4403  0.1678
  545TMC3    H1 8092   2.589   1.521  17.174 -0.4015 -3.0940  0.1844
  545TMC3    H2 8093   2.438   1.569  16.780 -0.4740 -2.2094 -0.1959
  545TMC3    C7 8094   2.658   1.492  16.904  0.4294 -0.3436  0.5631
  545TMC3    C8 8095   2.219   1.689  16.860 -0.3901  0.3226  0.0652
  545TMC3    O1 8096   2.654   1.488  16.782 -0.2135 -0.0806 -0.3981
  545TMC3    O2 8097   2.278   1.729  16.760 -0.2596  0.1976 -0.6993
  546MPD2     C 8098   3.965   2.647   0.037  0.3040  0.5939 -0.1844
  546MPD2    C1 8099   3.878   2.689  17.629 -0.5328 -1.0580  0.6731
  546MPD2    C2 8100   3.889   2.809  17.565  0.3934 -0.6566  0.4399
  546MPD2    C3 8101   3.989   2.896  17.605 -0.8582 -0.8094  0.0889
  546MPD2    C4 8102   4.067   2.862   0.023  0.4789 -0.5391 -0.0077
  546MPD2    C5 8103   4.052   2.737   0.079  0.2008 -0.2704  0.6818
  546MPD2     H 8104   3.828   2.840  17.480  2.1028  0.8200 -0.2553
  546MPD2    H1 8105   4.145   2.921   0.070  0.6048 -1.3465  0.8038
  546MPD2    H2 8106   3.967   2.547   0.077 -0.0508  0.4949 -0.4130
  546MPD2    H3 8107   4.135   2.704   0.140  1.0142 -1.2856 -0.9674
  546MPD2     N 8108   4.027   3.012  17.530 -0.7442 -0.3843  0.3062
  546MPD2    H5 8109   4.081   3.079  17.584 -0.5214 -0.8582  0.6678
  546MPD2    N1 8110   3.775   2.593  17.602  0.1054  0.1015  0.3269
  546MPD2    H7 8111   3.781   2.505  17.652  1.4063 -0.4381 -0.7861
  547TMC3    C1 8112   3.598   2.479  17.487 -1.2166  0.0165  0.4166
  547TMC3    C2 8113   3.584   2.420  17.364 -0.1176  0.5317  0.6908
  547TMC3    C3 8114   3.529   2.291  17.364 -0.5513 -0.3269  0.1694
  547TMC3    C4 8115   3.542   2.424  17.602  1.2157 -0.5991 -0.3502
  547TMC3    C5 8116   3.467   2.314  17.588  0.1995  0.3707  0.0849
  547TMC3    C6 8117   3.460   2.241  17.470  0.0941  0.6453 -0.5280
  547TMC3     C 8118   3.686   2.597  17.495  0.4960  0.3140 -0.6128
  547TMC3     O 8119   3.679   2.674  17.401 -0.1866 -0.1632  0.8305
  547TMC3     H 8120   3.633   2.460  17.276  0.2043  1.3989  1.2743
  547TMC3    H1 8121   3.544   2.480  17.695  0.4973 -1.3130  0.0919
  547TMC3    H2 8122   3.414   2.144  17.457  0.7516  0.3546 -0.6866
  547TMC3    C7 8123   3.394   2.262   0.011 -0.0495  1.1056  0.3986
  547TMC3    C8 8124   3.492   2.239  17.236  0.2506 -0.1477 -0.6315
  547TMC3    O1 8125   3.405   2.330   0.110  0.0930 -0.6550  0.3903
  547TMC3    O2 8126   3.402   2.160  17.224  0.0808 -0.0539  0.8017
  548MPD2     C 8127   3.429   3.858  12.667  0.3603  0.2463 -0.4227
  548MPD2    C1 8128   3.359   3.780  12.581 -0.6425 -0.3167 -0.4727
  548MPD2    C2 8129   3.422   3.684  12.502  0.4680 -0.0879 -0.4820
  548MPD2    C3 8130   3.561   3.680  12.504 -0.1590 -1.2359  0.3246
  548MPD2    C4 8131   3.628   3.750  12.601 -0.1956 -0.0270  0.1593
  548MPD2    C5 8132   3.564   3.831  12.682 -0.3975 -0.2862  0.2418
  548MPD2     H 8133   3.368   3.632  12.424  0.5002  0.2158 -0.7086
  548MPD2    H1 8134   3.734   3.728  12.611 -0.1860  0.9553  2.1515
  548MPD2    H2 8135   3.378   3.939  12.719  0.0323  0.1100 -0.5346
  548MPD2    H3 8136   3.624   3.888  12.752 -2.0148  0.5535  0.9478
  548MPD2     N 8137   3.641   3.607  12.414 -0.4736 -0.4491 -0.0528
  548MPD2    H5 8138   3.741   3.600  12.433 -0.5118 -3.8094 -1.0994
  548MPD2    N1 8139   3.221   3.809  12.564 -0.3954 -0.4700 -0.1118
  548MPD2    H7 8140   3.186   3.892  12.609 -0.0251 -1.6469  2.3299
  549TMC3    C1 8141   2.997   3.775  12.530  0.1049 -0.6654 -0.3090
  549TMC3    C2 8142   2.990   3.909  12.513  0.5362  0.3284  0.3243
  549TMC3    C3 8143   2.867   3.970  12.542  0.6821  0.3072 -0.2614
  549TMC3    C4 8144   2.890   3.696  12.558 -0.2892 -0.0107 -0.4371
  549TMC3    C5 8145   2.774   3.759  12.583  0.0828  0.5332  0.3517
  549TMC3    C6 8146   2.761   3.896  12.574  0.2394 -0.9239 -0.2295
  549TMC3     C 8147   3.132   3.715  12.518  0.0326  0.6541 -0.0543
  549TMC3     O 8148   3.156   3.595  12.511  0.3979 -0.5269 -0.5930
  549TMC3     H 8149   3.068   3.967  12.465 -0.9209 -0.2051 -2.6583
  549TMC3    H1 8150   2.911   3.590  12.553  1.9579  0.3566  1.1251
  549TMC3    H2 8151   2.662   3.936  12.592  0.2314 -0.8871 -0.3550
  549TMC3    C7 8152   2.660   3.672  12.622  0.4003 -0.4758  0.3852
  549TMC3    C8 8153   2.832   4.074  12.445  0.1732  0.5969  0.1910
  549TMC3    O1 8154   2.568   3.734  12.676 -0.9024  0.2166  0.0161
  549TMC3    O2 8155   2.715   4.077  12.412  0.0509  0.3579 -0.1271
  550TMC3    C1 8156   2.677   2.370  12.457 -0.5375 -0.3604 -0.2486
  550TMC3    C2 8157   2.630   2.399  12.582  0.1873 -0.0927 -0.4886
  550TMC3    C3 8158   2.513   2.478  12.586  0.0756 -0.4167  0.0236
  550TMC3    C4 8159   2.614   2.423  12.350  0.3568 -0.2874 -0.0407
  550TMC3    C5 8160   2.515   2.514  12.362  0.2952 -0.6103  0.8231
  550TMC3    C6 8161   2.453   2.540  12.479 -0.5262  0.2877 -0.2615
  550TMC3     C 8162   2.739   2.241  12.437  0.3715  0.2756  0.5659
  550TMC3     O 8163   2.777   2.184  12.538  0.2275 -0.6189  0.0771
  550TMC3     H 8164   2.670   2.358  12.674 -0.6301  0.4107  0.0876
  550TMC3    H1 8165   2.656   2.406  12.251  1.8673 -0.5703  0.6575
  550TMC3    H2 8166   2.355   2.585  12.491 -0.3372  1.1051 -1.8092
  550TMC3    C7 8167   2.432   2.491  12.253  0.0930  0.0344 -0.3551
  550TMC3    C8 8168   2.427   2.464  12.701 -1.1817 -0.7106  0.7101
  550TMC3    O1 8169   2.422   2.375  12.214 -0.0415 -0.2451  0.1424
  550TMC3    O2 8170   2.337   2.545  12.701 -0.1667  0.4009  0.5512
  551TMC3    C1 8171   4.392   4.012  13.196  0.4062  0.1742  0.4007
  551TMC3    C2 8172   4.473   4.112  13.216 -0.0486  0.6309  0.2106
  551TMC3    C3 8173   4.543   4.117  13.335 -0.2953  0.0768 -0.2034
  551TMC3    C4 8174   4.350   3.922  13.292 -0.4091 -0.0802  0.7712
  551TMC3    C5 8175   4.425   3.926  13.409 -0.4784  0.1369 -0.6122
  551TMC3    C6 8176   4.527   4.018  13.426  0.0597  0.5119 -0.1593
  551TMC3     C 8177   4.309   4.009  13.079  0.0367 -0.8648 -0.2092
  551TMC3     O 8178   4.312   4.109  13.002  0.3176 -0.0605  0.0412
  551TMC3     H 8179   4.502   4.182  13.138  0.6523 -1.6651 -1.5795
  551TMC3    H1 8180   4.286   3.836  13.274  1.2140 -1.1114 -0.0698
  551TMC3    H2 8181   4.590   4.017  13.515 -1.2523  2.0898  0.7888
  551TMC3    C7 8182   4.393   3.827  13.509  0.5014 -0.1596 -0.4661
  551TMC3    C8 8183   4.653   4.205  13.348 -0.6738  0.3208  0.2607
  551TMC3    O1 8184   4.338   3.725  13.474  0.1738 -0.3243 -0.2357
  551TMC3    O2 8185   0.009   4.162  13.428 -0.0839  0.0831 -0.6053
  552MPD2     C 8186   1.796   1.598  13.665  0.0740 -0.4044  0.4054
  552MPD2    C1 8187   1.911   1.622  13.593 -0.2143 -0.6000  1.0028
  552MPD2    C2 8188   2.029   1.653  13.667  0.0412  0.2159  0.3889
  552MPD2    C3 8189   2.036   1.639  13.807 -0.1130  0.3456 -0.1462
  552MPD2    C4 8190   1.916   1.603  13.870  0.8372  0.0290  0.1821
  552MPD2    C5 8191   1.801   1.584  13.802  0.0932 -0.5297 -0.2859
  552MPD2     H 8192   2.116   1.669  13.605  0.3058  0.4014  0.8039
  552MPD2    H1 8193   1.899   1.587  13.975  0.6239 -0.1387  0.1204
  552MPD2    H2 8194   1.698   1.572  13.627  0.4337 -2.5645  0.9282
  552MPD2    H3 8195   1.709   1.572  13.858  0.0318 -1.5714 -0.6007
  552MPD2     N 8196   2.156   1.655  13.884  0.1258  0.3737 -0.0324
  552MPD2    H5 8197   2.154   1.625  13.981 -0.2261  0.0346 -0.1433
  552MPD2    N1 8198   1.917   1.655  13.454  0.2345 -0.2128  0.1010
  552MPD2    H7 8199   2.005   1.690  13.417 -0.1114  1.3896  0.7991
  553TMC3    C1 8200   1.854   1.668  13.230  0.0907  0.3754 -0.5123
  553TMC3    C2 8201   1.869   1.545  13.160  0.2105 -0.1065  0.0696
  553TMC3    C3 8202   1.982   1.533  13.083  0.2129  0.1841 -0.1311
  553TMC3    C4 8203   1.947   1.768  13.235  0.2753 -0.1863  1.1260
  553TMC3    C5 8204   2.060   1.741  13.164 -0.2425  0.1402 -0.2746
  553TMC3    C6 8205   2.077   1.634  13.082  0.3647  0.2892  0.5003
  553TMC3     C 8206   1.813   1.637  13.367 -1.3133 -0.0362  0.5612
  553TMC3     O 8207   1.716   1.573  13.387 -0.1077  0.0566 -0.2015
  553TMC3     H 8208   1.797   1.465  13.167 -0.6328  0.4716 -2.3040
  553TMC3    H1 8209   1.935   1.856  13.297  2.2356 -0.3628  1.7788
  553TMC3    H2 8210   2.172   1.619  13.033  0.1791  1.8184 -0.3315
  553TMC3    C7 8211   2.180   1.786  13.237  0.0228  0.3075  0.0064
  553TMC3    C8 8212   1.998   1.434  12.979  0.1749  0.1136 -0.0848
  553TMC3    O1 8213   2.188   1.905  13.271  0.1219  0.4222 -0.0816
  553TMC3    O2 8214   2.090   1.450  12.904 -0.1541  0.8769 -0.4071
  554TMC3    C1 8215   3.498   1.036  11.612  0.2618 -0.8646  0.2161
  554TMC3    C2 8216   3.404   1.011  11.515 -0.0203 -0.1825  0.6822
  554TMC3    C3 8217   3.437   1.048  11.388  0.3179  0.0589 -0.6518
  554TMC3    C4 8218   3.623   1.084  11.591  0.4054  0.2341 -0.2923
  554TMC3    C5 8219   3.651   1.110  11.461  0.1878  0.5338  1.3668
  554TMC3    C6 8220   3.566   1.097  11.359 -0.6005 -0.1881  0.4118
  554TMC3     C 8221   3.464   0.963  11.733  0.4545 -0.6250  0.2476
  554TMC3     O 8222   3.350   0.959  11.773  0.1067  0.4431  0.1008
  554TMC3     H 8223   3.299   0.987  11.529 -0.4330  1.1196 -0.1715
  554TMC3    H1 8224   3.689   1.105  11.675 -1.2647  0.9871  0.8205
  554TMC3    H2 8225   3.598   1.121  11.258  1.4178  0.4331  1.1949
  554TMC3    C7 8226   3.783   1.167  11.446 -0.4221  0.7245 -0.5489
  554TMC3    C8 8227   3.375   0.988  11.275 -0.6741  0.2280  0.2557
  554TMC3    O1 8228   3.834   1.233  11.531 -0.2825  0.1165  0.1821
  554TMC3    O2 8229   3.455   0.977  11.184 -0.0582 -0.7193  0.6314
  555TMC3    C1 8230   2.797   4.590  15.109  0.6548  0.2491  0.0489
  555TMC3    C2 8231   2.837   4.710  15.161  0.3836 -0.3713 -0.2256
  555TMC3    C3 8232   2.878   4.704  15.293 -0.8101 -0.0828  0.3401
  555TMC3    C4 8233   2.815   4.468  15.170  0.6169  0.1730 -0.4518
  555TMC3    C5 8234   2.859   4.468  15.298 -0.5759  0.0529  1.3215
  555TMC3    C6 8235   2.898   4.585  15.359  0.4157  0.5028  0.1800
  555TMC3     C 8236   2.752   4.586  14.973  0.2672  0.0754 -0.0367
  555TMC3     O 8237   2.766   4.474  14.919 -0.2517 -0.1515 -0.7196
  555TMC3     H 8238   2.856   0.077  15.103 -0.7870 -0.4950 -0.7943
  555TMC3    H1 8239   2.776   4.376  15.129 -0.6892  0.9107 -0.8478
  555TMC3    H2 8240   2.923   4.582  15.464 -0.6373  0.7498  0.4366
  555TMC3    C7 8241   2.858   4.340  15.368  0.9807  0.0608 -0.3067
  555TMC3    C8 8242   2.946   0.095  15.346 -0.0732  0.5133  0.2668
  555TMC3    O1 8243   2.786   4.256  15.322  0.5831 -0.0018 -0.2367
  555TMC3    O2 8244   2.906   0.198  15.298 -0.6117  0.0013 -0.4693
  556MPD2     C 8245   0.593   2.112  10.509  0.5629 -0.3815 -0.4387
  556MPD2    C1 8246   0.646   2.010  10.590 -0.3359 -0.5359 -0.3579
  556MPD2    C2 8247   0.650   1.888  10.527 -0.3100  0.6904  0.2502
  556MPD2    C3 8248   0.638   1.866  10.391  0.1107  0.2919 -0.9774
  556MPD2    C4 8249   0.597   1.974  10.311 -0.3482  0.5493  0.2335
  556MPD2    C5 8250   0.572   2.097  10.378 -0.1094 -0.2448  0.1312
  556MPD2     H 8251   0.696   1.812  10.589 -0.9791  0.3525  0.3282
  556MPD2    H1 8252   0.586   1.964  10.204  1.3338  0.7965  0.0398
  556MPD2    H2 8253   0.555   2.203  10.556 -0.2641 -0.5667 -0.7528
  556MPD2    H3 8254   0.534   2.185  10.327 -0.3843 -1.0017 -0.9776
  556MPD2     N 8255   0.677   1.738  10.343 -0.6837  0.5445  0.0064
  556MPD2    H5 8256   0.698   1.672  10.417  0.1398  2.1939  1.2506
  556MPD2    N1 8257   0.660   2.017  10.732  0.0182  0.9147 -0.7982
  556MPD2    H7 8258   0.667   1.924  10.771  1.1510  0.3217 -2.4206
  557TMC3    C1 8259   0.763   1.586  10.195  0.3643 -1.0215 -0.3653
  557TMC3    C2 8260   0.744   1.533  10.072  0.0776 -0.0269 -0.0233
  557TMC3    C3 8261   0.792   1.408  10.049  0.0065  0.8721 -0.4309
  557TMC3    C4 8262   0.838   1.516  10.283 -0.3902  0.4951 -0.3475
  557TMC3    C5 8263   0.876   1.384  10.265  0.1224 -0.8010  0.0270
  557TMC3    C6 8264   0.860   1.332  10.140  0.5632  0.1185 -0.7640
  557TMC3     C 8265   0.709   1.716  10.215 -0.2445 -0.0058 -0.4016
  557TMC3     O 8266   0.692   1.779  10.109 -0.6502  0.5001 -0.7943
  557TMC3     H 8267   0.687   1.588   9.998  0.1909  0.8194  0.5158
  557TMC3    H1 8268   0.861   1.579  10.368  2.1639 -0.1505 -0.5682
  557TMC3    H2 8269   0.922   1.245  10.123 -1.1433 -2.3659  5.5779
  557TMC3    C7 8270   0.939   1.305  10.373  0.6723  0.0833 -0.3152
  557TMC3    C8 8271   0.774   1.366   9.907  0.4090  0.0613  0.1074
  557TMC3    O1 8272   0.991   1.199  10.347  0.6911  0.0084  0.1164
  557TMC3    O2 8273   0.728   1.449   9.829  0.0973 -0.1409  0.4273
  558TMC3    C1 8274   3.340   0.064  10.194  0.3927 -0.1047  0.1872
  558TMC3    C2 8275   3.242   4.703  10.245 -0.3948  0.0909 -0.0631
  558TMC3    C3 8276   3.128   4.674  10.170  0.8067 -0.3536  0.6984
  558TMC3    C4 8277   3.334   0.113  10.066  0.2918 -0.3416  0.0744
  558TMC3    C5 8278   3.225   0.071   9.990 -0.3911 -0.5501 -0.0788
  558TMC3    C6 8279   3.120   0.005  10.047 -0.0669  0.3184 -0.7255
  558TMC3     C 8280   3.473   0.038  10.256 -0.2336  0.5715  0.1517
  558TMC3     O 8281   3.561   0.030  10.178  0.1463 -0.2617  0.0863
  558TMC3     H 8282   3.253   4.649  10.338 -0.3406  1.3414  0.6422
  558TMC3    H1 8283   3.412   0.170  10.018 -0.4692  1.8980  1.4835
  558TMC3    H2 8284   3.023   4.723   9.999  0.1955 -1.8432 -1.0191
  558TMC3    C7 8285   3.231   0.078   9.847  0.3663  0.0799 -0.4707
  558TMC3    C8 8286   3.032   4.580  10.217  0.1099 -0.6398  0.0018
  558TMC3    O1 8287   3.297   0.172   9.799  0.1955 -0.5282 -0.4056
  558TMC3    O2 8288   2.943   4.562  10.132 -0.0985 -0.2765 -0.1958
  559MPD2     C 8289   3.303   0.437  10.317  0.3979  0.0009 -0.4930
  559MPD2    C1 8290   3.252   0.397  10.443  0.2261  0.3993  0.4075
  559MPD2    C2 8291   3.338   0.359  10.546  0.2988 -0.1514 -0.2570
  559MPD2    C3 8292   3.472   0.345  10.520 -0.7909 -0.0028  0.7794
  559MPD2    C4 8293   3.525   0.367  10.393 -0.3261  0.2202  0.0812
  559MPD2    C5 8294   3.436   0.424  10.300  0.2252  0.2909  0.3497
  559MPD2     H 8295   3.310   0.348  10.650 -0.4179  0.6294 -0.3643
  559MPD2    H1 8296   3.633   0.356  10.386 -0.0670  1.0756  2.6064
  559MPD2    H2 8297   3.240   0.468  10.235  0.1041  2.2189  0.5436
  559MPD2    H3 8298   3.491   0.462  10.214  4.6604 -0.7139  2.7420
  559MPD2     N 8299   3.544   0.281  10.630 -0.7876 -0.3282 -0.2815
  559MPD2    H5 8300   3.504   0.268  10.722  0.7640  0.0395  0.4356
  559MPD2    N1 8301   3.116   0.409  10.465 -0.0776  0.2569 -0.1553
  559MPD2    H7 8302   3.060   0.414  10.381  0.8352 -0.7985 -0.8178
  560TMC3    C1 8303   3.726   0.200  10.741  0.1073 -0.8749 -0.0430
  560TMC3    C2 8304   3.643   0.105  10.800  0.8733 -0.4891  0.6734
  560TMC3    C3 8305   3.703   0.037  10.903 -0.4574 -0.7130 -0.2595
  560TMC3    C4 8306   3.846   0.244  10.789  0.1014  0.1388  0.3360
  560TMC3    C5 8307   3.879   0.193  10.911  0.3933 -0.1155  0.1888
  560TMC3    C6 8308   3.820   0.079  10.959 -1.2451  0.3651 -0.0883
  560TMC3     C 8309   3.681   0.261  10.624  0.1394  1.0885  0.0213
  560TMC3     O 8310   3.770   0.290  10.540 -0.1509  1.0139  0.1520
  560TMC3     H 8311   3.567   0.060  10.738  2.7499 -0.6904 -1.4582
  560TMC3    H1 8312   3.900   0.322  10.735 -3.1895  1.1535 -1.4910
  560TMC3    H2 8313   3.857   0.015  11.039  0.0996 -0.8328 -1.6693
  560TMC3    C7 8314   3.989   0.255  10.984  0.0007  0.8684  0.4853
  560TMC3    C8 8315   3.656   4.626  10.924  0.3977  0.8155  0.3138
  560TMC3    O1 8316   4.031   0.351  10.925  0.2915  0.3729 -0.0280
  560TMC3    O2 8317   3.540   4.598  10.906 -0.5843 -0.2581  0.0693
  561TMC3    C1 8318   1.241   3.722  11.017 -0.2244 -0.9683 -0.3284
  561TMC3    C2 8319   1.160   3.651  11.103  0.6917 -0.1239  0.3091
  561TMC3    C3 8320   1.140   3.695  11.230 -0.3105  0.1431 -0.7240
  561TMC3    C4 8321   1.299   3.836  11.059  0.4638 -0.4177 -0.3066
  561TMC3    C5 8322   1.265   3.875  11.190 -0.9923 -0.3470  0.2198
  561TMC3    C6 8323   1.191   3.808  11.280 -0.7345  0.4381 -0.1415
  561TMC3     C 8324   1.262   3.666  10.880  0.5154  0.0765  0.0239
  561TMC3     O 8325   1.168   3.595  10.841  0.0324  0.4404  0.3190
  561TMC3     H 8326   1.116   3.560  11.065  2.1032  0.0118 -1.6223
  561TMC3    H1 8327   1.373   3.884  10.995  1.8605  0.1862  1.7469
  561TMC3    H2 8328   1.191   3.846  11.381  1.1649 -0.1189  0.0478
  561TMC3    C7 8329   1.333   3.984  11.252  0.2336  0.4962 -0.3906
  561TMC3    C8 8330   1.082   3.598  11.319 -0.1207  0.0220 -0.8511
  561TMC3    O1 8331   1.366   3.975  11.367  0.1903 -0.4422  0.3801
  561TMC3    O2 8332   1.062   3.483  11.284 -0.1067 -0.3385  0.1309
  562TMC3    C1 8333   2.365   0.137  15.603 -0.3499  0.6275  0.1278
  562TMC3    C2 8334   2.415   0.203  15.492 -1.0903  0.1676  0.6638
  562TMC3    C3 8335   2.446   0.129  15.380 -0.3201  0.9962 -0.6299
  562TMC3    C4 8336   2.369   4.723  15.606 -0.4509  0.8086 -0.0859
  562TMC3    C5 8337   2.424   4.651  15.504  0.0477  0.2841  0.5957
  562TMC3    C6 8338   2.464   4.717  15.394  0.0239  0.0721  0.0384
  562TMC3     C 8339   2.346   0.215  15.726  0.1390  0.1698 -0.5060
  562TMC3     O 8340   2.371   0.159  15.830 -0.4606  0.7551 -0.2485
  562TMC3     H 8341   2.406   0.311  15.491  0.0868  0.3206  5.2045
  562TMC3    H1 8342   2.330   4.673  15.694  2.5014  0.5904  1.1049
  562TMC3    H2 8343   2.510   4.665  15.311 -1.7520  2.7422 -2.6306
  562TMC3    C7 8344   2.458   4.509  15.512 -0.7983 -0.1284 -0.1627
  562TMC3    C8 8345   2.508   0.185  15.263  0.1800  0.0185  0.5130
  562TMC3    O1 8346   2.494   4.460  15.408  0.0119 -0.3038 -0.1444
  562TMC3    O2 8347   2.555   0.113  15.172  0.3581  0.4502 -0.4766
  563MPD2     C 8348   4.714   1.065  15.722  0.0016  0.6233  0.0049
  563MPD2    C1 8349   0.040   1.184  15.786 -0.0312  0.7103 -0.1865
  563MPD2    C2 8350   0.166   1.178  15.852  0.9216 -0.3014  0.4607
  563MPD2    C3 8351   0.233   1.057  15.867 -0.2115  0.0358  0.3628
  563MPD2    C4 8352   0.185   0.946  15.810 -0.2465  0.1209  0.2776
  563MPD2    C5 8353   0.068   0.951  15.739  0.0513 -0.1326  0.6989
  563MPD2     H 8354   0.202   1.263  15.907  0.8383 -0.3605  0.6063
  563MPD2    H1 8355   0.226   0.846  15.819  0.0488  0.1424 -0.8700
  563MPD2    H2 8356   4.630   1.059  15.653 -0.1227  0.9297  0.1346
  563MPD2    H3 8357   0.019   0.865  15.695 -1.6160  1.2858 -0.1839
  563MPD2     N 8358   0.348   1.056  15.940  0.0573 -0.4941  0.1933
  563MPD2    H5 8359   0.373   1.149  15.975 -0.4142  0.3941 -1.8665
  563MPD2    N1 8360   4.681   1.306  15.780  0.5019 -0.1518  0.3743
  563MPD2    H7 8361   4.583   1.286  15.767  0.4079  0.7384 -0.2647
  564TMC3    C1 8362   4.659   1.483  15.926  0.2121 -0.6306 -0.2071
  564TMC3    C2 8363   4.529   1.444  15.938 -0.3294  0.6673 -0.2113
  564TMC3    C3 8364   4.489   1.397  16.065  0.0434  0.0831  0.5622
  564TMC3    C4 8365   0.015   1.472  16.039 -0.0615 -0.1721  0.6631
  564TMC3    C5 8366   4.702   1.418  16.162 -0.0393 -0.0216  0.4764
  564TMC3    C6 8367   4.572   1.393  16.176 -0.5343  0.7580  0.1527
  564TMC3     C 8368   0.008   1.432  15.810  0.5144 -0.9441  0.3373
  564TMC3     O 8369   0.124   1.462  15.792  0.0752 -0.8348  0.5685
  564TMC3     H 8370   4.457   1.455  15.859  0.5882 -0.0177 -1.1380
  564TMC3    H1 8371   0.121   1.475  16.017  0.0808 -0.5943  1.2947
  564TMC3    H2 8372   4.535   1.356  16.272 -0.0418 -1.0968 -0.3681
  564TMC3    C7 8373   0.071   1.311  16.204  0.5189 -0.0244 -0.2954
  564TMC3    C8 8374   4.414   1.272  16.061  0.1625 -0.3219  0.2471
  564TMC3    O1 8375   0.191   1.323  16.217 -0.4468  0.2183 -0.1419
  564TMC3    O2 8376   4.442   1.181  16.145  0.3785 -0.2714 -0.1981
  565TMC3    C1 8377   0.634   2.722   9.788  0.8576 -0.3998  0.0112
  565TMC3    C2 8378   0.562   2.656   9.880  0.1976 -0.2137 -0.0729
  565TMC3    C3 8379   0.470   2.574   9.841  0.8962  0.4936 -0.2212
  565TMC3    C4 8380   0.599   2.722   9.655 -0.5468  0.2805 -0.0990
  565TMC3    C5 8381   0.505   2.627   9.623 -0.3250 -0.1273  0.2677
  565TMC3    C6 8382   0.451   2.543   9.711 -0.0692 -0.1332 -0.4493
  565TMC3     C 8383   0.750   2.807   9.808  0.3765 -0.2444 -0.7031
  565TMC3     O 8384   0.796   2.879   9.717 -0.3069  0.7625 -0.2996
  565TMC3     H 8385   0.588   2.658   9.985  0.4212  0.8571 -0.1521
  565TMC3    H1 8386   0.654   2.777   9.579  0.0429  1.9227  1.4995
  565TMC3    H2 8387   0.354   2.498   9.695  0.0322 -0.9084  1.1357
  565TMC3    C7 8388   0.472   2.615   9.480  0.1292 -0.3118 -0.1882
  565TMC3    C8 8389   0.423   2.481   9.942  0.2610 -0.0986  0.3458
  565TMC3    O1 8390   0.531   2.690   9.404 -0.3309 -0.2084  0.1073
  565TMC3    O2 8391   0.401   2.520  10.058 -0.2424 -0.1796  0.1442
  566MPD2     C 8392   2.056   0.014  14.242 -1.0113  0.4873  0.1232
  566MPD2    C1 8393   2.129   4.721  14.129  0.1701  0.3685  0.5749
  566MPD2    C2 8394   2.066   4.664  14.017  0.5806  0.6173 -0.1397
  566MPD2    C3 8395   1.934   4.630  14.019 -0.3230 -0.4006 -0.1292
  566MPD2    C4 8396   1.857   4.661  14.133  0.4332  0.1636 -0.1413
  566MPD2    C5 8397   1.919   4.717  14.240  0.0250  0.1598  0.6471
  566MPD2     H 8398   2.127   4.637  13.931  1.6058  0.5111  0.6239
  566MPD2    H1 8399   1.753   4.630  14.125  1.1369 -2.6688  2.1772
  566MPD2    H2 8400   2.100   0.044  14.337 -1.4421 -0.0199  0.4774
  566MPD2    H3 8401   1.865   0.012  14.333  0.9792  0.1601  1.2064
  566MPD2     N 8402   1.871   4.559  13.918 -0.0403  0.4654 -0.0312
  566MPD2    H5 8403   1.770   4.560  13.925  0.0089  1.5272  0.5548
  566MPD2    N1 8404   2.266   0.024  14.135  0.1561  0.6657 -0.1930
  566MPD2    H7 8405   2.311   0.029  14.225 -0.1047 -1.0057  0.0321
  567TMC3    C1 8406   2.488   0.033  14.041 -0.0149  0.2073 -0.6918
  567TMC3    C2 8407   2.568   0.119  13.976  0.1101 -0.0328  0.5455
  567TMC3    C3 8408   2.701   0.092  13.953  0.1069 -1.0662 -0.4965
  567TMC3    C4 8409   2.542   4.650  14.100  0.0036 -0.4630  0.0627
  567TMC3    C5 8410   2.679   4.619  14.075 -1.0363 -0.1480  0.1969
  567TMC3    C6 8411   2.758   4.706  14.006 -0.1441 -0.4346  0.6931
  567TMC3     C 8412   2.342   0.028  14.017  0.8040  0.1752  0.2098
  567TMC3     O 8413   2.313   0.060  13.906 -0.5213  0.7808  0.4432
  567TMC3     H 8414   2.518   0.198  13.921  1.7554  0.2240 -0.6179
  567TMC3    H1 8415   2.466   4.582  14.135  1.0177 -0.7534  1.6726
  567TMC3    H2 8416   2.852   4.672  13.964  0.1394  0.1148  0.8968
  567TMC3    C7 8417   2.746   4.525  14.166 -0.5162 -0.7929  0.3413
  567TMC3    C8 8418   2.751   0.154  13.833 -0.0071  0.2052  0.1925
  567TMC3    O1 8419   2.869   4.501  14.156  0.1792  0.6046 -0.2439
  567TMC3    O2 8420   2.710   0.266  13.808  0.2565 -0.1488 -0.3651
  568MPD2     C 8421   0.437   0.204  16.181 -0.0903 -0.2052  0.0436
  568MPD2    C1 8422   0.332   0.157  16.248  0.4484 -0.6885  0.9837
  568MPD2    C2 8423   0.203   0.193  16.211  0.1595  0.2432 -0.3780
  568MPD2    C3 8424   0.183   0.280  16.107 -0.0099  0.2583  0.5279
  568MPD2    C4 8425   0.288   0.327  16.033  0.2194 -0.5208 -0.4238
  568MPD2    C5 8426   0.415   0.280  16.070 -0.3321 -0.1675 -0.4255
  568MPD2     H 8427   0.121   0.156  16.271 -0.1301  0.9359 -0.3505
  568MPD2    H1 8428   0.271   0.393  15.949  0.5647  0.6093  0.4052
  568MPD2    H2 8429   0.535   0.162  16.199  0.2881  1.0274  0.8387
  568MPD2    H3 8430   0.502   0.307  16.012  0.0227 -0.8861 -0.2168
  568MPD2     N 8431   0.051   0.332  16.094 -0.4511 -0.0498 -0.4879
  568MPD2    H5 8432   4.701   0.306  16.158  0.9845  0.2800  1.3042
  568MPD2    N1 8433   0.364   0.086  16.371 -0.2030  0.6210  0.0438
  568MPD2    H7 8434   0.456   0.043  16.377 -0.4266  0.0493 -0.6834
  569TMC3    C1 8435   4.607   0.484  16.086  0.8662  0.2445 -0.7494
  569TMC3    C2 8436   4.590   0.478  16.220  1.3084  0.5519 -0.3155
  569TMC3    C3 8437   4.478   0.539  16.271 -0.2256  0.2648 -1.4427
  569TMC3    C4 8438   4.519   0.545  16.009  0.0414  0.3385 -0.2485
  569TMC3    C5 8439   4.407   0.603  16.059  0.7328  0.3697  0.1718
  569TMC3    C6 8440   4.385   0.597  16.191  0.8416 -0.6033 -0.1240
  569TMC3     C 8441   0.001   0.439  16.024  1.4015 -0.6694 -0.3615
  569TMC3     O 8442   0.053   0.507  15.939 -0.0128 -0.1378  0.0413
  569TMC3     H 8443   4.662   0.439  16.291  0.0432  1.0385  1.2273
  569TMC3    H1 8444   4.540   0.540  15.902 -1.3683 -1.1819 -0.4613
  569TMC3    H2 8445   4.291   0.633  16.232  1.5792  0.5645  0.5570
  569TMC3    C7 8446   4.397   0.741  16.031 -0.2558  0.6963  0.1279
  569TMC3    C8 8447   4.508   0.624  16.391  0.3259 -0.0621  0.1403
  569TMC3    O1 8448   4.353   0.811  16.122  0.3269  0.5578 -0.0023
  569TMC3    O2 8449   4.578   0.575  16.480 -0.1075 -0.4218  0.4169
  570TMC3    C1 8450   4.120   3.519  16.422  0.1917  0.0821 -0.1422
  570TMC3    C2 8451   4.190   3.529  16.302  0.0244  0.3572 -0.3629
  570TMC3    C3 8452   4.235   3.658  16.269 -0.0389  0.0613  0.1239
  570TMC3    C4 8453   4.062   3.634  16.491  0.2997  0.3696 -0.1640
  570TMC3    C5 8454   4.089   3.753  16.431 -0.0196 -0.2974 -0.0664
  570TMC3    C6 8455   4.178   3.768  16.330 -0.0804  0.2704  0.1018
  570TMC3     C 8456   4.079   3.388  16.466  0.2166 -0.5471 -0.0088
  570TMC3     O 8457   4.084   3.301  16.377 -0.1958  0.1959 -0.3457
  570TMC3     H 8458   4.246   3.446  16.262  0.1704 -0.1047  0.7948
  570TMC3    H1 8459   3.993   3.628  16.575  1.3034  2.0652  0.7712
  570TMC3    H2 8460   4.208   3.864  16.289 -2.1137  0.1148 -1.7721
  570TMC3    C7 8461   4.051   3.871  16.502  0.1000 -0.3043  0.2815
  570TMC3    C8 8462   4.324   3.690  16.151 -0.1851 -0.3244  0.3643
  570TMC3    O1 8463   4.029   3.871  16.621  0.3252 -0.6355 -0.7272
  570TMC3    O2 8464   4.389   3.792  16.152 -0.0784 -0.2253 -0.5732
  571MPD2     C 8465   2.863   0.201  17.417  0.5149  0.1122 -0.3683
  571MPD2    C1 8466   2.789   0.282  17.329  0.0588  0.6901  0.8526
  571MPD2    C2 8467   2.693   0.360  17.386 -0.1000  0.3657  0.9368
  571MPD2    C3 8468   2.662   0.360  17.523 -0.0637 -0.4807 -0.5030
  571MPD2    C4 8469   2.741   0.284  17.604 -0.1687  0.8034 -0.0405
  571MPD2    C5 8470   2.844   0.216  17.552  0.6236  0.0365 -0.0859
  571MPD2     H 8471   2.649   0.435  17.320  0.2185  0.4293  0.7989
  571MPD2    H1 8472   2.728   0.286   0.015 -0.5417  0.9303 -0.0879
  571MPD2    H2 8473   2.953   0.152  17.384 -0.6106 -2.3053  0.1630
  571MPD2    H3 8474   2.914   0.175  17.624  0.3952 -1.3554 -0.6497
  571MPD2     N 8475   2.550   0.425  17.578 -0.5090  0.1419 -0.0495
  571MPD2    H5 8476   2.547   0.430  17.679 -1.0047 -2.0363  0.0364
  571MPD2    N1 8477   2.833   0.291  17.201  0.1526  0.3350 -0.0325
  571MPD2    H7 8478   2.907   0.231  17.164  0.4950 -0.3752  1.7742
  572TMC3    C1 8479   2.350   0.557  17.570 -0.2640  0.2295 -0.0274
  572TMC3    C2 8480   2.397   0.621  17.681 -0.2983  0.3655 -0.2648
  572TMC3    C3 8481   2.320   0.730   0.023  0.4941  0.4564 -0.0413
  572TMC3    C4 8482   2.228   0.573  17.506 -0.9710 -0.0705 -0.4586
  572TMC3    C5 8483   2.166   0.690  17.545 -0.0407 -0.9471 -0.9513
  572TMC3    C6 8484   2.214   0.773  17.645  0.1259 -0.8117 -0.4523
  572TMC3     C 8485   2.453   0.478  17.495 -0.4282 -0.1448  0.7205
  572TMC3     O 8486   2.417   0.449  17.380  0.0623  0.1562  0.2937
  572TMC3     H 8487   2.491   0.601   0.035 -0.1252  0.6578 -0.4742
  572TMC3    H1 8488   2.196   0.530  17.413  0.9997  0.2777 -1.2932
  572TMC3    H2 8489   2.166   0.866  17.675  1.9498 -0.5513  1.6389
  572TMC3    C7 8490   2.047   0.731  17.473  0.2842 -0.3267 -0.2495
  572TMC3    C8 8491   2.385   0.806   0.124 -0.6064 -0.3895  0.3314
  572TMC3    O1 8492   2.021   0.850  17.487 -0.3420  0.1181 -0.8990
  572TMC3    O2 8493   2.509   0.800   0.126 -0.3075  0.0057 -0.4580
  573MPD2     C 8494   3.396   1.199   0.345 -0.3333 -0.3490 -0.0557
  573MPD2    C1 8495   3.296   1.185   0.253 -0.5867 -0.3609 -0.1875
  573MPD2    C2 8496   3.330   1.187   0.118  0.1180 -0.2707 -0.2476
  573MPD2    C3 8497   3.453   1.228   0.073 -0.2838 -0.4713 -0.5998
  573MPD2    C4 8498   3.546   1.259   0.168  0.2396  0.0489 -0.8131
  573MPD2    C5 8499   3.519   1.238   0.302  0.4773 -0.0558 -0.7277
  573MPD2     H 8500   3.260   1.151   0.044 -2.0812  1.8173  0.8282
  573MPD2    H1 8501   3.650   1.278   0.141  0.4177  2.2675  1.4454
  573MPD2    H2 8502   3.387   1.199   0.453  1.3998 -0.8145  0.0833
  573MPD2    H3 8503   3.604   1.255   0.367  0.8586  3.6630 -2.1803
  573MPD2     N 8504   3.491   1.256  17.639 -0.0383  0.4088  0.3659
  573MPD2    H5 8505   3.586   1.289  17.625  1.0251 -2.6080  0.5340
  573MPD2    N1 8506   3.161   1.160   0.294  0.5114  0.4133  0.0494
  573MPD2    H7 8507   3.147   1.182   0.393  0.3780  0.5281  0.0058
  574TMC3    C1 8508   3.488   1.334  17.418  0.0584  0.4121  0.8546
  574TMC3    C2 8509   3.409   1.361  17.308  0.4710 -0.4106  0.3281
  574TMC3    C3 8510   3.450   1.452  17.210 -0.3328  0.4123  0.4337
  574TMC3    C4 8511   3.593   1.414  17.437  0.5858 -0.2786 -0.1896
  574TMC3    C5 8512   3.630   1.509  17.345 -0.8077 -0.0904  0.8366
  574TMC3    C6 8513   3.565   1.526  17.223  0.2182  0.0778 -0.7337
  574TMC3     C 8514   3.412   1.267  17.526  0.4162  0.5446 -0.0383
  574TMC3     O 8515   3.290   1.255  17.520 -0.5209 -0.0323 -0.0762
  574TMC3     H 8516   3.312   1.313  17.298  1.1478 -1.2587 -1.9501
  574TMC3    H1 8517   3.648   1.406  17.530 -1.3610  0.4579  1.0230
  574TMC3    H2 8518   3.584   1.600  17.147 -1.3900 -0.2754 -1.4854
  574TMC3    C7 8519   3.703   1.626  17.393 -0.0723 -0.0542  0.0815
  574TMC3    C8 8520   3.378   1.456  17.082  0.2651 -0.1602  0.1244
  574TMC3    O1 8521   3.760   1.612  17.501  0.8374 -0.1028 -0.0937
  574TMC3    O2 8522   3.446   1.422  16.986 -0.0983 -0.0302  0.1252
  575TMC3    C1 8523   0.272   2.194  10.710  1.1583 -0.2893 -0.1927
  575TMC3    C2 8524   0.307   2.070  10.759 -0.4344 -0.1610 -0.3237
  575TMC3    C3 8525   0.314   1.972  10.660 -0.4508  0.7090 -0.0934
  575TMC3    C4 8526   0.246   2.223  10.578 -0.5446  1.2027 -0.0211
  575TMC3    C5 8527   0.246   2.119  10.485 -0.7432  0.0200 -0.2553
  575TMC3    C6 8528   0.285   1.993  10.525  0.2694 -0.7241  0.0129
  575TMC3     C 8529   0.321   2.308  10.788 -0.0210 -0.5993  0.1061
  575TMC3     O 8530   0.302   2.416  10.740  0.5394  0.3393 -0.0269
  575TMC3     H 8531   0.322   2.037  10.862 -0.8568  0.4201 -0.0738
  575TMC3    H1 8532   0.218   2.324  10.552 -0.2579  1.0426 -0.9458
  575TMC3    H2 8533   0.298   1.920  10.445 -2.1716 -1.8591  0.6619
  575TMC3    C7 8534   0.250   2.168  10.349  0.1583 -0.0223 -0.1678
  575TMC3    C8 8535   0.363   1.847  10.705 -0.1910 -0.4018  0.0860
  575TMC3    O1 8536   0.237   2.286  10.328 -0.4623  0.0002  0.2181
  575TMC3    O2 8537   0.404   1.830  10.818  0.4490 -0.5462 -0.2529
  576MPD2     C 8538   0.393   3.898  12.601 -0.0834 -0.5608 -0.0972
  576MPD2    C1 8539   0.390   4.008  12.518 -0.2035  0.2367 -0.6988
  576MPD2    C2 8540   0.341   4.125  12.580  0.2556  0.1476 -0.2344
  576MPD2    C3 8541   0.274   4.131  12.700 -0.0222  0.0676  0.4358
  576MPD2    C4 8542   0.272   4.012  12.768 -0.1531  0.6931  0.5330
  576MPD2    C5 8543   0.335   3.899  12.723  0.5214 -0.0184 -0.2334
  576MPD2     H 8544   0.340   4.217  12.523  0.4172  1.4578  1.8743
  576MPD2    H1 8545   0.207   4.011  12.854 -1.8627  1.3926 -0.7613
  576MPD2    H2 8546   0.421   3.797  12.573  0.5261 -0.8413  1.5568
  576MPD2    H3 8547   0.332   3.816  12.793  0.5282 -0.3068 -0.5796
  576MPD2     N 8548   0.197   4.244  12.732 -0.2403 -0.4397 -0.1521
  576MPD2    H5 8549   0.200   4.319  12.663  0.0151 -0.2229  0.0935
  576MPD2    N1 8550   0.415   3.999  12.378  0.1525  0.2785 -0.2371
  576MPD2    H7 8551   0.409   4.082  12.319 -1.3420 -0.5469 -1.2620
  577TMC3    C1 8552   0.503   3.901  12.174  0.2650  0.5090 -0.6734
  577TMC3    C2 8553   0.561   3.794  12.108  0.2184 -0.4744 -0.4407
  577TMC3    C3 8554   0.625   3.806  11.988 -0.7130 -0.9674 -0.1671
  577TMC3    C4 8555   0.501   4.024  12.106 -0.6032 -0.0513  0.1359
  577TMC3    C5 8556   0.557   4.031  11.985  0.6080 -0.1480 -0.3115
  577TMC3    C6 8557   0.625   3.928  11.922  0.3246  0.0575 -0.2061
  577TMC3     C 8558   0.459   3.883  12.312 -0.4972  0.1961 -0.2268
  577TMC3     O 8559   0.483   3.770  12.354 -0.3077  0.5177 -0.0594
  577TMC3     H 8560   0.557   3.699  12.159 -0.2912 -0.2789 -0.1049
  577TMC3    H1 8561   0.482   4.117  12.158  1.3239 -0.4729  1.5991
  577TMC3    H2 8562   0.637   3.932  11.815  1.9809  1.6757  0.0371
  577TMC3    C7 8563   0.594   4.155  11.916  0.1549 -1.0058  0.4028
  577TMC3    C8 8564   0.685   3.692  11.922  0.2937  0.2418 -0.8913
  577TMC3    O1 8565   0.711   4.177  11.892  0.1561  0.2716 -0.4466
  577TMC3    O2 8566   0.659   3.585  11.982 -0.0719 -0.2995 -0.2141
  578MPD2     C 8567   4.079   4.147   1.015 -0.8919 -1.0362  0.0313
  578MPD2    C1 8568   4.196   4.119   1.080 -0.2327  0.1776 -0.0153
  578MPD2    C2 8569   4.215   3.983   1.106 -0.6244 -0.4744 -0.3142
  578MPD2    C3 8570   4.130   3.889   1.057  0.1898  0.8032 -0.4172
  578MPD2    C4 8571   4.016   3.925   0.994 -0.2260  0.5682 -0.0919
  578MPD2    C5 8572   3.983   4.059   0.984  0.9282 -0.2517 -0.2099
  578MPD2     H 8573   4.312   3.940   1.127 -0.9494 -0.9705  0.1636
  578MPD2    H1 8574   3.944   3.846   0.976  0.1243  0.6036 -1.6142
  578MPD2    H2 8575   4.049   4.248   0.988 -1.3940 -1.7280 -1.9898
  578MPD2    H3 8576   3.896   4.084   0.924  1.3164  0.9377 -0.2740
  578MPD2     N 8577   4.172   3.751   1.071  0.1824 -0.1334  0.0184
  578MPD2    H5 8578   4.262   3.736   1.115  0.0724  2.2559  1.0524
  578MPD2    N1 8579   4.277   4.221   1.115 -0.1390  0.3484 -0.4288
  578MPD2    H7 8580   4.240   4.311   1.088 -1.3208 -0.5680 -1.8508
  579TMC3    C1 8581   4.153   3.519   1.089  0.0930 -0.0555 -0.5151
  579TMC3    C2 8582   4.241   3.521   1.195 -0.1234  0.1541 -0.0685
  579TMC3    C3 8583   4.233   3.411   1.266  0.3111  0.1075  0.3782
  579TMC3    C4 8584   4.083   3.406   1.047  0.5881 -0.0807 -0.1515
  579TMC3    C5 8585   4.096   3.298   1.124 -0.2690 -0.8342 -0.3750
  579TMC3    C6 8586   4.164   3.298   1.241 -0.3790  0.9049  0.7141
  579TMC3     C 8587   4.109   3.638   1.022  0.4738  0.2678 -0.2524
  579TMC3     O 8588   4.013   3.629   0.947  0.6317  0.7745  0.1989
  579TMC3     H 8589   4.289   3.605   1.244 -1.2808 -0.4215  2.0431
  579TMC3    H1 8590   4.034   3.401   0.950  0.1128 -0.0556  0.0857
  579TMC3    H2 8591   4.173   3.212   1.306 -0.5736  1.8031  1.9469
  579TMC3    C7 8592   4.040   3.169   1.091  0.0891  0.0903  0.1137
  579TMC3    C8 8593   4.291   3.416   1.400  0.3368  0.5706  0.5196
  579TMC3    O1 8594   4.088   3.070   1.140  0.2368  0.1458 -0.0361
  579TMC3    O2 8595   4.231   3.354   1.486  0.3444 -0.0547  0.0232
  580TMC3    C1 8596   3.009   3.819  12.196  0.4488 -0.2975  0.4792
  580TMC3    C2 8597   3.137   3.870  12.194  0.4373 -0.2813  0.6230
  580TMC3    C3 8598   3.249   3.794  12.185  0.2041  0.3542  0.0884
  580TMC3    C4 8599   3.001   3.686  12.161  0.0410 -0.6039 -0.3553
  580TMC3    C5 8600   3.117   3.612  12.143  0.1603  0.3805  0.0179
  580TMC3    C6 8601   3.245   3.664  12.154 -0.3520 -0.1679  1.1920
  580TMC3     C 8602   2.897   3.887  12.135  0.5299  0.9259  0.6375
  580TMC3     O 8603   2.784   3.859  12.170 -0.1191  0.3344  0.1795
  580TMC3     H 8604   3.158   3.975  12.209 -0.9006 -0.1227  1.4251
  580TMC3    H1 8605   2.904   3.640  12.143  0.2330 -1.0328 -0.2826
  580TMC3    H2 8606   3.330   3.599  12.167  0.5843  0.9588  0.7262
  580TMC3    C7 8607   3.101   3.468  12.134 -0.1638  0.0572 -0.6347
  580TMC3    C8 8608   3.368   3.864  12.152  0.6501  0.4636 -0.1918
  580TMC3    O1 8609   2.992   3.427  12.173 -0.3067  0.4531  0.0857
  580TMC3    O2 8610   3.384   3.977  12.193  0.2829 -0.4990  0.4090
  581MPD2     C 8611   0.976   3.121  14.871 -0.3783  0.2585 -0.3139
  581MPD2    C1 8612   0.891   3.019  14.847  0.0973 -0.0105  0.2392
  581MPD2    C2 8613   0.763   3.042  14.800  0.0509 -0.2306 -0.3000
  581MPD2    C3 8614   0.730   3.168  14.763 -0.3848 -0.0632 -0.2541
  581MPD2    C4 8615   0.818   3.273  14.789  0.7140  0.0241 -0.0491
  581MPD2    C5 8616   0.940   3.248  14.839 -0.1904 -0.0102 -1.0135
  581MPD2     H 8617   0.688   2.964  14.806 -1.3985  1.1870 -0.0948
  581MPD2    H1 8618   0.785   3.369  14.753 -1.2268 -1.1819 -1.4738
  581MPD2    H2 8619   1.079   3.104  14.898 -0.7099 -1.3970 -0.0536
  581MPD2    H3 8620   1.005   3.333  14.857  0.6515 -1.4054  2.4704
  581MPD2     N 8621   0.604   3.206  14.715 -0.6039  0.0362  0.2331
  581MPD2    H5 8622   0.595   3.305  14.694  2.4475  0.4658  0.8879
  581MPD2    N1 8623   0.942   2.890  14.872 -0.6459  0.0104  0.0043
  581MPD2    H7 8624   1.036   2.887  14.908 -0.8572 -0.4242  0.5201
  582TMC3    C1 8625   0.964   2.665  14.872  0.1449  0.4447  1.0088
  582TMC3    C2 8626   1.020   2.673  14.995  0.2761 -0.7574  0.0508
  582TMC3    C3 8627   1.075   2.554  15.043 -0.3983 -0.0110  0.2605
  582TMC3    C4 8628   0.960   2.546  14.800 -0.5733 -0.2445  0.2495
  582TMC3    C5 8629   1.002   2.433  14.860 -0.2843  0.4500 -0.8309
  582TMC3    C6 8630   1.062   2.432  14.978  0.0595 -0.0954  0.4698
  582TMC3     C 8631   0.884   2.772  14.830 -0.2562  0.8099  1.3348
  582TMC3     O 8632   0.770   2.760  14.785 -0.2829  0.8943  0.1468
  582TMC3     H 8633   1.028   2.756  15.063 -0.4246 -1.1027  0.5495
  582TMC3    H1 8634   0.928   2.542  14.696 -0.9598 -2.1066  0.4314
  582TMC3    H2 8635   1.114   2.347  15.021  0.0258  0.9038  2.4734
  582TMC3    C7 8636   0.949   2.309  14.801 -0.6356 -0.0035 -0.3505
  582TMC3    C8 8637   1.070   2.538  15.184 -0.2757  0.6828  0.5464
  582TMC3    O1 8638   0.943   2.315  14.677  0.3407 -0.1650  0.1669
  582TMC3    O2 8639   0.978   2.605  15.234  0.2525 -0.2960 -0.3047
  583MPD2     C 8640   1.089   4.123  16.798  0.2835 -0.0300  1.0916
  583MPD2    C1 8641   1.024   4.244  16.791  0.2813  0.1253 -0.3712
  583MPD2    C2 8642   0.947   4.279  16.895  0.1655 -0.6130 -0.4959
  583MPD2    C3 8643   0.918   4.196  17.004 -0.2013  0.2811 -0.9870
  583MPD2    C4 8644   0.988   4.073  17.003  1.3555 -0.0140 -0.0908
  583MPD2    C5 8645   1.065   4.035  16.897 -1.0383 -0.3072 -0.1402
  583MPD2     H 8646   0.893   4.372  16.889  0.5074 -0.4775 -1.5512
  583MPD2    H1 8647   0.979   4.002  17.085 -0.6518  0.4101  0.0636
  583MPD2    H2 8648   1.147   4.091  16.712  1.8274  0.7253  1.8622
  583MPD2    H3 8649   1.117   3.941  16.906 -1.1154 -0.5651 -2.6124
  583MPD2     N 8650   0.851   4.250  17.114  0.5405 -0.1377 -0.2600
  583MPD2    H5 8651   0.826   4.349  17.115  2.1800  0.2619  2.7756
  583MPD2    N1 8652   1.031   4.339  16.682  0.0207  0.6452  0.1748
  583MPD2    H7 8653   0.977   4.424  16.693  1.0115  1.5811 -2.3512
  584TMC3    C1 8654   0.763   4.255  17.335  0.5557  0.0508 -0.0555
  584TMC3    C2 8655   0.699   4.373  17.300  0.2205 -1.1023 -0.2229
  584TMC3    C3 8656   0.677   4.466  17.396 -0.1766  0.0661  0.2433
  584TMC3    C4 8657   0.798   4.223  17.465  0.2799  0.5216 -0.1459
  584TMC3    C5 8658   0.762   4.311  17.561 -0.4908  0.3597  0.7097
  584TMC3    C6 8659   0.702   4.429  17.525 -0.6683  0.0912 -0.7493
  584TMC3     C 8660   0.821   4.178  17.230 -0.8239  0.6054  0.1111
  584TMC3     O 8661   0.825   4.056  17.246  0.2350 -0.5912  0.2066
  584TMC3     H 8662   0.675   4.407  17.200 -1.0807  0.0821  0.4904
  584TMC3    H1 8663   0.842   4.126  17.485 -3.5975 -0.7106  2.3414
  584TMC3    H2 8664   0.685   4.499  17.606 -2.3018 -0.4285 -0.6527
  584TMC3    C7 8665   0.807   4.287   0.007  0.2594 -0.2296 -0.6958
  584TMC3    C8 8666   0.697   4.603  17.350 -0.7241  0.1429 -0.5181
  584TMC3    O1 8667   0.783   4.378   0.087 -0.8664  0.3369 -0.2502
  584TMC3    O2 8668   0.654   4.637  17.242  0.3330  0.3336 -0.0997
  585MPD2     C 8669   0.622   3.329   0.646 -0.2053  0.1553  0.1295
  585MPD2    C1 8670   0.716   3.380   0.557  0.5769 -0.4230  0.4758
  585MPD2    C2 8671   0.698   3.356   0.421 -0.6677 -0.0493 -0.0131
  585MPD2    C3 8672   0.580   3.302   0.376  0.0550 -0.1153 -0.2209
  585MPD2    C4 8673   0.479   3.272   0.464 -0.3040 -0.1685  0.5756
  585MPD2    C5 8674   0.499   3.281   0.602  0.4817  0.5420 -0.0610
  585MPD2     H 8675   0.773   3.384   0.348 -0.0417  1.0155  1.0257
  585MPD2    H1 8676   0.386   3.228   0.432 -1.3272  2.1001  0.4452
  585MPD2    H2 8677   0.639   3.341   0.753 -1.1899  0.8532  0.2097
  585MPD2    H3 8678   0.425   3.252   0.676 -0.5988  1.5617 -0.7431
  585MPD2     N 8679   0.545   3.291   0.239  0.5817 -0.7713 -0.4257
  585MPD2    H5 8680   0.445   3.285   0.220  0.3542 -0.1944  0.5889
  585MPD2    N1 8681   0.830   3.444   0.614  0.2717  0.0847  0.4216
  585MPD2    H7 8682   0.818   3.465   0.713  1.0982  1.9014  0.1237
  586TMC3    C1 8683   0.570   3.299   0.004  0.0150  0.3893 -0.2481
  586TMC3    C2 8684   0.649   3.337  17.602  0.9438  0.0351  0.5122
  586TMC3    C3 8685   0.596   3.370  17.479 -0.3149 -0.2201 -0.3255
  586TMC3    C4 8686   0.436   3.290  17.694  0.4679  0.4362 -0.2960
  586TMC3    C5 8687   0.377   3.342  17.578 -0.2613 -0.1655  0.4486
  586TMC3    C6 8688   0.455   3.373  17.465  0.0538 -0.3666  0.4213
  586TMC3     C 8689   0.633   3.301   0.137  0.0862  0.5598 -0.1947
  586TMC3     O 8690   0.756   3.301   0.141  0.2326  0.0900  0.0830
  586TMC3     H 8691   0.756   3.351  17.614  0.6597  4.3495 -1.9202
  586TMC3    H1 8692   0.373   3.256   0.078  0.2973  0.3443 -0.4679
  586TMC3    H2 8693   0.401   3.414  17.380  0.4712  1.2977  0.9507
  586TMC3    C7 8694   0.230   3.326  17.569 -0.8038  0.3755  0.1433
  586TMC3    C8 8695   0.671   3.297  17.375 -0.6225  0.3662 -0.4495
  586TMC3    O1 8696   0.170   3.272  17.663 -0.1413  0.5468  0.1675
  586TMC3    O2 8697   0.776   3.246  17.401  0.2671  0.4196 -0.1521
  587TMC3    C1 8698   2.729   1.827  16.790  0.4715  0.0142 -0.8825
  587TMC3    C2 8699   2.665   1.836  16.664  0.8551 -1.2822 -0.5812
  587TMC3    C3 8700   2.736   1.807  16.554  0.6630  0.6725 -0.2097
  587TMC3    C4 8701   2.859   1.787  16.803  1.0267 -0.3725 -0.2577
  587TMC3    C5 8702   2.925   1.750  16.686 -0.0519  0.2027  0.1636
  587TMC3    C6 8703   2.866   1.765  16.561 -0.1254 -0.0121  0.6566
  587TMC3     C 8704   2.657   1.877  16.911 -0.1330  0.0194 -0.1926
  587TMC3     O 8705   2.716   1.887  17.016  0.0142 -0.3961  0.7711
  587TMC3     H 8706   2.563   1.866  16.644  1.0010 -2.0260 -2.3841
  587TMC3    H1 8707   2.903   1.759  16.899 -2.5030 -1.1873  1.1077
  587TMC3    H2 8708   2.913   1.725  16.472  0.1034  1.0050  0.3197
  587TMC3    C7 8709   3.072   1.744  16.687 -0.1629 -1.0217 -0.2129
  587TMC3    C8 8710   2.678   1.842  16.422 -0.5097  0.3358  0.2656
  587TMC3    O1 8711   3.129   1.706  16.590 -0.1220 -0.4066  0.3625
  587TMC3    O2 8712   2.741   1.785  16.335  0.4960  0.0500 -0.2873
  588TMC3    C1 8713   0.270   0.338   9.506 -0.9226  1.0517 -0.4498
  588TMC3    C2 8714   0.252   0.202   9.477 -0.5499  0.6303 -0.2104
  588TMC3    C3 8715   0.346   0.115   9.524  0.1398 -0.7183  0.3124
  588TMC3    C4 8716   0.376   0.381   9.589 -0.7510 -0.1098 -0.1078
  588TMC3    C5 8717   0.468   0.282   9.630 -0.1839  0.4270 -0.5465
  588TMC3    C6 8718   0.456   0.152   9.589 -0.4525  0.6192  0.8492
  588TMC3     C 8719   0.173   0.433   9.456 -0.6934  0.1378 -0.4992
  588TMC3     O 8720   0.061   0.391   9.436 -0.0520  0.3375  0.1514
  588TMC3     H 8721   0.176   0.163   9.412 -0.5392 -0.3036  0.3491
  588TMC3    H1 8722   0.381   0.486   9.615  0.0876  0.1537 -1.3457
  588TMC3    H2 8723   0.539   0.089   9.621 -1.2253 -1.3631 -1.0905
  588TMC3    C7 8724   0.586   0.318   9.709 -0.9226 -0.0263  0.4943
  588TMC3    C8 8725   0.304   4.703   9.517 -0.1339 -0.0699  0.6339
  588TMC3    O1 8726   0.653   0.232   9.765  0.0071 -0.3000  0.0951
  588TMC3    O2 8727   0.220   4.662   9.437 -0.3254 -0.1965 -0.7392
  589TMC3    C1 8728   3.974   1.932   1.127 -0.2285 -0.2067  0.1093
  589TMC3    C2 8729   4.057   1.984   1.221  0.2663 -0.0733 -0.1559
  589TMC3    C3 8730   4.191   1.957   1.197  0.2365  0.0622 -0.0280
  589TMC3    C4 8731   4.019   1.877   1.008 -0.0547 -1.1080  0.7149
  589TMC3    C5 8732   4.152   1.867   0.980 -0.1670  0.1215  0.1116
  589TMC3    C6 8733   4.239   1.916   1.074 -0.0595  0.6480 -1.2488
  589TMC3     C 8734   3.836   1.975   1.123 -0.2394  0.4743  0.2475
  589TMC3     O 8735   3.767   1.905   1.052  0.4235 -0.4706 -0.0460
  589TMC3     H 8736   4.022   2.030   1.312  0.8450  0.0318  0.0133
  589TMC3    H1 8737   3.951   1.843   0.930  0.6801  0.7935 -0.7494
  589TMC3    H2 8738   4.344   1.889   1.069  0.3772  1.8738  1.1182
  589TMC3    C7 8739   4.190   1.745   0.917  0.8367  0.1656 -0.0425
  589TMC3    C8 8740   4.275   1.960   1.319 -0.7394  0.2853 -0.5013
  589TMC3    O1 8741   4.110   1.651   0.939  0.5474 -0.8255 -0.0217
  589TMC3    O2 8742   4.213   1.988   1.424  0.3755 -0.4567 -0.4399
  590MPD2     C 8743   3.504   0.450  16.667  0.3631  0.2571  0.4802
  590MPD2    C1 8744   3.508   0.450  16.530 -0.2391 -0.1067 -0.1674
  590MPD2    C2 8745   3.585   0.544  16.469  0.1702 -0.0452 -0.0597
  590MPD2    C3 8746   3.661   0.639  16.539  0.1923  0.7413 -0.1250
  590MPD2    C4 8747   3.658   0.642  16.677 -0.1874  0.2119  0.0658
  590MPD2    C5 8748   3.583   0.545  16.736 -0.0542  0.5906  0.2033
  590MPD2     H 8749   3.586   0.551  16.361  1.3734 -1.4003 -0.1289
  590MPD2    H1 8750   3.713   0.708  16.744  0.9598 -0.9883  0.3095
  590MPD2    H2 8751   3.438   0.381  16.717  1.0000 -1.6236 -1.2509
  590MPD2    H3 8752   3.592   0.534  16.843 -0.9014  1.6970  0.3809
  590MPD2     N 8753   3.740   0.723  16.456  0.3342 -0.6769 -0.3293
  590MPD2    H5 8754   3.740   0.704  16.356  2.0759 -2.1509 -0.0611
  590MPD2    N1 8755   3.418   0.376  16.458  0.0235  0.3296 -0.5443
  590MPD2    H7 8756   3.364   0.311  16.514 -0.7755  0.7064 -0.8774
  591TMC3    C1 8757   3.900   0.870  16.394 -0.5279  0.1894  0.2300
  591TMC3    C2 8758   3.937   0.794  16.286 -0.9896  0.4731 -0.1973
  591TMC3    C3 8759   4.032   0.849  16.211  0.4025 -1.0151 -0.3108
  591TMC3    C4 8760   3.962   0.989  16.431 -0.0690  0.4667 -0.0214
  591TMC3    C5 8761   4.053   1.038  16.342  0.3589 -0.7847 -0.0186
  591TMC3    C6 8762   4.088   0.971  16.230 -0.6653 -0.4614 -0.1161
  591TMC3     C 8763   3.816   0.820  16.499 -0.1080  0.5187  0.1139
  591TMC3     O 8764   3.818   0.869  16.611 -0.0113 -0.1521 -0.1462
  591TMC3     H 8765   3.885   0.704  16.256 -0.2921 -0.4179  1.3125
  591TMC3    H1 8766   3.939   1.033  16.527 -1.0950  0.3185 -0.2053
  591TMC3    H2 8767   4.166   1.011  16.166 -0.3554 -1.3092 -0.2739
  591TMC3    C7 8768   4.126   1.160  16.378 -0.5993  0.0665 -0.2909
  591TMC3    C8 8769   4.057   0.776  16.087 -1.0594  0.1516  0.1281
  591TMC3    O1 8770   4.170   1.160  16.487  0.3169 -0.4698  0.6933
  591TMC3    O2 8771   4.065   0.659  16.097 -0.3825 -0.3856 -0.2062
  592MPD2     C 8772   4.156   2.845  11.313  0.1433 -0.1060  0.6021
  592MPD2    C1 8773   4.061   2.909  11.390  0.6874  0.0839  0.7709
  592MPD2    C2 8774   3.975   2.833  11.461  0.1306 -0.3769  0.2671
  592MPD2    C3 8775   3.980   2.698  11.453  0.0737 -0.1146 -0.1614
  592MPD2    C4 8776   4.064   2.631  11.368  0.2009  0.2661  0.1435
  592MPD2    C5 8777   4.157   2.707  11.301  0.2467 -0.0580 -0.1597
  592MPD2     H 8778   3.892   2.869  11.521 -0.8317  0.2188 -1.4336
  592MPD2    H1 8779   4.083   2.525  11.358  0.0953  0.1560  1.0996
  592MPD2    H2 8780   4.245   2.900  11.282 -0.4590 -0.6309 -2.0648
  592MPD2    H3 8781   4.239   2.664  11.244 -0.6863  0.0626 -1.5732
  592MPD2     N 8782   3.891   2.622  11.527 -0.5338 -0.0533 -0.2726
  592MPD2    H5 8783   3.836   2.679  11.589  2.9006  0.5485  2.2362
  592MPD2    N1 8784   4.070   3.044  11.399  0.0639  0.1600 -0.3203
  592MPD2    H7 8785   4.150   3.074  11.343  0.1726 -1.8256 -1.2183
  593TMC3    C1 8786   4.047   3.258  11.465  0.1223 -0.2353  0.2343
  593TMC3    C2 8787   4.011   3.320  11.579  0.0359 -0.7975  0.3205
  593TMC3    C3 8788   4.085   3.431  11.610 -0.7747  0.3324  0.8873
  593TMC3    C4 8789   4.149   3.302  11.383 -0.2842 -0.2668  0.6232
  593TMC3    C5 8790   4.211   3.421  11.419 -0.2322  0.8294  0.0078
  593TMC3    C6 8791   4.183   3.488  11.539  0.2377 -0.3249  0.6256
  593TMC3     C 8792   3.990   3.130  11.454 -0.1477  0.3279  1.1305
  593TMC3     O 8793   3.892   3.113  11.527  0.1343 -0.1011  0.1034
  593TMC3     H 8794   3.936   3.288  11.651  0.1385  1.4861  1.4306
  593TMC3    H1 8795   4.185   3.239  11.302 -1.9557  0.3761 -0.6314
  593TMC3    H2 8796   4.229   3.585  11.555 -1.5138  0.5532  0.3448
  593TMC3    C7 8797   4.295   3.497  11.330  0.5875 -0.0606  0.0444
  593TMC3    C8 8798   4.045   3.495  11.729 -0.1403 -0.6483  0.5282
  593TMC3    O1 8799   4.379   3.567  11.380 -0.1915 -0.5452 -0.8100
  593TMC3    O2 8800   3.930   3.481  11.763 -0.3824 -0.0744 -0.7009
  594MPD2     C 8801   2.932   1.894  13.716 -0.0703 -0.0176  0.6405
  594MPD2    C1 8802   2.877   1.902  13.840  0.6065  0.3375 -0.7264
  594MPD2    C2 8803   2.916   2.001  13.925 -0.1183 -0.5313  0.0100
  594MPD2    C3 8804   3.019   2.090  13.895 -0.8492 -0.9433  0.5072
  594MPD2    C4 8805   3.080   2.082  13.769  0.3148  0.4422 -0.0332
  594MPD2    C5 8806   3.035   1.979  13.682  0.5604  0.1464 -0.4068
  594MPD2     H 8807   2.875   2.015  14.024  0.0262  2.3215 -0.3500
  594MPD2    H1 8808   3.158   2.151  13.742 -0.3971  1.7985  1.3965
  594MPD2    H2 8809   2.900   1.819  13.644  0.9169 -0.2968  0.4969
  594MPD2    H3 8810   3.083   1.976  13.584  0.7730 -1.0283 -0.2768
  594MPD2     N 8811   3.051   2.193  13.987 -0.1841  0.2071  0.0273
  594MPD2    H5 8812   3.009   2.186  14.079  0.8266  0.3403  0.4890
  594MPD2    N1 8813   2.767   1.819  13.866  0.5297  0.5675  0.0711
  594MPD2    H7 8814   2.756   1.734  13.812  2.0881 -0.4198  1.2920
  595TMC3    C1 8815   3.342   2.440  14.231 -0.2788 -0.6926  0.1275
  595TMC3    C2 8816   3.313   2.379  14.112  0.7318 -0.1481 -0.7734
  595TMC3    C3 8817   3.181   2.349  14.089 -0.1547 -0.5421 -0.3465
  595TMC3    C4 8818   3.256   2.448  14.331  0.0584  0.1855  0.7658
  595TMC3    C5 8819   3.124   2.414  14.306 -0.4135 -0.4837  0.9521
  595TMC3    C6 8820   3.081   2.371  14.182  0.0260 -0.4100  0.4335
  595TMC3     C 8821   3.465   2.395  14.293  0.3106  0.3006  0.8488
  595TMC3     O 8822   3.451   2.322  14.390 -0.5107 -0.1658 -0.4223
  595TMC3     H 8823   3.386   2.369  14.032  1.0714  2.4800 -0.7979
  595TMC3    H1 8824   3.268   2.499  14.426  2.4493  2.1938 -0.6046
  595TMC3    H2 8825   2.975   2.361  14.163  0.1158  1.3654 -0.9945
  595TMC3    C7 8826   3.042   2.371  14.417 -0.8962 -0.4650  0.1736
  595TMC3    C8 8827   3.149   2.288  13.963  0.0078  0.2453  0.6629
  595TMC3    O1 8828   2.928   2.341  14.383  0.4188  0.1350 -0.0281
  595TMC3    O2 8829   3.197   2.332  13.863 -0.1001  0.5382 -0.3788
  596MPD2     C 8830   1.801   3.906  16.437 -0.4439  0.4988  0.0431
  596MPD2    C1 8831   1.840   4.037  16.411  0.5966  0.1737  0.0861
  596MPD2    C2 8832   1.861   4.081  16.283 -0.6330 -0.0759  0.1424
  596MPD2    C3 8833   1.819   4.006  16.175 -0.0530  0.7700  0.0767
  596MPD2    C4 8834   1.773   3.883  16.198  0.6045 -0.3041  0.7520
  596MPD2    C5 8835   1.756   3.837  16.328  0.3070  0.0602  0.4372
  596MPD2     H 8836   1.906   4.177  16.258 -1.9326  0.5524  0.2338
  596MPD2    H1 8837   1.743   3.827  16.110 -1.6790  1.0122  0.6761
  596MPD2    H2 8838   1.779   3.858  16.532  1.0006  1.5726  0.9211
  596MPD2    H3 8839   1.714   3.737  16.333 -2.4502  1.3923  3.5408
  596MPD2     N 8840   1.850   4.053  16.048 -0.3012  0.2259 -0.3378
  596MPD2    H5 8841   1.824   3.986  15.976 -0.3654  2.2837 -2.2437
  596MPD2    N1 8842   1.869   4.131  16.510 -0.6101 -0.7550  0.1216
  596MPD2    H7 8843   1.896   4.225  16.482 -0.5284 -0.8497 -0.1197
  597TMC3    C1 8844   1.875   4.231  16.724  0.2685  0.2176 -0.1300
  597TMC3    C2 8845   1.953   4.329  16.677  0.2406  0.5400 -0.1338
  597TMC3    C3 8846   1.978   4.438  16.753 -0.0421  0.3268  0.2465
  597TMC3    C4 8847   1.798   4.246  16.839  0.1599 -0.6444  0.3672
  597TMC3    C5 8848   1.826   4.355  16.918 -0.1726  0.1506 -0.7229
  597TMC3    C6 8849   1.912   4.458  16.872 -0.5206 -0.4666  0.0593
  597TMC3     C 8850   1.846   4.116  16.648  0.4957 -0.3561  0.0828
  597TMC3     O 8851   1.811   4.024  16.718 -0.1468 -0.0568  0.3429
  597TMC3     H 8852   2.017   4.311  16.591 -0.3942 -1.0304 -0.2756
  597TMC3    H1 8853   1.733   4.167  16.876  0.0805  0.4880  2.6537
  597TMC3    H2 8854   1.934   4.540  16.940 -3.2791 -0.7177  1.2613
  597TMC3    C7 8855   1.744   4.376  17.036  0.8552  0.3057 -0.2615
  597TMC3    C8 8856   2.058   4.550  16.710 -0.0565  0.2591  0.6444
  597TMC3    O1 8857   1.724   4.278  17.104  0.1482  0.0277  1.1634
  597TMC3    O2 8858   2.154   4.530  16.642 -0.1726 -0.8829 -0.0124
  598TMC3    C1 8859   0.337   1.297  15.262 -0.1765 -0.5112 -0.4846
  598TMC3    C2 8860   0.216   1.247  15.299  0.0821 -0.1088 -0.2694
  598TMC3    C3 8861   0.128   1.221  15.195  0.1651  0.5260  0.3298
  598TMC3    C4 8862   0.364   1.359  15.141 -0.6064  0.7827 -0.1941
  598TMC3    C5 8863   0.264   1.346  15.047 -0.2117  0.6836  0.1807
  598TMC3    C6 8864   0.147   1.276  15.073 -0.2443 -0.2934 -0.0361
  598TMC3     C 8865   0.451   1.302  15.356 -0.0514  0.2503 -0.0130
  598TMC3     O 8866   0.566   1.311  15.318 -0.1415  0.2489  0.7569
  598TMC3     H 8867   0.200   1.207  15.399 -0.0100  1.4134  0.3276
  598TMC3    H1 8868   0.461   1.399  15.117  0.0079 -1.5005 -1.4583
  598TMC3    H2 8869   0.071   1.281  14.996 -0.8774  2.3203  0.7374
  598TMC3    C7 8870   0.292   1.397  14.915 -0.1531 -0.4163  0.1395
  598TMC3    C8 8871   0.008   1.153  15.229 -0.0077 -0.3371 -0.0259
  598TMC3    O1 8872   0.223   1.351  14.824 -0.0630  0.3688 -0.2798
  598TMC3    O2 8873   4.715   1.125  15.348 -0.1156  0.1425 -0.3301
  599MPD2     C 8874   0.204   3.387  15.708 -0.8410 -0.4688  0.1565
  599MPD2    C1 8875   0.135   3.267  15.702  0.4895 -0.7174 -0.7020
  599MPD2    C2 8876   0.019   3.248  15.774 -0.6490  0.6904  0.3762
  599MPD2    C3 8877   4.696   3.350  15.857  0.3610  0.3456 -0.5702
  599MPD2    C4 8878   0.032   3.475  15.855 -0.0263 -0.7070  0.0686
  599MPD2    C5 8879   0.155   3.492  15.790  0.1274 -0.9360 -0.3164
  599MPD2     H 8880   4.675   3.166  15.754  0.3050 -0.1604  0.6485
  599MPD2    H1 8881   0.001   3.554  15.923 -0.8537 -1.2753  0.3428
  599MPD2    H2 8882   0.293   3.415  15.652 -0.0595  0.1729  1.7272
  599MPD2    H3 8883   0.211   3.583  15.810 -0.7177 -0.7840  1.3460
  599MPD2     N 8884   4.591   3.337  15.955  0.0728  0.5499  0.2746
  599MPD2    H5 8885   4.569   3.421  16.008 -2.3390 -0.7032  1.2526
  599MPD2    N1 8886   0.193   3.171  15.617  0.1664 -0.1102 -0.2302
  599MPD2    H7 8887   0.273   3.203  15.564  0.6724 -1.7022 -0.4012
  600TMC3    C1 8888   4.458   3.232  16.107 -0.5552 -0.6827  0.5859
  600TMC3    C2 8889   4.390   3.116  16.143 -0.2895  0.2109  0.4901
  600TMC3    C3 8890   4.373   3.096  16.275 -0.5390 -0.4465 -0.6103
  600TMC3    C4 8891   4.493   3.333  16.204 -0.2184  0.0199 -0.1647
  600TMC3    C5 8892   4.461   3.310  16.336 -0.0310 -0.1794 -0.2987
  600TMC3    C6 8893   4.401   3.189  16.370 -0.1284 -0.2374  0.0357
  600TMC3     C 8894   4.509   3.234  15.970 -0.3850 -0.3748 -0.4897
  600TMC3     O 8895   4.491   3.138  15.897  0.3153  0.3921  0.5576
  600TMC3     H 8896   4.373   3.037  16.071  0.5176  0.2019  0.3132
  600TMC3    H1 8897   4.534   3.429  16.174 -1.6499  0.7970  0.3313
  600TMC3    H2 8898   4.361   3.186  16.471 -0.9023  1.5664 -0.2301
  600TMC3    C7 8899   4.464   3.419  16.433  0.4796 -0.0820 -0.9638
  600TMC3    C8 8900   4.299   2.980  16.308 -0.2228 -0.8938  0.8195
  600TMC3    O1 8901   4.389   3.403  16.529  0.7290 -0.0826 -0.1207
  600TMC3    O2 8902   4.243   2.922  16.221  0.0208 -0.5492  0.4487
  601MPD2     C 8903   1.606   0.649  17.234 -0.7724  0.2502 -0.2935
  601MPD2    C1 8904   1.678   0.766  17.241  0.8981 -0.7490  0.4161
  601MPD2    C2 8905   1.802   0.754  17.306 -0.1852  0.3701  0.5108
  601MPD2    C3 8906   1.852   0.636  17.349 -0.3509  0.1302 -0.9401
  601MPD2    C4 8907   1.783   0.522  17.329  0.8921 -0.3236  0.2685
  601MPD2    C5 8908   1.656   0.533  17.272 -0.0433 -0.0489 -0.4142
  601MPD2     H 8909   1.857   0.847  17.319  0.6405 -0.3455  2.1789
  601MPD2    H1 8910   1.824   0.426  17.359 -0.2004 -0.7491  0.3751
  601MPD2    H2 8911   1.507   0.653  17.191 -1.2087  0.6249  0.7578
  601MPD2    H3 8912   1.596   0.442  17.269  1.9794 -1.3924 -0.6734
  601MPD2     N 8913   1.973   0.624  17.429  0.1720  0.2136 -0.2576
  601MPD2    H5 8914   1.993   0.533  17.469 -2.2133  0.6835  2.0106
  601MPD2    N1 8915   1.636   0.891  17.205  0.0811 -0.4706  0.2422
  601MPD2    H7 8916   1.704   0.965  17.215  0.4035 -0.3479 -2.8680
  602TMC3    C1 8917   1.478   1.064  17.164 -0.4425 -0.6310 -0.1372
  602TMC3    C2 8918   1.578   1.153  17.193 -0.5866  0.2557  0.6143
  602TMC3    C3 8919   1.552   1.281  17.170 -0.4603 -0.7089 -0.3814
  602TMC3    C4 8920   1.360   1.087  17.111  0.3960 -0.3534 -0.2166
  602TMC3    C5 8921   1.349   1.219  17.070 -0.0674  0.3445 -0.1261
  602TMC3    C6 8922   1.438   1.314  17.111  0.0611 -0.0588  0.3407
  602TMC3     C 8923   1.508   0.922  17.168  0.4272  0.4034 -0.0284
  602TMC3     O 8924   1.420   0.845  17.128 -0.1316 -0.0863 -0.2981
  602TMC3     H 8925   1.668   1.126  17.247 -0.8867 -1.9654  0.0056
  602TMC3    H1 8926   1.284   1.017  17.078  1.4436 -1.3326 -0.5464
  602TMC3    H2 8927   1.428   1.417  17.079 -0.4590 -0.2675 -0.1437
  602TMC3    C7 8928   1.219   1.271  17.045 -0.0788  0.0265  0.4799
  602TMC3    C8 8929   1.645   1.380  17.218 -0.4100  0.7468  0.6597
  602TMC3    O1 8930   1.139   1.217  16.972 -0.1365 -0.3036  0.3291
  602TMC3    O2 8931   1.763   1.355  17.201  0.3718  0.1778  0.7479
  603TMC3    C1 8932   0.142   2.422  11.225  0.1151  0.9246 -0.4225
  603TMC3    C2 8933   0.185   2.376  11.348 -0.5471  0.4164 -0.3013
  603TMC3    C3 8934   0.254   2.463  11.430 -0.3519 -0.8840  0.7646
  603TMC3    C4 8935   0.169   2.550  11.180 -0.0518  0.1381 -0.9196
  603TMC3    C5 8936   0.229   2.637  11.271  0.2571  0.0707  0.5333
  603TMC3    C6 8937   0.263   2.598  11.399  0.2172  0.1877 -0.4215
  603TMC3     C 8938   0.069   2.327  11.144 -0.5729  0.3233 -0.1771
  603TMC3     O 8939   0.073   2.211  11.189  0.1707  0.1998  0.0284
  603TMC3     H 8940   0.163   2.273  11.373 -1.7055  0.8498  0.4662
  603TMC3    H1 8941   0.137   2.584  11.082  1.5004 -1.0753 -1.8397
  603TMC3    H2 8942   0.323   2.664  11.461  1.2981 -0.9759 -0.2421
  603TMC3    C7 8943   0.256   2.769  11.229  0.3273  0.0131  0.0982
  603TMC3    C8 8944   0.314   2.401  11.548 -1.1012  0.1643  0.3364
  603TMC3    O1 8945   0.357   2.818  11.283  0.8646 -0.0828 -0.2507
  603TMC3    O2 8946   0.298   2.277  11.565  0.0409  0.2017 -0.6268
  604MPD2     C 8947   1.125   0.642  16.354 -0.1603 -0.3529  0.8867
  604MPD2    C1 8948   1.020   0.625  16.266  0.1406  0.5381  0.0148
  604MPD2    C2 8949   1.043   0.659  16.138 -0.7530 -0.1441  0.1644
  604MPD2    C3 8950   1.166   0.709  16.096 -0.8510  0.6767  0.0336
  604MPD2    C4 8951   1.270   0.707  16.185 -0.6808  0.1375 -0.5971
  604MPD2    C5 8952   1.246   0.691  16.322 -0.2995 -0.3076  0.1621
  604MPD2     H 8953   0.953   0.672  16.079  0.6512  3.1492 -1.2817
  604MPD2    H1 8954   1.360   0.763  16.163  0.3816 -0.5278  2.0828
  604MPD2    H2 8955   1.104   0.619  16.458 -1.1425  2.0631  1.2214
  604MPD2    H3 8956   1.316   0.712  16.402 -1.1029  2.1288  0.2125
  604MPD2     N 8957   1.179   0.741  15.957  0.0106 -0.4162  0.1425
  604MPD2    H5 8958   1.096   0.731  15.900  1.1289 -0.2525 -1.4883
  604MPD2    N1 8959   0.891   0.593  16.320 -0.5552  0.0524 -0.9723
  604MPD2    H7 8960   0.884   0.564  16.417  0.2820  1.7481 -0.4131
  605TMC3    C1 8961   0.672   0.649  16.366  0.5158 -0.0324  0.2275
  605TMC3    C2 8962   0.708   0.635  16.495 -0.0322  0.2597 -0.1599
  605TMC3    C3 8963   0.677   0.737  16.582 -1.0087  0.7442  0.5815
  605TMC3    C4 8964   0.576   0.742  16.323  0.1538 -0.4359  1.1069
  605TMC3    C5 8965   0.553   0.842  16.415  0.7088  0.4007  0.4727
  605TMC3    C6 8966   0.613   0.845  16.539 -0.0684 -0.0349 -0.8270
  605TMC3     C 8967   0.769   0.616  16.265  0.1154  0.1256 -0.6153
  605TMC3     O 8968   0.741   0.655  16.153 -0.7600  0.4505 -0.4196
  605TMC3     H 8969   0.772   0.556  16.533  2.2190  1.3591 -1.5988
  605TMC3    H1 8970   0.546   0.756  16.220  1.4517 -0.1527  0.7696
  605TMC3    H2 8971   0.593   0.931  16.602  0.7946 -0.8201  0.5108
  605TMC3    C7 8972   0.436   0.918  16.393 -0.0787 -0.0271 -0.3424
  605TMC3    C8 8973   0.780   0.774  16.669 -0.9540 -0.3514 -0.4889
  605TMC3    O1 8974   0.439   1.031  16.443 -0.0840 -0.5823  0.1666
  605TMC3    O2 8975   0.807   0.891  16.685 -0.0535  0.4560 -0.2536
  606TMC3    C1 8976   2.209   3.430  16.995 -0.2850 -0.1790  0.6119
  606TMC3    C2 8977   2.340   3.433  17.040 -0.8481 -0.3392 -0.0066
  606TMC3    C3 8978   2.370   3.335  17.134  0.1465 -0.1473  0.2213
  606TMC3    C4 8979   2.104   3.375  17.062  0.0261 -0.0837 -0.7201
  606TMC3    C5 8980   2.132   3.293  17.171  0.5098  0.0235 -0.1949
  606TMC3    C6 8981   2.267   3.274  17.202 -0.4792 -0.1673  0.4615
  606TMC3     C 8982   2.167   3.532  16.905  0.1464  0.2181 -0.2539
  606TMC3     O 8983   2.068   3.507  16.841 -0.7492 -0.2269 -0.0821
  606TMC3     H 8984   2.421   3.496  17.007 -1.6199 -0.5140 -2.2231
  606TMC3    H1 8985   2.008   3.376  17.011 -0.2003 -0.3138 -0.2968
  606TMC3    H2 8986   2.293   3.214  17.288  2.1370 -0.9251 -0.8579
  606TMC3    C7 8987   2.046   3.185  17.203 -0.2054  0.2211 -0.1307
  606TMC3    C8 8988   2.499   3.345  17.197 -0.4567 -0.2199 -0.4992
  606TMC3    O1 8989   2.105   3.079  17.222 -0.0827  0.2050 -0.5213
  606TMC3    O2 8990   2.556   3.447  17.168 -0.4881  0.5762  0.0361
  607MPD2     C 8991   4.112   2.389  11.758 -0.1716 -0.2284  0.3208
  607MPD2    C1 8992   4.163   2.465  11.854  0.1874 -0.0377  0.0657
  607MPD2    C2 8993   4.142   2.433  11.986 -0.5396 -0.4866 -0.1242
  607MPD2    C3 8994   4.062   2.327  12.023 -0.3812  0.8244 -1.1152
  607MPD2    C4 8995   3.994   2.262  11.921 -0.2176 -0.1653 -0.2771
  607MPD2    C5 8996   4.021   2.292  11.790 -0.2532  0.0614 -0.9007
  607MPD2     H 8997   4.196   2.494  12.057 -1.9451  0.6989 -0.0611
  607MPD2    H1 8998   3.921   2.183  11.936 -0.0645 -0.2378  0.0885
  607MPD2    H2 8999   4.135   2.401  11.653 -1.6578 -0.7730 -0.0663
  607MPD2    H3 9000   3.976   2.222  11.720 -0.2884 -0.7086 -0.1062
  607MPD2     N 9001   4.065   2.272  12.154  0.1849  0.2362 -0.4840
  607MPD2    H5 9002   4.117   2.325  12.223  1.3594 -0.1090 -1.1071
  607MPD2    N1 9003   4.255   2.575  11.831 -0.4918 -0.4440 -0.0722
  607MPD2    H7 9004   4.270   2.643  11.905 -0.7685 -0.8971  0.3978
  608TMC3    C1 9005   4.446   2.661  11.734 -0.2121 -0.4005 -0.0497
  608TMC3    C2 9006   4.502   2.637  11.858 -0.5193 -0.1425 -0.2413
  608TMC3    C3 9007   4.588   2.732  11.906 -0.8977  0.1340 -0.3460
  608TMC3    C4 9008   4.466   2.781  11.671  0.4616  0.6482 -0.0439
  608TMC3    C5 9009   4.564   2.866  11.721  0.2181  0.2903 -0.5545
  608TMC3    C6 9010   4.624   2.842  11.838  0.0295 -0.4537 -0.6083
  608TMC3     C 9011   4.332   2.582  11.713  0.4617 -0.4023 -0.7573
  608TMC3     O 9012   4.325   2.530  11.602 -0.3683 -0.5206  0.1002
  608TMC3     H 9013   4.491   2.544  11.912 -1.2369  0.2260  0.2428
  608TMC3    H1 9014   4.422   2.800  11.574  0.5753 -2.8406 -0.7506
  608TMC3    H2 9015   4.687   2.913  11.890 -0.8066 -0.1213 -0.0446
  608TMC3    C7 9016   4.614   2.971  11.638  0.0739 -0.1696  0.2043
  608TMC3    C8 9017   4.629   2.729  12.047  0.1554  0.7108 -0.8334
  608TMC3    O1 9018   4.572   2.975  11.525  0.1025 -0.0965  0.9488
  608TMC3    O2 9019   0.013   2.780  12.071 -0.4290  0.0779  0.3078
  609TMC3    C1 9020   2.867   1.711   9.370  0.0353 -0.0922 -0.0798
  609TMC3    C2 9021   2.893   1.809   9.285  1.0324 -0.3525  0.0402
  609TMC3    C3 9022   3.027   1.817   9.240  0.0472  0.2069 -0.0109
  609TMC3    C4 9023   2.971   1.635   9.422 -0.3089  0.6983 -0.1154
  609TMC3    C5 9024   3.093   1.641   9.368 -0.6055 -0.2438 -0.1925
  609TMC3    C6 9025   3.123   1.727   9.267  0.4129 -0.6931 -0.1684
  609TMC3     C 9026   2.729   1.688   9.406 -0.4093  0.6972 -0.6179
  609TMC3     O 9027   2.652   1.727   9.319  0.3858 -0.0659 -0.0801
  609TMC3     H 9028   2.814   1.876   9.253  1.5048 -0.6406 -1.6750
  609TMC3    H1 9029   2.943   1.556   9.490 -0.4178  0.3937 -0.5160
  609TMC3    H2 9030   3.208   1.714   9.202  1.0910 -2.4941  1.0732
  609TMC3    C7 9031   3.168   1.521   9.375 -0.3477 -0.1976 -1.1130
  609TMC3    C8 9032   3.053   1.913   9.147 -0.3030 -0.5549  0.2227
  609TMC3    O1 9033   3.150   1.445   9.473 -0.4542 -0.0787 -0.1409
  609TMC3    O2 9034   2.970   1.952   9.067 -0.0207 -0.1507 -0.7151
  610TMC3    C1 9035   0.068   2.120  12.517 -0.3548 -0.5299 -0.3079
  610TMC3    C2 9036   0.052   2.130  12.376 -0.1268 -0.0391 -0.2087
  610TMC3    C3 9037   0.120   2.227  12.304  0.0393 -0.0114 -0.2451
  610TMC3    C4 9038   0.145   2.214  12.582 -0.3839  0.4404  0.0753
  610TMC3    C5 9039   0.218   2.300  12.506 -0.2438  0.4920  1.2539
  610TMC3    C6 9040   0.201   2.315  12.369  0.3516  0.2491  0.2035
  610TMC3     C 9041   4.693   2.051  12.594 -0.3528 -0.3161  0.4847
  610TMC3     O 9042   4.665   2.097  12.703 -0.0567 -0.2047 -0.1070
  610TMC3     H 9043   4.714   2.059  12.323  0.0476  0.7371 -1.4556
  610TMC3    H1 9044   0.151   2.215  12.690  0.4011 -1.5981  0.0477
  610TMC3    H2 9045   0.270   2.374  12.308  0.6882  0.3645  0.6953
  610TMC3    C7 9046   0.316   2.369  12.568  0.3653 -0.3597 -0.5994
  610TMC3    C8 9047   0.071   2.262  12.169  0.5837 -0.1813  0.1368
  610TMC3    O1 9048   0.365   2.477  12.538 -0.1645 -0.3861 -0.0915
  610TMC3    O2 9049   0.141   2.349  12.116  0.3272 -0.1921 -0.6099
  611MPD2     C 9050   4.368   2.958   9.930 -0.0046  0.2777 -0.0228
  611MPD2    C1 9051   4.369   2.900  10.054  0.5188  0.5527  0.1090
  611MPD2    C2 9052   4.478   2.933  10.138  0.3068  0.5143  0.4726
  611MPD2    C3 9053   4.570   3.021  10.098 -0.1162  0.5051 -0.1539
  611MPD2    C4 9054   4.558   3.072   9.965  0.6210  0.0925 -0.5024
  611MPD2    C5 9055   4.460   3.044   9.875  0.3599 -0.4450 -0.3200
  611MPD2     H 9056   4.495   2.874  10.228 -1.0127  1.1675  1.1622
  611MPD2    H1 9057   4.629   3.148   9.934 -1.7053  3.2858  2.0151
  611MPD2    H2 9058   4.285   2.927   9.868  0.5199 -1.2112  0.0418
  611MPD2    H3 9059   4.448   3.092   9.779 -0.4699 -0.5512 -0.2740
  611MPD2     N 9060   4.669   3.078  10.180  0.4666  0.5691 -0.2400
  611MPD2    H5 9061   4.720   3.156  10.139  1.4756 -0.3288 -0.6824
  611MPD2    N1 9062   4.270   2.803  10.084  0.1447  0.9195  0.4613
  611MPD2    H7 9063   4.200   2.785  10.013  0.6366  1.6340 -0.1961
  612TMC3    C1 9064   0.084   3.130  10.353 -0.3886  0.5941  0.0968
  612TMC3    C2 9065   0.069   3.156  10.487 -0.0253 -0.1689 -0.0414
  612TMC3    C3 9066   0.163   3.246  10.539  0.6261 -0.0080 -0.3975
  612TMC3    C4 9067   0.177   3.202  10.278  0.0340 -0.1633 -0.2727
  612TMC3    C5 9068   0.245   3.299  10.326  0.5709  0.5433  0.2423
  612TMC3    C6 9069   0.241   3.327  10.460  0.4818 -0.1483  0.6514
  612TMC3     C 9070   4.704   3.044  10.304  0.1074  0.7336  0.1877
  612TMC3     O 9071   4.672   2.944  10.365  0.4070 -0.0321  0.0991
  612TMC3     H 9072   4.722   3.103  10.549  1.0029  0.1684  1.4059
  612TMC3    H1 9073   0.190   3.166  10.177 -0.2624 -0.0295 -0.3591
  612TMC3    H2 9074   0.298   3.407  10.508  0.0500 -0.4078  1.6041
  612TMC3    C7 9075   0.346   3.356  10.255 -0.1241 -0.1829  0.9834
  612TMC3    C8 9076   0.190   3.245  10.676 -0.5940 -0.2832 -0.0473
  612TMC3    O1 9077   0.314   3.389  10.140 -0.3732 -0.1189 -0.0262
  612TMC3    O2 9078   0.257   3.341  10.718  0.1466  0.5019  0.2176
  613MPD2     C 9079   3.432   4.591  16.533  0.0804  0.2447 -0.1013
  613MPD2    C1 9080   3.392   4.598  16.399 -0.0580 -0.0354  0.8093
  613MPD2    C2 9081   3.270   4.547  16.361 -0.5018  0.7551 -0.6002
  613MPD2    C3 9082   3.192   4.478  16.457  0.3169 -0.1392  0.1763
  613MPD2    C4 9083   3.240   4.472  16.582  0.0439 -0.4830  0.1148
  613MPD2    C5 9084   3.357   4.521  16.622 -0.6094  0.2497  0.3832
  613MPD2     H 9085   3.238   4.570  16.260  1.2915  0.6645 -1.1817
  613MPD2    H1 9086   3.187   4.423  16.663 -0.3145 -0.8374 -0.3334
  613MPD2    H2 9087   3.533   4.618  16.563 -0.7393  2.6692  0.5185
  613MPD2    H3 9088   3.387   4.509  16.725 -1.1669 -0.8866  0.4057
  613MPD2     N 9089   3.075   4.398  16.420  0.0020  0.2766 -0.1855
  613MPD2    H5 9090   3.037   4.336  16.491  0.9317 -0.1112 -0.0293
  613MPD2    N1 9091   3.483   4.652  16.304  0.3840 -0.1497 -0.3269
  613MPD2    H7 9092   3.575   4.688  16.330  0.8918 -1.3975 -0.3874
  614TMC3    C1 9093   3.594   4.691  16.105  0.8614 -0.3165 -0.4907
  614TMC3    C2 9094   3.634   4.575  16.041  0.2495 -0.6903 -0.5081
  614TMC3    C3 9095   3.620   4.567  15.906  0.5546 -0.4252  0.4738
  614TMC3    C4 9096   3.568   0.078  16.025 -1.1815  0.1635 -0.7074
  614TMC3    C5 9097   3.556   0.064  15.891  0.1860  0.0259  0.2601
  614TMC3    C6 9098   3.585   4.669  15.822 -0.2466 -0.8695  0.5666
  614TMC3     C 9099   3.467   4.657  16.163  0.1971 -0.0611  0.3243
  614TMC3     O 9100   3.372   4.617  16.097  0.4552 -0.4333 -0.5937
  614TMC3     H 9101   3.649   4.490  16.106 -0.7983  0.0638  0.7301
  614TMC3    H1 9102   3.528   0.170  16.067 -0.8036 -0.4774  1.0242
  614TMC3    H2 9103   3.562   4.655  15.717 -0.7147  0.6141  0.4702
  614TMC3    C7 9104   3.486   0.169  15.811 -0.1449  0.4893 -1.1389
  614TMC3    C8 9105   3.608   4.429  15.854 -1.1308 -0.0964 -0.3194
  614TMC3    O1 9106   3.492   0.290  15.836  0.3718 -0.0802 -0.1604
  614TMC3    O2 9107   3.639   4.411  15.742  0.5152  0.6436 -0.1350
  615MPD2     C 9108   2.788   0.466  16.071 -0.0091  0.2060  0.2021
  615MPD2    C1 9109   2.846   0.595  16.074 -0.1448  0.5057 -0.0977
  615MPD2    C2 9110   2.806   0.689  15.987  0.4648 -0.0602  0.0606
  615MPD2    C3 9111   2.705   0.668  15.901  0.2157  0.2640 -0.3835
  615MPD2    C4 9112   2.646   0.541  15.907  0.9542  0.5323 -0.0726
  615MPD2    C5 9113   2.694   0.438  15.976 -0.4272  0.2522 -0.0469
  615MPD2     H 9114   2.866   0.779  15.988 -0.6449  0.6806 -0.1090
  615MPD2    H1 9115   2.559   0.518  15.847  1.7420 -3.1164  0.2387
  615MPD2    H2 9116   2.816   0.390  16.143  2.0744 -0.1231 -0.9457
  615MPD2    H3 9117   2.652   0.338  15.971 -0.7762  0.3736  0.3576
  615MPD2     N 9118   2.659   0.759  15.802 -0.0612  0.5083 -0.1184
  615MPD2    H5 9119   2.582   0.720  15.748 -0.0107 -2.7784  2.2120
  615MPD2    N1 9120   2.946   0.635  16.163  0.5636  0.3887 -0.0964
  615MPD2    H7 9121   2.997   0.721  16.151  1.4468 -0.1284 -0.0537
  616TMC3    C1 9122   3.107   0.640  16.334 -0.1436 -0.6202  0.6174
  616TMC3    C2 9123   3.197   0.715  16.267  0.0675  0.1639 -0.1739
  616TMC3    C3 9124   3.303   0.770  16.335 -0.3419 -0.0019  0.6209
  616TMC3    C4 9125   3.126   0.612  16.464  0.0027  1.0286 -0.1840
  616TMC3    C5 9126   3.231   0.676  16.533 -0.2623 -0.1385 -0.1902
  616TMC3    C6 9127   3.318   0.761  16.469  0.0555  0.0069  0.3991
  616TMC3     C 9128   2.999   0.567  16.274  0.0689  0.0699  1.2685
  616TMC3     O 9129   2.966   0.466  16.327  0.4437 -0.1812  0.3860
  616TMC3     H 9130   3.200   0.723  16.159 -1.9960  1.8635 -0.1002
  616TMC3    H1 9131   3.058   0.540  16.507 -0.0621  1.1937 -0.0070
  616TMC3    H2 9132   3.394   0.803  16.534  0.7969 -0.7488  0.0145
  616TMC3    C7 9133   3.226   0.693  16.677  0.8302  0.6988 -0.8245
  616TMC3    C8 9134   3.399   0.840  16.258  0.0765  0.1949  0.0807
  616TMC3    O1 9135   3.330   0.737  16.727 -0.0148 -0.5336 -0.0479
  616TMC3    O2 9136   3.399   0.818  16.136  0.1815 -0.7233 -0.0181
  617MPD2     C 9137   0.776   4.310  13.722  0.1034  0.7819  0.5660
  617MPD2    C1 9138   0.739   4.236  13.831  0.1444 -0.8992  0.3051
  617MPD2    C2 9139   0.607   4.192  13.844  0.4175  0.4734 -0.1330
  617MPD2    C3 9140   0.515   4.203  13.740 -0.5307  0.5988  0.3320
  617MPD2    C4 9141   0.552   4.272  13.626  0.0989  0.3784 -0.1123
  617MPD2    C5 9142   0.680   4.319  13.623 -0.7786 -0.3872 -0.5969
  617MPD2     H 9143   0.570   4.163  13.942  1.9750  2.1329  0.9317
  617MPD2    H1 9144   0.483   4.286  13.543 -0.0965 -0.8062 -0.1436
  617MPD2    H2 9145   0.876   4.350  13.705 -0.5814  1.7033 -1.3672
  617MPD2    H3 9146   0.696   4.373  13.530 -0.9950  0.9935  0.1601
  617MPD2     N 9147   0.387   4.143  13.737  0.4407  0.0799 -0.3592
  617MPD2    H5 9148   0.334   4.150  13.650  0.7936  0.1624 -0.5684
  617MPD2    N1 9149   0.839   4.197  13.927 -0.4456  0.3566 -0.3796
  617MPD2    H7 9150   0.937   4.212  13.910 -0.4745  2.1342  1.0479
  618TMC3    C1 9151   0.942   4.085  14.105  0.5010 -0.6096 -0.0951
  618TMC3    C2 9152   1.020   3.999  14.036 -0.2375 -0.5135 -0.3542
  618TMC3    C3 9153   1.150   3.993  14.070  0.6822 -0.0013 -0.8534
  618TMC3    C4 9154   0.991   4.155  14.212  0.5226 -0.0337  0.7947
  618TMC3    C5 9155   1.127   4.143  14.243 -0.4865  0.6627  0.2080
  618TMC3    C6 9156   1.202   4.052  14.178  0.0067  0.7516 -0.5982
  618TMC3     C 9157   0.818   4.134  14.044  0.3934  0.3980  0.0478
  618TMC3     O 9158   0.720   4.116  14.112 -0.9788  0.1224 -0.1319
  618TMC3     H 9159   0.980   3.961  13.942 -0.2714  0.7652 -0.8589
  618TMC3    H1 9160   0.917   4.219  14.260 -0.1671  0.0373 -0.3650
  618TMC3    H2 9161   1.303   4.038  14.217 -0.9270 -0.4816  1.3934
  618TMC3    C7 9162   1.180   4.251  14.316 -0.2373  0.2770  0.0671
  618TMC3    C8 9163   1.239   3.928  13.977  0.4373 -0.1735  0.2812
  618TMC3    O1 9164   1.126   4.265  14.429 -0.0218 -0.8437 -0.6219
  618TMC3    O2 9165   1.192   3.845  13.903  0.2232 -0.4466  0.3411
  619MPD2     C 9166   2.433   0.721  13.171 -0.1285  0.4901  0.2014
  619MPD2    C1 9167   2.338   0.772  13.085  0.0503  0.3329  0.5850
  619MPD2    C2 9168   2.209   0.774  13.131  0.5586 -0.0374  0.0430
  619MPD2    C3 9169   2.171   0.735  13.258  0.3832 -0.2153  0.5762
  619MPD2    C4 9170   2.272   0.697  13.340 -0.7225  0.0970 -0.0850
  619MPD2    C5 9171   2.399   0.690  13.296 -0.1101  0.4928 -0.0458
  619MPD2     H 9172   2.143   0.804  13.050 -0.6294 -0.9419  0.6670
  619MPD2    H1 9173   2.247   0.670  13.442  1.9273  1.5390  0.9504
  619MPD2    H2 9174   2.540   0.707  13.159 -0.1679  0.7992 -0.5356
  619MPD2    H3 9175   2.476   0.654  13.363  0.5891 -1.9758 -2.1513
  619MPD2     N 9176   2.039   0.740  13.310 -0.0595  0.4912 -0.0364
  619MPD2    H5 9177   2.027   0.701  13.403  0.1980 -0.1331 -0.2671
  619MPD2    N1 9178   2.357   0.791  12.948 -0.0042  0.5519  0.1111
  619MPD2    H7 9179   2.280   0.801  12.883  0.6621 -0.9567 -0.8990
  620TMC3    C1 9180   2.456   0.889  12.751  0.0724  0.0408 -0.4277
  620TMC3    C2 9181   2.327   0.888  12.682 -0.4188  0.7086  0.0134
  620TMC3    C3 9182   2.307   0.997  12.598 -0.0446 -0.7968  0.1268
  620TMC3    C4 9183   2.547   0.995  12.730  0.3316 -0.8517 -0.0301
  620TMC3    C5 9184   2.529   1.090  12.635 -0.3255  0.2163  0.1409
  620TMC3    C6 9185   2.409   1.084  12.557  0.0172 -0.6279 -0.5503
  620TMC3     C 9186   2.475   0.824  12.886  0.0214  0.6701  0.7913
  620TMC3     O 9187   2.586   0.833  12.938  0.3630 -0.2235  0.2803
  620TMC3     H 9188   2.241   0.821  12.685  0.2105 -0.1735 -1.2070
  620TMC3    H1 9189   2.637   0.983  12.789 -1.8055 -0.4273  3.3554
  620TMC3    H2 9190   2.403   1.165  12.484 -1.9786 -1.1659 -0.9721
  620TMC3    C7 9191   2.571   1.221  12.679  0.8242 -0.3530  0.5581
  620TMC3    C8 9192   2.191   1.071  12.626  0.7071 -0.3135  0.1215
  620TMC3    O1 9193   2.597   1.307  12.594 -0.5461 -0.0944 -0.0321
  620TMC3    O2 9194   2.189   1.193  12.606 -0.2016 -0.2477 -0.5474
  621MPD2     C 9195   2.140   1.843  10.149 -0.6998  0.3078 -0.3097
  621MPD2    C1 9196   2.231   1.765  10.084  0.6233 -0.4820 -0.3006
  621MPD2    C2 9197   2.303   1.821   9.983 -0.3083 -0.0799  0.2357
  621MPD2    C3 9198   2.283   1.949   9.942  0.3411 -0.3288  0.0346
  621MPD2    C4 9199   2.190   2.028  10.003 -0.2590  0.7910  0.9833
  621MPD2    C5 9200   2.120   1.967  10.108 -0.0889 -0.0155  0.5918
  621MPD2     H 9201   2.383   1.761   9.942  1.8115  2.4265  0.7327
  621MPD2    H1 9202   2.159   2.130   9.983  0.5253  0.5161 -1.5771
  621MPD2    H2 9203   2.071   1.797  10.218  1.0386 -1.6474  0.1267
  621MPD2    H3 9204   2.042   2.020  10.163 -0.0803  1.5380 -0.8979
  621MPD2     N 9205   2.358   1.997   9.833 -0.6496  0.9996 -0.0429
  621MPD2    H5 9206   2.428   1.934   9.795 -0.0129  0.4184  2.0815
  621MPD2    N1 9207   2.243   1.626  10.115 -0.0284  0.7272 -0.9334
  621MPD2    H7 9208   2.298   1.560  10.060  0.6029  1.5632 -1.2942
  622TMC3    C1 9209   2.194   1.419  10.214 -0.6832 -0.4878  0.6243
  622TMC3    C2 9210   2.147   1.350  10.327  0.3154  0.3889 -0.4103
  622TMC3    C3 9211   2.125   1.214  10.316 -0.0079  0.5500 -0.1552
  622TMC3    C4 9212   2.210   1.359  10.092  0.7190 -0.7543  0.3377
  622TMC3    C5 9213   2.185   1.221  10.092  0.5512  0.8284  0.4385
  622TMC3    C6 9214   2.144   1.146  10.197 -0.3357 -0.5143  0.0700
  622TMC3     C 9215   2.191   1.562  10.228 -0.4874  0.1375 -0.1646
  622TMC3     O 9216   2.144   1.601  10.334 -0.4266  0.2064  0.6601
  622TMC3     H 9217   2.124   1.406  10.417 -1.5622  0.2774 -0.8269
  622TMC3    H1 9218   2.237   1.414  10.002 -3.0168 -2.4712 -1.8214
  622TMC3    H2 9219   2.101   1.047  10.186 -0.5395 -0.4984  0.7203
  622TMC3    C7 9220   2.222   1.160   9.968  0.1576 -0.3609  0.0375
  622TMC3    C8 9221   2.021   1.159  10.407 -0.3218  0.5832  0.2841
  622TMC3    O1 9222   2.229   1.240   9.876 -0.0664 -0.0973 -0.6419
  622TMC3    O2 9223   2.024   1.039  10.422 -0.4396  0.2290 -0.2073
  623MPD2     C 9224   1.216   1.060  16.072  0.0319  0.3070  0.1963
  623MPD2    C1 9225   1.139   1.032  16.184  0.6832  0.3441  0.0001
  623MPD2    C2 9226   1.202   1.020  16.305 -0.3447  0.3368  0.5431
  623MPD2    C3 9227   1.343   1.022  16.312 -0.1673  0.7107 -0.2971
  623MPD2    C4 9228   1.421   1.038  16.202 -0.2962  0.3603 -0.3171
  623MPD2    C5 9229   1.353   1.059  16.088 -0.8011 -0.2285 -0.2222
  623MPD2     H 9230   1.139   1.010  16.393 -0.8723  0.6282  0.1976
  623MPD2    H1 9231   1.529   1.044  16.202 -0.3465  1.2108 -0.1981
  623MPD2    H2 9232   1.170   1.086  15.977  0.4806 -2.5837 -0.8388
  623MPD2    H3 9233   1.410   1.096  16.003 -2.6845  0.2910 -1.2528
  623MPD2     N 9234   1.397   1.022  16.445 -0.1743 -0.0728  0.2706
  623MPD2    H5 9235   1.333   1.023  16.523 -1.5466  0.4542 -0.8585
  623MPD2    N1 9236   0.999   1.037  16.181 -1.4095  0.5001  1.1420
  623MPD2    H7 9237   0.957   1.040  16.273 -1.3694  1.5668  1.1265
  624TMC3    C1 9238   1.628   0.843  16.756  0.2225  0.8238  0.1262
  624TMC3    C2 9239   1.509   0.844  16.831 -0.3794  0.9537  0.0084
  624TMC3    C3 9240   1.425   0.944  16.802  0.1113 -0.0844 -0.6614
  624TMC3    C4 9241   1.654   0.920  16.650 -0.0761  0.6262  0.4834
  624TMC3    C5 9242   1.560   1.022  16.620  0.3798 -0.0522 -0.0654
  624TMC3    C6 9243   1.449   1.030  16.701 -0.4081  0.5513  0.3029
  624TMC3     C 9244   1.737   0.763  16.804  0.7671  0.5419  0.2763
  624TMC3     O 9245   1.715   0.656  16.861 -0.5733  0.1587  0.4519
  624TMC3     H 9246   1.493   0.783  16.919 -0.5960  0.1322 -0.5980
  624TMC3    H1 9247   1.734   0.904  16.579 -0.7548  0.4129 -0.2210
  624TMC3    H2 9248   1.376   1.109  16.688 -2.2964 -1.0890  0.9119
  624TMC3    C7 9249   1.533   1.041  16.480 -0.3249 -0.3227 -0.4265
  624TMC3    C8 9250   1.290   0.912  16.814 -0.5531  0.9787 -0.6007
  624TMC3    O1 9251   1.629   1.040  16.406 -0.2177 -0.7914  0.1461
  624TMC3    O2 9252   1.223   0.955  16.723  0.3407 -0.2062 -0.0004
  625MPD2     C 9253   1.693   2.135   0.674 -0.0424  0.8089 -0.1351
  625MPD2    C1 9254   1.751   2.227   0.595  0.2726  0.6725  0.2003
  625MPD2    C2 9255   1.878   2.270   0.626 -0.2934 -0.1901  0.8782
  625MPD2    C3 9256   1.949   2.217   0.728 -0.3791 -0.0877  0.4766
  625MPD2    C4 9257   1.899   2.105   0.796 -0.0079  0.7190  0.7513
  625MPD2    C5 9258   1.774   2.061   0.761  0.6339 -0.0041  0.2683
  625MPD2     H 9259   1.916   2.358   0.575  0.4304 -0.6657  0.5965
  625MPD2    H1 9260   1.952   2.060   0.879 -2.3360  1.3547  2.5972
  625MPD2    H2 9261   1.592   2.100   0.657  0.1956 -0.5702  1.3490
  625MPD2    H3 9262   1.725   1.973   0.803  2.8633 -1.0682  0.6283
  625MPD2     N 9263   2.067   2.279   0.765 -0.0990  0.4008 -0.1807
  625MPD2    H5 9264   2.095   2.358   0.708 -3.1064  0.6834 -1.2880
  625MPD2    N1 9265   1.684   2.293   0.492 -0.0677 -0.1842 -0.1726
  625MPD2    H7 9266   1.732   2.370   0.446 -1.8164 -0.0781 -1.8627
  626TMC3    C1 9267   1.504   2.382   0.373  0.4802  0.0426  0.6050
  626TMC3    C2 9268   1.444   2.370   0.252  0.5133  0.0531 -0.0024
  626TMC3    C3 9269   1.396   2.490   0.205  0.3212  0.1258 -0.3337
  626TMC3    C4 9270   1.529   2.494   0.442  0.4100 -0.2541 -0.0965
  626TMC3    C5 9271   1.486   2.611   0.392  0.5029  0.6567  0.0561
  626TMC3    C6 9272   1.420   2.607   0.273  0.1332 -0.6487  0.4042
  626TMC3     C 9273   1.556   2.264   0.441 -0.5617 -0.7470  0.1748
  626TMC3     O 9274   1.487   2.166   0.464  0.2909  0.8067 -0.1572
  626TMC3     H 9275   1.425   2.272   0.210 -1.9001  0.1025  0.9825
  626TMC3    H1 9276   1.553   2.482   0.547 -1.4981  0.2565  0.3876
  626TMC3    H2 9277   1.371   2.691   0.226  3.8355  0.9889 -0.4463
  626TMC3    C7 9278   1.471   2.727   0.485 -0.4085 -0.6519 -0.0568
  626TMC3    C8 9279   1.328   2.495   0.072 -0.0032 -0.0801  0.1662
  626TMC3    O1 9280   1.564   2.729   0.569  0.5863  0.3214  0.5998
  626TMC3    O2 9281   1.330   2.603   0.020 -0.0094 -0.0491 -0.5319
  627MPD2     C 9282   4.639   2.909  14.302  0.5319  0.2957 -0.8288
  627MPD2    C1 9283   4.709   2.867  14.414 -0.5073  0.1916 -0.5278
  627MPD2    C2 9284   4.699   2.736  14.449  0.2270 -0.2353  0.5030
  627MPD2    C3 9285   4.634   2.641  14.377  0.1615 -0.7119 -0.0004
  627MPD2    C4 9286   4.567   2.678  14.261  0.0249  0.0852  0.1339
  627MPD2    C5 9287   4.575   2.812  14.219  0.6762 -0.6283 -0.3031
  627MPD2     H 9288   0.027   2.703  14.538 -0.6298 -0.8873  0.7617
  627MPD2    H1 9289   4.520   2.606  14.195  0.3876  1.5865 -1.7459
  627MPD2    H2 9290   4.651   3.009  14.264 -0.3380  0.8908  0.4805
  627MPD2    H3 9291   4.569   2.830  14.112  1.9973  2.0607  0.0709
  627MPD2     N 9292   4.642   2.506  14.415  0.2409 -0.6578  0.4737
  627MPD2    H5 9293   4.693   2.486  14.500  0.6561 -0.9232  0.1637
  627MPD2    N1 9294   0.060   2.959  14.494 -0.0517  0.4757  0.4439
  627MPD2    H7 9295   0.123   2.916  14.561 -0.9957 -2.9417 -0.8497
  628TMC3    C1 9296   0.161   3.173  14.557 -0.0980  0.3511 -0.3726
  628TMC3    C2 9297   0.274   3.108  14.601 -0.9465  0.1103  0.3751
  628TMC3    C3 9298   0.380   3.191  14.629 -0.4647 -0.0667 -0.2022
  628TMC3    C4 9299   0.146   3.306  14.552 -0.2642 -0.7122 -0.8396
  628TMC3    C5 9300   0.259   3.379  14.585 -0.1289  0.0599 -0.2416
  628TMC3    C6 9301   0.378   3.325  14.636 -0.4465  0.5225  0.9621
  628TMC3     C 9302   0.054   3.099  14.492 -0.2146  0.0683  0.7844
  628TMC3     O 9303   4.685   3.167  14.444 -0.2720 -0.1959  0.1646
  628TMC3     H 9304   0.282   3.000  14.591  1.8170  0.0496  3.0327
  628TMC3    H1 9305   0.051   3.359  14.542 -0.2908 -0.0625  2.8787
  628TMC3    H2 9306   0.459   3.393  14.662  1.2304 -1.3045  0.4746
  628TMC3    C7 9307   0.254   3.519  14.558  0.0577  0.7077 -0.2005
  628TMC3    C8 9308   0.503   3.124  14.670 -0.3763  0.6001 -0.3324
  628TMC3    O1 9309   0.347   3.586  14.601  0.5280 -0.4220 -0.5759
  628TMC3    O2 9310   0.499   3.002  14.666  0.8372  0.6192 -0.0973
  629MPD2     C 9311   3.729   1.227  16.184 -0.1025 -0.5820  0.4617
  629MPD2    C1 9312   3.715   1.211  16.319  0.3612 -0.1227  0.0260
  629MPD2    C2 9313   3.626   1.110  16.357 -0.9237  1.0831 -0.1222
  629MPD2    C3 9314   3.560   1.024  16.270 -0.0276 -0.2531 -0.6194
  629MPD2    C4 9315   3.579   1.044  16.138  0.4928 -0.4954  0.0367
  629MPD2    C5 9316   3.664   1.142  16.093  0.1745 -0.0833 -0.1867
  629MPD2     H 9317   3.607   1.096  16.463 -0.2219  0.3438 -0.0903
  629MPD2    H1 9318   3.527   0.991  16.058  0.5242 -2.0688  1.0645
  629MPD2    H2 9319   3.796   1.301  16.142 -1.1143  1.4780  2.4847
  629MPD2    H3 9320   3.684   1.148  15.986  0.7315  1.1767 -0.0078
  629MPD2     N 9321   3.475   0.928  16.329  0.5080  0.0805  0.5208
  629MPD2    H5 9322   3.465   0.920  16.429 -1.6411 -0.6504  0.2505
  629MPD2    N1 9323   3.787   1.306  16.399 -0.2246  0.7296  0.3597
  629MPD2    H7 9324   3.828   1.383  16.347 -1.2814  1.6869  0.9300
  630TMC3    C1 9325   3.898   1.402  16.574  0.6473 -0.7433  0.2021
  630TMC3    C2 9326   3.916   1.509  16.495 -0.2497  0.2943 -0.4126
  630TMC3    C3 9327   4.010   1.606  16.532  0.4405  0.7067 -0.1403
  630TMC3    C4 9328   3.985   1.377  16.671 -0.1612 -0.1657  0.5322
  630TMC3    C5 9329   4.089   1.464  16.687  0.5324  0.3252  0.5174
  630TMC3    C6 9330   4.102   1.581  16.627 -0.2002  0.0176  0.2584
  630TMC3     C 9331   3.820   1.288  16.531  0.1730 -0.1627 -0.8024
  630TMC3     O 9332   3.787   1.198  16.606 -0.1508 -0.3317  0.3984
  630TMC3     H 9333   3.830   1.539  16.435 -0.4101  1.4861  0.4176
  630TMC3    H1 9334   3.981   1.290  16.735  2.3514  2.3523  4.0334
  630TMC3    H2 9335   4.174   1.657  16.653 -0.5125 -0.0702  1.3848
  630TMC3    C7 9336   4.185   1.428  16.792  0.5415  0.4963  0.8804
  630TMC3    C8 9337   4.031   1.730  16.457 -0.2024  0.4125 -0.6123
  630TMC3    O1 9338   4.173   1.310  16.832  0.3023  0.4156  0.2337
  630TMC3    O2 9339   4.129   1.799  16.486  0.5390 -0.1950  0.1415
  631MPD2     C 9340   1.880   1.341  15.639 -0.7937  0.2053 -0.4516
  631MPD2    C1 9341   1.952   1.382  15.524  0.2500 -0.4052 -0.4066
  631MPD2    C2 9342   2.062   1.307  15.488  0.0797  0.2895 -0.1633
  631MPD2    C3 9343   2.097   1.190  15.568  0.3169 -0.1351 -0.1888
  631MPD2    C4 9344   2.010   1.146  15.669 -0.0636 -0.1205  0.2943
  631MPD2    C5 9345   1.909   1.224  15.710  0.7843 -0.4333  0.5169
  631MPD2     H 9346   2.128   1.333  15.406  0.0995 -0.6299 -0.4468
  631MPD2    H1 9347   2.025   1.048  15.714  0.8354 -0.0444  0.1660
  631MPD2    H2 9348   1.796   1.399  15.675 -0.6579  0.1662 -0.0679
  631MPD2    H3 9349   1.849   1.189  15.793  0.4179 -1.8861 -0.3606
  631MPD2     N 9350   2.224   1.139  15.543  0.3247 -0.4554 -0.1362
  631MPD2    H5 9351   2.283   1.196  15.482 -2.5054  1.3322 -1.2279
  631MPD2    N1 9352   1.891   1.488  15.459  0.0597  0.4760  0.2590
  631MPD2    H7 9353   1.798   1.518  15.488 -0.0851 -0.7918  1.0793
  632TMC3    C1 9354   1.835   1.629  15.278  0.6067  0.0056  0.5691
  632TMC3    C2 9355   1.792   1.732  15.357  0.0254 -0.3907 -0.8190
  632TMC3    C3 9356   1.691   1.809  15.316  0.7288 -0.7214  0.3476
  632TMC3    C4 9357   1.775   1.592  15.159 -0.1071  0.0296 -0.1599
  632TMC3    C5 9358   1.672   1.672  15.123 -0.5738 -0.1417 -0.7387
  632TMC3    C6 9359   1.625   1.781  15.203  0.3079 -0.6483  0.4116
  632TMC3     C 9360   1.924   1.530  15.328  0.1932 -0.9939 -0.5113
  632TMC3     O 9361   2.000   1.474  15.253  0.4577 -0.3321 -0.2212
  632TMC3     H 9362   1.852   1.747  15.446 -0.2817  2.7907 -1.1577
  632TMC3    H1 9363   1.803   1.514  15.090 -0.2857  0.3136 -0.5515
  632TMC3    H2 9364   1.547   1.844  15.162  2.4658  2.2110  0.7583
  632TMC3    C7 9365   1.610   1.660  14.990  0.7494 -0.3922 -0.2099
  632TMC3    C8 9366   1.630   1.901  15.410 -0.4369  0.3423 -0.1096
  632TMC3    O1 9367   1.561   1.763  14.944 -0.2112 -0.9314  0.1470
  632TMC3    O2 9368   1.511   1.885  15.407  0.9406 -0.1213 -0.1991
  633MPD2     C 9369   1.371   3.971  17.301 -0.1143 -0.5826  0.0489
  633MPD2    C1 9370   1.333   3.958  17.170 -0.2634 -0.0273  0.0102
  633MPD2    C2 9371   1.284   3.835  17.128 -1.1643 -0.0160  0.6381
  633MPD2    C3 9372   1.285   3.719  17.206  0.3785 -0.0909 -0.0799
  633MPD2    C4 9373   1.341   3.736  17.334 -0.1379 -0.6842  0.2805
  633MPD2    C5 9374   1.388   3.858  17.382 -0.1815 -0.3641  0.0971
  633MPD2     H 9375   1.262   3.825  17.022 -2.8410  0.4812  0.9511
  633MPD2    H1 9376   1.353   3.654  17.404 -0.6032 -0.0020  1.1514
  633MPD2    H2 9377   1.410   4.067  17.333 -2.3447 -0.0516  1.1640
  633MPD2    H3 9378   1.431   3.870  17.481 -2.2475  0.3282  0.9108
  633MPD2     N 9379   1.251   3.593  17.150 -0.2979  0.1961  0.1079
  633MPD2    H5 9380   1.280   3.514  17.206 -1.2371 -0.5853 -0.5177
  633MPD2    N1 9381   1.335   4.056  17.071 -0.6036  0.5181 -0.0435
  633MPD2    H7 9382   1.331   4.021  16.976 -0.1951 -0.1186  0.1702
  634TMC3    C1 9383   1.380   4.250  16.961 -0.8424 -0.2441 -0.2480
  634TMC3    C2 9384   1.428   4.172  16.856 -0.2988 -0.7184 -0.4768
  634TMC3    C3 9385   1.472   4.240  16.746 -0.7724 -0.2161  0.6601
  634TMC3    C4 9386   1.356   4.385  16.948  0.3999  0.2831  0.2644
  634TMC3    C5 9387   1.387   4.436  16.828 -0.5203 -0.0527 -0.1355
  634TMC3    C6 9388   1.441   4.367  16.725 -0.7700  0.7752 -0.3952
  634TMC3     C 9389   1.348   4.189  17.090  0.0658 -0.2864  0.1060
  634TMC3     O 9390   1.333   4.252  17.195  0.0301 -0.2443 -0.0567
  634TMC3     H 9391   1.465   4.070  16.863 -0.9628 -0.9249  0.0430
  634TMC3    H1 9392   1.321   4.444  17.032 -2.3642 -0.1243 -0.6145
  634TMC3    H2 9393   1.450   4.415  16.628  0.3601  1.1299 -0.1099
  634TMC3    C7 9394   1.351   4.573  16.794 -1.2881 -0.0750  0.2540
  634TMC3    C8 9395   1.477   4.158  16.623 -0.0797  0.8338  0.7668
  634TMC3    O1 9396   1.419   4.613  16.695  1.1043 -0.0972 -0.1728
  634TMC3    O2 9397   1.448   4.043  16.625  0.4062  0.3399  0.1539
  635TMC3    C1 9398   2.844   0.356  16.972 -0.0512 -0.1422 -0.3926
  635TMC3    C2 9399   2.778   0.414  16.868 -0.4881 -0.1387 -0.2080
  635TMC3    C3 9400   2.832   0.427  16.747  0.1746 -0.6492  0.0104
  635TMC3    C4 9401   2.968   0.299  16.955 -0.6705  0.3770 -1.9599
  635TMC3    C5 9402   3.023   0.317  16.830 -0.5385  0.9202 -0.1549
  635TMC3    C6 9403   2.960   0.377  16.727  0.2183 -0.2755  0.2639
  635TMC3     C 9404   2.779   0.370  17.102 -0.6902 -0.2074  0.7887
  635TMC3     O 9405   2.692   0.459  17.104  0.1781 -0.1407  0.2652
  635TMC3     H 9406   2.681   0.459  16.887 -0.6939 -0.6386 -0.0681
  635TMC3    H1 9407   3.028   0.275  17.042 -1.0890 -0.1398 -1.8134
  635TMC3    H2 9408   3.011   0.397  16.634 -0.0583 -0.8886 -0.0170
  635TMC3    C7 9409   3.160   0.277  16.806 -0.4175  0.1166 -0.0654
  635TMC3    C8 9410   2.786   0.538  16.656 -0.7020 -0.0774  0.4369
  635TMC3    O1 9411   3.206   0.301  16.693  0.4847 -0.6136  0.0132
  635TMC3    O2 9412   2.867   0.622  16.618 -0.0810  0.3839  0.4845
  636MPD2     C 9413   2.521   4.224  15.574  0.4836  0.0799 -0.2513
  636MPD2    C1 9414   2.540   4.332  15.660  0.4435  0.5503  0.3597
  636MPD2    C2 9415   2.594   4.302  15.780  0.0163 -0.5391  0.3529
  636MPD2    C3 9416   2.656   4.182  15.808  0.0759  0.0168 -0.7170
  636MPD2    C4 9417   2.641   4.079  15.721  0.1069 -0.4836  0.3482
  636MPD2    C5 9418   2.560   4.102  15.612 -0.0756 -0.2594 -0.2425
  636MPD2     H 9419   2.609   4.382  15.852 -0.9584 -0.3001  0.2872
  636MPD2    H1 9420   2.696   3.985  15.725 -0.5371 -0.8693 -0.0023
  636MPD2    H2 9421   2.468   4.222  15.479 -0.7173 -0.6377  0.4280
  636MPD2    H3 9422   2.533   4.016  15.553 -1.7065 -0.5517  0.9326
  636MPD2     N 9423   2.740   4.180  15.925 -0.2511 -0.0505  0.0384
  636MPD2    H5 9424   2.743   4.271  15.969  2.0076  0.2260 -0.6927
  636MPD2    N1 9425   2.492   4.462  15.638  0.3311 -0.1300 -0.2246
  636MPD2    H7 9426   2.479   4.521  15.719  4.3617 -0.2597  0.5115
  637TMC3    C1 9427   2.907   4.106  16.084  0.0864 -0.1114 -0.2621
  637TMC3    C2 9428   2.896   4.226  16.154  1.1761  0.1108  0.8519
  637TMC3    C3 9429   2.984   4.244  16.262  0.7111  0.1921  0.1026
  637TMC3    C4 9430   2.982   4.000  16.131  0.1510  0.5126 -0.3070
  637TMC3    C5 9431   3.074   4.026  16.231  0.4725 -0.0080 -0.6067
  637TMC3    C6 9432   3.059   4.144  16.300 -0.2424 -0.0937 -0.0944
  637TMC3     C 9433   2.814   4.078  15.975  0.1592  0.8484  0.2829
  637TMC3     O 9434   2.804   3.960  15.945 -0.1342 -0.2018 -0.6331
  637TMC3     H 9435   2.853   4.316  16.111 -0.0338 -0.1663  1.4867
  637TMC3    H1 9436   2.984   3.910  16.071 -1.9475 -1.3783  2.5097
  637TMC3    H2 9437   3.136   4.172  16.372  0.0361 -1.1601  0.0319
  637TMC3    C7 9438   3.213   4.018  16.187  0.0757  0.6170 -0.0636
  637TMC3    C8 9439   3.028   4.384  16.291  0.2291  0.2307 -0.0912
  637TMC3    O1 9440   3.298   4.072  16.254  0.0390 -0.2623  0.6458
  637TMC3    O2 9441   3.012   4.469  16.204 -0.3273 -0.5573 -0.3123
  638MPD2     C 9442   2.695   3.481  14.803 -0.5451  0.2190  0.4649
  638MPD2    C1 9443   2.606   3.397  14.734 -0.5188  0.7646  0.2690
  638MPD2    C2 9444   2.534   3.303  14.794 -0.0742 -0.3269  0.7349
  638MPD2    C3 9445   2.548   3.279  14.923 -0.3413 -0.1785 -0.7548
  638MPD2    C4 9446   2.627   3.363  14.998 -0.6203 -0.3426  0.0349
  638MPD2    C5 9447   2.708   3.460  14.937  0.0240 -0.5454  0.1764
  638MPD2     H 9448   2.454   3.254  14.740  0.0689 -0.0518  0.2657
  638MPD2    H1 9449   2.639   3.347  15.105 -0.7588  3.3709  0.6160
  638MPD2    H2 9450   2.753   3.556  14.750 -2.5722  1.1041 -0.5091
  638MPD2    H3 9451   2.775   3.513  15.003  0.2348 -2.7033  1.7023
  638MPD2     N 9452   2.484   3.163  14.971  0.1417 -0.1183  0.6752
  638MPD2    H5 9453   2.430   3.104  14.908  1.2231 -0.5761  0.1823
  638MPD2    N1 9454   2.613   3.407  14.590 -0.0089 -0.3902  0.7629
  638MPD2    H7 9455   2.681   3.466  14.544 -0.4157 -0.6601 -0.1902
  639TMC3    C1 9456   2.435   2.976  15.121  0.1847  0.3580  0.5604
  639TMC3    C2 9457   2.336   2.938  15.031  0.2993 -0.8824  0.5638
  639TMC3    C3 9458   2.260   2.828  15.070 -0.5311 -0.3674  0.0083
  639TMC3    C4 9459   2.442   2.919  15.240  0.1661  0.0318 -0.0305
  639TMC3    C5 9460   2.361   2.816  15.275 -0.5663  0.1493 -0.4976
  639TMC3    C6 9461   2.273   2.766  15.185  0.3803  0.2497  0.5096
  639TMC3     C 9462   2.498   3.109  15.095 -0.1415 -0.8789 -0.0650
  639TMC3     O 9463   2.566   3.146  15.190 -0.0382  0.3302 -0.0869
  639TMC3     H 9464   2.330   2.985  14.934 -1.3957 -2.4888 -0.1171
  639TMC3    H1 9465   2.508   2.954  15.318 -0.6335 -0.4335  0.8669
  639TMC3    H2 9466   2.224   2.675  15.216 -0.0813  0.5905  0.7753
  639TMC3    C7 9467   2.427   2.715  15.367 -0.3007 -0.5473 -0.6562
  639TMC3    C8 9468   2.177   2.771  14.976  0.1037  0.2056  0.8856
  639TMC3    O1 9469   2.362   2.637  15.432 -0.2778 -0.5607  0.5449
  639TMC3    O2 9470   2.233   2.729  14.875  0.5150 -0.1483  0.4363
  640MPD2     C 9471   3.788   2.575   9.556 -0.5878 -0.2215 -0.1761
  640MPD2    C1 9472   3.730   2.454   9.593  1.1039  0.1599 -0.3218
  640MPD2    C2 9473   3.596   2.434   9.584  0.2908  0.4088 -0.1464
  640MPD2    C3 9474   3.518   2.525   9.515 -0.0785  0.0836  0.4712
  640MPD2    C4 9475   3.580   2.642   9.473 -0.1863  0.3474 -0.0532
  640MPD2    C5 9476   3.706   2.668   9.495  0.2092 -0.0299  0.1229
  640MPD2     H 9477   3.552   2.341   9.618  0.8474  0.5392  0.9303
  640MPD2    H1 9478   3.522   2.716   9.419  0.2683  1.1265  0.5435
  640MPD2    H2 9479   3.895   2.591   9.565 -0.6147  0.3563 -0.8432
  640MPD2    H3 9480   3.757   2.749   9.444  0.6668 -0.1269  0.4279
  640MPD2     N 9481   3.380   2.520   9.502 -0.1783 -0.7797  0.4856
  640MPD2    H5 9482   3.336   2.596   9.450  2.1884 -0.1497 -0.6270
  640MPD2    N1 9483   3.818   2.367   9.654 -0.0766  0.1464 -0.2259
  640MPD2    H7 9484   3.913   2.403   9.654  0.2952 -0.8243 -0.0450
  641TMC3    C1 9485   3.898   2.192   9.802  0.1841 -0.3465  0.2113
  641TMC3    C2 9486   3.878   2.067   9.856 -0.5617  0.1729 -0.2794
  641TMC3    C3 9487   3.978   2.021   9.943 -0.6530  0.5601  0.3751
  641TMC3    C4 9488   4.021   2.255   9.817 -1.0478  0.0776 -0.2509
  641TMC3    C5 9489   4.126   2.201   9.886 -0.1891  0.1937  1.2193
  641TMC3    C6 9490   4.099   2.085   9.960 -0.8889 -0.2274 -0.1942
  641TMC3     C 9491   3.786   2.247   9.716  0.4443  0.8266  0.2872
  641TMC3     O 9492   3.678   2.188   9.736  0.0082 -0.5480 -0.2902
  641TMC3     H 9493   3.784   2.017   9.836 -1.0993  1.3236 -0.6131
  641TMC3    H1 9494   4.037   2.350   9.768  0.4042 -0.8364 -1.5667
  641TMC3    H2 9495   4.160   2.064  10.048 -0.7115  1.2458  0.0401
  641TMC3    C7 9496   4.234   2.289   9.919  0.2208  0.7475  1.0508
  641TMC3    C8 9497   3.952   1.882   9.996 -0.4349 -0.2303  0.3072
  641TMC3    O1 9498   4.208   2.405   9.899  0.3327  0.3230  0.0886
  641TMC3    O2 9499   3.850   1.836   9.962 -0.1031  0.5139 -0.1516
  642TMC3    C1 9500   3.694   3.469  12.230  0.3537 -0.7821 -0.1760
  642TMC3    C2 9501   3.814   3.533  12.234  0.2737 -0.0970  0.1281
  642TMC3    C3 9502   3.912   3.472  12.162  0.2266 -0.1254  0.1546
  642TMC3    C4 9503   3.661   3.370  12.146 -0.5506  0.2128 -0.5330
  642TMC3    C5 9504   3.767   3.313  12.082  0.0147  0.0997 -0.0696
  642TMC3    C6 9505   3.894   3.361  12.086 -0.3835 -0.1015 -0.1538
  642TMC3     C 9506   3.595   3.525  12.314 -0.6072 -0.1340 -0.4606
  642TMC3     O 9507   3.485   3.473  12.299 -0.0496 -0.7403 -0.6111
  642TMC3     H 9508   3.830   3.626  12.287 -0.2727  0.5381 -0.8264
  642TMC3    H1 9509   3.559   3.333  12.150 -1.3665  2.4351 -0.6511
  642TMC3    H2 9510   3.983   3.324  12.034  0.1758  0.8071  0.1707
  642TMC3    C7 9511   3.750   3.167  12.051 -1.0287  0.1108 -0.0388
  642TMC3    C8 9512   4.038   3.480  12.232 -0.1493  0.1798  0.0746
  642TMC3    O1 9513   3.836   3.114  11.976  0.4429 -0.4936  0.4861
  642TMC3    O2 9514   4.038   3.527  12.346 -0.8420  0.0100 -0.0354
  643TMC3    C1 9515   3.306   2.268   0.840  0.2790  0.2185  0.5727
  643TMC3    C2 9516   3.179   2.323   0.866  0.2722 -0.4140  0.0602
  643TMC3    C3 9517   3.073   2.279   0.787  0.2721  0.2286 -0.4804
  643TMC3    C4 9518   3.320   2.170   0.738  0.3110  0.1614  0.6428
  643TMC3    C5 9519   3.213   2.133   0.667  0.4611 -0.2626 -0.6076
  643TMC3    C6 9520   3.088   2.179   0.697 -0.4456  0.0918  0.1474
  643TMC3     C 9521   3.401   2.378   0.841  0.0589  0.4030  0.6995
  643TMC3     O 9522   3.355   2.490   0.842 -0.1719  0.8702  0.6477
  643TMC3     H 9523   3.162   2.407   0.932 -0.9518  0.4719 -1.3889
  643TMC3    H1 9524   3.422   2.147   0.711  0.6243  1.5427  0.6504
  643TMC3    H2 9525   3.004   2.145   0.637  1.6408 -0.8764 -2.2113
  643TMC3    C7 9526   3.245   2.117   0.523 -1.0048  0.5554  0.0392
  643TMC3    C8 9527   2.987   2.383   0.739 -0.4022  0.1582  0.5799
  643TMC3    O1 9528   3.355   2.160   0.485 -0.3553 -0.4791 -0.0482
  643TMC3    O2 9529   2.872   2.352   0.715  0.0754  0.1177  0.2310
  644MPD2     C 9530   0.857   2.560   9.508  0.4194 -1.0468  0.5898
  644MPD2    C1 9531   0.835   2.475   9.406  0.6342 -0.2626  0.4776
  644MPD2    C2 9532   0.910   2.490   9.288 -1.0867  0.2942  0.0636
  644MPD2    C3 9533   0.989   2.604   9.272  0.2510  0.1837 -0.0145
  644MPD2    C4 9534   1.011   2.688   9.379  0.4220  0.4060  0.3297
  644MPD2    C5 9535   0.944   2.665   9.495  0.4020  0.4020 -0.2445
  644MPD2     H 9536   0.909   2.416   9.208 -0.8303  1.1592 -0.7382
  644MPD2    H1 9537   1.083   2.769   9.377  0.9773 -0.0994 -0.3992
  644MPD2    H2 9538   0.792   2.548   9.594  1.1693  0.5985  1.4035
  644MPD2    H3 9539   0.961   2.739   9.572  0.8241 -0.1661  0.2125
  644MPD2     N 9540   1.067   2.612   9.151 -0.3031 -0.1880  0.4491
  644MPD2    H5 9541   1.049   2.540   9.082 -1.0805 -2.2088  2.7473
  644MPD2    N1 9542   0.750   2.363   9.429 -0.3492  0.3503 -0.2261
  644MPD2    H7 9543   0.726   2.360   9.527 -3.5927  1.1758 -0.9952
  645TMC3    C1 9544   1.218   2.684   8.984 -0.4762  0.0418 -0.1209
  645TMC3    C2 9545   1.227   2.558   8.945  0.1930 -0.4738 -0.1799
  645TMC3    C3 9546   1.298   2.538   8.833 -0.8398  0.5289  0.3755
  645TMC3    C4 9547   1.276   2.788   8.921 -0.0181  0.1788  0.5814
  645TMC3    C5 9548   1.343   2.758   8.806 -0.8626  0.1474  0.3832
  645TMC3    C6 9549   1.361   2.632   8.764  0.6706  0.0792  0.2580
  645TMC3     C 9550   1.169   2.703   9.121 -0.1755 -0.2276  0.2681
  645TMC3     O 9551   1.203   2.803   9.184 -0.4740 -0.3639 -0.0840
  645TMC3     H 9552   1.181   2.479   9.003  0.9095 -2.3897 -2.1840
  645TMC3    H1 9553   1.271   2.883   8.974  0.0612  0.6137 -0.1999
  645TMC3    H2 9554   1.423   2.607   8.679 -1.8526 -1.8237 -1.0337
  645TMC3    C7 9555   1.394   2.864   8.722  0.0544  0.9272 -0.8161
  645TMC3    C8 9556   1.308   2.405   8.773  0.2812 -0.2651 -0.0216
  645TMC3    O1 9557   1.451   2.823   8.624  0.3183  0.4509 -0.1258
  645TMC3    O2 9558   1.392   2.381   8.688  0.3440 -0.3089 -0.5813
  646MPD2     C 9559   2.684   2.096  14.532 -0.4983  0.2671  0.8939
  646MPD2    C1 9560   2.594   2.021  14.612  0.2172 -0.6414 -0.2051
  646MPD2    C2 9561   2.455   2.031  14.589 -0.1684  0.6884 -0.5654
  646MPD2    C3 9562   2.413   2.136  14.510 -0.7092  0.0793 -0.0240
  646MPD2    C4 9563   2.500   2.217  14.437 -0.6452  0.4725 -0.0567
  646MPD2    C5 9564   2.633   2.189  14.450 -0.1543 -0.1825 -0.5024
  646MPD2     H 9565   2.389   1.953  14.625 -1.5369  1.8186 -0.6129
  646MPD2    H1 9566   2.474   2.303  14.376  0.1928  0.8875  0.1695
  646MPD2    H2 9567   2.791   2.092  14.549  0.1601  1.3877 -3.0783
  646MPD2    H3 9568   2.701   2.255  14.398  0.1798  0.0618  0.2397
  646MPD2     N 9569   2.274   2.149  14.498 -0.3305 -0.0568  0.0068
  646MPD2    H5 9570   2.216   2.087  14.554 -0.6768 -2.1631 -2.6851
  646MPD2    N1 9571   2.648   1.938  14.704 -0.1627 -0.0625  0.1253
  646MPD2    H7 9572   2.749   1.943  14.706 -0.1905  0.4038  0.5186
  647TMC3    C1 9573   2.670   1.810  14.898 -0.3522 -0.1954  0.1422
  647TMC3    C2 9574   2.620   1.698  14.956  0.0451 -0.0095  0.2354
  647TMC3    C3 9575   2.707   1.620  15.021  0.1002 -0.1486  0.5013
  647TMC3    C4 9576   2.806   1.842  14.903 -0.1043 -0.1985  0.5111
  647TMC3    C5 9577   2.890   1.749  14.967 -0.0531  0.1194 -0.9522
  647TMC3    C6 9578   2.839   1.647  15.044 -1.2767  0.5952 -0.2463
  647TMC3     C 9579   2.583   1.892  14.814  0.2264  0.4290 -0.2727
  647TMC3     O 9580   2.467   1.903  14.852  0.1135  0.3248 -0.1888
  647TMC3     H 9581   2.515   1.672  14.950  0.2546 -1.3413  2.7067
  647TMC3    H1 9582   2.855   1.926  14.855 -2.2827  1.2566  0.8353
  647TMC3    H2 9583   2.904   1.593  15.112  2.5676  1.2228 -3.4101
  647TMC3    C7 9584   3.032   1.766  14.986 -0.2068 -0.2188  0.3286
  647TMC3    C8 9585   2.662   1.497  15.083 -0.0332  0.2197 -0.4502
  647TMC3    O1 9586   3.087   1.694  15.068 -0.0155 -0.5617  0.3021
  647TMC3    O2 9587   2.742   1.436  15.156 -0.1591  0.1231  0.1586
  648TMC3    C1 9588   1.833   4.187  15.868 -0.0640 -0.6170 -0.8574
  648TMC3    C2 9589   1.876   4.100  15.776 -0.1819 -0.0480 -0.3251
  648TMC3    C3 9590   1.811   4.103  15.647 -0.0770  0.9073  0.4554
  648TMC3    C4 9591   1.731   4.274  15.842 -0.4590 -0.1463  0.2405
  648TMC3    C5 9592   1.673   4.274  15.720  0.5494  0.2817  0.5374
  648TMC3    C6 9593   1.708   4.189  15.619  0.1142 -0.5034  0.6781
  648TMC3     C 9594   1.869   4.182  16.006  0.6535 -0.0460 -0.1930
  648TMC3     O 9595   1.876   4.291  16.063 -0.1776 -0.7470 -0.0986
  648TMC3     H 9596   1.957   4.036  15.809  1.3743  1.8635 -0.4901
  648TMC3    H1 9597   1.696   4.338  15.922 -0.3032 -0.2828  0.4148
  648TMC3    H2 9598   1.649   4.185  15.528  0.3126 -0.3427  0.5448
  648TMC3    C7 9599   1.618   4.398  15.666  0.0500 -0.2130  0.2782
  648TMC3    C8 9600   1.824   3.998  15.551 -0.6301  0.0913 -0.7713
  648TMC3    O1 9601   1.645   4.407  15.551  0.7071 -0.0389  0.3623
  648TMC3    O2 9602   1.737   3.986  15.466 -0.4081 -0.0546 -0.2089
  649TMC3    C1 9603   1.019   1.162  12.337 -0.5395  0.2205 -0.2686
  649TMC3    C2 9604   1.140   1.160  12.273 -0.5149 -0.2459  0.3770
  649TMC3    C3 9605   1.243   1.102  12.353 -0.4621 -0.2801  0.2734
  649TMC3    C4 9606   1.005   1.121  12.466 -0.0945  0.0971 -0.8672
  649TMC3    C5 9607   1.105   1.060  12.534 -0.4929 -0.0928  0.3035
  649TMC3    C6 9608   1.227   1.052  12.479  1.0778  0.1950 -0.5435
  649TMC3     C 9609   0.900   1.179  12.265 -0.5154  0.2805 -0.0305
  649TMC3     O 9610   0.796   1.158  12.331  0.2393  0.0220 -0.0335
  649TMC3     H 9611   1.159   1.218  12.183 -1.6457  2.1980  1.7362
  649TMC3    H1 9612   0.905   1.113  12.508  0.2137 -0.7408 -0.3006
  649TMC3    H2 9613   1.312   1.023  12.539  1.0885 -1.5765 -1.4260
  649TMC3    C7 9614   1.080   0.971  12.645  0.5379  0.0496 -0.9079
  649TMC3    C8 9615   1.368   1.092  12.294 -0.1469  0.1990  0.1126
  649TMC3    O1 9616   0.974   0.980  12.704  0.0452 -0.0075  0.1692
  649TMC3    O2 9617   1.456   1.045  12.364 -0.1072 -0.0518  0.3891
  650TMC3    C1 9618   2.845   2.726  12.529 -0.7708 -0.1517 -0.1336
  650TMC3    C2 9619   2.745   2.814  12.549  0.0098  0.1187  0.3086
  650TMC3    C3 9620   2.730   2.904  12.453  0.0043  0.1219 -0.2351
  650TMC3    C4 9621   2.929   2.710  12.421 -0.5440  0.0274  0.2660
  650TMC3    C5 9622   2.904   2.803  12.323 -0.3976  0.0634  0.4570
  650TMC3    C6 9623   2.803   2.888  12.337  0.1709 -0.2112 -0.4536
  650TMC3     C 9624   2.866   2.637  12.639 -0.6353 -0.2923 -0.4402
  650TMC3     O 9625   2.796   2.638  12.739 -0.7643  0.0629  0.0935
  650TMC3     H 9626   2.695   2.820  12.645 -0.7898  2.4308 -0.2534
  650TMC3    H1 9627   3.020   2.652  12.407 -1.4393 -0.9840 -1.3950
  650TMC3    H2 9628   2.761   2.928  12.246 -1.5199  1.3518  1.0186
  650TMC3    C7 9629   3.011   2.831  12.226 -0.0006  0.3710  0.2514
  650TMC3    C8 9630   2.709   3.038  12.490 -0.3594  0.1728  0.6061
  650TMC3    O1 9631   3.088   2.744  12.199  0.3445  0.4384 -0.4447
  650TMC3    O2 9632   2.770   3.122  12.424  0.3710  0.0912  0.5749
  651MPD2     C 9633   2.373   4.476  10.774 -0.4090  0.3781 -0.8035
  651MPD2    C1 9634   2.298   4.572  10.713  0.9666 -0.3172 -0.7829
  651MPD2    C2 9635   2.354   4.698  10.706 -0.0773 -0.4753  0.4944
  651MPD2    C3 9636   2.484   0.008  10.751  0.1687 -0.4500  0.2861
  651MPD2    C4 9637   2.555   4.627  10.803  0.1101 -0.0582  0.0205
  651MPD2    C5 9638   2.500   4.501  10.817  0.6711 -0.1238  0.1352
  651MPD2     H 9639   2.293   0.050  10.659 -0.5925 -0.4189  1.2634
  651MPD2    H1 9640   2.649   4.642  10.856  0.1554  0.6028 -0.2409
  651MPD2    H2 9641   2.353   4.370  10.780  1.4942  0.0308 -0.5247
  651MPD2    H3 9642   2.567   4.426  10.856  0.6990  0.1132  0.5496
  651MPD2     N 9643   2.535   0.135  10.721 -0.7658 -0.3646  0.8923
  651MPD2    H5 9644   2.476   0.197  10.664 -0.3211 -0.8600 -0.1021
  651MPD2    N1 9645   2.158   4.553  10.692 -0.0753 -0.0893  0.4835
  651MPD2    H7 9646   2.111   4.636  10.657 -0.2612 -0.8810 -1.1222
  652TMC3    C1 9647   2.905   0.367  10.560  0.0105 -0.5065  0.0156
  652TMC3    C2 9648   2.847   0.283  10.650  0.2431 -0.1997 -0.2751
  652TMC3    C3 9649   2.707   0.277  10.653  0.6181 -0.9255 -0.3389
  652TMC3    C4 9650   2.828   0.447  10.474 -0.3667 -0.1365  0.0110
  652TMC3    C5 9651   2.690   0.433  10.487 -0.0503 -0.7080  0.2446
  652TMC3    C6 9652   2.627   0.348  10.567  0.1294 -0.6931 -0.0562
  652TMC3     C 9653   3.046   0.381  10.579 -0.2084 -0.2321  0.5177
  652TMC3     O 9654   3.090   0.338  10.686  0.5930  1.5983 -0.6473
  652TMC3     H 9655   2.905   0.233  10.726  0.9551 -0.1377 -0.7760
  652TMC3    H1 9656   2.871   0.506  10.394  2.3840 -1.3371  0.6080
  652TMC3    H2 9657   2.519   0.338  10.562  0.1224 -0.7862  0.2735
  652TMC3    C7 9658   2.607   0.509  10.395  0.2466 -1.0222 -0.3080
  652TMC3    C8 9659   2.655   0.182  10.755 -0.1293 -0.0039 -0.0977
  652TMC3    O1 9660   2.505   0.460  10.352  0.2771  0.0590  0.1322
  652TMC3    O2 9661   2.729   0.142  10.848  0.2711 -0.6506  0.3732
  653MPD2     C 9662   1.117   3.780  17.626 -0.2840 -0.2044  0.0560
  653MPD2    C1 9663   1.103   3.887  17.543 -0.6549 -1.0855  0.8478
  653MPD2    C2 9664   1.030   3.877  17.425 -0.1483  0.2783 -0.4954
  653MPD2    C3 9665   0.972   3.757  17.381 -0.5382 -0.0903  0.6909
  653MPD2    C4 9666   0.989   3.650  17.467 -0.1196  0.5835 -0.6471
  653MPD2    C5 9667   1.066   3.657  17.584  0.5198  0.2803 -0.9020
  653MPD2     H 9668   1.023   3.963  17.359 -0.2570 -0.5565 -1.5615
  653MPD2    H1 9669   0.947   3.550  17.452 -1.9972  1.0639  1.4821
  653MPD2    H2 9670   1.166   3.780   0.026  0.1131 -0.5167 -0.1455
  653MPD2    H3 9671   1.087   3.569  17.644 -3.6061 -1.1641 -1.5762
  653MPD2     N 9672   0.898   3.757  17.262  0.1739 -0.0289 -1.4587
  653MPD2    H5 9673   0.864   3.848  17.232 -0.2753 -0.1478 -1.3104
  653MPD2    N1 9674   1.167   4.011  17.573  1.2386 -0.3943  0.2615
  653MPD2    H7 9675   1.137   4.098  17.529  3.0121  1.1200  2.0483
  654TMC3    C1 9676   0.781   3.666  17.078 -0.3123 -0.2829 -0.2933
  654TMC3    C2 9677   0.772   3.788  17.021  0.2675 -0.3157 -0.0487
  654TMC3    C3 9678   0.716   3.802  16.896  0.0922 -1.0068 -0.5766
  654TMC3    C4 9679   0.744   3.558  17.004 -0.4205  0.1748  0.0614
  654TMC3    C5 9680   0.691   3.572  16.879 -0.6598  0.1115 -0.9760
  654TMC3    C6 9681   0.682   3.694  16.816  0.6526  0.1337  0.1752
  654TMC3     C 9682   0.859   3.643  17.197  0.5838  0.2543 -0.1035
  654TMC3     O 9683   0.900   3.530  17.217 -0.4784 -0.1838 -0.5002
  654TMC3     H 9684   0.804   3.877  17.073  0.3342  0.3619 -1.2396
  654TMC3    H1 9685   0.749   3.465  17.060 -3.4946  0.1778  0.3232
  654TMC3    H2 9686   0.630   3.707  16.722  1.5926 -0.5647 -0.4426
  654TMC3    C7 9687   0.679   3.457  16.795  0.7258 -0.1186 -0.3979
  654TMC3    C8 9688   0.715   3.943  16.854 -0.0524  0.7179  0.7134
  654TMC3    O1 9689   0.633   3.480  16.685  0.2042  0.3327 -0.4114
  654TMC3    O2 9690   0.654   4.021  16.925 -0.3860  0.5846  0.1715
  655MPD2     C 9691   2.174   4.212  15.508 -0.4728 -0.4098  0.4697
  655MPD2    C1 9692   2.118   4.322  15.449 -0.3067  0.4590 -0.2071
  655MPD2    C2 9693   2.117   4.326  15.306 -0.2096  0.2433 -0.1344
  655MPD2    C3 9694   2.181   4.236  15.229  0.2596 -0.3072 -0.1377
  655MPD2    C4 9695   2.241   4.134  15.291 -0.1506  0.2798  0.5598
  655MPD2    C5 9696   2.239   4.120  15.429  0.2456  0.2622 -0.3277
  655MPD2     H 9697   2.086   4.420  15.260 -1.2312 -0.2372 -0.4209
  655MPD2    H1 9698   2.305   4.064  15.240  1.2445  1.5038  0.6271
  655MPD2    H2 9699   2.168   4.198  15.615 -2.6184 -0.8895  0.2918
  655MPD2    H3 9700   2.288   4.032  15.469  2.0170  1.7226  0.7180
  655MPD2     N 9701   2.190   4.255  15.090 -0.6084 -0.2875 -0.5964
  655MPD2    H5 9702   2.265   4.205  15.044  0.7225  0.4323  0.7667
  655MPD2    N1 9703   2.056   4.423  15.518  0.2763 -0.0400 -0.4091
  655MPD2    H7 9704   2.024   4.506  15.468 -0.9547  0.0355  0.4895
  656TMC3    C1 9705   1.990   4.557  15.700 -0.1044  0.5039  0.2734
  656TMC3    C2 9706   1.945   4.564  15.828  0.4404  0.1326  0.3247
  656TMC3    C3 9707   1.878   4.679  15.867 -0.4384 -0.2636  0.2740
  656TMC3    C4 9708   1.979   4.669  15.616 -0.2045 -0.8419 -0.0231
  656TMC3    C5 9709   1.920   0.058  15.667 -0.3567 -1.2517 -0.6900
  656TMC3    C6 9710   1.857   0.059  15.783 -0.9063  0.3381 -0.1289
  656TMC3     C 9711   2.032   4.420  15.652 -1.1815 -0.1120 -0.7307
  656TMC3     O 9712   2.056   4.335  15.738 -0.0277 -0.2812  0.0460
  656TMC3     H 9713   1.946   4.483  15.900  2.0591 -1.5368 -1.5555
  656TMC3    H1 9714   1.996   4.669  15.509 -0.8238  1.0656 -0.1283
  656TMC3    H2 9715   1.800   0.146  15.814  1.1362  0.6399  2.8380
  656TMC3    C7 9716   1.931   0.176  15.576 -0.4542 -0.1422  0.0397
  656TMC3    C8 9717   1.796   4.662  15.984 -0.6269  0.2765 -0.1581
  656TMC3    O1 9718   2.007   0.154  15.484  0.5264  0.5171 -0.2682
  656TMC3    O2 9719   1.754   4.548  16.007 -0.1094 -0.1781  0.3734
  657TMC3    C1 9720   1.283   3.459  14.698 -0.7480  0.5361 -0.1200
  657TMC3    C2 9721   1.315   3.423  14.823 -0.5545 -0.4002  0.9338
  657TMC3    C3 9722   1.241   3.463  14.929 -0.6377 -0.6854 -1.0407
  657TMC3    C4 9723   1.177   3.539  14.675  0.4409  0.0526  0.5630
  657TMC3    C5 9724   1.111   3.591  14.780 -0.4983 -0.0949 -0.2722
  657TMC3    C6 9725   1.140   3.557  14.911 -0.4503 -0.2149 -0.0838
  657TMC3     C 9726   1.363   3.411  14.591  0.4375  0.3596 -0.0513
  657TMC3     O 9727   1.307   3.398  14.484  0.9061 -0.3635  0.1160
  657TMC3     H 9728   1.392   3.347  14.834 -2.0225 -1.9677  0.4283
  657TMC3    H1 9729   1.161   3.575  14.574  2.2448 -0.4454  0.0817
  657TMC3    H2 9730   1.081   3.604  14.990  0.4753 -1.7763  1.5395
  657TMC3    C7 9731   1.028   3.704  14.733  0.4770  0.2717 -0.3451
  657TMC3    C8 9732   1.262   3.403  15.059  0.6619  0.4652  0.5222
  657TMC3    O1 9733   1.019   3.738  14.613 -0.0426  0.1587  0.2868
  657TMC3    O2 9734   1.163   3.391  15.133 -0.2211  0.4404 -0.3803
  658MPD2     C 9735   2.691   4.244  14.597 -0.3603 -0.3449 -0.0193
  658MPD2    C1 9736   2.568   4.284  14.555 -0.5515  0.9947 -0.4418
  658MPD2    C2 9737   2.553   4.367  14.443  0.1344  1.2000  0.1296
  658MPD2    C3 9738   2.666   4.395  14.365 -0.2862  0.2468  0.1688
  658MPD2    C4 9739   2.785   4.341  14.399 -0.0146 -0.0487 -0.2830
  658MPD2    C5 9740   2.799   4.270  14.514 -0.1693 -1.1378 -0.3327
  658MPD2     H 9741   2.456   4.409  14.416  0.6059  2.0450 -0.2690
  658MPD2    H1 9742   2.872   4.362  14.337  0.3165 -1.4441 -0.2976
  658MPD2    H2 9743   2.710   4.172  14.677  0.6292 -0.2625 -0.1795
  658MPD2    H3 9744   2.893   4.223  14.538 -0.2278 -0.1727  1.7828
  658MPD2     N 9745   2.648   4.478  14.255  0.3366  0.3281 -0.0703
  658MPD2    H5 9746   2.556   4.520  14.243  0.1029 -0.0402  0.4221
  658MPD2    N1 9747   2.461   4.255  14.642  0.0961  0.3713 -0.4382
  658MPD2    H7 9748   2.480   4.217  14.734  0.3006 -0.4377 -0.8102
  659TMC3    C1 9749   2.221   4.227  14.690  0.0486 -0.0665 -0.0866
  659TMC3    C2 9750   2.224   4.279  14.815 -0.3859 -0.0879  0.2409
  659TMC3    C3 9751   2.107   4.289  14.876  0.2158  0.0033 -0.5179
  659TMC3    C4 9752   2.102   4.193  14.621  0.2697  0.4791  0.0934
  659TMC3    C5 9753   1.989   4.184  14.702  0.1537 -0.0382  0.2015
  659TMC3    C6 9754   1.991   4.239  14.826  0.0427 -0.7119 -0.1426
  659TMC3     C 9755   2.331   4.258  14.595 -0.6323  0.0862  0.4360
  659TMC3     O 9756   2.282   4.283  14.487  0.0130  0.0421  0.3667
  659TMC3     H 9757   2.313   4.313  14.866  0.6672 -2.2371 -0.1424
  659TMC3    H1 9758   2.107   4.168  14.516 -0.1397  2.8802 -0.4873
  659TMC3    H2 9759   1.905   4.242  14.892  0.0624  1.6174 -0.2198
  659TMC3    C7 9760   1.859   4.165  14.641 -0.0715  0.6918 -0.0979
  659TMC3    C8 9761   2.104   4.331  15.014 -0.0130 -0.2501  0.0562
  659TMC3    O1 9762   1.762   4.197  14.710 -0.2036  0.0680  0.0321
  659TMC3    O2 9763   2.008   4.398  15.056  0.0467  0.4921  0.6599
  660MPD2     C 9764   0.342   3.467  12.442 -0.6775 -0.2543 -0.2457
  660MPD2    C1 9765   0.232   3.523  12.497  0.4075 -0.3294  0.1616
  660MPD2    C2 9766   0.166   3.462  12.601 -0.0013 -0.4440  0.0361
  660MPD2    C3 9767   0.221   3.350  12.659 -0.3091  0.3226 -0.9857
  660MPD2    C4 9768   0.340   3.300  12.617 -0.2459  0.6241  0.7283
  660MPD2    C5 9769   0.395   3.357  12.508 -0.5239  0.4074  0.3321
  660MPD2     H 9770   0.078   3.508  12.643 -0.5913 -1.1351 -0.4430
  660MPD2    H1 9771   0.380   3.204  12.648  0.2720  0.3985 -0.6674
  660MPD2    H2 9772   0.389   3.502  12.351 -0.0613  0.0914  0.2071
  660MPD2    H3 9773   0.487   3.309  12.478 -1.1705 -0.4094 -0.3614
  660MPD2     N 9774   0.155   3.263  12.750 -0.2936  0.8743 -0.2655
  660MPD2    H5 9775   0.192   3.170  12.768 -0.2890  0.8219 -0.5417
  660MPD2    N1 9776   0.177   3.634  12.422 -0.1996 -0.3026  0.1310
  660MPD2    H7 9777   0.217   3.658  12.332  0.2483  0.1999  0.4736
  661TMC3    C1 9778   0.011   3.803  12.358 -0.3488 -0.0659  0.1593
  661TMC3    C2 9779   0.100   3.843  12.262 -0.1333 -0.0124 -0.2997
  661TMC3    C3 9780   0.053   3.917  12.154 -0.4405 -0.6575 -0.4141
  661TMC3    C4 9781   4.602   3.830  12.346  0.4874 -0.0644  0.3377
  661TMC3    C5 9782   4.559   3.901  12.236  0.6193 -0.2270  0.8892
  661TMC3    C6 9783   4.640   3.939  12.134 -0.0047  0.0515  0.4101
  661TMC3     C 9784   0.061   3.700  12.454 -0.0788 -0.2680 -0.0995
  661TMC3     O 9785   4.711   3.698  12.551  0.3664  0.6740 -0.3274
  661TMC3     H 9786   0.204   3.812  12.257  0.3797  1.4789  1.1565
  661TMC3    H1 9787   4.530   3.788  12.416  0.0406 -1.0371 -0.7167
  661TMC3    H2 9788   4.604   3.983  12.042  2.0242 -0.8565 -0.8243
  661TMC3    C7 9789   4.416   3.900  12.208 -0.8976  0.3689 -0.3851
  661TMC3    C8 9790   0.140   3.940  12.038  0.1743  0.2927  0.1977
  661TMC3    O1 9791   4.339   3.927  12.300  0.0868 -0.5119 -0.1634
  661TMC3    O2 9792   0.241   3.870  12.039  0.0633  0.1780 -0.0527
  662MPD2     C 9793   0.599   2.939  17.012 -0.0497  0.0554  0.9338
  662MPD2    C1 9794   0.671   2.942  17.134  0.0665  0.6118  0.6576
  662MPD2    C2 9795   0.671   3.054  17.207 -0.7224  0.0243 -0.5588
  662MPD2    C3 9796   0.597   3.167  17.180  0.3076  0.4544  0.3236
  662MPD2    C4 9797   0.522   3.160  17.062  0.7397  0.1598 -0.3831
  662MPD2    C5 9798   0.529   3.051  16.983  0.6667 -0.2266  0.4439
  662MPD2     H 9799   0.717   3.042  17.305  1.3988 -2.1550 -1.7990
  662MPD2    H1 9800   0.467   3.245  17.023  0.2614 -0.0080 -0.0779
  662MPD2    H2 9801   0.608   2.853  16.947 -0.4774  1.0711 -0.4695
  662MPD2    H3 9802   0.486   3.058  16.884  1.6651  0.3065  0.0493
  662MPD2     N 9803   0.592   3.279  17.259 -0.4223  0.2275  0.5223
  662MPD2    H5 9804   0.508   3.334  17.247  0.0119  0.8294  0.2391
  662MPD2    N1 9805   0.728   2.820  17.184 -0.1375  0.0412  0.1563
  662MPD2    H7 9806   0.789   2.830  17.265 -0.4640 -3.5629  0.8415
  663TMC3    C1 9807   0.746   2.598  17.246 -0.1595 -0.5248 -0.6510
  663TMC3    C2 9808   0.828   2.624  17.347  0.3349 -0.6987  0.4733
  663TMC3    C3 9809   0.824   2.540  17.455 -0.8706 -0.2670 -1.2686
  663TMC3    C4 9810   0.656   2.496  17.260 -0.1691 -0.6521  0.1106
  663TMC3    C5 9811   0.653   2.415  17.373 -0.0407  0.2070 -0.0531
  663TMC3    C6 9812   0.738   2.439  17.475 -0.0242  0.3774  0.0201
  663TMC3     C 9813   0.694   2.691  17.147 -0.2302  0.1256  0.9129
  663TMC3     O 9814   0.603   2.660  17.071  0.2647  0.9538  0.3617
  663TMC3     H 9815   0.908   2.697  17.340  0.9156 -1.2159  1.8562
  663TMC3    H1 9816   0.581   2.469  17.187  0.4216 -2.6059  0.2255
  663TMC3    H2 9817   0.748   2.371  17.559  2.1821 -1.0233 -1.3487
  663TMC3    C7 9818   0.596   2.280  17.356 -0.5020 -0.8079  0.2626
  663TMC3    C8 9819   0.863   2.610  17.577  0.4438  0.2962  0.0286
  663TMC3    O1 9820   0.657   2.198  17.283 -0.1181 -0.0963  0.2467
  663TMC3    O2 9821   0.959   2.689  17.577  0.1083  0.1813  0.2938
  664MPD2     C 9822   3.707   1.013  17.441 -0.3935 -0.0476  0.0500
  664MPD2    C1 9823   3.794   1.053  17.542 -0.2479 -1.1500  0.6040
  664MPD2    C2 9824   3.773   1.022  17.675 -0.9014 -0.1611  0.6626
  664MPD2    C3 9825   3.660   0.944   0.016  0.3729  0.6747 -0.5520
  664MPD2    C4 9826   3.578   0.898  17.611 -0.5557  0.0376  0.5066
  664MPD2    C5 9827   3.601   0.937  17.481 -0.3679 -0.0088  0.0717
  664MPD2     H 9828   3.839   1.068   0.051 -1.5768  1.4790  0.2466
  664MPD2    H1 9829   3.492   0.834  17.631 -0.8051  0.4204  0.6520
  664MPD2    H2 9830   3.711   1.026  17.333 -0.1265 -0.2737  0.0332
  664MPD2    H3 9831   3.532   0.884  17.417  2.3474 -1.7370 -1.3973
  664MPD2     N 9832   3.637   0.918   0.156 -0.2729  0.1343 -0.4880
  664MPD2    H5 9833   3.703   0.957   0.223 -1.1523  0.3693  0.2436
  664MPD2    N1 9834   3.911   1.127  17.520 -0.1268  0.0905 -0.1002
  664MPD2    H7 9835   3.981   1.129  17.594 -0.8849 -1.0226  0.6580
  665TMC3    C1 9836   3.518   0.832   0.347 -0.3300  0.2203 -0.1251
  665TMC3    C2 9837   3.391   0.848   0.400 -0.2050  0.0482 -0.1659
  665TMC3    C3 9838   3.371   0.891   0.530 -0.0433 -0.2769 -0.0367
  665TMC3    C4 9839   3.627   0.855   0.424 -0.6694 -0.2961 -0.0665
  665TMC3    C5 9840   3.605   0.917   0.548  0.0597  0.6576 -0.3226
  665TMC3    C6 9841   3.481   0.931   0.598  0.0388 -0.8168 -0.0572
  665TMC3     C 9842   3.531   0.842   0.204  0.3837  0.3639  0.3204
  665TMC3     O 9843   3.432   0.799   0.144 -0.0902 -0.3756 -0.4241
  665TMC3     H 9844   3.307   0.819   0.338  1.0856 -1.5742 -1.1445
  665TMC3    H1 9845   3.728   0.855   0.385 -1.3601 -0.2930 -1.8159
  665TMC3    H2 9846   3.465   0.973   0.697  3.2199 -0.1746  0.1611
  665TMC3    C7 9847   3.724   0.989   0.597 -0.1301 -1.0431  0.3682
  665TMC3    C8 9848   3.238   0.930   0.571  0.7662  0.5370  0.1102
  665TMC3    O1 9849   3.829   0.948   0.560  0.1137  0.2967 -0.2919
  665TMC3    O2 9850   3.235   1.004   0.671  0.4659  0.4606 -0.0677
  666TMC3    C1 9851   2.450   2.137   9.661  0.3741 -0.2710  0.4140
  666TMC3    C2 9852   2.535   2.033   9.641 -0.0256  0.3524 -0.0593
  666TMC3    C3 9853   2.668   2.062   9.635  0.2636 -0.3106 -0.0744
  666TMC3    C4 9854   2.498   2.264   9.657  0.1927 -0.5388  0.5491
  666TMC3    C5 9855   2.632   2.284   9.648 -0.5919  0.5306  0.0108
  666TMC3    C6 9856   2.722   2.184   9.651  0.2655  0.4044  0.4710
  666TMC3     C 9857   2.345   2.110   9.762 -0.3606  0.1137 -0.1992
  666TMC3     O 9858   2.271   2.204   9.783  0.2990  0.1957  0.1074
  666TMC3     H 9859   2.501   1.932   9.621 -2.0575  0.2336  3.9993
  666TMC3    H1 9860   2.429   2.343   9.686  0.4104 -0.1012 -0.1561
  666TMC3    H2 9861   2.825   2.206   9.623 -0.1913 -0.5720 -1.9889
  666TMC3    C7 9862   2.682   2.415   9.667 -0.3441  0.7743  0.1539
  666TMC3    C8 9863   2.753   1.949   9.663  0.8188  0.0751  0.1133
  666TMC3    O1 9864   2.783   2.429   9.732  0.2333 -0.3107  0.2753
  666TMC3    O2 9865   2.697   1.868   9.736 -0.2506  0.0440 -0.2295
  667MPD2     C 9866   4.086   1.127  14.637 -1.1919 -0.1631  0.7336
  667MPD2    C1 9867   3.997   1.148  14.734  0.1025 -0.3929 -0.0974
  667MPD2    C2 9868   3.859   1.121  14.724  0.3818 -0.4533 -0.4482
  667MPD2    C3 9869   3.825   1.051  14.606  0.5587 -1.0718 -0.8786
  667MPD2    C4 9870   3.923   1.001  14.520 -0.0166 -0.2833 -0.1756
  667MPD2    C5 9871   4.054   1.048  14.531  0.0680  0.7887  0.9012
  667MPD2     H 9872   3.789   1.168  14.792 -0.3391 -1.5774 -0.4074
  667MPD2    H1 9873   3.899   0.938  14.436  0.7098  1.3828 -1.6369
  667MPD2    H2 9874   4.189   1.163  14.644 -1.2774  0.3886 -0.8202
  667MPD2    H3 9875   4.131   1.019  14.460 -0.5418 -1.9677  1.3388
  667MPD2     N 9876   3.695   1.021  14.574 -0.4678 -0.2332 -0.2784
  667MPD2    H5 9877   3.679   0.960  14.495 -1.4120 -0.5936  0.1777
  667MPD2    N1 9878   4.037   1.208  14.860 -0.2907  0.2061  0.2356
  667MPD2    H7 9879   3.971   1.209  14.937 -2.5137  1.7121 -1.6750
  668TMC3    C1 9880   4.191   1.297  15.026  0.4404  0.2160 -0.3413
  668TMC3    C2 9881   4.304   1.372  15.046  0.3287 -0.0752  0.3177
  668TMC3    C3 9882   4.349   1.387  15.177 -0.3403  0.1144 -0.5136
  668TMC3    C4 9883   4.126   1.227  15.124 -0.2816 -0.2463 -0.4711
  668TMC3    C5 9884   4.183   1.235  15.251  0.4042 -0.6477 -0.3019
  668TMC3    C6 9885   4.287   1.321  15.279  1.0423 -0.0055  0.3485
  668TMC3     C 9886   4.157   1.268  14.886 -0.9023  0.5861 -0.3161
  668TMC3     O 9887   4.243   1.305  14.809  0.3686  0.3720 -0.0322
  668TMC3     H 9888   4.356   1.403  14.956 -0.2645 -1.0711 -0.3592
  668TMC3    H1 9889   4.050   1.154  15.098 -2.0372  0.8331  1.6619
  668TMC3    H2 9890   4.314   1.334  15.383  0.3634  1.2274  0.3780
  668TMC3    C7 9891   4.099   1.203  15.364 -0.5087  0.6020  0.0437
  668TMC3    C8 9892   4.487   1.438  15.204  0.0437  0.2405  0.7769
  668TMC3    O1 9893   4.134   1.251  15.474 -0.6446  0.2972 -0.6234
  668TMC3    O2 9894   4.507   1.470  15.319  0.4337  0.2179  0.6052
  669TMC3    C1 9895   2.458   1.599  14.130 -0.9351 -0.0665 -0.0928
  669TMC3    C2 9896   2.358   1.585  14.030  0.4767  0.2412 -0.0997
  669TMC3    C3 9897   2.390   1.642  13.908 -0.0591  0.8531  0.0332
  669TMC3    C4 9898   2.572   1.669  14.106 -0.6998  0.8329 -0.1065
  669TMC3    C5 9899   2.594   1.719  13.982 -0.2917  0.0683  0.0358
  669TMC3    C6 9900   2.511   1.703  13.873  0.2044  0.9344 -0.5996
  669TMC3     C 9901   2.431   1.543  14.262 -1.5083  0.3791 -0.5106
  669TMC3     O 9902   2.362   1.444  14.266 -0.2565  0.0571 -0.3259
  669TMC3     H 9903   2.277   1.513  14.036  2.5961 -2.1674 -0.3967
  669TMC3    H1 9904   2.655   1.677  14.175 -0.1726  0.7053 -0.7241
  669TMC3    H2 9905   2.530   1.757  13.781  2.2200 -1.4782 -1.6047
  669TMC3    C7 9906   2.691   1.820  13.978 -0.0567  0.2438 -0.5295
  669TMC3    C8 9907   2.275   1.684  13.826 -0.3754 -0.4771  0.3640
  669TMC3    O1 9908   2.682   1.903  14.065  1.0612 -0.7879  0.2758
  669TMC3    O2 9909   2.290   1.752  13.726 -0.3548  0.7627  0.1466
  670MPD2     C 9910   0.661   3.930  13.385  0.2857  0.2589 -0.3139
  670MPD2    C1 9911   0.743   3.922  13.495  0.3079  0.3500  0.4713
  670MPD2    C2 9912   0.699   3.853  13.609 -0.0763 -0.1304  0.2158
  670MPD2    C3 9913   0.576   3.788  13.616  0.3674 -0.4091  0.2085
  670MPD2    C4 9914   0.498   3.786  13.500  0.1560  0.9053 -1.3395
  670MPD2    C5 9915   0.539   3.862  13.389 -0.7490  0.0335  0.1315
  670MPD2     H 9916   0.766   3.848  13.695  1.1500 -0.9191 -0.7694
  670MPD2    H1 9917   0.400   3.741  13.497  0.4916 -0.0826  2.1202
  670MPD2    H2 9918   0.682   3.988  13.295 -1.3000 -1.6022 -1.8963
  670MPD2    H3 9919   0.468   3.876  13.308  0.6693 -2.0691 -1.4790
  670MPD2     N 9920   0.540   3.718  13.731 -0.5399 -0.4392  0.2894
  670MPD2    H5 9921   0.605   3.728  13.809 -0.5111  0.6927  0.1220
  670MPD2    N1 9922   0.874   3.985  13.505 -0.0334 -0.8706  0.9254
  670MPD2    H7 9923   0.928   3.957  13.586  3.1743  0.5629 -0.7011
  671TMC3    C1 9924   0.398   3.623  13.898  0.0936  0.2920  0.4071
  671TMC3    C2 9925   0.507   3.595  13.970  0.0189 -0.4841 -0.2167
  671TMC3    C3 9926   0.494   3.523  14.081 -0.4481 -0.3713  0.1976
  671TMC3    C4 9927   0.273   3.591  13.935 -0.1598  0.7991  0.7223
  671TMC3    C5 9928   0.258   3.505  14.043  0.0011 -0.0663  0.9382
  671TMC3    C6 9929   0.368   3.470  14.115 -0.1526  0.3577  0.1530
  671TMC3     C 9930   0.418   3.657  13.756  0.0239 -0.6858  0.1349
  671TMC3     O 9931   0.325   3.624  13.684  0.0836 -0.2397  0.0990
  671TMC3     H 9932   0.605   3.598  13.925 -0.0184  1.0281 -0.2089
  671TMC3    H1 9933   0.191   3.614  13.867  0.4098 -1.8815 -0.9064
  671TMC3    H2 9934   0.349   3.407  14.201  0.4697 -0.0859 -0.0279
  671TMC3    C7 9935   0.175   3.392  14.016 -0.0807  0.2617  0.6977
  671TMC3    C8 9936   0.601   3.432  14.115  0.5868 -0.9208  0.7292
  671TMC3    O1 9937   0.229   3.287  14.002  0.4733 -0.1305  0.8009
  671TMC3    O2 9938   0.655   3.363  14.029 -0.0674 -0.3769 -0.5565
  672MPD2     C 9939   1.249   3.263   0.702 -0.2670 -0.0045  0.2001
  672MPD2    C1 9940   1.348   3.340   0.762  0.4686 -0.2666 -0.1629
  672MPD2    C2 9941   1.461   3.377   0.694  0.5007  0.0686 -0.4749
  672MPD2    C3 9942   1.466   3.346   0.555 -0.0890 -0.1128  0.7140
  672MPD2    C4 9943   1.373   3.265   0.499 -0.3943  0.2325 -0.2912
  672MPD2    C5 9944   1.266   3.227   0.576 -0.7448  0.1461  0.0785
  672MPD2     H 9945   1.527   3.440   0.753 -0.0693  1.1273 -0.9766
  672MPD2    H1 9946   1.373   3.230   0.396 -0.3538 -2.6082  0.6527
  672MPD2    H2 9947   1.166   3.226   0.761  1.0171 -0.2417  1.8512
  672MPD2    H3 9948   1.188   3.161   0.539 -1.1483  1.5568 -1.5835
  672MPD2     N 9949   1.575   3.398   0.486  0.3789  0.0505 -0.2503
  672MPD2    H5 9950   1.639   3.456   0.539 -0.1280  0.2372  0.1573
  672MPD2    N1 9951   1.322   3.389   0.895 -0.2855  0.2602  0.5968
  672MPD2    H7 9952   1.403   3.429   0.943  0.6920 -0.5694 -0.3639
  673TMC3    C1 9953   1.221   3.433   1.094  0.1898 -0.2539  1.0527
  673TMC3    C2 9954   1.320   3.377   1.168  0.3975 -0.1391  0.6348
  673TMC3    C3 9955   1.331   3.415   1.296 -0.4833 -0.0081  0.4644
  673TMC3    C4 9956   1.156   3.546   1.138  0.9236  0.4586 -0.2556
  673TMC3    C5 9957   1.180   3.585   1.270  0.3582 -0.3061 -0.1887
  673TMC3    C6 9958   1.264   3.522   1.350 -0.2649  0.3045  0.1259
  673TMC3     C 9959   1.204   3.378   0.962 -0.0614  0.4871 -0.4590
  673TMC3     O 9960   1.089   3.377   0.921  0.7663  1.0454  0.1213
  673TMC3     H 9961   1.357   3.285   1.123 -0.3605 -2.6221  5.0128
  673TMC3    H1 9962   1.078   3.594   1.081  0.1822 -1.2843 -0.7006
  673TMC3    H2 9963   1.282   3.542   1.455 -1.1526  2.7749 -0.2007
  673TMC3    C7 9964   1.131   3.712   1.326 -0.3590 -1.1176 -0.9647
  673TMC3    C8 9965   1.431   3.342   1.375  0.1456  0.4705  0.0632
  673TMC3    O1 9966   1.107   3.717   1.441 -0.6196 -0.1997 -0.5729
  673TMC3    O2 9967   1.429   3.366   1.496 -0.1261  0.6147 -0.3838
  674MPD2     C 9968   1.446   3.534  17.696 -0.3742 -0.1301  0.0894
  674MPD2    C1 9969   1.350   3.452   0.047 -0.5994 -0.3980  0.2373
  674MPD2    C2 9970   1.285   3.484   0.166 -0.0838  0.2357  0.1879
  674MPD2    C3 9971   1.334   3.596   0.236  0.5870 -0.3903 -0.5744
  674MPD2    C4 9972   1.429   3.675   0.186  0.6876 -0.4793  0.0886
  674MPD2    C5 9973   1.476   3.651   0.061  0.0421 -0.6002  0.4608
  674MPD2     H 9974   1.211   3.416   0.206 -0.1644  1.3493  1.9164
  674MPD2    H1 9975   1.463   3.769   0.228 -2.2274 -0.2356  1.9138
  674MPD2    H2 9976   1.505   3.501  17.611 -0.9511  0.3168 -0.4824
  674MPD2    H3 9977   1.552   3.719   0.023 -1.8965  2.4794  2.1268
  674MPD2     N 9978   1.280   3.610   0.362 -0.0649  0.6511  0.4690
  674MPD2    H5 9979   1.200   3.550   0.381  0.2657  0.0048 -0.1976
  674MPD2    N1 9980   1.299   3.333  17.674  0.3042  0.3108 -0.4268
  674MPD2    H7 9981   1.220   3.284   0.018 -0.3713  0.6058 -1.4016
  675TMC3    C1 9982   1.283   3.163  17.502  0.2856  0.4010 -0.2364
  675TMC3    C2 9983   1.143   3.148  17.499 -0.0273 -0.2935  0.7394
  675TMC3    C3 9984   1.095   3.041  17.425 -0.4799  0.5536  0.6411
  675TMC3    C4 9985   1.369   3.073  17.442 -0.5585  0.3973 -0.7558
  675TMC3    C5 9986   1.308   2.970  17.373 -0.7227  0.2827 -0.5910
  675TMC3    C6 9987   1.172   2.955  17.354  0.3040  0.4022 -0.3793
  675TMC3     C 9988   1.356   3.276  17.558 -0.1778  0.1168  0.2049
  675TMC3     O 9989   1.469   3.291  17.521 -0.5429 -0.4123 -0.0984
  675TMC3     H 9990   1.071   3.220  17.538 -0.7246 -0.7846  0.3606
  675TMC3    H1 9991   1.477   3.083  17.442 -0.2924 -2.3810  0.5983
  675TMC3    H2 9992   1.122   2.867  17.315  0.7643  0.1407 -0.3866
  675TMC3    C7 9993   1.376   2.833  17.368 -0.4273  0.5914  0.6181
  675TMC3    C8 9994   0.959   2.996  17.443  0.9615 -0.0987 -0.1710
  675TMC3    O1 9995   1.319   2.742  17.303  0.4721 -0.1403 -0.0031
  675TMC3    O2 9996   0.920   2.923  17.354  0.0674  0.3814  0.0105
  676MPD2     C 9997   3.594   2.624  10.827  0.6123 -0.2488  0.5743
  676MPD2    C1 9998   3.480   2.555  10.873 -0.3970  0.5065 -0.2908
  676MPD2    C2 9999   3.469   2.411  10.857 -0.2099 -0.0127 -0.3568
  676MPD2    C310000   3.568   2.341  10.781  0.6483  0.2954  0.5169
  676MPD2    C410001   3.678   2.415  10.740  0.5890 -0.1779 -0.6570
  676MPD2    C510002   3.687   2.551  10.757 -0.1827 -0.1463  0.2942
  676MPD2     H10003   3.387   2.358  10.903  0.0471  0.3818  0.5580
  676MPD2    H110004   3.758   2.369  10.683  1.3877  2.0419 -1.3702
  676MPD2    H210005   3.624   2.721  10.864  0.7141  0.1903 -0.6642
  676MPD2    H310006   3.769   2.606  10.713 -1.1739  2.9477  2.3351
  676MPD2     N10007   3.556   2.204  10.753 -0.3281 -0.6878 -0.2926
  676MPD2    H510008   3.637   2.162  10.707 -1.3741 -3.8883  0.7558
  676MPD2    N110009   3.372   2.622  10.934 -0.0893  0.1350 -0.3906
  676MPD2    H710010   3.310   2.562  10.988 -0.1416  0.1226 -0.4653
  677TMC3    C110011   3.237   2.799  10.999 -0.0719  0.6342  0.0858
  677TMC3    C210012   3.143   2.701  11.028 -0.0529 -0.0078 -0.4397
  677TMC3    C310013   3.025   2.754  11.095 -0.3308 -0.1804  0.3712
  677TMC3    C410014   3.231   2.930  11.040  0.7858  0.2738  0.4645
  677TMC3    C510015   3.123   2.973  11.108  0.4742 -0.2101  0.1081
  677TMC3    C610016   3.019   2.887  11.135  0.1957  0.0366 -0.2743
  677TMC3     C10017   3.359   2.755  10.936  0.2692 -0.0849  0.0001
  677TMC3     O10018   3.434   2.846  10.899 -0.1830 -0.0551 -0.0421
  677TMC3     H10019   3.133   2.601  10.988 -2.9866 -0.7209  2.0162
  677TMC3    H110020   3.312   3.001  11.027 -0.7682  1.7063 -1.4891
  677TMC3    H210021   2.936   2.926  11.193 -1.4025 -1.9499 -1.2408
  677TMC3    C710022   3.113   3.109  11.154  0.7148  0.4658  0.0943
  677TMC3    C810023   2.965   2.668  11.200 -0.2994 -0.2163  0.2458
  677TMC3    O110024   2.998   3.142  11.173 -0.0595  0.3849 -0.1006
  677TMC3    O210025   2.856   2.703  11.242 -0.3788 -0.3525 -0.1012
  678MPD2     C10026   0.020   1.905   1.552  0.5126 -0.1571  0.0774
  678MPD2    C110027   0.024   1.879   1.418  0.4913  0.9110 -0.3986
  678MPD2    C210028   4.639   1.902   1.332  0.2499  0.4946  0.2396
  678MPD2    C310029   4.518   1.944   1.384 -0.6426 -0.0089  0.2633
  678MPD2    C410030   4.508   1.965   1.522  0.2611 -0.0102  0.2597
  678MPD2    C510031   4.621   1.942   1.600 -0.6470  0.7302 -0.6202
  678MPD2     H10032   4.655   1.869   1.230  1.5030  2.3122 -0.1326
  678MPD2    H110033   4.411   1.994   1.561  0.6818  0.4896  0.9512
  678MPD2    H210034   0.103   1.896   1.621 -0.7415 -0.5933  1.5497
  678MPD2    H310035   4.616   1.960   1.706 -0.3658  0.5315 -0.5725
  678MPD2     N10036   4.409   1.942   1.292  1.1254 -0.6710  0.7798
  678MPD2    H510037   4.433   1.924   1.195 -0.3722 -1.0109  0.4697
  678MPD2    N110038   0.150   1.845   1.350 -0.4264  0.2237 -0.5960
  678MPD2    H710039   0.163   1.867   1.252 -1.8367  0.8671 -0.6404
  679TMC3    C110040   0.499   1.543   1.286  0.5889  0.5998 -0.3540
  679TMC3    C210041   0.400   1.598   1.368 -0.9472  0.0365 -0.3007
  679TMC3    C310042   0.340   1.712   1.324  0.1339  0.5699  0.1665
  679TMC3    C410043   0.546   1.605   1.174  0.4241 -0.1933 -0.3111
  679TMC3    C510044   0.481   1.719   1.142 -0.2586  0.1468 -0.3212
  679TMC3    C610045   0.379   1.774   1.212 -0.1950  0.2521 -0.2477
  679TMC3     C10046   0.561   1.412   1.310 -0.4013 -0.8156  0.2436
  679TMC3     O10047   0.656   1.376   1.243  0.3006  0.2808  0.0708
  679TMC3     H10048   0.381   1.546   1.461  0.9336  1.5220  0.8877
  679TMC3    H110049   0.629   1.568   1.114 -0.3932  0.8077 -2.0417
  679TMC3    H210050   0.332   1.866   1.179  1.8373  1.1636 -0.5819
  679TMC3    C710051   0.526   1.794   1.029  0.3811 -0.4802 -0.6979
  679TMC3    C810052   0.241   1.768   1.419 -0.4974  0.9031  0.1250
  679TMC3    O110053   0.440   1.867   0.984 -0.3128 -0.0100 -0.0445
  679TMC3    O210054   0.226   1.702   1.524  0.2200  0.1887 -0.4502
  680MPD2     C10055   0.664   1.122  13.389 -0.4870  0.1447  0.2112
  680MPD2    C110056   0.752   1.063  13.472  0.0834 -0.3389 -0.4204
  680MPD2    C210057   0.800   1.137  13.580 -0.3622 -0.7403 -0.0249
  680MPD2    C310058   0.769   1.269  13.588  0.1007  1.3477  0.5936
  680MPD2    C410059   0.677   1.326  13.503  0.0965  0.4078 -0.8090
  680MPD2    C510060   0.623   1.250  13.402  0.2977 -0.4309  0.3706
  680MPD2     H10061   0.876   1.088  13.640  0.8526  1.1087 -0.0467
  680MPD2    H110062   0.634   1.425  13.511 -0.7637 -0.0620  0.3330
  680MPD2    H210063   0.631   1.071  13.299  2.8694 -0.9724 -0.3867
  680MPD2    H310064   0.556   1.289  13.327 -0.0295 -1.4410  0.1366
  680MPD2     N10065   0.818   1.357  13.689 -0.7150 -0.0281 -0.1757
  680MPD2    H510066   0.773   1.448  13.696  0.6623  0.5479  1.0425
  680MPD2    N110067   0.793   0.933  13.436  0.0674  0.3166 -0.4008
  680MPD2    H710068   0.765   0.883  13.352 -1.7453 -2.0554  1.6086
  681TMC3    C110069   0.864   0.720  13.458 -0.1587  0.3832  0.1189
  681TMC3    C210070   0.808   0.614  13.519 -0.5652 -0.3513 -0.5959
  681TMC3    C310071   0.793   0.496  13.449 -0.4539  0.2031  0.1292
  681TMC3    C410072   0.931   0.706  13.337 -0.6813  0.5716 -0.0890
  681TMC3    C510073   0.926   0.580  13.279 -0.0437  0.0623 -0.3003
  681TMC3    C610074   0.865   0.469  13.335 -0.3412 -0.0142  0.2948
  681TMC3     C10075   0.855   0.844  13.518  0.8560 -0.2444  0.6190
  681TMC3     O10076   0.891   0.863  13.637 -0.1328  0.2321 -0.6720
  681TMC3     H10077   0.764   0.626  13.617 -3.2861  0.0960 -1.8904
  681TMC3    H110078   0.972   0.789  13.280  2.0156 -0.2421  0.6882
  681TMC3    H210079   0.874   0.369  13.296  1.9423  0.8457 -1.4213
  681TMC3    C710080   1.003   0.547  13.165  0.4209  0.0398  0.2699
  681TMC3    C810081   0.679   0.410  13.488 -0.0220  0.0518  0.0774
  681TMC3    O110082   1.055   0.432  13.167  0.7452  0.3237 -0.4437
  681TMC3    O210083   0.633   0.338  13.396 -0.0329 -0.2544  0.3092
  682MPD2     C10084   2.657   3.354  10.642 -0.0140  0.1739  0.4054
  682MPD2    C110085   2.607   3.223  10.640  0.2578  0.1481  0.2962
  682MPD2    C210086   2.549   3.163  10.753  0.8661  0.0320 -0.7990
  682MPD2    C310087   2.552   3.236  10.874  0.2905 -0.7328  0.7010
  682MPD2    C410088   2.606   3.365  10.879  0.2717 -0.8230 -0.1288
  682MPD2    C510089   2.647   3.418  10.761  0.0636  0.8447 -0.7330
  682MPD2     H10090   2.519   3.059  10.752  2.6836 -0.5352  2.8737
  682MPD2    H110091   2.604   3.430  10.965  0.2826  0.1255 -0.8522
  682MPD2    H210092   2.704   3.404  10.559 -1.5133  2.3501  0.8874
  682MPD2    H310093   2.659   3.526  10.763 -0.4654  0.9184 -1.4990
  682MPD2     N10094   2.500   3.177  10.994  0.3245 -0.5251  0.3300
  682MPD2    H510095   2.519   3.228  11.080 -0.6705 -1.2966  1.0061
  682MPD2    N110096   2.633   3.139  10.535  0.0585  0.2187  0.3200
  682MPD2    H710097   2.607   3.041  10.545 -1.8241  0.7602  0.8499
  683TMC3    C110098   2.529   2.930  11.324  0.4214 -0.3051  0.3901
  683TMC3    C210099   2.436   2.833  11.353 -0.2448 -0.2974 -0.5171
  683TMC3    C310100   2.339   2.815  11.256 -0.1760 -0.4067  0.4940
  683TMC3    C410101   2.533   3.010  11.212  0.1539 -0.2706  0.0390
  683TMC3    C510102   2.429   2.991  11.124  0.9517 -0.9235  0.1313
  683TMC3    C610103   2.330   2.894  11.144  0.3489  0.6525  0.3761
  683TMC3     C10104   2.579   2.987  11.444  0.4446 -0.4895 -0.1062
  683TMC3     O10105   2.595   3.110  11.438 -0.0332  0.0720 -0.0855
  683TMC3     H10106   2.432   2.793  11.454 -2.3703 -0.1376 -0.5381
  683TMC3    H110107   2.609   3.086  11.198 -0.8056  0.9290  1.4097
  683TMC3    H210108   2.240   2.890  11.083  1.5410  0.5633 -1.3858
  683TMC3    C710109   2.406   3.071  10.998  0.8268 -0.3294  0.4466
  683TMC3    C810110   2.235   2.718  11.279  0.4873 -0.3521 -0.2410
  683TMC3    O110111   2.340   3.013  10.917  0.2845 -0.3363 -0.3356
  683TMC3    O210112   2.131   2.727  11.218 -0.6196  0.4213  0.1097
  684MPD2     C10113   0.442   1.378  16.569  0.8923  0.2007  0.3923
  684MPD2    C110114   0.496   1.406  16.451 -0.1946  0.7069 -0.0985
  684MPD2    C210115   0.530   1.536  16.410 -0.8823  0.0421  0.2772
  684MPD2    C310116   0.515   1.639  16.500  0.2416 -0.5728  0.0630
  684MPD2    C410117   0.466   1.612  16.628 -0.2596 -0.2124 -0.1176
  684MPD2    C510118   0.424   1.487  16.656  0.9240  0.6702 -0.6070
  684MPD2     H10119   0.569   1.546  16.309 -1.8370 -2.6771 -0.3684
  684MPD2    H110120   0.453   1.687  16.705 -0.0627  0.0830 -0.3709
  684MPD2    H210121   0.416   1.276  16.596  3.0418 -0.1203  1.2022
  684MPD2    H310122   0.390   1.473  16.758 -0.0770  4.5674 -0.4094
  684MPD2     N10123   0.560   1.773  16.462  0.4575  0.3023  0.8166
  684MPD2    H510124   0.572   1.850  16.528  0.1082 -0.8949  2.2757
  684MPD2    N110125   0.512   1.296  16.367 -0.0318  0.2727  0.5892
  684MPD2    H710126   0.479   1.207  16.404 -0.9203  0.8528  1.2004
  685TMC3    C110127   0.625   1.155  16.206  0.0696 -0.3613 -0.0939
  685TMC3    C210128   0.521   1.098  16.137 -0.4031  0.6354  0.6804
  685TMC3    C310129   0.551   1.006  16.044 -0.0251  0.4383 -0.4974
  685TMC3    C410130   0.754   1.121  16.192  0.2933 -0.3963  0.6424
  685TMC3    C510131   0.785   1.029  16.101  0.5581 -0.1032 -0.5714
  685TMC3    C610132   0.686   0.978  16.018 -0.3248  0.0345 -0.3424
  685TMC3     C10133   0.609   1.290  16.266 -0.1502 -0.0639  0.8989
  685TMC3     O10134   0.700   1.360  16.228 -0.2434  0.0993  0.1725
  685TMC3     H10135   0.418   1.111  16.168 -1.2709  0.0973 -1.9551
  685TMC3    H110136   0.820   1.163  16.267  1.1479  0.4522 -0.5753
  685TMC3    H210137   0.705   0.909  15.936 -0.1271 -0.4668  0.1241
  685TMC3    C710138   0.927   1.015  16.068 -0.2879  0.0502  0.2798
  685TMC3    C810139   0.448   0.959  15.946  0.0607 -0.0629 -0.2967
  685TMC3    O110140   0.953   0.999  15.951  0.0751  0.1019 -0.0926
  685TMC3    O210141   0.455   0.853  15.888  0.1491 -0.2796 -0.2209
  686MPD2     C10142   2.257   1.558  15.553  1.0642  0.5375  0.1599
  686MPD2    C110143   2.323   1.471  15.633  0.1375 -0.3165  0.4886
  686MPD2    C210144   2.443   1.410  15.593 -0.3338 -0.4455  0.4297
  686MPD2    C310145   2.491   1.431  15.464 -0.1428 -0.7289 -0.1636
  686MPD2    C410146   2.439   1.535  15.398  0.6714 -0.2240 -0.0036
  686MPD2    C510147   2.320   1.592  15.437  0.2229 -0.4656 -0.7045
  686MPD2     H10148   2.501   1.351  15.663 -0.1357  1.7534  2.1042
  686MPD2    H110149   2.476   1.572  15.304 -1.6817  0.3545 -0.7134
  686MPD2    H210150   2.161   1.604  15.573  1.3272  2.1481 -2.3486
  686MPD2    H310151   2.272   1.665  15.374  1.2011 -0.3163 -1.2687
  686MPD2     N10152   2.615   1.365  15.422 -0.3891  0.2261  0.0021
  686MPD2    H510153   2.660   1.425  15.354 -0.2409  0.5982  0.4298
  686MPD2    N110154   2.257   1.464  15.760 -0.0196  0.0579  0.1774
  686MPD2    H710155   2.165   1.505  15.770  0.5460  1.5264 -0.5904
  687TMC3    C110156   2.611   1.158  15.563  0.6136  0.3873 -0.5884
  687TMC3    C210157   2.486   1.123  15.526  0.3827  0.2448 -0.2793
  687TMC3    C310158   2.421   1.021  15.594  0.1457 -0.0924 -0.2307
  687TMC3    C410159   2.688   1.079  15.642 -0.3316 -0.2537 -0.1374
  687TMC3    C510160   2.631   0.961  15.689  0.4364  0.4500 -0.5987
  687TMC3    C610161   2.493   0.932  15.674 -0.4897 -0.5318  0.4285
  687TMC3     C10162   2.685   1.255  15.481 -1.0644  0.2809  0.3838
  687TMC3     O10163   2.795   1.213  15.440  0.4295  0.7404  0.1640
  687TMC3     H10164   2.435   1.171  15.443 -2.3440 -0.2615  1.1053
  687TMC3    H110165   2.794   1.096  15.658 -0.2210  1.1617 -2.3268
  687TMC3    H210166   2.440   0.865  15.741 -1.1802 -1.0007 -0.5883
  687TMC3    C710167   2.713   0.882  15.781  0.2793 -0.1457  0.4597
  687TMC3    C810168   2.276   1.021  15.599 -0.1513 -0.3830 -0.7283
  687TMC3    O110169   2.806   0.939  15.831 -0.3492  0.9209 -0.5079
  687TMC3    O210170   2.222   0.930  15.661 -0.3555  0.5522  0.3721
  688MPD2     C10171   1.392   4.629  17.293 -0.4119 -0.1955  0.0441
  688MPD2    C110172   1.465   4.522  17.328 -0.3244  0.2084  0.9274
  688MPD2    C210173   1.567   4.480  17.247  0.2970 -0.0817 -0.2210
  688MPD2    C310174   1.594   4.545  17.128 -0.1318 -0.4599  0.0991
  688MPD2    C410175   1.523   4.661  17.100  0.0338 -0.4603 -0.1690
  688MPD2    C510176   1.423   4.706  17.187 -0.2678  0.2694 -0.2874
  688MPD2     H10177   1.618   4.388  17.271 -1.2426 -0.9594 -0.3218
  688MPD2    H110178   1.555   0.002  17.019  1.7097  1.7072  2.2449
  688MPD2    H210179   1.313   4.660  17.361 -1.3802 -2.5949  0.0196
  688MPD2    H310180   1.364   0.070  17.164 -1.8660 -1.1727 -1.7641
  688MPD2     N10181   1.681   4.496  17.030 -0.2360  0.5367 -0.0044
  688MPD2    H510182   1.703   4.564  16.957 -1.9615  1.0894  0.0113
  688MPD2    N110183   1.441   4.453  17.456 -0.4758 -0.3581 -0.2943
  688MPD2    H710184   1.488   4.365  17.478  0.4663  0.4407  0.8340
  689TMC3    C110185   1.329   4.392  17.643  0.5587  0.0552  0.8912
  689TMC3    C210186   1.310   4.431   0.081  0.5887 -0.4770 -0.3556
  689TMC3    C310187   1.303   4.333   0.174  0.6626 -0.1503  0.1691
  689TMC3    C410188   1.309   4.262  17.604  0.5681 -0.3428  0.0369
  689TMC3    C510189   1.274   4.170   0.008 -0.3134 -0.1312 -0.4463
  689TMC3    C610190   1.292   4.201   0.145  0.8744 -0.1025 -0.0348
  689TMC3     C10191   1.344   4.489  17.545  0.7686 -0.2969  0.3455
  689TMC3     O10192   1.291   4.596  17.571 -0.0895 -0.4027 -0.7499
  689TMC3     H10193   1.326   4.537   0.100  0.4568 -0.4104 -0.6163
  689TMC3    H110194   1.320   4.228  17.502  0.8934  0.9411 -0.3502
  689TMC3    H210195   1.269   4.130   0.223  0.3514  0.0405 -0.0554
  689TMC3    C710196   1.258   4.033  17.674 -0.1050 -0.3659  0.5240
  689TMC3    C810197   1.293   4.361   0.314 -0.7972  0.2127  0.2692
  689TMC3    O110198   1.308   3.961   0.063  0.0479  0.3952  0.2351
  689TMC3    O210199   1.316   4.278   0.402 -0.0443  0.0707  0.2739
  690MPD2     C10200   3.472   2.082  15.730 -0.2811  0.0234  0.5255
  690MPD2    C110201   3.426   2.089  15.600 -0.1883  0.1749 -0.1920
  690MPD2    C210202   3.507   2.157  15.511 -0.5994  0.8270 -0.3447
  690MPD2    C310203   3.627   2.215  15.546 -0.1470 -0.5269  0.6825
  690MPD2    C410204   3.665   2.205  15.678  0.4061 -0.0109 -0.3929
  690MPD2    C510205   3.585   2.147  15.767 -0.0818 -0.0356 -0.2338
  690MPD2     H10206   3.478   2.168  15.407 -0.6370 -4.6574 -0.8816
  690MPD2    H110207   3.753   2.252  15.720 -0.2845 -0.2459  1.3189
  690MPD2    H210208   3.426   2.035  15.816  1.2953  0.7480  1.7647
  690MPD2    H310209   3.612   2.146  15.872 -1.9678 -0.3966  0.2452
  690MPD2     N10210   3.702   2.289  15.449 -0.0308  0.3030 -0.6728
  690MPD2    H510211   3.660   2.326  15.364 -0.8248  1.5200  0.2348
  690MPD2    N110212   3.311   2.029  15.550 -0.3518  0.2508 -0.3750
  690MPD2    H710213   3.295   2.036  15.450  0.3447  2.1497 -0.3643
  691TMC3    C110214   3.155   1.875  15.555  0.4881 -0.1982 -0.1404
  691TMC3    C210215   3.019   1.867  15.595 -0.0558  0.4195  0.3673
  691TMC3    C310216   2.951   1.776  15.520 -0.0576  0.7824 -0.3364
  691TMC3    C410217   3.214   1.808  15.453  0.1454 -0.0090 -0.4957
  691TMC3    C510218   3.144   1.712  15.388 -0.8394  0.3012 -0.5602
  691TMC3    C610219   3.010   1.692  15.421  0.0117 -0.5328  0.1822
  691TMC3     C10220   3.228   1.963  15.635  0.0010  0.4440  0.1781
  691TMC3     O10221   3.203   1.966  15.755 -0.3270  0.0210  0.0482
  691TMC3     H10222   2.986   1.925  15.680  2.4567  2.0017  0.2808
  691TMC3    H110223   3.317   1.823  15.420  0.5773  1.4830  1.5458
  691TMC3    H210224   2.949   1.631  15.355  1.7132 -0.6834 -1.2618
  691TMC3    C710225   3.213   1.592  15.347  0.2437  0.0618  0.1862
  691TMC3    C810226   2.812   1.758  15.539  0.3969  0.6558  0.7415
  691TMC3    O110227   3.336   1.603  15.342 -0.1449  0.2127  0.1182
  691TMC3    O210228   2.767   1.646  15.516 -0.0966  0.2173  0.2405
  692TMC3    C110229   0.264   2.942  15.568  0.2722  0.0394  0.1184
  692TMC3    C210230   0.395   2.984  15.560  0.2947 -0.1176 -0.1931
  692TMC3    C310231   0.500   2.918  15.614 -0.1449 -0.4404 -0.2253
  692TMC3    C410232   0.247   2.821  15.620  0.4289 -0.1044 -0.2414
  692TMC3    C510233   0.354   2.760  15.686  0.1376 -0.6279 -0.7564
  692TMC3    C610234   0.476   2.814  15.694 -0.3992  0.7899  0.0206
  692TMC3     C10235   0.154   3.038  15.611  0.0891  0.5238 -0.4581
  692TMC3     O10236   0.047   2.980  15.650  0.8342  0.2709  0.5815
  692TMC3     H10237   0.411   3.090  15.544  0.3282 -0.2404 -0.9940
  692TMC3    H110238   0.149   2.775  15.607 -0.5051  1.0704  2.7494
  692TMC3    H210239   0.562   2.755  15.722 -1.3108 -0.9257 -0.7847
  692TMC3    C710240   0.355   2.617  15.674 -0.2787 -0.7635  0.1251
  692TMC3    C810241   0.582   3.020  15.660  0.0921  0.6206 -0.1105
  692TMC3    O110242   0.295   2.573  15.577  0.3664  0.0911 -0.4746
  692TMC3    O210243   0.636   3.088  15.573  0.1848  0.3641 -0.0562
  693MPD2     C10244   0.027   1.294  10.409  0.2531  0.4279 -0.9827
  693MPD2    C110245   4.702   1.162  10.431 -0.4942  0.8203  0.4459
  693MPD2    C210246   0.066   1.057  10.429 -0.2205 -0.4598  0.5403
  693MPD2    C310247   0.203   1.081  10.424  0.3166 -0.3271  0.5522
  693MPD2    C410248   0.248   1.206  10.408 -0.4572  0.5174 -0.2276
  693MPD2    C510249   0.162   1.312  10.414  0.2783 -0.0364  0.0950
  693MPD2     H10250   0.025   0.956  10.437 -3.7381  1.1563  2.8638
  693MPD2    H110251   0.352   1.235  10.416 -0.5861 -0.1829  3.6365
  693MPD2    H210252   4.686   1.377  10.434 -0.8355 -0.4370 -0.8748
  693MPD2    H310253   0.205   1.411  10.421 -0.0038  0.3466 -3.4798
  693MPD2     N10254   0.305   0.980  10.454  0.0114 -0.6030 -0.1509
  693MPD2    H510255   0.399   1.020  10.453 -0.3039  0.1170 -1.7910
  693MPD2    N110256   4.565   1.145  10.470 -0.0867 -0.0415  0.3671
  693MPD2    H710257   4.517   1.235  10.476 -0.8864 -0.3608 -1.1430
  694TMC3    C110258   4.375   1.006  10.542  0.2937 -0.7185 -0.0080
  694TMC3    C210259   4.278   0.911  10.503  1.0630  0.2325 -0.0289
  694TMC3    C310260   4.181   0.888  10.601  0.2966  0.2801  0.3727
  694TMC3    C410261   4.364   1.081  10.661 -0.2827 -1.0288  0.4190
  694TMC3    C510262   4.257   1.050  10.748  0.3269 -0.4270  0.4538
  694TMC3    C610263   4.176   0.945  10.725 -0.1858  0.7585  0.2302
  694TMC3     C10264   4.502   1.018  10.471 -0.2475  0.4619 -0.7398
  694TMC3     O10265   4.534   0.917  10.416  0.2050  0.1812  0.0129
  694TMC3     H10266   4.291   0.859  10.409 -1.0700 -0.8649  0.2792
  694TMC3    H110267   4.441   1.151  10.691 -0.4463 -0.3909 -0.6995
  694TMC3    H210268   4.097   0.927  10.797 -0.4954 -1.7140 -0.7343
  694TMC3    C710269   4.252   1.130  10.874 -0.5797 -0.2829  0.0434
  694TMC3    C810270   4.050   0.842  10.557  0.0234  0.3355  0.2518
  694TMC3    O110271   4.332   1.222  10.891  0.2323  0.4519  0.1147
  694TMC3    O210272   3.956   0.870  10.630 -0.8059  0.4490 -0.3767
  695MPD2     C10273   0.979   2.865  13.454  0.0765 -0.1120  0.6008
  695MPD2    C110274   0.901   2.893  13.566 -0.2872  0.1228  0.9347
  695MPD2    C210275   0.771   2.926  13.548 -0.1620 -0.9312 -0.3645
  695MPD2    C310276   0.699   2.934  13.429 -0.1664  0.0781  0.6492
  695MPD2    C410277   0.783   2.914  13.319  0.9907  0.0134  0.5904
  695MPD2    C510278   0.914   2.872  13.333 -0.0054  0.2960  0.2125
  695MPD2     H10279   0.720   2.946  13.642  3.6220 -0.0972  1.5292
  695MPD2    H110280   0.738   2.922  13.221  2.3626  0.6482  0.0125
  695MPD2    H210281   1.080   2.825  13.464 -0.0654 -0.7051 -0.2625
  695MPD2    H310282   0.973   2.850  13.245  1.1455  0.4904  0.9278
  695MPD2     N10283   0.565   2.967  13.424 -0.0664  0.3819 -0.7661
  695MPD2    H510284   0.525   2.996  13.513 -2.8830 -0.0691 -1.9023
  695MPD2    N110285   0.950   2.899  13.699  0.3948 -0.2013 -0.3764
  695MPD2    H710286   0.883   2.933  13.767 -0.1886  1.6193 -1.8710
  696TMC3    C110287   0.359   3.024  13.329 -0.2361  0.5432  0.0203
  696TMC3    C210288   0.298   3.006  13.449 -0.4332 -0.0269  1.1425
  696TMC3    C310289   0.178   3.074  13.470 -0.6528  0.2526 -0.2068
  696TMC3    C410290   0.314   3.107  13.232 -0.1837 -0.3901 -0.5666
  696TMC3    C510291   0.200   3.183  13.263  0.3825  0.0593  0.3165
  696TMC3    C610292   0.126   3.161  13.377  0.8086 -0.0449  0.7209
  696TMC3     C10293   0.486   2.961  13.312 -0.1682 -0.3183  0.8712
  696TMC3     O10294   0.524   2.948  13.195  0.1589  1.1919  0.0239
  696TMC3     H10295   0.333   2.939  13.527  1.0596 -0.4456  0.1068
  696TMC3    H110296   0.369   3.130  13.141  1.4129  0.5548  0.6472
  696TMC3    H210297   0.039   3.224  13.391  0.9088  0.5436 -1.2623
  696TMC3    C710298   0.189   3.305  13.185 -0.1513 -0.1251  0.2712
  696TMC3    C810299   0.114   3.076  13.605 -0.0565  0.2257 -0.8829
  696TMC3    O110300   0.248   3.316  13.078 -0.2149  0.7479 -0.3327
  696TMC3    O210301   0.181   3.025  13.696  0.3880 -0.2191 -0.1543
  697MPD2     C10302   4.665   4.704  15.753 -0.2614 -0.1826 -0.2366
  697MPD2    C110303   4.661   4.655  15.624 -0.1073  0.0422  0.7277
  697MPD2    C210304   4.693   0.021  15.521  0.0081 -0.2041  0.5181
  697MPD2    C310305   0.002   0.155  15.547 -0.3608 -0.3961  0.6800
  697MPD2    C410306   4.723   0.200  15.678  1.4164  0.5182 -0.0230
  697MPD2    C510307   4.680   0.113  15.779 -0.3803  0.2192 -0.2119
  697MPD2     H10308   4.693   4.713  15.417  0.4534 -0.7626  0.6918
  697MPD2    H110309   0.009   0.306  15.697  0.6192  0.2965  1.6312
  697MPD2    H210310   4.633   4.646  15.839  0.4681 -0.9611 -0.4837
  697MPD2    H310311   4.659   0.146  15.879 -0.5248  0.9635 -0.4893
  697MPD2     N10312   0.029   0.247  15.443 -0.0617  0.1073 -0.4191
  697MPD2    H510313   0.049   0.206  15.352  2.4205 -2.8661  1.4361
  697MPD2    N110314   4.628   4.520  15.581  0.2013 -0.3583 -0.3873
  697MPD2    H710315   4.638   4.513  15.480 -1.7719  1.0484 -0.6681
  698TMC3    C110316   0.123   0.427  15.314 -0.0033  1.0886 -0.0889
  698TMC3    C210317   0.204   0.539  15.315  0.0295 -0.2859 -0.1017
  698TMC3    C310318   0.297   0.555  15.218  0.4680  0.1411 -1.0257
  698TMC3    C410319   0.122   0.333  15.212  0.0772  0.3124  0.0500
  698TMC3    C510320   0.215   0.352  15.109  0.3364  0.0592 -0.5763
  698TMC3    C610321   0.306   0.456  15.123  0.3505 -0.5510  0.6084
  698TMC3     C10322   0.068   0.380  15.442  0.0817  0.3562 -0.0598
  698TMC3     O10323   0.090   0.451  15.540 -0.1541 -0.2751  0.0496
  698TMC3     H10324   0.199   0.604  15.401 -1.1926 -1.8564  1.0086
  698TMC3    H110325   0.040   0.266  15.189  0.6241 -0.6132  0.7670
  698TMC3    H210326   0.376   0.481  15.043 -0.4974  3.1438  0.9924
  698TMC3    C710327   0.215   0.264  14.995 -0.7441  1.1098  0.0324
  698TMC3    C810328   0.291   0.688  15.161 -0.1033 -0.4946  0.3753
  698TMC3    O110329   0.113   0.201  14.971  0.1620 -0.0727  0.6325
  698TMC3    O210330   0.204   0.767  15.193  0.2471 -0.3082 -0.8243
  699TMC3    C110331   4.673   3.184  12.848 -0.1242  0.1818 -0.0684
  699TMC3    C210332   4.719   3.080  12.934  0.1005 -0.6910  0.1150
  699TMC3    C310333   4.623   2.994  12.981 -0.3187  0.4739  0.0804
  699TMC3    C410334   4.547   3.201  12.817 -0.1489 -0.8413  0.0505
  699TMC3    C510335   4.456   3.112  12.866 -0.7582 -0.0061 -0.2943
  699TMC3    C610336   4.487   3.009  12.950 -1.1817  0.3419  0.0096
  699TMC3     C10337   0.039   3.298  12.814  0.0723 -0.2992 -0.2491
  699TMC3     O10338   4.708   3.404  12.822 -0.4049  0.0757 -0.0305
  699TMC3     H10339   0.095   3.091  12.976 -1.2834  0.4900  3.0713
  699TMC3    H110340   4.514   3.280  12.750  0.1181  0.1885  1.1395
  699TMC3    H210341   4.413   2.935  12.978 -1.6362 -0.4146 -3.1943
  699TMC3    C710342   4.321   3.114  12.810 -0.2236 -0.5501  0.1749
  699TMC3    C810343   4.650   2.913  13.099  0.2567  0.2387 -0.4849
  699TMC3    O110344   4.237   3.060  12.879 -0.0980 -0.0021  0.0474
  699TMC3    O210345   4.556   2.905  13.178  0.0159  0.1794 -0.1478
  700TMC3    C110346   4.066   0.352  16.960  0.5848 -0.3571 -0.2080
  700TMC3    C210347   4.161   0.248  16.947 -0.3365  0.2039  0.0591
  700TMC3    C310348   4.215   0.202  17.062 -0.0931  0.1169 -0.6634
  700TMC3    C410349   4.009   0.386  17.076 -0.6149 -0.0199 -0.2892
  700TMC3    C510350   4.048   0.315  17.187 -0.2168 -0.6210 -0.0133
  700TMC3    C610351   4.161   0.231  17.182  0.0029 -0.0928  0.2788
  700TMC3     C10352   4.052   0.439  16.847 -0.2216  0.4805  0.0125
  700TMC3     O10353   4.021   0.389  16.739 -0.4542  0.0709 -0.1939
  700TMC3     H10354   4.200   0.230  16.848  0.7229  0.9251  0.3441
  700TMC3    H110355   3.939   0.469  17.085 -1.1334 -0.6917  1.7911
  700TMC3    H210356   4.205   0.198  17.275  2.8236  1.5159 -0.4753
  700TMC3    C710357   4.026   0.370  17.318  0.4103  0.6479 -0.2559
  700TMC3    C810358   4.354   0.155  17.047 -0.1028 -0.4213 -0.3726
  700TMC3    O110359   4.123   0.365  17.388 -0.0369 -0.1393  0.4043
  700TMC3    O210360   4.384   0.103  16.939  0.0839  0.0460 -0.4486
  701TMC3    C110361   4.088   3.828  15.892  0.4192 -0.1521  0.3991
  701TMC3    C210362   4.105   3.763  15.774 -0.5633 -0.2765  0.2862
  701TMC3    C310363   4.183   3.814  15.672  0.0905  0.0865 -0.0055
  701TMC3    C410364   4.132   3.958  15.902  0.2525  0.0279 -0.2894
  701TMC3    C510365   4.212   4.002  15.800 -0.2593  0.1422 -1.1201
  701TMC3    C610366   4.247   3.929  15.689 -0.2117 -0.2925 -0.4707
  701TMC3     C10367   4.029   3.763  16.007  0.3151 -0.1604 -0.6152
  701TMC3     O10368   4.006   3.829  16.104 -0.4607 -0.3213 -0.6856
  701TMC3     H10369   4.073   3.659  15.768  1.5511 -0.9794  1.4483
  701TMC3    H110370   4.097   4.015  15.988 -1.5210  1.0250 -1.6656
  701TMC3    H210371   4.313   3.981  15.621 -0.1202  0.9266  0.5525
  701TMC3    C710372   4.238   4.145  15.791  0.2640  0.0943  0.5071
  701TMC3    C810373   4.195   3.732  15.552  0.3528  0.2690 -0.3102
  701TMC3    O110374   4.249   4.195  15.682 -0.3926 -0.0211 -0.0099
  701TMC3    O210375   4.282   3.771  15.475 -0.4123 -0.0396  0.1816
  702MPD2     C10376   3.932   1.810  10.433 -0.1392 -0.1311  0.5805
  702MPD2    C110377   3.831   1.906  10.401 -0.0552 -1.0560  0.4055
  702MPD2    C210378   3.866   2.028  10.359 -0.0710 -0.5196  0.6821
  702MPD2    C310379   3.992   2.071  10.347 -0.0497  0.5100 -0.0204
  702MPD2    C410380   4.089   1.982  10.387 -0.7800  0.6540  0.2056
  702MPD2    C510381   4.062   1.851  10.424  0.4454 -0.3091  0.5373
  702MPD2     H10382   3.789   2.098  10.329 -1.9794 -3.5418 -1.4570
  702MPD2    H110383   4.195   2.003  10.374 -0.8544  1.4444  0.8663
  702MPD2    H210384   3.911   1.713  10.478  0.3923 -0.6469 -0.2801
  702MPD2    H310385   4.142   1.783  10.448  1.3189  0.2321 -0.8049
  702MPD2     N10386   4.003   2.203  10.304 -0.3963  0.0522  0.0135
  702MPD2    H510387   3.915   2.253  10.298 -0.8069 -0.7809 -0.8737
  702MPD2    N110388   3.697   1.887  10.435 -0.0775  0.3226  0.4001
  702MPD2    H710389   3.642   1.969  10.458 -1.6267 -0.2680 -1.1758
  703TMC3    C110390   4.099   2.399  10.220 -0.3169 -0.0686  0.3002
  703TMC3    C210391   3.985   2.410  10.147  0.4989  0.2397 -0.5714
  703TMC3    C310392   3.965   2.540  10.099 -0.8643  0.2938  0.5237
  703TMC3    C410393   4.198   2.497  10.233 -0.3062  0.0487 -0.9966
  703TMC3    C510394   4.176   2.614  10.173  0.1165  0.2031  0.0165
  703TMC3    C610395   4.059   2.641  10.114 -0.2822  0.7064  1.0233
  703TMC3     C10396   4.120   2.273  10.292  0.1768 -0.5469  0.3864
  703TMC3     O10397   4.235   2.234  10.306  0.3068  0.0438 -0.2441
  703TMC3     H10398   3.908   2.337  10.127 -1.3029  2.8257 -2.9709
  703TMC3    H110399   4.292   2.489  10.286  0.4348 -0.8508 -2.4198
  703TMC3    H210400   4.034   2.733  10.061  0.1686  0.5894  0.6062
  703TMC3    C710401   4.283   2.712  10.179 -0.2961  0.0938 -0.4420
  703TMC3    C810402   3.838   2.558  10.035 -0.6021 -0.4905 -0.3441
  703TMC3    O110403   4.382   2.684  10.242  0.1467 -0.0729  0.3410
  703TMC3    O210404   3.835   2.627   9.930 -0.0406  0.0861 -0.6573
  704TMC3    C110405   0.983   0.121  12.253 -0.1684 -0.9325  0.4004
  704TMC3    C210406   1.114   0.153  12.232  0.5352  0.0365  0.9137
  704TMC3    C310407   1.207   0.081  12.297  0.0881  0.6541  0.3829
  704TMC3    C410408   0.945   0.020  12.335 -0.1571 -0.0594  0.4997
  704TMC3    C510409   1.044   4.671  12.396  0.0918 -0.0673 -0.0031
  704TMC3    C610410   1.174   4.716  12.392 -0.0813  0.3284 -0.6379
  704TMC3     C10411   0.885   0.145  12.151  0.2279 -0.9118 -0.3289
  704TMC3     O10412   0.773   0.184  12.175 -0.0771  0.6919  0.1538
  704TMC3     H10413   1.139   0.207  12.141  3.2464 -1.1228  0.9945
  704TMC3    H110414   0.845   4.703  12.322 -0.5407  0.2316  2.6423
  704TMC3    H210415   1.257   4.654  12.423  0.2658  0.5586 -1.1013
  704TMC3    C710416   1.030   4.522  12.389 -0.1358 -0.2339  0.0380
  704TMC3    C810417   1.342   0.090  12.249  0.3964  0.4669  0.1089
  704TMC3    O110418   1.132   4.457  12.381 -0.2120  0.1194 -0.0760
  704TMC3    O210419   1.364   0.106  12.125 -0.1517 -0.1210  0.2708
  705MPD2     C10420   0.835   2.523  16.593 -1.3669 -1.5612  0.3742
  705MPD2    C110421   0.748   2.601  16.510 -0.0338 -0.4954  0.8126
  705MPD2    C210422   0.634   2.643  16.570 -0.3013  1.0226 -0.5799
  705MPD2    C310423   0.610   2.632  16.705  1.1626  0.1315  0.5345
  705MPD2    C410424   0.698   2.556  16.781 -0.1234  0.3555  0.4223
  705MPD2    C510425   0.804   2.501  16.723 -0.0412  0.3578 -0.5198
  705MPD2     H10426   0.567   2.696  16.504 -0.4378 -0.0887 -1.3364
  705MPD2    H110427   0.682   2.535  16.887  1.4557  1.0253  0.7872
  705MPD2    H210428   0.928   2.487  16.551 -1.1071  0.7089 -1.0255
  705MPD2    H310429   0.873   2.441  16.780  1.2524 -1.3965 -3.9505
  705MPD2     N10430   0.488   2.680  16.769  0.0975  0.1027  0.2900
  705MPD2    H510431   0.488   2.662  16.869 -3.4577 -0.5438  0.1613
  705MPD2    N110432   0.783   2.639  16.378 -0.2216  0.6514 -0.1048
  705MPD2    H710433   0.715   2.707  16.347 -0.7873 -0.6333 -1.6826
  706TMC3    C110434   0.915   2.551  15.934  0.1984 -0.1694  0.5174
  706TMC3    C210435   0.888   2.683  15.894 -0.5954  0.7125  0.8956
  706TMC3    C310436   0.854   2.775  15.993 -0.2021  0.3385  0.2282
  706TMC3    C410437   0.898   2.508  16.065  0.6699  0.3317  0.4330
  706TMC3    C510438   0.869   2.606  16.155  0.7295  0.7362  0.0372
  706TMC3    C610439   0.857   2.737  16.125  0.6721 -0.5326 -0.4672
  706TMC3     C10440   0.967   2.455  15.838 -0.5664 -0.7131  0.0459
  706TMC3     O10441   1.001   2.352  15.889  0.0863  0.1154  0.2092
  706TMC3     H10442   0.900   2.715  15.791 -1.8267 -1.6437  0.0268
  706TMC3    H110443   0.896   2.404  16.093  0.7893  0.4622  0.9155
  706TMC3    H210444   0.869   2.811  16.203  0.3062 -1.9156  0.8947
  706TMC3    C710445   0.884   2.580  16.298  0.0180 -0.0653  0.4281
  706TMC3    C810446   0.866   2.922  15.965  0.2877  0.0916  0.0469
  706TMC3    O110447   0.950   2.479  16.323 -0.4646 -0.5528  0.1215
  706TMC3    O210448   0.905   2.952  15.850 -0.1290  0.0902 -1.2420
  707TMC3    C110449   1.920   1.621   0.457 -0.3522 -0.4985  0.0098
  707TMC3    C210450   1.932   1.617   0.595 -1.3176 -0.3719 -0.3041
  707TMC3    C310451   1.815   1.602   0.670  0.2079  0.0887 -0.2053
  707TMC3    C410452   1.799   1.597   0.391 -0.7845 -0.0296  0.4980
  707TMC3    C510453   1.686   1.602   0.475  0.4095 -0.0056 -0.4326
  707TMC3    C610454   1.692   1.601   0.609 -0.2092  0.1116  0.2400
  707TMC3     C10455   2.038   1.560   0.395  0.0651 -0.7897 -0.3657
  707TMC3     O10456   2.142   1.626   0.407  0.1589 -0.7257  0.2324
  707TMC3     H10457   2.029   1.623   0.643 -1.3012  1.4618 -0.5890
  707TMC3    H110458   1.799   1.590   0.282  5.5049  1.5109  0.3916
  707TMC3    H210459   1.605   1.578   0.669  0.7710  0.2254  1.7049
  707TMC3    C710460   1.559   1.578   0.420  0.1094 -0.2675  0.7739
  707TMC3    C810461   1.830   1.573   0.815 -0.1086 -0.3006  0.2213
  707TMC3    O110462   1.473   1.527   0.492 -0.2396  0.1694 -0.7870
  707TMC3    O210463   1.745   1.627   0.888 -0.1859  0.2282 -0.0080
  708MPD2     C10464   4.155   1.384  13.616 -0.1506 -0.0495 -0.2015
  708MPD2    C110465   4.025   1.340  13.637  0.1589  0.2795 -0.2202
  708MPD2    C210466   3.993   1.288  13.757  0.3847 -0.5988 -0.5019
  708MPD2    C310467   4.093   1.270  13.854  0.0161  0.0813  0.0147
  708MPD2    C410468   4.220   1.315  13.832  0.0185 -0.2747  0.7027
  708MPD2    C510469   4.252   1.364  13.705 -0.2272  0.4675  0.3129
  708MPD2     H10470   3.889   1.264  13.779  0.3662  0.7104  0.8189
  708MPD2    H110471   4.301   1.303  13.902 -0.2953 -1.0454  0.9399
  708MPD2    H210472   4.189   1.432  13.524  1.3955  2.0733  1.4852
  708MPD2    H310473   4.352   1.397  13.682  0.4720 -1.1607  1.0040
  708MPD2     N10474   4.072   1.230  13.983  0.1381 -0.4396  0.0975
  708MPD2    H510475   4.154   1.230  14.044 -0.7121 -2.2718  1.2729
  708MPD2    N110476   3.923   1.351  13.535 -0.0727 -0.3482 -0.1264
  708MPD2    H710477   3.827   1.336  13.561  0.0810  1.1663  1.3281
  709TMC3    C110478   3.810   1.470  13.389 -0.4331 -0.0655  0.3234
  709TMC3    C210479   3.810   1.607  13.405 -0.6309  0.0428  0.2206
  709TMC3    C310480   3.715   1.657  13.486 -0.2880  0.2210 -0.0406
  709TMC3    C410481   3.709   1.391  13.448  0.0876  0.3484 -0.4881
  709TMC3    C510482   3.619   1.452  13.532  0.1376  0.4164 -0.4725
  709TMC3    C610483   3.620   1.587  13.555  0.8531 -0.0889  0.3008
  709TMC3     C10484   3.937   1.413  13.417  0.3002  0.1134  0.6230
  709TMC3     O10485   4.040   1.460  13.365  0.1277  0.3523 -0.0878
  709TMC3     H10486   3.884   1.670  13.359 -0.7320 -1.2737 -1.7383
  709TMC3    H110487   3.705   1.284  13.429  4.6481  0.4191 -1.9170
  709TMC3    H210488   3.562   1.633  13.635  1.1208 -1.5718  1.3501
  709TMC3    C710489   3.577   1.366  13.638 -0.1743  0.4876  0.4744
  709TMC3    C810490   3.693   1.800  13.484  0.7220  0.3711  0.4635
  709TMC3    O110491   3.645   1.266  13.655 -0.0691  0.2349 -0.1622
  709TMC3    O210492   3.635   1.844  13.582  0.1426  0.7196 -0.0378
  710TMC3    C110493   0.248   2.381   0.568  0.0394  0.2294  0.6238
  710TMC3    C210494   0.324   2.492   0.541  0.2530  0.5828 -0.3597
  710TMC3    C310495   0.461   2.477   0.544  0.1457  0.7090 -0.0822
  710TMC3    C410496   0.312   2.257   0.576  0.3464 -0.0189  0.6097
  710TMC3    C510497   0.447   2.249   0.566  0.4474 -0.1653  0.4637
  710TMC3    C610498   0.528   2.355   0.556  0.7770 -0.2609  0.6105
  710TMC3     C10499   0.120   2.401   0.632  0.6728 -0.3062  0.1831
  710TMC3     O10500   0.057   2.303   0.673 -0.3180  0.1279  0.2403
  710TMC3     H10501   0.276   2.585   0.511  0.0643  0.4147 -0.5814
  710TMC3    H110502   0.248   2.169   0.583 -0.0235  0.2976  1.2095
  710TMC3    H210503   0.635   2.361   0.565  0.6757  1.2918  0.7580
  710TMC3    C710504   0.505   2.127   0.626  0.3787 -0.3859 -0.4733
  710TMC3    C810505   0.522   2.562   0.442  0.2129  1.2158 -0.3440
  710TMC3    O110506   0.417   2.047   0.659  0.2726 -1.1733  0.1944
  710TMC3    O210507   0.458   2.620   0.358 -0.1586 -0.2288 -0.2615
  711TMC3    C110508   4.547   3.372  15.163  0.4198 -0.5564 -0.4787
  711TMC3    C210509   4.590   3.476  15.239  0.6325 -0.4288 -0.1254
  711TMC3    C310510   4.698   3.450  15.324  0.3456 -0.1866 -0.0163
  711TMC3    C410511   4.610   3.251  15.160  0.7347 -0.2642 -0.1567
  711TMC3    C510512   4.720   3.237  15.234 -0.0801 -0.3591 -0.3080
  711TMC3    C610513   0.043   3.334  15.318  0.9677 -0.8514 -0.9035
  711TMC3     C10514   4.451   3.393  15.054 -0.5481  0.0916  0.0589
  711TMC3     O10515   4.407   3.299  14.992 -0.3984  0.6303  0.0691
  711TMC3     H10516   4.536   3.569  15.254  1.8475  0.2555  0.0436
  711TMC3    H110517   4.580   3.188  15.077  1.6806 -0.5003 -0.3117
  711TMC3    H210518   0.115   3.302  15.392  0.2189 -1.3696 -0.3934
  711TMC3    C710519   0.057   3.105  15.241 -0.7894  0.7763 -0.1528
  711TMC3    C810520   0.029   3.568  15.380  0.0744 -0.2064  0.3026
  711TMC3    O110521   0.169   3.109  15.287 -0.0046 -0.1920 -0.1320
  711TMC3    O210522   4.675   3.663  15.404 -0.7059  0.2547 -0.0993
  712MPD2     C10523   1.764   0.177  13.821  0.0453  0.1408 -0.6712
  712MPD2    C110524   1.640   0.217  13.770  0.4909  0.5607  0.0542
  712MPD2    C210525   1.633   0.335  13.699 -0.0268  0.0243  0.4817
  712MPD2    C310526   1.741   0.421  13.687 -0.9410  0.1058 -0.3449
  712MPD2    C410527   1.858   0.380  13.741  0.0589 -0.8501 -0.5580
  712MPD2    C510528   1.869   0.261  13.805 -0.2830 -0.0778 -0.0690
  712MPD2     H10529   1.541   0.352  13.644 -0.1217 -0.1356  0.5884
  712MPD2    H110530   1.950   0.437  13.746 -1.3243  1.3528 -0.3507
  712MPD2    H210531   1.790   0.081  13.865  0.5513  1.6305  2.2576
  712MPD2    H310532   1.970   0.231  13.833 -0.9872 -1.0941  1.3817
  712MPD2     N10533   1.746   0.539  13.616  0.2595 -1.0255  0.6200
  712MPD2    H510534   1.838   0.581  13.616  0.8181 -2.2682 -1.2918
  712MPD2    N110535   1.528   0.126  13.765  0.4934 -0.8078  0.5362
  712MPD2    H710536   1.450   0.152  13.704  0.6033  1.4081  1.3185
  713TMC3    C110537   1.685   0.714  13.484 -0.3371  0.7675  0.5814
  713TMC3    C210538   1.793   0.699  13.406  0.6017  0.5881  0.0624
  713TMC3    C310539   1.816   0.785  13.307 -0.1107  0.4441  0.3179
  713TMC3    C410540   1.605   0.823  13.477 -0.0800  0.3883 -0.1498
  713TMC3    C510541   1.635   0.911  13.372  0.6320 -0.1652 -0.0478
  713TMC3    C610542   1.735   0.888  13.289 -0.5777  0.5484  0.1055
  713TMC3     C10543   1.637   0.604  13.573 -0.0852  0.5859 -0.0127
  713TMC3     O10544   1.516   0.601  13.597  0.0233  0.1005 -0.1092
  713TMC3     H10545   1.850   0.607  13.409 -0.9045 -0.3534 -0.0107
  713TMC3    H110546   1.510   0.837  13.526  0.5390  0.1209  1.1235
  713TMC3    H210547   1.738   0.957  13.205 -1.4848 -1.2899 -1.4416
  713TMC3    C710548   1.545   1.011  13.323  0.3597 -0.0361  1.6510
  713TMC3    C810549   1.936   0.788  13.232 -0.1108 -0.3036 -0.0549
  713TMC3    O110550   1.525   1.028  13.204  0.7366  0.1979 -0.1465
  713TMC3    O210551   1.935   0.852  13.124  0.6643 -0.3057  1.0843
  714MPD2     C10552   3.955   3.599   1.401 -0.2045  0.2023 -0.2889
  714MPD2    C110553   3.882   3.482   1.378  0.3867  0.1309  0.1954
  714MPD2    C210554   3.794   3.483   1.271  0.8207  0.0832  0.5633
  714MPD2    C310555   3.767   3.601   1.204  0.0209  0.2813 -0.3553
  714MPD2    C410556   3.846   3.712   1.235  0.5273  0.2222 -0.0340
  714MPD2    C510557   3.937   3.717   1.335  0.8604 -0.0733  0.2631
  714MPD2     H10558   3.724   3.405   1.242  0.6326  1.0545 -1.5961
  714MPD2    H110559   3.835   3.810   1.190  3.8754  1.2492  1.4106
  714MPD2    H210560   4.023   3.608   1.485  0.4197  0.1032 -0.7849
  714MPD2    H310561   3.988   3.808   1.363  1.3594 -0.4813  0.7032
  714MPD2     N10562   3.676   3.592   1.093  0.2262  0.1888  0.1230
  714MPD2    H510563   3.626   3.505   1.075  0.0508  0.5098 -0.9200
  714MPD2    N110564   3.917   3.372   1.460 -0.7191  0.3527  0.0749
  714MPD2    H710565   3.992   3.392   1.525 -1.2880 -1.3538  1.2709
  715TMC3    C110566   3.932   3.144   1.528 -0.4764 -0.0123 -0.1829
  715TMC3    C210567   3.969   3.028   1.473  0.6957  0.3365 -0.1930
  715TMC3    C310568   4.085   2.968   1.514  0.3734  0.1762  0.0327
  715TMC3    C410569   3.992   3.189   1.639  0.1625 -0.8428 -0.4621
  715TMC3    C510570   4.109   3.125   1.684  0.7175 -0.8843  0.3953
  715TMC3    C610571   4.161   3.021   1.612  0.5227  0.2528  0.5100
  715TMC3     C10572   3.871   3.241   1.443  0.2405 -0.1144 -0.1595
  715TMC3     O10573   3.801   3.201   1.354  0.5356 -0.1377 -0.5275
  715TMC3     H10574   3.936   2.996   1.375  0.1984 -1.7276  0.6450
  715TMC3    H110575   3.959   3.282   1.683 -0.4414 -1.1006 -0.3730
  715TMC3    H210576   4.252   2.975   1.647  1.3765  3.3096  2.2962
  715TMC3    C710577   4.197   3.193   1.785  0.1105 -0.9368  0.4671
  715TMC3    C810578   4.137   2.856   1.450 -0.0463 -0.0020 -0.7341
  715TMC3    O110579   4.318   3.179   1.775 -0.3581 -0.0305  0.4498
  715TMC3    O210580   4.053   2.783   1.400 -0.8623  0.4218  0.3720
  716MPD2     C10581   4.147   1.639  10.172 -0.1115  0.5120 -0.4280
  716MPD2    C110582   4.066   1.683  10.070 -1.0995  0.7968  0.1713
  716MPD2    C210583   3.978   1.593  10.007  0.2871 -0.5421  0.6987
  716MPD2    C310584   3.982   1.458  10.048  0.2389  0.4259 -0.4979
  716MPD2    C410585   4.072   1.415  10.144 -0.1937  0.2876 -0.2347
  716MPD2    C510586   4.151   1.510  10.207  0.6997  0.4894 -0.6112
  716MPD2     H10587   3.925   1.630   9.921 -2.0936 -2.5162  1.3044
  716MPD2    H110588   4.066   1.315  10.187 -2.1186  0.2856 -0.5254
  716MPD2    H210589   4.216   1.713  10.212 -0.5115  0.6497  0.0109
  716MPD2    H310590   4.221   1.481  10.285  1.5402 -0.2496 -1.6390
  716MPD2     N10591   3.902   1.365   9.974  0.0238  0.1592  0.1217
  716MPD2    H510592   3.849   1.406   9.898  1.0179 -0.7650 -1.0643
  716MPD2    N110593   4.061   1.819  10.050  0.7742 -0.2121  0.1577
  716MPD2    H710594   4.140   1.872  10.085 -0.0289  0.5769  0.7794
  717TMC3    C110595   3.828   1.164   9.870 -0.4165  0.3482  0.4062
  717TMC3    C210596   3.736   1.243   9.798 -0.2703  0.8006 -0.4859
  717TMC3    C310597   3.680   1.190   9.689 -0.1442 -0.2784 -1.0408
  717TMC3    C410598   3.864   1.042   9.823  0.3629  0.0026 -0.2287
  717TMC3    C510599   3.803   0.991   9.714  0.2484 -0.4651  0.3154
  717TMC3    C610600   3.719   1.068   9.638  0.0786  0.8225  0.6138
  717TMC3     C10601   3.918   1.226   9.970  0.3976 -1.1502 -0.0417
  717TMC3     O10602   3.996   1.154  10.031 -0.5084 -0.4219  0.3548
  717TMC3     H10603   3.712   1.343   9.832 -0.7918  1.0323 -1.5187
  717TMC3    H110604   3.923   0.972   9.882  1.6366 -0.3582 -1.9445
  717TMC3    H210605   3.670   1.021   9.553  1.5574 -0.2644  0.3628
  717TMC3    C710606   3.845   0.863   9.664 -0.2866 -0.7490  0.0049
  717TMC3    C810607   3.597   1.282   9.609 -0.4411 -1.1912  0.7576
  717TMC3    O110608   3.878   0.778   9.742  0.8817 -0.0317 -0.6431
  717TMC3    O210609   3.537   1.370   9.675 -0.2192 -0.7259 -0.1246
  718MPD2     C10610   3.192   0.955  12.414  0.2969 -0.1036  0.0270
  718MPD2    C110611   3.057   0.970  12.417 -0.2039  0.5581  1.2952
  718MPD2    C210612   2.978   0.862  12.442 -0.5602  0.6942  0.5942
  718MPD2    C310613   3.032   0.732  12.458  0.6041 -0.4092 -0.2627
  718MPD2    C410614   3.172   0.721  12.458 -0.7487 -0.1832  0.1462
  718MPD2    C510615   3.248   0.834  12.444 -0.0091 -0.5560 -0.1790
  718MPD2     H10616   2.870   0.870  12.438 -0.7322 -1.4328  1.2669
  718MPD2    H110617   3.226   0.629  12.478  0.9239  0.5366 -1.0716
  718MPD2    H210618   3.256   1.041  12.399 -1.0212  0.3199 -3.0483
  718MPD2    H310619   3.355   0.814  12.453  0.2283  0.4625 -0.7553
  718MPD2     N10620   2.939   0.627  12.470  0.2647  0.0129  0.3411
  718MPD2    H510621   2.840   0.647  12.468  0.1155 -0.9654 -2.0357
  718MPD2    N110622   2.998   1.097  12.380 -0.5129  0.1983  1.0133
  718MPD2    H710623   3.063   1.162  12.338 -1.0207 -1.0937 -1.7318
  719TMC3    C110624   2.833   1.247  12.325  0.2024 -0.3665  0.7570
  719TMC3    C210625   2.706   1.230  12.274 -0.1193 -0.2098 -0.0713
  719TMC3    C310626   2.687   1.263  12.140  0.2100  0.3982  0.2710
  719TMC3    C410627   2.931   1.321  12.257 -0.3061  0.1502  0.2215
  719TMC3    C510628   2.899   1.350  12.125 -0.4702  0.4592  0.0646
  719TMC3    C610629   2.783   1.320  12.062 -0.3011 -0.5851 -0.0952
  719TMC3     C10630   2.870   1.127  12.398  0.8473  0.3154 -0.2253
  719TMC3     O10631   2.773   1.056  12.410  0.0631 -0.1539 -0.5521
  719TMC3     H10632   2.623   1.195  12.334  0.7184  0.2075  1.3371
  719TMC3    H110633   3.031   1.342  12.294 -0.2501 -0.8997  0.6528
  719TMC3    H210634   2.748   1.371  11.973 -1.5696 -1.2378  0.0395
  719TMC3    C710635   2.992   1.428  12.051 -0.7849  0.4015  0.2951
  719TMC3    C810636   2.610   1.165  12.065 -0.3825  0.5270 -0.0775
  719TMC3    O110637   2.981   1.428  11.932 -0.1235 -0.0933  0.0406
  719TMC3    O210638   2.536   1.195  11.970 -0.2539  0.6914 -0.2408
  720MPD2     C10639   1.093   2.157  13.792  0.3030  0.2107 -0.5478
  720MPD2    C110640   1.195   2.116  13.710 -0.2022  0.2666  0.0871
  720MPD2    C210641   1.279   2.012  13.757 -0.1696 -0.3481 -1.3642
  720MPD2    C310642   1.263   1.956  13.884  0.2338  0.8722 -0.5486
  720MPD2    C410643   1.160   2.006  13.967 -0.1325 -0.5346 -0.4250
  720MPD2    C510644   1.078   2.104  13.917 -0.5374  0.1589 -0.8055
  720MPD2     H10645   1.366   1.978  13.703 -0.6121  0.1463 -2.3782
  720MPD2    H110646   1.141   1.971  14.068 -1.3890  0.7631 -0.2218
  720MPD2    H210647   1.025   2.238  13.766 -0.2199 -0.7480 -2.1636
  720MPD2    H310648   0.994   2.144  13.972 -0.4645  1.7696 -1.8675
  720MPD2     N10649   1.361   1.864  13.929 -0.1519  0.0757  0.2399
  720MPD2    H510650   1.440   1.846  13.869 -0.3518  4.1490 -1.2495
  720MPD2    N110651   1.217   2.169  13.575 -0.1591  0.2072 -0.6715
  720MPD2    H710652   1.278   2.120  13.510  1.9267  1.9700 -0.0365
  721TMC3    C110653   1.497   1.750  14.095 -0.0539  0.4223 -0.2776
  721TMC3    C210654   1.509   1.705  14.223  0.1658 -0.0598  0.3519
  721TMC3    C310655   1.612   1.739  14.305  0.4258  0.6977  0.2903
  721TMC3    C410656   1.603   1.824  14.053  0.0331 -0.1258  0.2067
  721TMC3    C510657   1.715   1.845  14.131 -0.0656 -0.4329  0.5594
  721TMC3    C610658   1.718   1.805  14.261 -0.3551  0.4662 -0.4945
  721TMC3     C10659   1.365   1.801  14.055 -0.3313  0.1214 -0.4772
  721TMC3     O10660   1.273   1.785  14.134  0.5297 -0.1666  0.0321
  721TMC3     H10661   1.426   1.654  14.271  0.1512  0.1123  0.5090
  721TMC3    H110662   1.605   1.869  13.954 -3.3997  1.6964  0.9847
  721TMC3    H210663   1.804   1.809  14.327 -0.2058  3.4578 -0.8756
  721TMC3    C710664   1.844   1.881  14.070  0.5981  0.4342  0.2759
  721TMC3    C810665   1.617   1.691  14.442 -0.0230 -0.9259 -0.0649
  721TMC3    O110666   1.834   1.909  13.951 -0.0436 -0.6645 -0.6126
  721TMC3    O210667   1.690   1.750  14.521  0.4241  0.5966 -0.2799
  722MPD2     C10668   0.586   0.650  13.141 -0.3867  0.5320  0.3052
  722MPD2    C110669   0.530   0.755  13.067 -0.5812 -0.4469  0.0183
  722MPD2    C210670   0.393   0.742  13.036 -0.3206 -0.4022 -0.0113
  722MPD2    C310671   0.301   0.665  13.111 -0.5198  0.0441  0.0010
  722MPD2    C410672   0.361   0.577  13.195  0.1824  0.2762  0.0873
  722MPD2    C510673   0.495   0.561  13.197 -0.5321 -0.2516  0.8951
  722MPD2     H10674   0.361   0.819  12.966  0.3356  0.0642  0.2018
  722MPD2    H110675   0.300   0.505  13.249  0.5071  0.9003  1.2941
  722MPD2    H210676   0.693   0.644  13.153 -0.4935 -2.9528 -0.5292
  722MPD2    H310677   0.536   0.481  13.258  0.7482 -0.0896  0.2360
  722MPD2     N10678   0.164   0.685  13.090 -0.2353 -0.4252  0.3180
  722MPD2    H510679   0.141   0.753  13.019  0.2899 -0.2265  0.3403
  722MPD2    N110680   0.602   0.859  13.006 -0.0249  0.1585 -0.3288
  722MPD2    H710681   0.552   0.916  12.938 -1.0506 -0.3415  0.0136
  723TMC3    C110682   4.669   0.707  13.152  0.2431  1.1112 -0.2816
  723TMC3    C210683   4.549   0.651  13.159  0.0002  0.4017  0.2651
  723TMC3    C310684   4.439   0.729  13.178  0.4035 -0.1487 -0.0852
  723TMC3    C410685   4.684   0.844  13.148  0.2998  0.2163 -0.4105
  723TMC3    C510686   4.567   0.916  13.160  0.7155  0.5576  0.7636
  723TMC3    C610687   4.439   0.863  13.167 -0.0944  0.2197  0.6448
  723TMC3     C10688   0.057   0.617  13.156 -0.0155  0.1909 -0.1725
  723TMC3     O10689   0.060   0.521  13.231 -0.0725 -0.1520  0.2250
  723TMC3     H10690   4.543   0.543  13.171 -0.0293  0.1960 -1.5399
  723TMC3    H110691   0.052   0.900  13.132 -0.3812  1.2083 -0.8572
  723TMC3    H210692   4.339   0.906  13.169  0.0249  0.3887  2.5053
  723TMC3    C710693   4.574   1.058  13.128  0.4484 -0.3056  0.8640
  723TMC3    C810694   4.312   0.660  13.187  0.5806 -0.1105  0.6205
  723TMC3    O110695   4.690   1.092  13.098 -0.3796  0.3594  0.3200
  723TMC3    O210696   4.213   0.714  13.231 -0.1310  0.9963 -0.2465
  724TMC3    C110697   1.535   4.577   9.413  0.0416 -0.1522  0.3661
  724TMC3    C210698   1.529   4.557   9.545 -0.2633 -0.1738 -0.2324
  724TMC3    C310699   1.561   4.437   9.591 -0.7044 -0.3323  0.1043
  724TMC3    C410700   1.579   4.483   9.323  0.3716 -0.3761 -0.2610
  724TMC3    C510701   1.634   4.371   9.385  0.1054 -0.3294  0.0182
  724TMC3    C610702   1.627   4.348   9.514 -0.0799  0.2225  0.4673
  724TMC3     C10703   1.488   4.700   9.361 -0.3447  1.0654 -0.1386
  724TMC3     O10704   1.451   4.696   9.246  0.8570 -0.1021 -0.4796
  724TMC3     H10705   1.446   4.609   9.593 -1.2954  1.2597 -3.6158
  724TMC3    H110706   1.577   4.494   9.215 -0.9546 -0.5170 -0.2442
  724TMC3    H210707   1.664   4.258   9.562  1.3940  1.3076  1.3451
  724TMC3    C710708   1.716   4.278   9.305  0.3707 -0.4026  0.0179
  724TMC3    C810709   1.530   4.394   9.730  0.0390 -0.6754 -0.1354
  724TMC3    O110710   1.744   4.164   9.347 -0.1094  0.0360 -0.3612
  724TMC3    O210711   1.533   4.274   9.756 -0.1241  0.5676 -0.1750
  725TMC3    C110712   1.773   2.608  12.843 -0.3631  1.3253  0.1199
  725TMC3    C210713   1.736   2.625  12.715 -0.1806 -0.6116 -0.3198
  725TMC3    C310714   1.724   2.517  12.638  0.1553  0.3946 -0.4083
  725TMC3    C410715   1.806   2.487  12.898 -0.1762  0.2422 -0.0575
  725TMC3    C510716   1.800   2.382  12.809 -0.3601 -0.3842 -0.2329
  725TMC3    C610717   1.754   2.388  12.681  0.9169 -0.6091 -0.2941
  725TMC3     C10718   1.819   2.731  12.909  0.5520 -0.4187  0.7950
  725TMC3     O10719   1.823   2.833  12.840 -0.4824  0.7339  0.2785
  725TMC3     H10720   1.697   2.719  12.678  1.1380  1.0068  2.3923
  725TMC3    H110721   1.839   2.472  13.000  0.7042 -1.8332 -0.6368
  725TMC3    H210722   1.750   2.309  12.608  1.1547 -0.3502 -0.5889
  725TMC3    C710723   1.920   2.304  12.809  0.2520  0.1821  0.2157
  725TMC3    C810724   1.702   2.531  12.494 -0.1254  0.5038 -0.1911
  725TMC3    O110725   1.962   2.280  12.694  0.0369 -0.4627 -0.1372
  725TMC3    O210726   1.639   2.447  12.434 -0.3223  0.2943  0.7840
  726MPD2     C10727   0.039   4.330  10.220 -0.0320  0.6010 -0.2799
  726MPD2    C110728   4.652   4.333  10.137 -0.6073 -0.1529 -0.1255
  726MPD2    C210729   4.539   4.256  10.170  0.0886 -0.6754 -0.5699
  726MPD2    C310730   4.528   4.205  10.299  0.1586  0.0637  0.2831
  726MPD2    C410731   4.638   4.214  10.382  0.6593 -0.2342  0.3989
  726MPD2    C510732   0.030   4.268  10.341 -0.1205 -1.2340 -0.5635
  726MPD2     H10733   4.456   4.259  10.100 -0.1656  0.2182 -0.2294
  726MPD2    H110734   4.650   4.172  10.482 -0.2422  1.6818  1.3192
  726MPD2    H210735   0.131   4.383  10.198  2.0490 -3.2370 -0.8107
  726MPD2    H310736   0.120   4.270  10.402 -0.6583  0.3473  0.1633
  726MPD2     N10737   4.402   4.161  10.360 -0.3757 -0.1447  0.5000
  726MPD2    H510738   4.411   4.135  10.458  0.6933  1.3395  0.7975
  726MPD2    N110739   4.649   4.420  10.029  0.1739  0.1062 -0.6461
  726MPD2    H710740   4.590   4.398   9.949 -0.7746 -0.5142  0.2202
  727TMC3    C110741   4.720   4.578   9.870 -0.7501 -0.2143  0.3582
  727TMC3    C210742   0.088   4.682   9.860 -0.3777  0.0973 -0.2403
  727TMC3    C310743   0.057   0.071   9.792 -0.7675 -0.2102  0.6185
  727TMC3    C410744   4.599   4.584   9.816 -0.3430 -0.1900 -0.2504
  727TMC3    C510745   4.572   4.694   9.734 -0.3046 -0.0853 -0.0435
  727TMC3    C610746   4.666   0.072   9.719 -0.1273 -0.1635  0.6794
  727TMC3     C10747   0.009   4.527  10.008  0.4552 -0.9415  0.6968
  727TMC3     O10748   0.084   4.575  10.085  0.5982  0.1672 -0.1465
  727TMC3     H10749   0.181   4.671   9.915 -1.6326 -1.3948  1.5835
  727TMC3    H110750   4.515   4.520   9.841  1.2229 -1.1836  2.5016
  727TMC3    H210751   4.631   0.166   9.677 -0.9321 -1.1401 -0.8236
  727TMC3    C710752   4.441   4.714   9.681 -0.3546  0.5013 -0.1119
  727TMC3    C810753   0.144   0.187   9.809 -1.1232 -0.3731  0.0136
  727TMC3    O110754   4.349   4.644   9.733 -0.2602  0.0726 -0.1723
  727TMC3    O210755   0.260   0.166   9.837  0.0722  0.1246 -0.5600
  728TMC3    C110756   3.874   2.422  15.367 -0.5537 -0.5249  0.4104
  728TMC3    C210757   3.939   2.526  15.427 -0.6229  0.3079  0.0650
  728TMC3    C310758   3.984   2.623  15.335  0.4075  0.5205 -0.6537
  728TMC3    C410759   3.849   2.415  15.239 -0.5271  0.4023 -0.5682
  728TMC3    C510760   3.865   2.526  15.164 -0.0570 -0.4503  0.6293
  728TMC3    C610761   3.937   2.641  15.208  0.0056 -0.1228 -0.3421
  728TMC3     C10762   3.837   2.323  15.464 -0.1275  0.3364 -0.8392
  728TMC3     O10763   3.917   2.300  15.554  0.6016 -0.2968  0.0981
  728TMC3     H10764   3.960   2.519  15.533  1.8462 -0.9058 -0.5000
  728TMC3    H110765   3.798   2.325  15.207  0.1955  0.1535 -1.0302
  728TMC3    H210766   3.983   2.713  15.141 -1.4604  0.5345 -0.6491
  728TMC3    C710767   3.816   2.510  15.033 -0.0645  0.4686  0.1313
  728TMC3    C810768   4.055   2.734  15.395 -0.7645  0.0640 -0.5682
  728TMC3    O110769   3.769   2.401  14.999  0.3047 -0.1642 -0.5122
  728TMC3    O210770   4.074   2.837  15.333  0.4306  0.5737  0.2946
  729MPD2     C10771   1.142   3.100  16.205  0.2056 -1.0614 -0.4249
  729MPD2    C110772   1.154   3.226  16.253  0.7153 -0.2039 -0.4619
  729MPD2    C210773   1.128   3.252  16.386 -0.4326  0.0968  0.1703
  729MPD2    C310774   1.108   3.149  16.473  0.0478  0.3198 -0.3381
  729MPD2    C410775   1.109   3.019  16.419  0.0240 -0.7462 -0.3154
  729MPD2    C510776   1.119   3.002  16.288 -0.1438  0.4344  0.4946
  729MPD2     H10777   1.126   3.354  16.421 -0.9904 -0.0646  0.6035
  729MPD2    H110778   1.079   2.935  16.480 -1.8964 -0.5593 -1.0004
  729MPD2    H210779   1.150   3.085  16.098 -1.4998 -1.0661 -0.5529
  729MPD2    H310780   1.108   2.900  16.251 -2.1540  0.1609  1.8833
  729MPD2     N10781   1.093   3.173  16.616  0.0256 -1.2121  0.1651
  729MPD2    H510782   1.083   3.093  16.678 -1.4910 -2.0107 -1.0972
  729MPD2    N110783   1.188   3.324  16.152 -0.9303  0.2590 -0.2233
  729MPD2    H710784   1.178   3.292  16.056 -0.0922  3.2522 -1.2823
  730TMC3    C110785   1.099   3.301  16.823 -0.4089 -1.1237  0.1399
  730TMC3    C210786   1.184   3.198  16.864 -0.7100 -0.8229  0.2474
  730TMC3    C310787   1.250   3.229  16.977  0.1882 -0.6242 -0.4315
  730TMC3    C410788   1.099   3.419  16.883 -0.8662  0.1277  0.0562
  730TMC3    C510789   1.162   3.437  16.996  0.1573  0.4247  0.1804
  730TMC3    C610790   1.247   3.343  17.047  0.3159  0.1361  0.8916
  730TMC3     C10791   1.082   3.302  16.675  0.1486 -0.6659 -0.0198
  730TMC3     O10792   1.066   3.408  16.617  0.3381  0.0717  0.4363
  730TMC3     H10793   1.198   3.100  16.821 -0.2738 -0.7173  0.1446
  730TMC3    H110794   1.037   3.496  16.838 -0.4015  0.4727  0.0061
  730TMC3    H210795   1.311   3.368  17.130  0.4061 -1.3293  1.2575
  730TMC3    C710796   1.167   3.577  17.038 -0.0700 -0.0060  0.1195
  730TMC3    C810797   1.346   3.127  17.024  0.4399 -0.0705  0.4822
  730TMC3    O110798   1.118   3.662  16.965 -0.4332 -0.0744  0.3426
  730TMC3    O210799   1.334   3.010  16.993  0.7455  0.4996  0.1711
  731MPD2     C10800   1.844   2.089  12.220  0.0138  0.0518 -0.2600
  731MPD2    C110801   1.876   1.989  12.136  0.2407 -0.3862 -0.5092
  731MPD2    C210802   1.850   1.853  12.165 -0.0544 -0.3781  0.1224
  731MPD2    C310803   1.789   1.823  12.281 -0.2303  0.9067  0.2989
  731MPD2    C410804   1.764   1.933  12.373  0.9831  0.1184  0.1513
  731MPD2    C510805   1.801   2.062  12.348 -0.4900 -0.2947 -0.4199
  731MPD2     H10806   1.870   1.773  12.094  3.5827  1.9083 -1.4428
  731MPD2    H110807   1.731   1.922  12.475  2.8085  2.5177  1.0207
  731MPD2    H210808   1.850   2.193  12.188 -0.2146  0.4452  0.9875
  731MPD2    H310809   1.785   2.136  12.425  0.6390 -0.9190  0.4222
  731MPD2     N10810   1.752   1.695  12.312  0.3262  0.2582 -0.3400
  731MPD2    H510811   1.787   1.620  12.253 -0.1811 -0.7252  0.6130
  731MPD2    N110812   1.930   2.031  12.016 -0.2877 -0.8040 -0.9083
  731MPD2    H710813   1.940   2.132  12.011 -1.1312 -0.7238 -1.0109
  732TMC3    C110814   1.972   2.032  11.784 -0.0428  0.0259 -0.4557
  732TMC3    C210815   1.884   2.002  11.683  0.4760 -0.2151 -0.1682
  732TMC3    C310816   1.859   2.106  11.597  0.1949 -0.2269  0.2270
  732TMC3    C410817   2.042   2.157  11.787 -0.1130 -0.1720 -0.0505
  732TMC3    C510818   2.009   2.257  11.703 -0.0858 -0.5389 -0.4433
  732TMC3    C610819   1.908   2.235  11.610 -0.2628  0.1491  0.7441
  732TMC3     C10820   1.958   1.952  11.907  0.5733 -0.0406 -0.2917
  732TMC3     O10821   1.930   1.836  11.892  0.0676 -0.2738  0.0039
  732TMC3     H10822   1.839   1.904  11.680  0.3000 -0.0773 -2.0297
  732TMC3    H110823   2.118   2.167  11.863  1.4305 -3.7819 -1.1763
  732TMC3    H210824   1.883   2.305  11.531  0.9802  1.1842  1.2754
  732TMC3    C710825   2.050   2.397  11.725  0.2648  0.2036 -0.5866
  732TMC3    C810826   1.743   2.082  11.512 -0.2114 -0.1901 -0.5977
  732TMC3    O110827   1.987   2.473  11.653  0.3286  0.2826 -0.0580
  732TMC3    O210828   1.732   2.140  11.401  0.2276 -0.0965  0.3717
  733TMC3    C110829   2.724   0.229  12.491  0.0276 -0.2294  0.3405
  733TMC3    C210830   2.835   0.295  12.526 -0.2565 -0.7775  0.4129
  733TMC3    C310831   2.860   0.407  12.459  0.2411 -0.4359  1.3073
  733TMC3    C410832   2.644   0.272  12.387  0.2965 -0.1012 -0.7622
  733TMC3    C510833   2.685   0.378  12.311  0.0845  0.4685  0.1643
  733TMC3    C610834   2.793   0.448  12.348 -0.3309  0.5672 -1.0721
  733TMC3     C10835   2.646   0.162  12.600  0.1653  0.3806  0.7722
  733TMC3     O10836   2.544   0.112  12.562  0.2799  0.1103 -0.0355
  733TMC3     H10837   2.905   0.251  12.597  1.6285  1.2318 -0.2097
  733TMC3    H110838   2.554   0.224  12.351 -2.5504  1.9426  3.5676
  733TMC3    H210839   2.844   0.519  12.285  0.2771  0.9026 -0.2122
  733TMC3    C710840   2.598   0.439  12.218 -0.8024  0.1643 -0.2478
  733TMC3    C810841   2.970   0.494  12.500 -0.5691 -0.2794 -0.4726
  733TMC3    O110842   2.523   0.362  12.158  0.0687  0.5326 -0.0720
  733TMC3    O210843   3.071   0.443  12.533  0.0962  0.0601  0.1561
  734MPD2     C10844   4.596   2.496  12.488 -0.3640  0.0904  0.2206
  734MPD2    C110845   4.480   2.490  12.423  0.0524 -0.5140  0.2168
  734MPD2    C210846   4.462   2.551  12.305 -0.5472  0.2309  0.6689
  734MPD2    C310847   4.562   2.620  12.245  0.1092 -0.7628  0.3278
  734MPD2    C410848   4.677   2.630  12.313 -0.8075  0.0576 -0.2860
  734MPD2    C510849   4.700   2.569  12.434  0.9233 -0.4494  0.6739
  734MPD2     H10850   4.368   2.555  12.251 -0.1078  1.4636  0.0089
  734MPD2    H110851   0.035   2.687  12.270 -0.1057 -2.1062 -1.8166
  734MPD2    H210852   4.604   2.447  12.584  0.7154  0.4098  0.2993
  734MPD2    H310853   0.066   2.581  12.493  0.1321  1.9963  1.3585
  734MPD2     N10854   4.539   2.671  12.122  0.7100 -0.5739 -0.0697
  734MPD2    H510855   4.458   2.637  12.072  0.7760  1.9244 -1.8255
  734MPD2    N110856   4.386   2.407  12.482  0.1684  0.4959  0.0403
  734MPD2    H710857   4.425   2.351  12.557 -0.9119 -0.4573 -0.1079
  735TMC3    C110858   4.209   2.233  12.460 -0.0402  0.5422 -0.8158
  735TMC3    C210859   4.090   2.212  12.402  0.0508  0.1136  0.0236
  735TMC3    C310860   4.079   2.106  12.321 -0.0947 -0.0662  1.0195
  735TMC3    C410861   4.305   2.133  12.464  0.6332 -0.7308 -0.2781
  735TMC3    C510862   4.285   2.013  12.398 -0.0861 -0.4794 -0.2987
  735TMC3    C610863   4.174   2.004  12.315  0.4158  0.1664 -0.3778
  735TMC3     C10864   4.258   2.372  12.430  0.5051 -0.9461  0.8754
  735TMC3     O10865   4.185   2.435  12.354 -0.6456  0.2555 -0.6787
  735TMC3     H10866   4.010   2.285  12.406 -0.0139  0.0059  0.6921
  735TMC3    H110867   4.405   2.167  12.488  1.1680 -1.6349 -1.2935
  735TMC3    H210868   4.169   1.927  12.239 -0.3292 -1.0351  0.8768
  735TMC3    C710869   4.405   1.963  12.337  0.0889 -0.4642 -0.1636
  735TMC3    C810870   4.037   2.141  12.189 -0.0791  0.0152 -1.0259
  735TMC3    O110871   4.493   2.044  12.302  0.3084  0.1807 -0.0936
  735TMC3    O210872   4.001   2.047  12.120 -0.2788  0.0796 -0.0332
  736MPD2     C10873   4.442   1.630  12.215 -0.4368  0.3349  0.6865
  736MPD2    C110874   4.486   1.754  12.240 -0.5795  0.6883  0.5356
  736MPD2    C210875   4.616   1.787  12.209  0.0457 -0.0910 -0.3128
  736MPD2    C310876   4.698   1.690  12.166 -0.2105  0.3799  0.0079
  736MPD2    C410877   4.652   1.569  12.130 -0.2839  0.3619  0.3746
  736MPD2    C510878   4.526   1.536  12.164 -0.0366 -0.1726  0.5201
  736MPD2     H10879   4.650   1.884  12.244  1.2706  0.1898 -2.2754
  736MPD2    H110880   4.714   1.491  12.085 -2.1903 -0.1989 -1.2509
  736MPD2    H210881   4.343   1.594  12.242 -0.6886 -1.5132 -2.6570
  736MPD2    H310882   4.482   1.444  12.126 -0.0374  1.2491 -2.9473
  736MPD2     N10883   0.116   1.712  12.155  0.1254  0.7473  0.0325
  736MPD2    H510884   0.169   1.649  12.097  1.0397  1.1955  0.3851
  736MPD2    N110885   4.394   1.832  12.310 -0.1658 -0.2072 -0.3011
  736MPD2    H710886   4.307   1.782  12.327  0.1133 -1.0940 -1.4875
  737TMC3    C110887   0.324   1.817  12.194  0.1160  0.1819  0.8234
  737TMC3    C210888   0.364   1.950  12.203 -0.4998  0.5166 -0.0288
  737TMC3    C310889   0.433   2.004  12.100 -0.6460  0.0920 -0.5328
  737TMC3    C410890   0.367   1.739  12.093  0.2202 -0.0562  0.0819
  737TMC3    C510891   0.442   1.802  11.995  0.5799  0.3227 -0.0084
  737TMC3    C610892   0.481   1.932  11.991  0.5328 -0.1123  0.1017
  737TMC3     C10893   0.184   1.810  12.226 -0.8142 -0.6020 -0.0526
  737TMC3     O10894   0.152   1.871  12.326 -0.4272 -0.5787  0.2770
  737TMC3     H10895   0.334   2.008  12.290 -0.2644 -1.5879  1.4588
  737TMC3    H110896   0.337   1.635  12.088  2.6329 -0.7214 -0.8897
  737TMC3    H210897   0.534   1.984  11.911  0.0348  1.1126  0.5623
  737TMC3    C710898   0.492   1.717  11.887  0.1282  0.1185  0.6202
  737TMC3    C810899   0.461   2.144  12.105  0.4457  0.1122  0.6778
  737TMC3    O110900   0.488   1.596  11.900  0.4323 -0.1454  0.0147
  737TMC3    O210901   0.464   2.199  12.214  0.1549 -0.3953 -0.6229
  738MPD2     C10902   0.342   0.922  14.990  0.0461 -0.3804  0.1901
  738MPD2    C110903   0.438   0.849  15.054 -0.3410 -0.5393 -0.2448
  738MPD2    C210904   0.577   0.882  15.038 -0.5494 -0.7705  0.5120
  738MPD2    C310905   0.603   1.008  14.979 -0.1882  0.5694  0.0280
  738MPD2    C410906   0.499   1.091  14.930 -0.2298  0.5677 -0.0292
  738MPD2    C510907   0.373   1.044  14.938  0.1669 -0.2986  0.3560
  738MPD2     H10908   0.652   0.811  15.072  1.0708 -0.1035 -1.6318
  738MPD2    H110909   0.515   1.188  14.885  0.3313  1.7937  2.8538
  738MPD2    H210910   0.238   0.893  15.001 -0.3096  1.3126  1.3560
  738MPD2    H310911   0.291   1.103  14.898  1.1455  0.3437 -0.6966
  738MPD2     N10912   0.740   1.054  14.966  0.4102  0.1529 -0.0736
  738MPD2    H510913   0.748   1.152  14.941 -1.6909  0.2981 -0.2012
  738MPD2    N110914   0.412   0.721  15.107 -0.5216 -0.2072  0.1795
  738MPD2    H710915   0.485   0.657  15.135 -0.7206 -1.9558 -3.3047
  739TMC3    C110916   0.966   1.080  14.971  0.7144 -0.5064 -0.1456
  739TMC3    C210917   0.967   1.157  14.854  0.1741  0.0179  0.2024
  739TMC3    C310918   1.069   1.251  14.853 -0.0406  0.1080 -0.3790
  739TMC3    C410919   1.053   1.086  15.077  0.3690  0.3074 -0.0356
  739TMC3    C510920   1.157   1.181  15.062 -0.2391  0.2579  0.7072
  739TMC3    C610921   1.168   1.249  14.949  0.3268 -0.2874 -0.1415
  739TMC3     C10922   0.858   0.988  14.992 -0.6043 -0.3328  0.5414
  739TMC3     O10923   0.885   0.880  15.048 -0.6100 -0.0184  0.4467
  739TMC3     H10924   0.898   1.148  14.771  1.1112  1.6651 -0.7597
  739TMC3    H110925   1.070   0.993  15.130 -1.8347  0.6644  1.3213
  739TMC3    H210926   1.244   1.326  14.945 -0.0497  0.1588  1.2898
  739TMC3    C710927   1.272   1.170  15.141  0.1050 -0.3181 -0.0792
  739TMC3    C810928   1.086   1.310  14.728  0.2178 -0.6850  0.5676
  739TMC3    O110929   1.377   1.199  15.082  0.1668  0.5805  0.5672
  739TMC3    O210930   1.027   1.270  14.631 -0.1066  0.4728  0.2720
  740TMC3    C110931   1.229   2.391  14.060 -0.0311  0.6190 -0.6396
  740TMC3    C210932   1.256   2.301  14.154  0.6054 -0.0623  0.2705
  740TMC3    C310933   1.373   2.222  14.154  1.0196 -0.8150 -0.5676
  740TMC3    C410934   1.310   2.397  13.940 -0.7016  0.1347 -0.1170
  740TMC3    C510935   1.421   2.319  13.938 -0.3693  0.1475 -0.4464
  740TMC3    C610936   1.451   2.232  14.041 -0.9619 -0.1789  0.1119
  740TMC3     C10937   1.114   2.482  14.074 -0.1839 -0.2111  0.1594
  740TMC3     O10938   1.064   2.527  13.974 -0.1075 -0.1745 -0.6412
  740TMC3     H10939   1.183   2.272  14.230 -0.9783  0.1568 -1.1602
  740TMC3    H110940   1.272   2.453  13.855  1.1316  1.1328 -0.2703
  740TMC3    H210941   1.542   2.172  14.038 -0.8324  0.0179  0.1167
  740TMC3    C710942   1.490   2.290  13.814  0.0835  0.0124  0.4730
  740TMC3    C810943   1.434   2.166  14.271  0.0525  0.3457  0.4352
  740TMC3    O110944   1.575   2.203  13.810  0.0719  0.2733  0.6814
  740TMC3    O210945   1.530   2.090  14.261  0.4131 -0.4807  0.2466
  741TMC3    C110946   0.827   1.612  14.615 -0.6236  0.0922  0.0661
  741TMC3    C210947   0.777   1.516  14.533 -1.0770 -0.2271  0.4083
  741TMC3    C310948   0.737   1.390  14.585  0.0266 -0.1551 -0.0425
  741TMC3    C410949   0.828   1.592  14.751 -0.4864  0.2590 -0.0280
  741TMC3    C510950   0.767   1.479  14.800  0.5446 -0.1441 -0.6083
  741TMC3    C610951   0.727   1.376  14.722 -0.0675 -0.2783  0.5544
  741TMC3     C10952   0.892   1.740  14.571  0.2281  0.4661 -0.6143
  741TMC3     O10953   0.936   1.810  14.659 -0.0410  0.2921 -0.1505
  741TMC3     H10954   0.773   1.530  14.426 -1.8617 -0.5549  0.4004
  741TMC3    H110955   0.875   1.667  14.814  0.8375 -1.1609  0.6645
  741TMC3    H210956   0.686   1.283  14.759  0.0755 -0.3437  0.5510
  741TMC3    C710957   0.789   1.443  14.938 -0.6762 -0.1669 -0.3496
  741TMC3    C810958   0.647   1.310  14.502  0.1245 -0.9035  0.5140
  741TMC3    O110959   0.748   1.328  14.970  0.4938  0.2773 -0.7949
  741TMC3    O210960   0.558   1.254  14.560 -0.2857  0.4992  0.4291
  742TMC3    C110961   0.379   4.698  15.155 -0.2560  0.1719  0.0563
  742TMC3    C210962   0.280   4.656  15.065 -0.1509 -0.4390 -0.1003
  742TMC3    C310963   0.323   4.606  14.948 -0.9921 -0.3141  0.0293
  742TMC3    C410964   0.508   4.659  15.147  0.2248 -0.6970  0.7405
  742TMC3    C510965   0.544   4.583  15.032 -0.7706  0.5380  0.5823
  742TMC3    C610966   0.453   4.559  14.936  0.4324 -0.7799 -1.0904
  742TMC3     C10967   0.345   0.048  15.274  0.6542 -0.0266  0.0713
  742TMC3     O10968   0.232   0.028  15.312  0.2763  0.5741  0.3544
  742TMC3     H10969   0.178   4.694  15.070 -0.5560 -1.9123  2.6593
  742TMC3    H110970   0.584   4.672  15.222  0.7322  0.7234 -0.0284
  742TMC3    H210971   0.475   4.496  14.850  1.3488 -0.0401 -1.3924
  742TMC3    C710972   0.640   4.473  15.032 -0.7101 -0.1671  0.3938
  742TMC3    C810973   0.225   4.563  14.848  0.1681  0.0890 -0.6438
  742TMC3    O110974   0.664   4.415  14.927  0.1724  0.0212 -0.2921
  742TMC3    O210975   0.248   4.470  14.769  0.0553 -0.7435 -0.3087
  743MPD2     C10976   2.808   1.694   1.390  0.7536  0.4422  0.1357
  743MPD2    C110977   2.861   1.578   1.358  0.4932 -0.4616 -0.5332
  743MPD2    C210978   2.996   1.551   1.385 -0.4988 -0.8240  0.4786
  743MPD2    C310979   3.074   1.639   1.447  0.0474 -0.2794 -0.3167
  743MPD2    C410980   3.013   1.757   1.487 -0.2776  0.5294 -0.4788
  743MPD2    C510981   2.884   1.788   1.449  0.0216 -0.0299  0.2209
  743MPD2     H10982   3.034   1.451   1.364 -1.0042 -0.6298 -1.4153
  743MPD2    H110983   3.064   1.822   1.557  1.3029 -0.4770 -0.6703
  743MPD2    H210984   2.709   1.717   1.353  0.1967  0.0366  1.3563
  743MPD2    H310985   2.830   1.877   1.478 -1.9532 -1.0080 -0.4433
  743MPD2     N10986   3.205   1.596   1.492 -0.1896  0.0641 -0.1858
  743MPD2    H510987   3.233   1.507   1.453  1.3432 -0.1154  1.3250
  743MPD2    N110988   2.784   1.488   1.288  0.8598  0.1056  1.1095
  743MPD2    H710989   2.689   1.519   1.269  0.0872 -1.6460  2.1125
  744TMC3    C110990   2.739   1.303   1.139 -0.2320 -0.4229  0.7894
  744TMC3    C210991   2.610   1.345   1.102  0.9425 -0.1883  0.1213
  744TMC3    C310992   2.547   1.277   1.001 -0.1239  0.2801 -0.0372
  744TMC3    C410993   2.804   1.199   1.078  0.9011 -0.6295 -0.1687
  744TMC3    C510994   2.743   1.138   0.972  0.2649  0.3329  0.2641
  744TMC3    C610995   2.618   1.182   0.931 -0.2811 -0.3982  1.4385
  744TMC3     C10996   2.826   1.362   1.247  0.3478  0.0594  0.1744
  744TMC3     O10997   2.928   1.297   1.274  0.5544 -0.3723  0.2880
  744TMC3     H10998   2.569   1.429   1.156 -0.6719 -0.5930 -0.4623
  744TMC3    H110999   2.902   1.162   1.106  0.2146 -1.6606  0.8913
  744TMC3    H211000   2.573   1.133   0.845  0.4723  2.6404 -0.6872
  744TMC3    C711001   2.831   1.074   0.876  0.1676  0.4118 -0.4259
  744TMC3    C811002   2.413   1.300   0.973  0.4707  0.4212  0.3069
  744TMC3    O111003   2.954   1.095   0.885  0.3072 -1.0012 -0.2033
  744TMC3    O211004   2.374   1.264   0.866 -0.4467  0.2361 -0.0226
  745TMC3    C111005   1.406   4.649  13.790  0.4200  0.4786  0.1122
  745TMC3    C211006   1.319   4.627  13.890  0.7822 -0.4610 -0.2472
  745TMC3    C311007   1.191   4.592  13.846  0.2165  0.2657  0.2233
  745TMC3    C411008   1.385   4.631  13.651  0.3975  0.6147 -0.3165
  745TMC3    C511009   1.256   4.597  13.623 -0.2926  0.3125 -0.2145
  745TMC3    C611010   1.156   4.577  13.715 -0.0369 -0.0221  0.6134
  745TMC3     C11011   1.525   0.004  13.827 -0.0946 -0.0635 -0.1823
  745TMC3     O11012   1.613   4.683  13.900 -0.6193 -0.8995  0.3758
  745TMC3     H11013   1.358   4.651  13.989 -0.3838  0.3827  0.0184
  745TMC3    H111014   1.465   4.648  13.581  0.0755  1.7466 -0.4029
  745TMC3    H211015   1.061   4.531  13.690  0.5525 -0.7147 -0.3413
  745TMC3    C711016   1.225   4.580  13.479  0.3728  0.9596 -0.0918
  745TMC3    C811017   1.102   4.548  13.949  0.3356  0.2961  0.0203
  745TMC3    O111018   1.108   4.592  13.450 -0.5909  0.6249  0.6999
  745TMC3    O211019   1.004   4.497  13.900  0.2882  0.1136  0.1523
  746TMC3    C111020   3.451   1.984  10.718 -0.4012 -0.1343 -0.0402
  746TMC3    C211021   3.563   1.925  10.661 -0.1048 -0.5008  0.4830
  746TMC3    C311022   3.545   1.806  10.588 -0.1548  0.3643  0.6464
  746TMC3    C411023   3.328   1.925  10.707  0.1143 -0.6369  0.3452
  746TMC3    C511024   3.316   1.812  10.632 -0.2723  0.5491 -0.7963
  746TMC3    C611025   3.424   1.755  10.568 -0.3144 -0.1914  0.2211
  746TMC3     C11026   3.444   2.126  10.768  0.3579  0.0529  0.2630
  746TMC3     O11027   3.336   2.153  10.811  0.6227  0.2114  0.3561
  746TMC3     H11028   3.661   1.965  10.683 -0.9413  1.6003  0.4292
  746TMC3    H111029   3.235   1.966  10.745 -0.6141 -1.2251 -0.7964
  746TMC3    H211030   3.418   1.664  10.509  0.6457 -0.7616  0.9984
  746TMC3    C711031   3.193   1.791  10.570 -0.2830  0.3900  0.1652
  746TMC3    C811032   3.649   1.769  10.490  0.9682 -0.4774 -0.6021
  746TMC3    O111033   3.144   1.893  10.525  0.1745  0.3618  0.4465
  746TMC3    O211034   3.668   1.649  10.461 -0.4986 -0.3564 -0.6342
  747TMC3    C111035   0.708   2.120  10.946  0.8089  0.5209  0.2010
  747TMC3    C211036   0.702   1.994  10.998  0.1637 -0.2348 -0.4564
  747TMC3    C311037   0.742   1.981  11.128 -0.1944 -0.0127 -0.4712
  747TMC3    C411038   0.762   2.230  11.011  0.3630 -0.0711 -0.5372
  747TMC3    C511039   0.813   2.209  11.139  0.0375  0.4085  0.1036
  747TMC3    C611040   0.804   2.087  11.199 -0.6612  0.0682  0.0549
  747TMC3     C11041   0.674   2.137  10.802  0.0024  0.2946  0.0232
  747TMC3     O11042   0.685   2.254  10.759  0.4990 -0.3494 -0.2280
  747TMC3     H11043   0.627   1.924  10.963  1.4343 -0.8255 -2.0316
  747TMC3    H111044   0.756   2.332  10.976  3.5114 -0.1388 -1.2282
  747TMC3    H211045   0.846   2.065  11.296  2.9524 -0.7777 -1.7230
  747TMC3    C711046   0.896   2.313  11.196 -0.1697  0.8538 -0.3188
  747TMC3    C811047   0.685   1.874  11.208  0.2106 -0.7724  1.3050
  747TMC3    O111048   0.884   2.432  11.158  0.1609  0.7758 -0.0086
  747TMC3    O211049   0.665   1.770  11.144  0.2095 -0.1800  0.3794
  748MPD2     C11050   2.919   1.723   1.861  0.4342 -0.4362  0.5641
  748MPD2    C111051   3.048   1.758   1.893  0.2592  0.9827  0.4489
  748MPD2    C211052   3.092   1.887   1.856  0.0991  0.3650 -0.2143
  748MPD2    C311053   3.013   1.974   1.782  0.0319 -0.1923 -0.4315
  748MPD2    C411054   2.883   1.939   1.770  0.4417  0.4347 -0.7409
  748MPD2    C511055   2.839   1.823   1.814  0.7768  0.2322 -0.1150
  748MPD2     H11056   3.192   1.917   1.884 -1.0189  2.4776  1.4618
  748MPD2    H111057   2.816   2.004   1.714  0.5307  1.5423  0.4399
  748MPD2    H211058   2.861   1.635   1.886  1.7327 -1.1288  1.1088
  748MPD2    H311059   2.735   1.796   1.801  0.6654  0.4891  0.2466
  748MPD2     N11060   3.074   2.084   1.718 -0.9672 -0.7103 -0.6195
  748MPD2    H511061   3.170   2.094   1.751 -1.4862 -1.2689  1.0430
  748MPD2    N111062   3.129   1.657   1.950 -0.4045 -0.3848  0.7329
  748MPD2    H711063   3.094   1.565   1.971  2.1046 -1.0522  2.0427
  749TMC3    C111064   3.109   2.260   1.566  0.2459 -0.5151  0.2734
  749TMC3    C211065   3.243   2.262   1.599  0.6575  0.5348 -0.0889
  749TMC3    C311066   3.320   2.366   1.556 -0.3730 -0.4785  0.1437
  749TMC3    C411067   3.063   2.355   1.480  0.1089 -0.3249  0.3346
  749TMC3    C511068   3.147   2.462   1.440 -0.3588 -0.3149 -0.5935
  749TMC3    C611069   3.274   2.475   1.489  0.5805 -0.1936  0.3957
  749TMC3     C11070   3.018   2.167   1.622 -0.3588  0.2018  0.5343
  749TMC3     O11071   2.909   2.153   1.574  0.2311 -0.4813 -0.1777
  749TMC3     H11072   3.282   2.197   1.676  0.8289 -0.3863 -0.9654
  749TMC3    H111073   2.960   2.352   1.445  0.4266  0.0908 -0.6384
  749TMC3    H211074   3.337   2.556   1.454 -1.5325  0.1721 -2.5353
  749TMC3    C711075   3.131   2.518   1.302 -0.6348  0.1299  0.4541
  749TMC3    C811076   3.455   2.348   1.579 -0.1961  0.0949  0.0497
  749TMC3    O111077   3.235   2.561   1.250  0.0517 -0.2690 -0.1725
  749TMC3    O211078   3.517   2.439   1.635 -0.5501  0.0216 -0.3967
  750MPD2     C11079   3.475   3.825  11.169  0.1254  0.4364  0.2241
  750MPD2    C111080   3.344   3.794  11.156  0.9349  0.5714 -0.7234
  750MPD2    C211081   3.303   3.686  11.087  0.5338 -0.3357  0.1133
  750MPD2    C311082   3.397   3.605  11.019 -0.0925  0.3211 -0.2683
  750MPD2    C411083   3.529   3.637  11.034  0.0636 -0.5948  0.5806
  750MPD2    C511084   3.570   3.743  11.114  0.5912 -0.3913 -0.0238
  750MPD2     H11085   3.196   3.683  11.072  0.4826 -1.1772  0.6632
  750MPD2    H111086   3.613   3.588  10.987 -0.0893 -0.3646  0.0690
  750MPD2    H211087   3.505   3.909  11.230 -0.1560 -0.5664  1.7521
  750MPD2    H311088   3.674   3.769  11.130  0.4352 -0.7650  1.6184
  750MPD2     N11089   3.360   3.494  10.944  0.4616 -0.2044 -0.1623
  750MPD2    H511090   3.443   3.450  10.907 -0.5853 -0.6603 -1.9693
  750MPD2    N111091   3.265   3.899  11.194  0.1819 -0.0033 -0.3386
  750MPD2    H711092   3.309   3.973  11.248 -0.7760  1.1054 -1.0819
  751TMC3    C111093   3.233   3.368  10.795  0.6237 -0.1484  0.0357
  751TMC3    C211094   3.106   3.321  10.761  0.0636  0.3790 -1.0568
  751TMC3    C311095   3.092   3.247  10.646  0.2280  0.4350  0.8680
  751TMC3    C411096   3.345   3.338  10.718 -0.5650  0.3184  0.4093
  751TMC3    C511097   3.322   3.267  10.605 -0.6266 -0.0441 -0.4571
  751TMC3    C611098   3.201   3.219  10.566  1.3600 -0.2584  0.0578
  751TMC3     C11099   3.232   3.462  10.905  0.1639 -0.1529  0.4218
  751TMC3     O11100   3.125   3.486  10.960 -0.5247  0.0991  0.5475
  751TMC3     H11101   3.021   3.355  10.820  0.6215 -2.2716  1.3005
  751TMC3    H111102   3.446   3.373  10.733 -1.0904  1.3676  1.5563
  751TMC3    H211103   3.181   3.188  10.464 -1.1325  0.3968  0.3400
  751TMC3    C711104   3.432   3.231  10.522 -0.3695  0.0952  0.7558
  751TMC3    C811105   3.001   3.138  10.638  0.6346  0.6466 -0.4306
  751TMC3    O111106   3.527   3.305  10.529 -0.2744 -0.0644 -0.7282
  751TMC3    O211107   2.995   3.081  10.531  1.2363 -0.3772 -0.0734
  752TMC3    C111108   2.059   2.923  16.028 -0.1077 -0.2489  0.5280
  752TMC3    C211109   2.054   2.986  16.150 -0.1184  0.5692 -0.5291
  752TMC3    C311110   2.132   2.939  16.257  0.6544  0.1146 -0.1410
  752TMC3    C411111   2.149   2.820  16.013  0.1051 -0.2374 -0.1008
  752TMC3    C511112   2.227   2.786  16.115  0.6960  0.1645  0.6742
  752TMC3    C611113   2.217   2.834  16.240  0.1938 -0.3332 -0.0337
  752TMC3     C11114   2.002   2.986  15.911  0.6100 -0.6172  0.2367
  752TMC3     O11115   2.043   2.940  15.807 -0.4663 -0.2778  0.0478
  752TMC3     H11116   1.986   3.067  16.174  0.5916  2.2105 -3.9742
  752TMC3    H111117   2.146   2.761  15.922  1.8799  0.5504 -0.6572
  752TMC3    H211118   2.288   2.801  16.316  0.4975 -0.1907 -0.2544
  752TMC3    C711119   2.317   2.672  16.092 -0.1402 -0.4652  0.0538
  752TMC3    C811120   2.104   2.997  16.390  0.1361 -0.2994 -0.0343
  752TMC3    O111121   2.288   2.577  16.021 -0.0010 -0.6035  0.2697
  752TMC3    O211122   1.995   3.048  16.403 -0.1214  0.4633  0.3103
  753TMC3    C111123   4.302   0.123  13.358  0.1784 -0.9943 -0.2643
  753TMC3    C211124   4.381   0.030  13.423  0.1937  0.1424  0.4239
  753TMC3    C311125   4.359   4.624  13.390 -0.9902 -0.1651  0.4861
  753TMC3    C411126   4.200   0.085  13.281  0.3723 -0.5423  0.2846
  753TMC3    C511127   4.177   4.678  13.255  0.0203 -0.3459  0.3767
  753TMC3    C611128   4.259   4.583  13.301 -0.3206 -0.2481 -0.2739
  753TMC3     C11129   4.297   0.255  13.420 -0.0257 -0.0556 -0.7438
  753TMC3     O11130   4.183   0.295  13.445 -0.3000  0.2420  0.0156
  753TMC3     H11131   4.470   0.066  13.474 -0.3671 -0.6974  1.9972
  753TMC3    H111132   4.128   0.157  13.242  2.1201  1.5663  0.9714
  753TMC3    H211133   4.258   4.475  13.294 -2.1470 -0.2517  0.1847
  753TMC3    C711134   4.039   4.640  13.223  0.1859  0.2549  0.3708
  753TMC3    C811135   4.433   4.521  13.462  0.5228 -0.0676 -0.7957
  753TMC3    O111136   3.961   0.011  13.244  0.2465 -0.5103 -0.2961
  753TMC3    O211137   4.441   4.406  13.420  0.0331 -0.2954  0.4589
  754MPD2     C11138   2.966   3.428  12.836  0.1580 -0.4894  0.2569
  754MPD2    C111139   2.886   3.323  12.861  0.2444  0.6139 -0.0218
  754MPD2    C211140   2.758   3.337  12.914  0.0813  0.7451 -0.1291
  754MPD2    C311141   2.709   3.462  12.954 -0.5905 -0.8582  0.1459
  754MPD2    C411142   2.788   3.571  12.927 -0.5037 -0.4017  0.0834
  754MPD2    C511143   2.913   3.547  12.866  0.3442 -0.3543 -0.3786
  754MPD2     H11144   2.691   3.252  12.901 -0.8009  1.8160 -2.4381
  754MPD2    H111145   2.767   3.669  12.967  2.2286  0.8969 -1.6302
  754MPD2    H211146   3.067   3.419  12.798  0.5552 -0.4105  1.3019
  754MPD2    H311147   2.976   3.635  12.858  0.1695 -0.2055 -0.1033
  754MPD2     N11148   2.585   3.472  13.027 -0.3907  0.3793  0.3277
  754MPD2    H511149   2.542   3.564  13.033  0.7690  0.9293  0.1254
  754MPD2    N111150   2.942   3.195  12.829  0.1373 -0.4731 -0.1740
  754MPD2    H711151   3.024   3.189  12.770  0.9351  0.0184  0.8798
  755MPD2     C11152   2.525   3.724  13.850 -0.3485  0.2063 -0.0980
  755MPD2    C111153   2.407   3.767  13.799  0.2616  0.3658 -0.0630
  755MPD2    C211154   2.374   3.725  13.674  0.4962 -0.4838 -0.6539
  755MPD2    C311155   2.454   3.646  13.597  0.0635  0.5976  0.0296
  755MPD2    C411156   2.577   3.608  13.648  0.0704  0.4583  0.0420
  755MPD2    C511157   2.606   3.644  13.780 -0.3710 -0.3916 -0.0260
  755MPD2     H11158   2.274   3.746  13.637  0.4769  1.6088  0.5734
  755MPD2    H111159   2.650   3.551  13.592  0.5837  0.9815  0.1735
  755MPD2    H211160   2.560   3.768  13.943 -1.0485 -1.2380  0.8638
  755MPD2    H311161   2.701   3.606  13.818 -0.3375 -0.3960 -0.1127
  755MPD2     N11162   2.408   3.592  13.474 -0.1113  0.2189 -0.4462
  755MPD2    H511163   2.464   3.519  13.430 -0.4864 -0.5773  0.3989
  755MPD2    N111164   2.313   3.852  13.866  0.8946  0.0084  0.1575
  755MPD2    H711165   2.224   3.865  13.821  1.1587 -0.1978 -0.4186
  756MPD2     C11166   3.191   0.043   9.556 -0.4421 -0.2252  0.4223
  756MPD2    C111167   3.133   4.684   9.645  0.2817  0.2814 -0.0827
  756MPD2    C211168   3.032   4.598   9.601 -0.5183  0.1635  0.0226
  756MPD2    C311169   2.997   4.585   9.470 -0.4972 -0.1039  1.1992
  756MPD2    C411170   3.069   4.655   9.373  0.3292 -0.2332  0.1017
  756MPD2    C511171   3.165   0.025   9.419 -0.3623  0.7436 -0.4277
  756MPD2     H11172   2.981   4.537   9.674  2.5529  0.2308  2.2022
  756MPD2    H111173   3.050   4.652   9.267  2.5183  2.0770 -0.3478
  756MPD2    H211174   3.272   0.113   9.571  1.7505 -2.9575  1.1936
  756MPD2    H311175   3.229   0.075   9.348  1.3563 -1.5476 -0.4582
  756MPD2     N11176   2.883   4.505   9.442  0.3145 -0.2185 -0.8144
  756MPD2    H511177   2.831   4.470   9.521  1.8268  0.2876  0.4101
  756MPD2    N111178   3.155   4.701   9.785 -0.2142 -0.0908 -0.1190
  756MPD2    H711179   3.107   4.644   9.854  0.2726 -0.3050  0.0386
  757MPD2     C11180   2.608   3.584   9.274 -0.0916 -0.0930 -0.2697
  757MPD2    C111181   2.534   3.642   9.376 -0.6112  0.0568  0.3554
  757MPD2    C211182   2.536   3.775   9.373  0.0678  0.4834  0.0281
  757MPD2    C311183   2.596   3.850   9.278  0.2409  0.1803  0.1752
  757MPD2    C411184   2.662   3.790   9.176 -0.3587  0.7014 -0.2768
  757MPD2    C511185   2.669   3.655   9.174  0.6239  0.3276  0.6691
  757MPD2     H11186   2.487   3.837   9.448  1.9998  0.3539  1.3993
  757MPD2    H111187   2.714   3.846   9.099  0.2857  1.1752  0.5005
  757MPD2    H211188   2.634   3.479   9.274  1.2320  0.2374 -0.1765
  757MPD2    H311189   2.741   3.613   9.105 -0.2419 -0.8548  0.4943
  757MPD2     N11190   2.585   3.985   9.287  0.1346  0.6515 -0.3241
  757MPD2    H511191   2.550   4.022   9.374 -2.0918 -3.7748  0.6466
  757MPD2    N111192   2.464   3.560   9.469  0.1732  0.7465  0.9373
  757MPD2    H711193   2.482   3.462   9.451 -3.6460  0.2846 -0.2802
  758MPD2     C11194   2.978   2.133  15.872  0.6234 -0.2137 -0.3066
  758MPD2    C111195   3.057   2.201  15.958 -0.0005  0.4697 -0.0642
  758MPD2    C211196   3.044   2.184  16.097  0.1367 -0.2847  1.2320
  758MPD2    C311197   2.950   2.092  16.137 -0.4187 -0.5576  0.0840
  758MPD2    C411198   2.855   2.044  16.049  0.1784 -0.0010  0.2398
  758MPD2    C511199   2.868   2.066  15.918 -0.4795 -0.3804  0.0840
  758MPD2     H11200   3.116   2.231  16.164 -0.2332  0.3902  1.1574
  758MPD2    H111201   2.791   1.975  16.102  0.4888 -0.9790 -0.6687
  758MPD2    H211202   2.984   2.156  15.766  0.6766  1.1391 -0.0204
  758MPD2    H311203   2.803   2.031  15.838  0.8193 -3.3249  0.3121
  758MPD2     N11204   2.932   2.064  16.281 -0.1220  0.3053  0.3323
  758MPD2    H511205   2.845   2.024  16.315 -1.1043  3.6689  1.8336
  758MPD2    N111206   3.166   2.273  15.902  0.1527  0.2176 -0.3827
  758MPD2    H711207   3.197   2.260  15.806  4.1442  0.1940  0.9215
  759MPD2     C11208   1.630   2.073  10.297  0.1691 -0.4034  0.1179
  759MPD2    C111209   1.574   1.986  10.202  0.2057  0.5600  0.1104
  759MPD2    C211210   1.626   1.972  10.075  0.2413 -0.2312  0.0970
  759MPD2    C311211   1.725   2.056  10.029 -0.4233 -0.6821 -0.3049
  759MPD2    C411212   1.770   2.153  10.122  0.3499 -0.3967 -0.5057
  759MPD2    C511213   1.719   2.164  10.250  0.1652  0.2881  0.1468
  759MPD2     H11214   1.586   1.904  10.000  1.3876 -0.1746 -0.5642
  759MPD2    H111215   1.844   2.231  10.106 -1.0100  0.7464 -1.1342
  759MPD2    H211216   1.605   2.084  10.402 -0.1586  1.3576 -0.1489
  759MPD2    H311217   1.773   2.235  10.312  4.2146 -1.3509 -1.5310
  759MPD2     N11218   1.789   2.021   9.907 -0.5571  0.3973  0.3303
  759MPD2    H511219   1.758   1.934   9.864  1.8696  0.1876 -0.9575
  759MPD2    N111220   1.467   1.904  10.241 -0.2661 -0.1663  0.3071
  759MPD2    H711221   1.422   1.853  10.166  0.2517 -0.3630  0.1313
  760MPD2     C11222   1.437   3.469  11.554 -0.1848  0.9024  0.1340
  760MPD2    C111223   1.570   3.513  11.557 -0.3327  0.6934  0.0660
  760MPD2    C211224   1.657   3.468  11.649  0.0652 -0.3229  0.3994
  760MPD2    C311225   1.614   3.380  11.748 -0.2749 -0.2405  0.3661
  760MPD2    C411226   1.473   3.342  11.752  0.2828  0.0775  0.0935
  760MPD2    C511227   1.391   3.383  11.651  0.0088  0.0269  0.2616
  760MPD2     H11228   1.759   3.501  11.634 -0.1354  0.6807  1.2391
  760MPD2    H111229   1.428   3.288  11.835 -0.6876  1.4916  0.4950
  760MPD2    H211230   1.364   3.500  11.480 -1.1724 -2.3732 -0.2770
  760MPD2    H311231   1.287   3.353  11.658  0.4641 -0.9077  3.0140
  760MPD2     N11232   1.694   3.354  11.870 -0.3320  0.1106 -0.1064
  760MPD2    H511233   1.648   3.309  11.948  0.1013 -0.9548 -0.4620
  760MPD2    N111234   1.625   3.607  11.462 -0.0814 -0.3595 -0.1727
  760MPD2    H711235   1.718   3.645  11.478  2.0999 -5.7686 -0.1369
  761MPD2     C11236   2.780   2.735  10.850 -0.3552 -0.6266  0.0201
  761MPD2    C111237   2.873   2.740  10.748 -0.6441 -0.2511 -0.0662
  761MPD2    C211238   2.931   2.868  10.720  0.4965 -0.0077 -0.2759
  761MPD2    C311239   2.881   2.977  10.778 -0.4358  0.0917  0.1494
  761MPD2    C411240   2.783   2.967  10.875  0.6762  0.3693  0.0971
  761MPD2    C511241   2.730   2.849  10.905  0.1734 -0.1919  0.0658
  761MPD2     H11242   3.025   2.880  10.668 -0.2647 -0.9144 -1.8692
  761MPD2    H111243   2.740   3.051  10.928  0.5166 -1.2210  2.5235
  761MPD2    H211244   2.732   2.642  10.875  0.4328 -0.9797  0.2363
  761MPD2    H311245   2.647   2.847  10.975 -0.1342 -2.1339 -0.3368
  761MPD2     N11246   2.929   3.110  10.752 -0.8619  0.1492 -0.7733
  761MPD2    H511247   2.918   3.178  10.826  2.5845 -1.6179  1.3469
  761MPD2    N111248   2.915   2.624  10.686  0.1212 -0.0717 -0.5334
  761MPD2    H711249   2.883   2.538  10.728 -0.3975 -0.6947 -2.1884
  762MPD2     C11250   3.351   2.438   9.993  0.1208  0.2086 -0.2229
  762MPD2    C111251   3.378   2.435  10.125 -0.1248 -0.4909 -0.3005
  762MPD2    C211252   3.503   2.466  10.166  0.4927 -0.0434 -0.1256
  762MPD2    C311253   3.597   2.500  10.072  0.2575 -0.5060  0.4514
  762MPD2    C411254   3.564   2.513   9.938  0.6928 -0.6712 -0.2114
  762MPD2    C511255   3.441   2.478   9.903  0.1915  0.1535  0.1920
  762MPD2     H11256   3.522   2.441  10.270  0.1841  1.2464  0.2403
  762MPD2    H111257   3.634   2.528   9.856  0.5658 -1.8384 -0.5290
  762MPD2    H211258   3.263   2.396   9.947  0.8744 -0.9763 -0.5642
  762MPD2    H311259   3.425   2.463   9.797 -0.2411 -0.6754  0.3785
  762MPD2     N11260   3.730   2.516  10.112 -0.2748 -0.1891 -0.2773
  762MPD2    H511261   3.747   2.490  10.209 -0.1155  0.4201 -0.1427
  762MPD2    N111262   3.286   2.411  10.231 -0.0067 -0.5817  0.5081
  762MPD2    H711263   3.311   2.430  10.328  0.5148  2.0477 -0.1548
  763MPD2     C11264   4.535   2.719  16.199  0.4782  0.2034 -0.5386
  763MPD2    C111265   4.599   2.800  16.106  0.2533 -0.4211 -0.4334
  763MPD2    C211266   4.668   2.917  16.148 -0.0983  0.3368  0.0322
  763MPD2    C311267   4.674   2.948  16.276 -0.1550  0.0979 -0.2853
  763MPD2    C411268   4.616   2.863  16.371 -0.3661 -0.3473 -0.4721
  763MPD2    C511269   4.547   2.747  16.336 -0.5308  0.0560 -0.3199
  763MPD2     H11270   4.713   2.972  16.067  1.3114 -2.1072 -0.8525
  763MPD2    H111271   4.631   2.871  16.478  0.5850  2.3743 -0.8045
  763MPD2    H211272   4.496   2.619  16.186 -1.2914  0.6802  1.1550
  763MPD2    H311273   4.517   2.680  16.417 -0.0001 -0.8311 -0.8562
  763MPD2     N11274   0.024   3.064  16.314  0.1074  0.0908 -0.3913
  763MPD2    H511275   0.077   3.110  16.241  1.3258  0.4903  0.7561
  763MPD2    N111276   4.624   2.754  15.971 -0.1831  0.9253  0.3520
  763MPD2    H711277   4.657   2.830  15.914 -1.3416  2.8722  2.2832
  764MPD2     C11278   3.057   4.217  16.851  0.0529 -0.6954 -0.5542
  764MPD2    C111279   2.979   4.109  16.861  0.3040  1.0281 -0.1637
  764MPD2    C211280   2.992   4.022  16.971  0.1961  0.5992 -0.1589
  764MPD2    C311281   3.090   4.033  17.063 -0.8622 -0.9585  0.2672
  764MPD2    C411282   3.157   4.155  17.070 -0.2182 -0.1314 -0.3790
  764MPD2    C511283   3.139   4.240  16.960 -0.0214 -0.2589 -0.1222
  764MPD2     H11284   2.922   3.940  16.975 -0.4663  1.1549 -0.2889
  764MPD2    H111285   3.220   4.192  17.150 -0.5317 -0.0771 -0.1556
  764MPD2    H211286   3.070   4.286  16.768 -1.7379  0.4726  0.1474
  764MPD2    H311287   3.195   4.332  16.962 -0.4350  0.0192 -0.9781
  764MPD2     N11288   3.093   3.939  17.170 -0.0239  0.2156 -0.7519
  764MPD2    H511289   3.024   3.867  17.154 -1.9669  2.0978 -0.7170
  764MPD2    N111290   2.884   4.077  16.760 -0.1738  0.0703 -0.3018
  764MPD2    H711291   2.832   3.990  16.773 -0.7913  0.7512  1.7965
  765MPD2     C11292   2.378   1.986  15.684  0.2014  0.2604 -0.3578
  765MPD2    C111293   2.476   2.079  15.685 -0.3769  0.2745 -0.2348
  765MPD2    C211294   2.606   2.035  15.663  0.3019 -0.6069 -0.2541
  765MPD2    C311295   2.618   1.901  15.617 -0.5867  0.5300  0.0277
  765MPD2    C411296   2.521   1.808  15.637 -0.4282 -0.4615 -0.2163
  765MPD2    C511297   2.393   1.852  15.659 -0.2595 -0.1674  0.1665
  765MPD2     H11298   2.673   2.120  15.672 -1.4205  0.7832 -0.5482
  765MPD2    H111299   2.542   1.705  15.610 -1.6137 -0.4111 -1.3699
  765MPD2    H211300   2.276   2.018  15.701 -0.4611 -3.1620  2.1716
  765MPD2    H311301   2.319   1.773  15.672 -1.2340  0.5161 -1.1935
  765MPD2     N11302   2.751   1.878  15.583 -0.2524 -0.1272 -0.4024
  765MPD2    H511303   2.812   1.959  15.582  0.1489 -0.4285 -0.4456
  765MPD2    N111304   2.435   2.207  15.717  0.5710  0.3763  0.3203
  765MPD2    H711305   2.336   2.215  15.738  0.7510  2.4827  0.4128
  766MPD2     C11306   1.907   2.458  15.467  0.8170  0.0919 -0.7035
  766MPD2    C111307   2.044   2.499  15.446 -0.0022  0.7296  0.1903
  766MPD2    C211308   2.102   2.473  15.326 -0.5024  0.3161 -0.8431
  766MPD2    C311309   2.037   2.405  15.225 -0.7972 -0.1466  0.1844
  766MPD2    C411310   1.904   2.375  15.250  0.3888 -0.0374 -0.8671
  766MPD2    C511311   1.837   2.403  15.367  0.0781 -0.1188 -0.7335
  766MPD2     H11312   2.208   2.492  15.330 -0.0786 -2.6998  1.4353
  766MPD2    H111313   1.854   2.322  15.169 -0.0781  1.8405 -1.8029
  766MPD2    H211314   1.846   2.474  15.556  4.9954 -3.1716  2.7265
  766MPD2    H311315   1.730   2.390  15.371  0.1962 -0.7297  0.4755
  766MPD2     N11316   2.102   2.341  15.111 -0.0033  0.0546  0.0564
  766MPD2    H511317   2.048   2.280  15.051 -0.1031  0.4047 -0.2112
  766MPD2    N111318   2.123   2.556  15.540 -0.4359  0.4356  0.2584
  766MPD2    H711319   2.213   2.597  15.517  0.3998 -0.8697  1.2189
  767MPD2     C11320   1.835   2.665  15.030 -0.2079 -0.4475  0.2137
  767MPD2    C111321   1.950   2.677  14.959 -0.0162 -0.2478  0.3402
  767MPD2    C211322   1.964   2.604  14.842 -0.6750 -0.3726 -0.3155
  767MPD2    C311323   1.873   2.511  14.801 -0.0878  0.3422 -0.0494
  767MPD2    C411324   1.754   2.499  14.874 -0.0698  0.9196 -0.3588
  767MPD2    C511325   1.740   2.582  14.984 -0.2056  0.1936 -0.3812
  767MPD2     H11326   2.054   2.617  14.783 -0.9877 -4.1279 -1.5834
  767MPD2    H111327   1.663   2.447  14.847  0.8246  0.0664 -1.7304
  767MPD2    H211328   1.812   2.731  15.113 -0.3007 -1.9723  1.4133
  767MPD2    H311329   1.649   2.567  15.042  1.7254  1.6537  3.0166
  767MPD2     N11330   1.900   2.421  14.694  0.3205  0.0135  0.3341
  767MPD2    H511331   1.994   2.423  14.657  0.4523 -0.5950  0.6262
  767MPD2    N111332   2.061   2.734  15.031 -0.3255  0.6597  0.7337
  767MPD2    H711333   2.052   2.771  15.125 -1.3283  2.9793 -0.2945
  768MPD2     C11334   3.138   1.772  10.080 -0.2757 -0.0133  0.0975
  768MPD2    C111335   3.045   1.706  10.161 -0.9546  1.0594  0.0595
  768MPD2    C211336   3.095   1.614  10.244  0.3024 -0.4183 -0.7415
  768MPD2    C311337   3.232   1.572  10.246  0.5887  0.6894  0.3953
  768MPD2    C411338   3.324   1.644  10.172 -0.7491 -0.0840 -0.7417
  768MPD2    C511339   3.275   1.745  10.090  0.3609  0.3910 -0.9657
  768MPD2     H11340   3.025   1.562  10.308  0.1294 -0.0436 -0.6245
  768MPD2    H111341   3.430   1.631  10.156 -0.7106  1.3870 -1.6651
  768MPD2    H211342   3.123   1.850  10.007  0.2579 -0.1114 -0.1168
  768MPD2    H311343   3.336   1.804  10.023 -0.3452  1.0885 -0.9955
  768MPD2     N11344   3.292   1.475  10.327  0.2314 -0.1787  0.7112
  768MPD2    H511345   3.390   1.451  10.312  0.4774  1.7190 -0.7412
  768MPD2    N111346   2.911   1.745  10.171  0.6474 -0.0801 -1.1539
  768MPD2    H711347   2.848   1.677  10.212  0.8635  1.3274  1.4455
  769MPD2     C11348   4.016   3.455  15.172 -0.3726 -0.4599 -0.3772
  769MPD2    C111349   3.914   3.493  15.251  0.0408 -0.1065  0.4315
  769MPD2    C211350   3.941   3.568  15.363 -0.1262 -0.3713 -0.0110
  769MPD2    C311351   4.074   3.601  15.399  0.3104 -0.3363 -0.4346
  769MPD2    C411352   4.178   3.561  15.316 -0.0203 -0.1809 -0.1484
  769MPD2    C511353   4.144   3.490  15.206 -0.9163 -0.9000 -0.2318
  769MPD2     H11354   3.865   3.597  15.435  1.3011  0.9908  0.9564
  769MPD2    H111355   4.280   3.580  15.346  0.1621  0.4507 -1.1661
  769MPD2    H211356   3.996   3.376  15.101 -0.4638 -1.6182  0.9241
  769MPD2    H311357   4.224   3.439  15.152  0.2016 -1.0717  1.5755
  769MPD2     N11358   4.087   3.657  15.529  0.3082 -0.1573  0.2221
  769MPD2    H511359   4.005   3.651  15.589 -0.1843 -1.0393 -0.5381
  769MPD2    N111360   3.788   3.461  15.205 -0.1465 -0.0235  0.0532
  769MPD2    H711361   3.781   3.424  15.111 -1.4682  0.2936  0.0266
  770MPD2     C11362   2.875   3.011  15.083  0.0755  0.3843  0.7580
  770MPD2    C111363   2.985   2.994  15.002  0.3917  0.7730 -0.3813
  770MPD2    C211364   3.095   3.085  15.009 -0.1597  0.5442  0.1934
  770MPD2    C311365   3.092   3.182  15.109  0.5388 -0.1233 -0.0594
  770MPD2    C411366   2.976   3.195  15.189  0.0458 -0.2755  0.0389
  770MPD2    C511367   2.867   3.117  15.175 -0.4203  0.2149  0.2416
  770MPD2     H11368   3.179   3.084  14.941  1.5506  0.7614  2.2768
  770MPD2    H111369   2.964   3.271  15.264 -0.0963  0.4183 -0.6847
  770MPD2    H211370   2.795   2.938  15.077  1.7756 -1.4433  0.3369
  770MPD2    H311371   2.782   3.125  15.241 -1.5165  0.1495 -1.1597
  770MPD2     N11372   3.201   3.270  15.110  0.6375 -0.5696 -0.1456
  770MPD2    H511373   3.275   3.246  15.044 -0.1789  1.9544 -1.9810
  770MPD2    N111374   3.001   2.872  14.935 -0.1026  0.2244 -0.6181
  770MPD2    H711375   2.929   2.804  14.957  0.7285 -0.0489  1.2924
  771MPD2     C11376   4.535   2.024  13.964 -0.3780 -0.4207 -0.2186
  771MPD2    C111377   4.466   2.123  13.895  1.1357  0.0174  0.1521
  771MPD2    C211378   4.368   2.088  13.810 -0.0364 -0.1029  0.7748
  771MPD2    C311379   4.324   1.958  13.793 -0.5963 -0.1158 -0.0153
  771MPD2    C411380   4.378   1.860  13.877  0.7916 -0.2953  0.1498
  771MPD2    C511381   4.491   1.896  13.950 -0.2748  0.1645  0.3593
  771MPD2     H11382   4.324   2.169  13.753  1.2842 -1.7987 -2.6844
  771MPD2    H111383   4.344   1.757  13.871 -1.1570  0.2389  2.0734
  771MPD2    H211384   4.611   2.050  14.038 -1.5312 -1.8632  1.4800
  771MPD2    H311385   4.536   1.819  14.011  0.6081 -0.3314 -0.9157
  771MPD2     N11386   4.236   1.938  13.678 -0.0131  0.0699  0.5677
  771MPD2    H511387   4.211   2.023  13.630  0.6643 -0.0841 -0.0704
  771MPD2    N111388   4.503   2.259  13.904 -0.1222 -1.0314  0.5404
  771MPD2    H711389   4.452   2.323  13.843  1.3148 -1.2157 -0.8785
  772MPD2     C11390   4.191   2.904  13.865  0.0666  0.3055 -0.1663
  772MPD2    C111391   4.202   2.771  13.838 -0.0519 -0.1600  0.6159
  772MPD2    C211392   4.088   2.689  13.812 -0.2386 -0.7165 -0.7107
  772MPD2    C311393   3.959   2.739  13.817  0.2198  0.1618  0.1050
  772MPD2    C411394   3.948   2.880  13.833 -0.3381 -0.6531  0.0813
  772MPD2    C511395   4.063   2.953  13.857 -0.1048  0.2583  0.1186
  772MPD2     H11396   4.108   2.583  13.800  1.4975 -0.2514 -1.8890
  772MPD2    H111397   3.853   2.932  13.839 -0.1679 -0.3710  0.3522
  772MPD2    H211398   4.276   2.968  13.883  0.2250 -0.0998  0.5519
  772MPD2    H311399   4.054   3.059  13.879 -0.1270  0.1956  0.4038
  772MPD2     N11400   3.837   2.662  13.815  0.6591  0.3389  0.0528
  772MPD2    H511401   3.746   2.709  13.819  0.1504 -0.5615 -1.0184
  772MPD2    N111402   4.319   2.703  13.845 -0.0573 -0.2825 -0.3041
  772MPD2    H711403   4.317   2.604  13.820  1.3006 -0.3852  0.0106
  773MPD2     C11404   3.840   2.993   0.632 -0.0064 -0.0347 -0.0004
  773MPD2    C111405   3.795   2.904   0.533 -0.2877 -0.8287 -0.1560
  773MPD2    C211406   3.862   2.783   0.524 -0.5729 -0.1387  0.1366
  773MPD2    C311407   3.973   2.750   0.599  0.4951  0.4196 -0.1062
  773MPD2    C411408   4.012   2.844   0.700  0.5135  0.4300  0.6025
  773MPD2    C511409   3.937   2.953   0.716  0.5351 -0.5394 -0.0689
  773MPD2     H11410   3.824   2.714   0.448  0.3243 -0.9721  0.4440
  773MPD2    H111411   4.091   2.821   0.771  2.1016  1.5337 -0.7906
  773MPD2    H211412   3.796   3.091   0.646 -3.3087 -1.6009  0.4438
  773MPD2    H311413   3.959   3.028   0.791 -0.0418  0.6359 -1.0924
  773MPD2     N11414   4.043   2.625   0.579 -0.0592 -0.0175 -0.2236
  773MPD2    H511415   4.008   2.562   0.508  1.1197 -1.5545  0.5686
  773MPD2    N111416   3.678   2.936   0.444  0.1764 -0.1414  0.1659
  773MPD2    H711417   3.654   2.866   0.374  1.6102  0.2839 -0.7415
  774MPD2     C11418   2.217   2.494  13.178 -0.2062 -0.3741  0.2752
  774MPD2    C111419   2.320   2.489  13.266 -0.2696  0.6637  0.3886
  774MPD2    C211420   2.414   2.588  13.272 -0.8747  0.2312 -0.1286
  774MPD2    C311421   2.410   2.698  13.186 -0.0951 -0.3368 -0.0955
  774MPD2    C411422   2.300   2.707  13.101  0.5062  0.0863  0.1274
  774MPD2    C511423   2.206   2.607  13.101  0.6810  0.2012 -0.7459
  774MPD2     H11424   2.496   2.585  13.343 -0.4794 -0.0446 -0.5959
  774MPD2    H111425   2.259   2.795  13.053  0.2405 -1.9215 -3.3316
  774MPD2    H211426   2.151   2.410  13.167 -0.3868 -0.4026  1.6033
  774MPD2    H311427   2.122   2.616  13.032 -0.7840 -0.2047  0.9700
  774MPD2     N11428   2.529   2.773  13.174 -0.0614  0.3513 -0.3104
  774MPD2    H511429   2.604   2.749  13.238 -0.8857 -0.5642  0.3272
  774MPD2    N111430   2.328   2.381  13.359  0.5346  0.7708  0.0964
  774MPD2    H711431   2.262   2.304  13.353 -0.5552  1.5328  2.6533
  775MPD2     C11432   4.344   3.496  15.846 -0.6503 -0.0145  1.5918
  775MPD2    C111433   4.379   3.602  15.926 -0.4709 -0.9229 -0.1073
  775MPD2    C211434   4.439   3.715  15.870 -0.5111  0.0501 -0.2042
  775MPD2    C311435   4.489   3.710  15.742  0.3951  0.1465  0.6631
  775MPD2    C411436   4.464   3.593  15.668  0.1472  0.1115 -0.4376
  775MPD2    C511437   4.400   3.484  15.722  0.2600  0.1349  0.0475
  775MPD2     H11438   4.458   3.800  15.933 -1.2322 -0.2876  0.4619
  775MPD2    H111439   4.483   3.577  15.562  1.0038  0.4464 -0.3308
  775MPD2    H211440   4.290   3.409  15.880  1.1157 -1.1913  1.4190
  775MPD2    H311441   4.386   3.402  15.653 -3.1945  2.2125 -1.7405
  775MPD2     N11442   4.557   3.824  15.677 -0.1339  0.5019 -0.4882
  775MPD2    H511443   4.578   3.810  15.579  0.3457  1.6887 -0.5544
  775MPD2    N111444   4.322   3.594  16.056  0.2991  0.1212  0.2531
  775MPD2    H711445   4.265   3.513  16.077  2.2984 -0.2874  4.1624
  776MPD2     C11446   3.582   4.339  11.290  0.2217 -0.2351 -0.0745
  776MPD2    C111447   3.463   4.408  11.304  0.5590  0.3096 -0.0375
  776MPD2    C211448   3.467   4.541  11.300 -0.5288  0.5888 -0.7091
  776MPD2    C311449   3.588   4.604  11.285 -0.5912 -0.6742 -0.6086
  776MPD2    C411450   3.708   4.531  11.277  0.4078 -0.8407  0.2705
  776MPD2    C511451   3.704   4.394  11.273 -0.6671  0.6034  0.0803
  776MPD2     H11452   3.375   4.596  11.314 -0.7820  0.0175 -0.1558
  776MPD2    H111453   3.804   4.577  11.257 -0.6647  0.1977 -2.4057
  776MPD2    H211454   3.579   4.231  11.292 -1.3805 -0.1424  2.6907
  776MPD2    H311455   3.791   4.332  11.254  0.1727  1.7755  0.0893
  776MPD2     N11456   3.574   0.026  11.288  0.6487  0.2736 -0.0861
  776MPD2    H511457   3.481   0.068  11.293  0.3802 -0.1901 -1.1240
  776MPD2    N111458   3.338   4.336  11.311  0.0297 -0.0543 -0.0932
  776MPD2    H711459   3.352   4.236  11.303  1.4775  0.3027 -2.0833
  777MPD2     C11460   4.009   1.381   0.749  0.2709  0.2101 -0.3978
  777MPD2    C111461   3.906   1.374   0.834 -0.1311 -0.2858 -0.1933
  777MPD2    C211462   3.806   1.284   0.810  0.3172  0.2564  0.5248
  777MPD2    C311463   3.813   1.199   0.696  0.6894 -0.3752  0.6472
  777MPD2    C411464   3.929   1.213   0.627  0.2189  0.5093  0.0255
  777MPD2    C511465   4.025   1.299   0.652  0.1812  0.7300 -0.4569
  777MPD2     H11466   3.723   1.264   0.878  1.2272 -2.8294  0.7076
  777MPD2    H111467   3.944   1.155   0.537 -1.4820  0.8179 -0.4718
  777MPD2    H211468   4.092   1.446   0.775  0.4329 -0.1455 -0.0348
  777MPD2    H311469   4.113   1.303   0.590  1.0419  1.0809  0.7795
  777MPD2     N11470   3.707   1.110   0.670  0.3413  0.0409 -0.0233
  777MPD2    H511471   3.624   1.138   0.721  0.1221 -2.8391  1.2275
  777MPD2    N111472   3.904   1.463   0.943 -0.4760 -0.3661 -0.0537
  777MPD2    H711473   3.973   1.536   0.949 -0.9617  0.1540 -0.8405
  778MPD2     C11474   0.004   1.620  15.204 -0.0465  0.5314 -0.1857
  778MPD2    C111475   4.660   1.570  15.095 -0.0638 -0.2481  0.1903
  778MPD2    C211476   4.715   1.603  14.972 -0.5978  0.2518  0.0739
  778MPD2    C311477   0.100   1.693  14.956 -0.0939 -0.1875 -1.1063
  778MPD2    C411478   0.166   1.731  15.065 -0.2994 -0.6137  0.5930
  778MPD2    C511479   0.118   1.696  15.186 -0.8421 -0.4602  0.9047
  778MPD2     H11480   4.673   1.560  14.881 -0.0568  0.6384 -0.3589
  778MPD2    H111481   0.263   1.779  15.064 -0.6167  0.0162  0.0513
  778MPD2    H211482   4.704   1.594  15.306 -2.4637  0.5217 -0.7411
  778MPD2    H311483   0.185   1.722  15.267  0.0866  2.0735 -0.6608
  778MPD2     N11484   0.128   1.749  14.829  0.5600 -0.4362 -0.1470
  778MPD2    H511485   0.090   1.701  14.748 -1.8344  1.4277 -0.1282
  778MPD2    N111486   4.549   1.482  15.094  0.2818 -0.8848  0.6797
  778MPD2    H711487   4.516   1.447  15.005 -0.4085  1.0067  0.1822
  779MPD2     C11488   4.291   0.505  14.522  0.2557 -0.1871  0.2212
  779MPD2    C111489   4.402   0.492  14.446  0.2464  0.1525 -0.1625
  779MPD2    C211490   4.470   0.605  14.428 -0.0216  0.4266 -0.6136
  779MPD2    C311491   4.421   0.729  14.461  0.7032  0.0929 -0.5854
  779MPD2    C411492   4.305   0.739  14.536  0.0004  0.3455 -0.6061
  779MPD2    C511493   4.238   0.625  14.558 -0.0552  0.9224  0.3991
  779MPD2     H11494   4.567   0.600  14.380 -0.3741  1.0362 -1.3946
  779MPD2    H111495   4.256   0.833  14.556  0.2505  0.0816  1.2415
  779MPD2    H211496   4.238   0.418  14.560 -0.8496  0.9020  1.1804
  779MPD2    H311497   4.146   0.612  14.613  1.1613  0.1272  2.2245
  779MPD2     N11498   4.504   0.830  14.413  0.5816 -0.6208 -0.4797
  779MPD2    H511499   4.587   0.810  14.359  3.5340  2.6847  2.7527
  779MPD2    N111500   4.456   0.368  14.416 -0.3589 -0.5246 -0.3886
  779MPD2    H711501   4.557   0.375  14.410 -0.2460 -2.5479 -0.5786
  780MPD2     C11502   0.214   0.713   1.004  0.5541 -0.3030 -0.3221
  780MPD2    C111503   0.078   0.754   1.019  0.2571  0.3906 -0.5204
  780MPD2    C211504   4.718   0.727   0.919 -0.4344  0.7584  0.2653
  780MPD2    C311505   0.031   0.668   0.802 -0.3859  0.3416 -0.0445
  780MPD2    C411506   0.160   0.638   0.782  0.0194 -0.9414  0.3806
  780MPD2    C511507   0.244   0.652   0.889  0.4865 -0.0452 -0.0474
  780MPD2     H11508   4.611   0.746   0.925 -0.3806  0.3163  2.6481
  780MPD2    H111509   0.199   0.611   0.685  2.1904  2.0478  0.4201
  780MPD2    H211510   0.287   0.720   1.083 -0.9152  2.8988  0.7397
  780MPD2    H311511   0.348   0.627   0.870  0.2724 -2.4724  2.0040
  780MPD2     N11512   4.660   0.667   0.697 -0.0007  0.0250 -0.2659
  780MPD2    H511513   4.570   0.695   0.734  0.0892  2.6858 -2.0539
  780MPD2    N111514   0.036   0.794   1.150  0.1995  0.0030  0.0486
  780MPD2    H711515   0.108   0.789   1.222  1.2642 -1.1465 -1.0818
  781MPD2     C11516   0.788   2.882  11.913 -0.3143  0.1010 -0.1502
  781MPD2    C111517   0.919   2.849  11.941 -0.1682 -0.0821  0.0276
  781MPD2    C211518   1.015   2.877  11.852 -0.5149 -0.4401  0.1515
  781MPD2    C311519   0.993   2.946  11.734 -0.4438  0.2839  0.2785
  781MPD2    C411520   0.865   2.969  11.693 -0.5802  0.0079 -0.3355
  781MPD2    C511521   0.769   2.930  11.784 -0.1137  0.1750  0.4823
  781MPD2     H11522   1.118   2.863  11.883  0.1973 -0.7211 -2.3761
  781MPD2    H111523   0.836   3.009  11.597 -1.3189 -0.8032 -0.4424
  781MPD2    H211524   0.702   2.853  11.972  0.4299  0.1497  0.9578
  781MPD2    H311525   0.667   2.953  11.757  0.3086  0.8683 -0.5452
  781MPD2     N11526   1.095   2.986  11.643  1.0732  0.1478  0.1783
  781MPD2    H511527   1.059   3.010  11.551  0.1364  0.3645  0.5966
  781MPD2    N111528   0.952   2.754  12.040  0.2392 -0.5069 -0.0658
  781MPD2    H711529   1.052   2.741  12.047  0.1388 -0.8801  0.6318
  782MPD2     C11530   3.860   3.683   9.905 -0.2240 -0.0995 -0.1836
  782MPD2    C111531   3.929   3.651  10.025 -0.2585  0.2628 -0.1862
  782MPD2    C211532   3.925   3.749  10.120 -0.0426 -0.0294 -0.4503
  782MPD2    C311533   3.873   3.879  10.092 -0.2590 -0.4511  0.4335
  782MPD2    C411534   3.831   3.912   9.967 -0.1294  0.1451  0.6024
  782MPD2    C511535   3.810   3.806   9.878 -0.0705 -0.3431 -0.1041
  782MPD2     H11536   3.968   3.728  10.217  0.9439  0.2235 -0.8321
  782MPD2    H111537   3.792   4.009   9.939 -0.5201 -0.3123 -0.4301
  782MPD2    H211538   3.837   3.610   9.828 -0.5403 -0.8624  0.6346
  782MPD2    H311539   3.771   3.820   9.778 -2.0878  0.2351  0.7633
  782MPD2     N11540   3.871   3.979  10.195 -0.1279 -1.3833  0.3997
  782MPD2    H511541   3.848   4.074  10.169 -0.7129 -1.3082  1.1850
  782MPD2    N111542   3.994   3.525  10.035  0.3252  0.2252  0.1521
  782MPD2    H711543   3.976   3.460   9.959  1.0999  0.7861 -0.5053
  783MPD2     C11544   3.469   2.926  10.336  0.6315  0.0520  0.5893
  783MPD2    C111545   3.512   3.044  10.383  0.7400  0.1877  0.6418
  783MPD2    C211546   3.629   3.105  10.343  0.7545  1.2117 -0.0896
  783MPD2    C311547   3.714   3.035  10.255 -0.3657 -0.0834 -0.1140
  783MPD2    C411548   3.678   2.906  10.217  0.3574 -0.2029 -0.1337
  783MPD2    C511549   3.560   2.850  10.264 -0.3669 -0.7042  0.6311
  783MPD2     H11550   3.651   3.209  10.366 -0.3514  1.5874 -0.7272
  783MPD2    H111551   3.718   2.841  10.139  0.7528  1.8015 -1.6027
  783MPD2    H211552   3.381   2.875  10.373  1.1424 -0.3433  1.2496
  783MPD2    H311553   3.527   2.754  10.228 -1.2151 -0.2866  0.2952
  783MPD2     N11554   3.831   3.101  10.200 -0.3088  0.0444 -0.5198
  783MPD2    H511555   3.839   3.202  10.214  1.5187 -0.1429 -0.2173
  783MPD2    N111556   3.423   3.103  10.474 -0.1299  0.4828 -0.9420
  783MPD2    H711557   3.346   3.045  10.505 -2.2833  2.8769 -1.6943
  784MPD2     C11558   1.816   3.015   1.433  0.2047 -0.6575  0.8054
  784MPD2    C111559   1.831   3.069   1.296  0.5197  0.3217 -0.1946
  784MPD2    C211560   1.726   3.158   1.257 -0.6755  0.5582  0.4750
  784MPD2    C311561   1.626   3.197   1.345  0.1303  0.4028 -0.0218
  784MPD2    C411562   1.631   3.153   1.477 -0.6314 -0.2701 -0.1884
  784MPD2    C511563   1.717   3.060   1.520 -0.7096  0.1657  0.1984
  784MPD2     H11564   1.713   3.205   1.160  2.3250 -0.0689 -0.2238
  784MPD2    H111565   1.559   3.182   1.553  1.2318 -1.4694  1.9935
  784MPD2    H211566   1.881   2.937   1.472  1.1965  0.5368  1.5587
  784MPD2    H311567   1.715   3.018   1.620 -3.3498  0.6280  0.3276
  784MPD2     N11568   1.528   3.288   1.295  0.3916  0.1319 -0.7363
  784MPD2    H511569   1.533   3.313   1.197 -1.0352 -1.6041 -1.2439
  784MPD2    N111570   1.940   3.040   1.209  0.2607 -0.1663 -0.2404
  784MPD2    H711571   1.943   3.083   1.118  2.6080  1.5889  0.6568
  785MPD2     C11572   1.613   1.779  10.968  0.6223 -0.2064  0.0672
  785MPD2    C111573   1.551   1.900  10.952  0.6382  0.9514 -0.0658
  785MPD2    C211574   1.420   1.907  10.901  0.7876  0.8736 -0.0041
  785MPD2    C311575   1.358   1.794  10.848 -0.8408 -0.2291  0.4902
  785MPD2    C411576   1.435   1.681  10.857 -0.3006  0.0212 -0.6782
  785MPD2    C511577   1.554   1.667  10.913 -0.3179  0.6711  0.0294
  785MPD2     H11578   1.366   2.001  10.898  0.4544  0.6669 -0.5279
  785MPD2    H111579   1.394   1.592  10.809 -2.0321  1.3054 -1.5872
  785MPD2    H211580   1.712   1.766  11.010  0.3010 -0.7560  0.6554
  785MPD2    H311581   1.613   1.576  10.920  0.2423  1.0820  0.7240
  785MPD2     N11582   1.223   1.802  10.802 -0.0439 -0.4278  0.2921
  785MPD2    H511583   1.179   1.893  10.813 -0.5949 -0.4891 -1.4097
  785MPD2    N111584   1.613   2.025  10.993 -0.5566  0.3013  0.2283
  785MPD2    H711585   1.560   2.110  10.976  1.4984  1.3803 -0.6659
  786MPD2     C11586   4.486   4.622  14.639  0.3264  0.6944 -0.6827
  786MPD2    C111587   4.591   4.532  14.613 -0.4256  0.0034  0.1409
  786MPD2    C211588   4.711   4.548  14.680  0.7225  0.6397  0.1929
  786MPD2    C311589   0.004   4.648  14.766  0.5391 -0.1884 -0.6460
  786MPD2    C411590   4.617   0.010  14.800 -0.7532 -0.0779  0.0526
  786MPD2    C511591   4.500   4.724  14.727 -0.1016  0.3142 -0.2354
  786MPD2     H11592   0.064   4.472  14.669  2.5264  2.5101 -0.0578
  786MPD2    H111593   4.616   0.086  14.878  0.0703 -0.9329  0.8813
  786MPD2    H211594   4.386   4.608  14.599 -0.0071  1.7830 -0.2389
  786MPD2    H311595   4.413   0.060  14.750  0.7635  1.4231  0.1402
  786MPD2     N11596   0.125   4.658  14.848 -0.3132  0.5082  0.3832
  786MPD2    H511597   0.127   0.008  14.918  0.6415  0.5536  0.3031
  786MPD2    N111598   4.571   4.423  14.528 -0.2760  0.0927 -0.7185
  786MPD2    H711599   4.630   4.342  14.539  0.0040  0.4539  0.4225
  787MPD2     C11600   4.496   3.597  14.597  0.5009  0.6266 -0.6697
  787MPD2    C111601   4.562   3.715  14.611 -0.4622  0.1328  0.4703
  787MPD2    C211602   4.673   3.724  14.699 -0.6342  0.2906  0.3024
  787MPD2    C311603   4.712   3.609  14.763  0.3392 -0.3536  0.0677
  787MPD2    C411604   4.635   3.491  14.752  0.6336  0.8898  0.1291
  787MPD2    C511605   4.533   3.483  14.664 -0.4847 -0.4999 -0.5801
  787MPD2     H11606   4.723   3.816  14.724  0.6324 -0.2366 -0.2733
  787MPD2    H111607   4.656   3.395  14.797  1.5850  0.2603 -1.6688
  787MPD2    H211608   4.415   3.579  14.526  0.4907 -1.8737 -0.0282
  787MPD2    H311609   4.482   3.388  14.648 -2.5847  0.6948 -0.9740
  787MPD2     N11610   0.104   3.616  14.847  0.1451 -0.2503 -0.0735
  787MPD2    H511611   0.148   3.707  14.841  0.3245 -0.3512 -0.2864
  787MPD2    N111612   4.518   3.820  14.534 -0.5456 -0.5203 -0.7818
  787MPD2    H711613   4.433   3.807  14.479 -0.1727  1.0382 -1.7274
  788MPD2     C11614   2.594   2.386   0.371  0.5353 -0.4053 -0.3119
  788MPD2    C111615   2.505   2.300   0.442  0.4637 -0.1257 -0.2488
  788MPD2    C211616   2.462   2.183   0.386 -0.6326 -0.0345 -0.3439
  788MPD2    C311617   2.514   2.138   0.265 -0.7893  0.4054  0.4945
  788MPD2    C411618   2.604   2.215   0.196 -1.0668 -0.7342 -1.2803
  788MPD2    C511619   2.650   2.335   0.247 -0.0486 -0.2812 -0.1131
  788MPD2     H11620   2.403   2.117   0.450  0.5664 -0.0582  0.7311
  788MPD2    H111621   2.649   2.188   0.101  1.2831 -0.1585 -0.3506
  788MPD2    H211622   2.631   2.477   0.416  0.2622  1.0716 -3.0676
  788MPD2    H311623   2.722   2.388   0.184 -0.9152  3.0914  1.7321
  788MPD2     N11624   2.465   2.017   0.200  0.4161 -0.4545  0.0311
  788MPD2    H511625   2.512   1.972   0.122 -1.1870 -1.1776 -0.5261
  788MPD2    N111626   2.455   2.333   0.575 -0.2079  0.1038 -0.7576
  788MPD2    H711627   2.383   2.271   0.610  0.2215 -0.4777 -0.9104
  789MPD2     C11628   2.515   1.975  16.200  0.0874 -0.2645 -0.2911
  789MPD2    C111629   2.534   2.031  16.324 -0.6690  0.1709 -0.2494
  789MPD2    C211630   2.473   2.151  16.355 -0.1851  0.2383  0.0817
  789MPD2    C311631   2.394   2.215  16.262  0.3651 -0.6825 -0.1447
  789MPD2    C411632   2.386   2.166  16.136 -0.1216  0.2048  0.6487
  789MPD2    C511633   2.455   2.053  16.104  0.1818 -0.8164  0.3184
  789MPD2     H11634   2.479   2.194  16.454 -2.0774 -1.3683  0.8932
  789MPD2    H111635   2.341   2.224  16.057 -1.5128  1.5194  2.4007
  789MPD2    H211636   2.561   1.885  16.161  2.0342 -0.3583  2.1971
  789MPD2    H311637   2.444   2.014  16.004 -0.3036  0.4970 -0.1374
  789MPD2     N11638   2.323   2.335  16.292  0.7997  0.0660  0.0933
  789MPD2    H511639   2.262   2.368  16.218  1.3916 -0.5584 -0.6708
  789MPD2    N111640   2.603   1.960  16.424  0.2818 -1.1389 -0.0708
  789MPD2    H711641   2.600   2.015  16.510 -0.4665 -0.1721 -0.7085
  790MPD2     C11642   3.419   0.219  13.407  0.0789  0.3651  0.3416
  790MPD2    C111643   3.426   0.081  13.391  0.6650  0.3205  0.3301
  790MPD2    C211644   3.384   0.027  13.276  0.6141 -0.6812  0.0010
  790MPD2    C311645   3.314   0.106  13.181  0.0256 -0.7262  0.4489
  790MPD2    C411646   3.296   0.241  13.205  0.7401  0.9370  0.1337
  790MPD2    C511647   3.354   0.293  13.319  0.2228 -0.7965  0.1312
  790MPD2     H11648   3.391   4.643  13.261  2.7576 -0.6999  1.1492
  790MPD2    H111649   3.241   0.309  13.141  0.0095 -1.3454 -1.6548
  790MPD2    H211650   3.437   0.263  13.504  0.2246  0.7444  0.1459
  790MPD2    H311651   3.338   0.400  13.330 -0.0083 -0.6565 -1.5606
  790MPD2     N11652   3.258   0.040  13.076 -0.5089  0.1600  0.6240
  790MPD2    H511653   3.268   4.663  13.069  1.6450  0.4317 -0.2405
  790MPD2    N111654   3.489   0.007  13.494  0.2217 -0.2193  0.2995
  790MPD2    H711655   3.515   0.061  13.576 -2.3191  0.7071  0.4686
  791MPD2     C11656   2.701   4.577  12.449 -0.4457 -0.1127 -0.4912
  791MPD2    C111657   2.745   4.495  12.549  0.4937 -0.3112 -0.3461
  791MPD2    C211658   2.655   4.388  12.577 -0.3328  0.0784  0.2342
  791MPD2    C311659   2.533   4.366  12.508  0.2089 -0.0209  0.3188
  791MPD2    C411660   2.492   4.460  12.415 -0.3287  0.5786 -0.2548
  791MPD2    C511661   2.577   4.564  12.390 -0.4156 -0.2950 -0.5296
  791MPD2     H11662   2.685   4.311  12.647 -2.2040  0.1055  1.0923
  791MPD2    H111663   2.397   4.468  12.364 -0.2278  0.1856 -0.5045
  791MPD2    H211664   2.761   4.655  12.404  1.7712 -0.9376  0.9862
  791MPD2    H311665   2.548   4.635  12.313 -0.4796  1.4573  1.1316
  791MPD2     N11666   2.451   4.258  12.546  0.4196 -0.1968  0.0446
  791MPD2    H511667   2.498   4.202  12.616 -0.6244  0.2837  1.1241
  791MPD2    N111668   2.881   4.500  12.601  0.4978 -0.0492 -0.4251
  791MPD2    H711669   2.915   4.420  12.653 -2.2803  0.0703  1.5646
  792MPD2     C11670   3.872   4.329  10.956 -0.2445  0.4455 -0.4184
  792MPD2    C111671   3.752   4.401  10.948 -0.6770  0.3597 -0.0850
  792MPD2    C211672   3.639   4.325  10.934  0.5469 -0.3561 -0.4249
  792MPD2    C311673   3.643   4.187  10.937 -0.6394  0.3238  0.3985
  792MPD2    C411674   3.760   4.113  10.953  0.0450 -0.4241 -0.1085
  792MPD2    C511675   3.871   4.193  10.964  0.0361  0.5819 -0.3345
  792MPD2     H11676   3.547   4.382  10.935 -0.0383 -1.2987 -0.9538
  792MPD2    H111677   3.763   4.005  10.955 -0.7395 -0.4415 -0.0352
  792MPD2    H211678   3.968   4.378  10.965 -0.4715  0.4401  1.9248
  792MPD2    H311679   3.973   4.155  10.967  0.3831  1.6271  0.8137
  792MPD2     N11680   3.524   4.102  10.928 -0.2577  0.0633 -0.2173
  792MPD2    H511681   3.541   4.002  10.916  0.1115  0.2992 -1.6643
  792MPD2    N111682   3.760   4.543  10.940 -0.3139 -0.3565  0.0132
  792MPD2    H711683   3.853   4.582  10.936  0.4494 -1.9764  2.1404
  793MPD2     C11684   2.849   4.416  10.367 -0.7145  0.4491 -0.1326
  793MPD2    C111685   2.981   4.427  10.397  0.5686 -0.4569  0.6472
  793MPD2    C211686   3.042   4.359  10.503 -0.2784 -0.5330  0.4009
  793MPD2    C311687   2.965   4.270  10.566  0.3081 -0.3395  0.6817
  793MPD2    C411688   2.828   4.260  10.543 -0.2940  1.2158  0.5249
  793MPD2    C511689   2.772   4.332  10.440 -0.2740  1.2457  0.0576
  793MPD2     H11690   3.148   4.367  10.525 -0.3896 -1.2898  1.2150
  793MPD2    H111691   2.764   4.183  10.585 -0.8408  1.8902  0.9196
  793MPD2    H211692   2.798   4.473  10.290 -2.7342 -1.1732  0.0046
  793MPD2    H311693   2.673   4.313  10.400 -0.2795  0.8262  0.2687
  793MPD2     N11694   3.030   4.196  10.671  0.0694 -0.4922  0.0408
  793MPD2    H511695   3.131   4.205  10.679  0.0355  0.1059 -0.2227
  793MPD2    N111696   3.066   4.516  10.336  0.7542  0.0576  0.4406
  793MPD2    H711697   3.156   4.534  10.378  0.9394  1.0634 -0.3915
  794MPD2     C11698   3.376   3.436  17.501 -0.0969  0.2655 -0.3441
  794MPD2    C111699   3.321   3.316  17.530  0.3361 -0.2004 -0.3543
  794MPD2    C211700   3.243   3.256  17.437 -0.3029 -0.3001  0.0666
  794MPD2    C311701   3.210   3.314  17.313 -0.2182 -0.3218  0.4429
  794MPD2    C411702   3.269   3.434  17.291  0.1871  0.3114 -0.1318
  794MPD2    C511703   3.353   3.495  17.378 -0.0381 -0.2219 -0.2921
  794MPD2     H11704   3.213   3.155  17.461 -0.5446 -0.4547 -0.8808
  794MPD2    H111705   3.249   3.486  17.198  1.8048 -0.9291 -1.1784
  794MPD2    H211706   3.433   3.490  17.575 -3.2403  0.7631  1.7006
  794MPD2    H311707   3.387   3.598  17.372  1.2875 -0.7477 -1.6679
  794MPD2     N11708   3.132   3.262  17.216 -0.9151  0.4491 -0.1010
  794MPD2    H511709   3.132   3.326  17.137  2.8494  0.4582 -0.1030
  794MPD2    N111710   3.337   3.241  17.645 -0.5819  0.9701  0.4362
  794MPD2    H711711   3.303   3.145  17.643  0.5678  0.5689  0.2088
  795MPD2     C11712   1.133   1.295  13.457 -0.2759  0.4205  0.1264
  795MPD2    C111713   1.165   1.232  13.341  0.1087  0.6413 -0.2605
  795MPD2    C211714   1.286   1.167  13.330 -0.2277 -0.1545  0.2210
  795MPD2    C311715   1.372   1.159  13.435  0.1023 -0.4384  0.3285
  795MPD2    C411716   1.340   1.208  13.558 -0.2447  0.4283 -0.1164
  795MPD2    C511717   1.218   1.279  13.568  0.4046 -0.4288  0.4204
  795MPD2     H11718   1.309   1.116  13.237  0.0014  1.2151 -0.4774
  795MPD2    H111719   1.397   1.191  13.649  1.3825  2.4317 -0.7647
  795MPD2    H211720   1.032   1.336  13.460  0.4571  2.3523 -2.1147
  795MPD2    H311721   1.186   1.329  13.658 -0.5371  0.6463 -0.5046
  795MPD2     N11722   1.489   1.077  13.432 -0.2071 -0.3264  0.0405
  795MPD2    H511723   1.541   1.062  13.517 -0.5882  0.2289  0.3678
  795MPD2    N111724   1.076   1.211  13.232  0.4295 -0.3734 -0.0005
  795MPD2    H711725   1.086   1.140  13.160  1.3336  0.3702 -0.6129
  796MPD2     C11726   0.514   2.145  15.794 -0.0072 -0.6295 -0.1512
  796MPD2    C111727   0.546   2.237  15.893 -0.5337 -0.6176 -0.0645
  796MPD2    C211728   0.531   2.371  15.874  0.2800  0.2980 -0.3320
  796MPD2    C311729   0.451   2.412  15.774 -0.0010 -0.5144  0.7200
  796MPD2    C411730   0.408   2.315  15.680  0.3001  0.3790  0.0521
  796MPD2    C511731   0.440   2.187  15.690  0.1326  0.1951 -0.5269
  796MPD2     H11732   0.583   2.446  15.933  1.2589  0.6892 -1.7159
  796MPD2    H111733   0.353   2.346  15.591 -0.3062  0.7861  0.5620
  796MPD2    H211734   0.535   2.039  15.799 -0.1740 -0.6221  0.7131
  796MPD2    H311735   0.405   2.117  15.615  0.5836 -0.5087 -0.0728
  796MPD2     N11736   0.425   2.553  15.768 -0.0875  0.1164  0.3043
  796MPD2    H511737   0.470   2.612  15.837 -0.8102  1.4116 -0.3309
  796MPD2    N111738   0.601   2.179  16.010 -0.2675 -0.0786  1.2235
  796MPD2    H711739   0.621   2.079  16.011  2.2469  0.4126  0.4700
  797MPD2     C11740   0.996   1.470  17.009  0.1569 -0.0607 -0.4062
  797MPD2    C111741   1.095   1.486  17.090 -0.1155 -0.2358 -0.9448
  797MPD2    C211742   1.125   1.614  17.139 -0.1014  0.0161 -0.3141
  797MPD2    C311743   1.051   1.723  17.110  1.0246  0.5127 -0.1846
  797MPD2    C411744   0.943   1.706  17.025 -0.3209  0.2551  0.0405
  797MPD2    C511745   0.912   1.579  16.980  0.2603 -0.1073 -0.5841
  797MPD2     H11746   1.219   1.628  17.190 -1.3751  0.6378  1.8383
  797MPD2    H111747   0.888   1.790  16.985  0.8378  2.0657  2.2733
  797MPD2    H211748   0.979   1.376  16.958 -2.1753 -0.3959  1.0130
  797MPD2    H311749   0.823   1.570  16.919  2.0253  0.7756 -3.2384
  797MPD2     N11750   1.074   1.853  17.158  0.1333  0.5669  0.0733
  797MPD2    H511751   1.007   1.921  17.123  1.1523  1.0328 -0.9508
  797MPD2    N111752   1.196   1.387  17.116  0.2909 -0.4560 -0.0398
  797MPD2    H711753   1.262   1.397  17.192 -1.5170  1.1940  1.3087
  798MPD2     C11754   1.743   1.892  17.291 -1.3314 -0.0685 -0.0061
  798MPD2    C111755   1.612   1.864  17.322 -1.0575 -0.4611  0.3592
  798MPD2    C211756   1.560   1.735  17.320 -0.0710 -0.2383  0.1875
  798MPD2    C311757   1.644   1.631  17.275 -0.6800  0.1216 -0.3708
  798MPD2    C411758   1.773   1.659  17.240  0.6484 -0.3631 -0.3001
  798MPD2    C511759   1.823   1.782  17.260  0.0921 -0.6934  0.1847
  798MPD2     H11760   1.459   1.725  17.358  0.0031  2.7493  1.2389
  798MPD2    H111761   1.840   1.588  17.193  0.2872 -0.7433 -0.2454
  798MPD2    H211762   1.777   1.995  17.293 -1.3440 -0.0644  0.0017
  798MPD2    H311763   1.924   1.807  17.228 -0.6898  1.0074 -0.9862
  798MPD2     N11764   1.587   1.502  17.258 -0.2970  0.2014 -0.1389
  798MPD2    H511765   1.486   1.501  17.250 -0.1275  1.9323 -2.4121
  798MPD2    N111766   1.509   1.960  17.347  0.2736 -0.2502  0.2747
  798MPD2    H711767   1.416   1.921  17.337 -0.1431  0.4658  1.4020
  799MPD2     C11768   0.189   3.797  14.489 -0.1479 -0.1692 -0.0640
  799MPD2    C111769   0.155   3.689  14.408  0.2616 -0.4230 -0.8941
  799MPD2    C211770   0.084   3.713  14.289 -0.3170 -0.3007 -0.1856
  799MPD2    C311771   0.057   3.843  14.251 -0.1123  0.3391 -0.4624
  799MPD2    C411772   0.099   3.946  14.333 -1.0808 -0.2211 -0.2651
  799MPD2    C511773   0.163   3.926  14.453 -0.7074  0.9712 -0.2301
  799MPD2     H11774   0.069   3.633  14.218  0.9740 -1.7803  1.2179
  799MPD2    H111775   0.077   4.049  14.310 -2.0101 -0.7980 -1.9657
  799MPD2    H211776   0.229   3.779  14.588 -1.0135  2.8574  0.8090
  799MPD2    H311777   0.196   4.011  14.512  0.3671 -0.2171  0.8679
  799MPD2     N11778   0.006   3.880  14.126 -0.3907 -0.0782 -0.4023
  799MPD2    H511779   0.014   3.977  14.097  1.2104  0.1035  0.6521
  799MPD2    N111780   0.169   3.552  14.454  0.1753  0.2862  0.1091
  799MPD2    H711781   0.118   3.484  14.400  1.0536 -0.2018 -0.1040
  800MPD2     C11782   0.952   4.532  14.441  0.2521 -0.0673 -1.2207
  800MPD2    C111783   1.067   4.596  14.426 -0.1118  0.0837 -0.1834
  800MPD2    C211784   1.126   4.618  14.303  0.0524 -0.1041  0.2666
  800MPD2    C311785   1.055   4.578  14.194  0.3903  0.3489 -0.3461
  800MPD2    C411786   0.936   4.504  14.206  0.0091  0.1258 -0.5915
  800MPD2    C511787   0.885   4.498  14.330  0.3914 -0.6143  0.0802
  800MPD2     H11788   1.226   4.657  14.291  0.4151 -0.7354  1.2269
  800MPD2    H111789   0.878   4.458  14.127 -2.0805  0.7126  0.6173
  800MPD2    H211790   0.902   4.524  14.537 -0.0925 -1.2468 -1.4959
  800MPD2    H311791   0.793   4.445  14.352  0.8305 -1.4379 -0.0644
  800MPD2     N11792   1.125   4.604  14.073 -0.0642  0.7325  0.5216
  800MPD2    H511793   1.207   4.663  14.084  0.3948  0.3683 -0.9064
  800MPD2    N111794   1.126   4.657  14.544  0.4390 -1.1515 -0.5184
  800MPD2    H711795   1.085   4.642  14.635  0.1499 -0.9986 -0.6269
  801MPD2     C11796   0.887   0.476  14.938  0.8274 -0.8903 -1.0055
  801MPD2    C111797   0.889   0.391  14.829 -0.3227  0.0773 -0.1547
  801MPD2    C211798   0.792   0.385  14.737  1.1466  0.0709  0.3106
  801MPD2    C311799   0.679   0.459  14.751  0.2623 -0.2778  0.5268
  801MPD2    C411800   0.671   0.530  14.862  0.5822 -0.0253 -0.5794
  801MPD2    C511801   0.767   0.536  14.961  0.0495 -0.2991 -0.8817
  801MPD2     H11802   0.809   0.320  14.652  2.6019 -1.7575  1.9724
  801MPD2    H111803   0.580   0.587  14.871 -0.3951 -1.4514 -1.4187
  801MPD2    H211804   0.962   0.472  15.016 -0.8180  1.3272  0.6729
  801MPD2    H311805   0.750   0.600  15.047  0.9321  2.0104 -2.4254
  801MPD2     N11806   0.573   0.475  14.659  0.4380 -0.0949  0.3570
  801MPD2    H511807   0.497   0.539  14.680  2.7763  2.8844 -0.1888
  801MPD2    N111808   1.004   0.308  14.799 -0.1117 -0.6548 -0.0089
  801MPD2    H711809   1.000   0.261  14.710 -1.8549  0.7248 -0.6696
  802MPD2     C11810   4.553   1.035  17.441  0.5185 -0.3070 -0.4729
  802MPD2    C111811   4.663   1.031  17.520  0.7241  0.1509 -0.6248
  802MPD2    C211812   0.018   0.921  17.522 -0.1876 -0.2684 -0.1127
  802MPD2    C311813   4.698   0.803  17.456 -0.5050  0.1309  0.5514
  802MPD2    C411814   4.586   0.804  17.376  0.5135 -0.0589 -0.3234
  802MPD2    C511815   4.514   0.922  17.373 -0.2248 -0.9886  0.3521
  802MPD2     H11816   0.113   0.922  17.574  0.4102  0.2899 -1.2280
  802MPD2    H111817   4.556   0.717  17.320  1.5405 -0.4107 -0.3346
  802MPD2    H211818   4.509   1.131  17.416  1.5283 -0.0338 -1.1791
  802MPD2    H311819   4.430   0.926  17.304  1.0453 -0.6327 -1.1814
  802MPD2     N11820   0.051   0.686  17.485 -0.1003 -0.1384 -0.3122
  802MPD2    H511821   0.128   0.699  17.550  1.1208  0.7795 -1.9046
  802MPD2    N111822   4.718   1.140  17.591  1.1576 -0.3395  0.3455
  802MPD2    H711823   0.084   1.122  17.636  1.6365  0.5963 -0.2503
  803MPD2     C11824   1.486   4.375  11.572 -0.1403  0.0902  0.8490
  803MPD2    C111825   1.554   4.344  11.689 -0.1696  0.2411 -0.3465
  803MPD2    C211826   1.506   4.247  11.774  0.0090  0.4126  0.6282
  803MPD2    C311827   1.394   4.173  11.740 -0.8238  0.1968 -0.3824
  803MPD2    C411828   1.325   4.205  11.631 -0.4174 -0.0649 -0.0381
  803MPD2    C511829   1.372   4.298  11.540  0.1617  0.2112 -0.2871
  803MPD2     H11830   1.564   4.223  11.863 -0.2302  0.2981  0.7526
  803MPD2    H111831   1.239   4.148  11.595 -1.2477 -0.4131  2.5114
  803MPD2    H211832   1.508   4.451  11.499  0.7861  0.7869  1.8659
  803MPD2    H311833   1.319   4.311  11.446  0.2892 -1.3597 -0.5652
  803MPD2     N11834   1.329   4.074  11.823  1.0064 -0.2599  0.2321
  803MPD2    H511835   1.241   4.033  11.793  1.7908 -2.4461  0.8425
  803MPD2    N111836   1.672   4.410  11.731 -0.3032 -0.1137  0.4419
  803MPD2    H711837   1.694   4.400  11.830  1.2827 -2.4512 -0.1346
  804MPD2     C11838   0.838   0.134  17.265  0.3313 -0.1540  0.5715
  804MPD2    C111839   0.864   0.062  17.381 -0.4874  0.7590 -0.2601
  804MPD2    C211840   0.979   0.092  17.449 -0.6087  0.4134 -0.1496
  804MPD2    C311841   1.073   0.175  17.399  0.0714 -0.5091 -0.0919
  804MPD2    C411842   1.044   0.249  17.287  0.4276 -0.3786 -0.5582
  804MPD2    C511843   0.924   0.238  17.229 -0.2465  0.3054 -0.5536
  804MPD2     H11844   1.003   0.034  17.538 -1.5915 -0.2414 -0.3099
  804MPD2    H111845   1.112   0.330  17.262 -0.2549  0.6870  1.0348
  804MPD2    H211846   0.757   0.111  17.197  0.7346 -0.3426  0.1530
  804MPD2    H311847   0.908   0.297  17.139 -0.6262 -2.6942 -2.4700
  804MPD2     N11848   1.197   0.169  17.455 -0.1962 -0.3343 -0.2503
  804MPD2    H511849   1.208   0.112  17.539 -1.5394 -0.7772 -0.3814
  804MPD2    N111850   0.792   4.670  17.425 -0.9580 -0.0532  0.0710
  804MPD2    H711851   0.820   4.627  17.512  0.7895  2.1017  0.5744
  805MPD2     C11852   0.189   3.752  15.555  0.0259 -0.8646 -0.3697
  805MPD2    C111853   0.242   3.651  15.474 -0.3567  0.4632 -0.5300
  805MPD2    C211854   0.370   3.633  15.464 -0.2605 -0.1334  0.0651
  805MPD2    C311855   0.458   3.708  15.532  0.0037  0.0205 -0.4893
  805MPD2    C411856   0.408   3.815  15.601 -0.4621  0.5751  0.1647
  805MPD2    C511857   0.272   3.843  15.616 -0.1686 -0.1772 -0.1105
  805MPD2     H11858   0.411   3.545  15.414  2.1734  2.5309 -2.6181
  805MPD2    H111859   0.479   3.875  15.657  1.4412 -0.6957 -0.8962
  805MPD2    H211860   0.085   3.756  15.585  0.2084 -1.7056  0.3696
  805MPD2    H311861   0.234   3.922  15.680  0.8091  0.5086 -0.3730
  805MPD2     N11862   0.593   3.678  15.536 -0.2009  0.7865 -0.7449
  805MPD2    H511863   0.623   3.589  15.498 -1.8438  0.8687 -2.2161
  805MPD2    N111864   0.160   3.549  15.416 -0.3297  0.5161 -0.4524
  805MPD2    H711865   0.213   3.470  15.382 -0.2769  1.1240 -1.7807
  806MPD2     C11866   0.571   2.881   0.069  0.3619  0.1310  0.3745
  806MPD2    C111867   0.679   2.936   0.143  1.1064  0.1761  0.4097
  806MPD2    C211868   0.796   2.971   0.083  0.2861 -0.7148  0.3017
  806MPD2    C311869   0.810   2.962  17.641  1.3755 -0.1857 -0.3081
  806MPD2    C411870   0.707   2.907  17.567  0.2408  0.1629  1.0014
  806MPD2    C511871   0.588   2.865  17.629 -0.4203 -0.1799 -0.4607
  806MPD2     H11872   0.877   3.025   0.130  0.9787 -0.8986 -0.6712
  806MPD2    H111873   0.718   2.884  17.462  0.7933  1.7937  0.7002
  806MPD2    H211874   0.477   2.858   0.118  1.1049 -1.8318  0.9187
  806MPD2    H311875   0.501   2.843  17.569 -0.0304 -3.2899  0.1108
  806MPD2     N11876   0.921   3.012  17.575 -0.4262 -0.6817  0.2625
  806MPD2    H511877   0.988   3.057  17.638  0.5909 -0.4877 -0.9428
  806MPD2    N111878   0.658   2.952   0.288 -0.2222  0.4398 -0.5383
  806MPD2    H711879   0.562   2.941   0.319 -0.1206 -1.4022 -0.8717
  807MPD2     C11880   0.401   2.540   0.878  0.2488  0.1219  0.2774
  807MPD2    C111881   0.531   2.571   0.882 -0.3451  0.0898  0.1052
  807MPD2    C211882   0.614   2.488   0.955 -0.0382  0.3024 -0.3547
  807MPD2    C311883   0.573   2.364   1.002 -0.0765 -0.0486 -0.2667
  807MPD2    C411884   0.439   2.336   0.984  0.5835  0.1857 -0.0647
  807MPD2    C511885   0.352   2.428   0.930  0.1084  0.2382  0.2443
  807MPD2     H11886   0.720   2.512   0.955  0.1970 -0.7531 -0.7849
  807MPD2    H111887   0.394   2.242   1.014  0.0230  0.9484  1.5140
  807MPD2    H211888   0.326   2.607   0.838 -1.1386 -0.0665  2.5587
  807MPD2    H311889   0.245   2.412   0.924 -0.4439  3.1932  1.9759
  807MPD2     N11890   0.665   2.282   1.070  0.1766 -0.2060 -0.9896
  807MPD2    H511891   0.763   2.309   1.072 -0.1924  1.0172  0.4604
  807MPD2    N111892   0.583   2.690   0.820 -0.2966 -0.1904 -0.5805
  807MPD2    H711893   0.679   2.716   0.841 -0.3346  0.7806 -1.5775
  808MPD2     C11894   1.565   0.853  10.247  0.2919  0.2477  0.0980
  808MPD2    C111895   1.504   0.755  10.176 -0.2125 -0.3519  0.3342
  808MPD2    C211896   1.456   0.778  10.048  0.0704  0.1308  0.0136
  808MPD2    C311897   1.479   0.906   9.987 -0.8378  0.2829 -0.0274
  808MPD2    C411898   1.544   1.005  10.057 -0.3011 -0.1508 -0.8118
  808MPD2    C511899   1.588   0.978  10.181  0.5402  0.0195 -0.1850
  808MPD2     H11900   1.405   0.701   9.991 -0.4513  0.2317  0.3468
  808MPD2    H111901   1.553   1.105  10.016 -0.6696 -0.2729 -1.1951
  808MPD2    H211902   1.602   0.842  10.348  2.3403 -1.3852 -0.8310
  808MPD2    H311903   1.639   1.061  10.229 -1.2457  1.6057 -1.0495
  808MPD2     N11904   1.430   0.935   9.856 -0.3638  0.3163  0.8353
  808MPD2    H511905   1.423   1.033   9.829 -0.6678  0.3655  1.0828
  808MPD2    N111906   1.480   0.623  10.232 -0.8355  0.4122  0.1485
  808MPD2    H711907   1.429   0.565  10.166  0.8923  0.7841 -1.5376
  809MPD2     C11908   1.837   1.348   9.083 -0.4961  0.3935  0.0188
  809MPD2    C111909   1.863   1.237   9.160  0.4394 -0.3674 -0.4746
  809MPD2    C211910   1.762   1.198   9.239 -0.7286 -0.3836  0.4386
  809MPD2    C311911   1.638   1.255   9.247  0.1867 -0.1032  0.9452
  809MPD2    C411912   1.615   1.360   9.159 -0.8139  0.4711 -0.5216
  809MPD2    C511913   1.716   1.413   9.084  0.1902  0.8620  0.5802
  809MPD2     H11914   1.793   1.111   9.296 -0.7526 -0.3804  0.4567
  809MPD2    H111915   1.525   1.420   9.155  0.5550  2.4310 -1.4326
  809MPD2    H211916   1.911   1.397   9.021 -0.6294 -0.4968 -0.8253
  809MPD2    H311917   1.698   1.495   9.016  2.1258 -0.2647 -1.2687
  809MPD2     N11918   1.527   1.198   9.324 -0.4912 -0.3846 -0.1522
  809MPD2    H511919   1.442   1.252   9.324  1.1775  2.2609  0.4879
  809MPD2    N111920   1.983   1.166   9.162 -0.4154 -0.1491  0.2107
  809MPD2    H711921   1.979   1.096   9.234  0.9901  0.0262  0.4646
  810MPD2     C11922   0.663   4.641  10.702  0.1165  0.2393  0.2674
  810MPD2    C111923   0.633   4.641  10.567  0.0162  1.0021  0.2067
  810MPD2    C211924   0.637   0.039  10.507 -0.0357 -0.2763 -0.3060
  810MPD2    C311925   0.677   0.158  10.570  0.3195  0.4349  0.5415
  810MPD2    C411926   0.715   0.151  10.705  0.7138  0.0801  0.0108
  810MPD2    C511927   0.707   0.031  10.772  0.1688 -0.1249  0.2164
  810MPD2     H11928   0.612   0.043  10.402  0.6338 -1.7859 -0.5203
  810MPD2    H111929   0.748   0.242  10.754  1.7509 -0.7547  0.8653
  810MPD2    H211930   0.650   4.547  10.755  0.8390 -0.4927 -0.8613
  810MPD2    H311931   0.748   0.024  10.872 -0.6745  0.9236  0.6261
  810MPD2     N11932   0.687   0.285  10.505 -0.3289 -0.2290  0.0854
  810MPD2    H511933   0.712   0.363  10.565 -1.4147  0.5718 -0.5008
  810MPD2    N111934   0.591   4.524  10.508  0.0458 -0.0349  0.3955
  810MPD2    H711935   0.609   4.438  10.558  0.3680 -1.4423 -2.1699
  811MPD2     C11936   0.209   4.290   9.801 -0.1491  0.0543  0.1246
  811MPD2    C111937   0.322   4.349   9.850  0.0311 -0.0115  0.1834
  811MPD2    C211938   0.377   4.458   9.783 -0.4366 -0.1193 -0.2770
  811MPD2    C311939   0.312   4.507   9.673 -0.6446  0.3703  0.3262
  811MPD2    C411940   0.200   4.439   9.627  0.3356 -0.6179  0.1721
  811MPD2    C511941   0.156   4.325   9.682  0.6040  0.3451  0.0300
  811MPD2     H11942   0.455   4.512   9.836 -1.6166  0.6026  0.7352
  811MPD2    H111943   0.151   4.463   9.533  0.8248  0.3118  0.1573
  811MPD2    H211944   0.158   4.209   9.852  2.5111 -1.4511  0.4474
  811MPD2    H311945   0.060   4.290   9.645  0.2790  0.3534  0.8414
  811MPD2     N11946   0.365   4.628   9.614 -0.2112 -0.0812 -0.3333
  811MPD2    H511947   0.441   4.671   9.665  0.7624 -1.5021 -0.5852
  811MPD2    N111948   0.378   4.315   9.975  0.9413 -0.3763 -0.4739
  811MPD2    H711949   0.451   4.376  10.012  0.6635 -0.1800 -0.2422
  812MPD2     C11950   4.464   4.704  12.092 -0.5756  0.4622  0.0264
  812MPD2    C111951   4.344   0.035  12.128 -0.0810 -0.2579 -0.1319
  812MPD2    C211952   4.260   4.671  12.200 -0.3595  0.3934 -0.4118
  812MPD2    C311953   4.292   4.536  12.218  0.3330 -0.6253  0.5352
  812MPD2    C411954   4.413   4.487  12.180 -0.2105  0.3934 -0.6900
  812MPD2    C511955   4.491   4.576  12.112 -1.3878 -0.5362  0.0558
  812MPD2     H11956   4.163   4.704  12.233  0.1403 -0.0338  1.5269
  812MPD2    H111957   4.450   4.388  12.203  0.6245  1.0169  0.6784
  812MPD2    H211958   4.535   0.042  12.037  1.2619 -2.3709 -0.7545
  812MPD2    H311959   4.581   4.539  12.065 -3.4410 -0.7088 -3.8037
  812MPD2     N11960   4.190   4.449  12.265  0.0172 -0.1894 -0.4483
  812MPD2    H511961   4.110   4.506  12.291  0.7583  1.1836 -1.1670
  812MPD2    N111962   4.314   0.172  12.095  0.1700  0.1839 -0.2615
  812MPD2    H711963   4.384   0.219  12.037 -0.4089  0.8436 -0.4170
  813MPD2     C11964   4.004   1.757  12.615  0.3693  0.0902  0.5216
  813MPD2    C111965   3.884   1.818  12.615 -0.9426  0.2987 -0.0378
  813MPD2    C211966   3.767   1.748  12.636  0.0234 -0.8258 -0.3788
  813MPD2    C311967   3.782   1.615  12.681  0.0262  0.5846  0.3090
  813MPD2    C411968   3.905   1.549  12.680  0.7533 -0.4678 -0.3835
  813MPD2    C511969   4.010   1.624  12.638 -0.4786  0.2601  0.4957
  813MPD2     H11970   3.669   1.794  12.646 -0.6063 -2.4313  0.7820
  813MPD2    H111971   3.924   1.444  12.698  3.7658 -0.1138 -1.4806
  813MPD2    H211972   4.088   1.820  12.589  0.4840 -1.5897 -3.1156
  813MPD2    H311973   4.110   1.582  12.640  0.3611  2.4038  3.2474
  813MPD2     N11974   3.669   1.558  12.744  0.3381  0.1314 -0.0365
  813MPD2    H511975   3.578   1.602  12.734  0.8132  1.0110 -0.4704
  813MPD2    N111976   3.882   1.962  12.610  0.5670 -0.3657  0.1167
  813MPD2    H711977   3.969   2.010  12.629  1.3246 -0.4002 -3.3803
  814MPD2     C11978   3.553   2.711  12.159  0.2253 -0.2336  0.3253
  814MPD2    C111979   3.629   2.745  12.054 -0.4401 -0.6058 -0.1602
  814MPD2    C211980   3.663   2.879  12.045 -0.3834 -0.8923  0.3165
  814MPD2    C311981   3.619   2.973  12.138 -0.3330 -0.1003 -0.8337
  814MPD2    C411982   3.534   2.935  12.247 -0.0155  0.5099 -0.0804
  814MPD2    C511983   3.512   2.797  12.257 -0.2518 -0.0554 -0.2883
  814MPD2     H11984   3.725   2.908  11.961 -0.9674 -1.7737 -0.4314
  814MPD2    H111985   3.506   3.000  12.329  1.1257  0.7471  0.1328
  814MPD2    H211986   3.541   2.606  12.185 -0.6537 -0.4307 -0.8808
  814MPD2    H311987   3.459   2.759  12.344  1.4143  0.4668  0.9667
  814MPD2     N11988   3.657   3.107  12.131  0.1572 -0.2042 -0.2927
  814MPD2    H511989   3.623   3.165  12.207  3.0475  0.4591  0.4899
  814MPD2    N111990   3.673   2.651  11.961 -0.2923  0.8629 -0.3585
  814MPD2    H711991   3.733   2.680  11.884 -0.1599 -1.2535 -1.0328
  815MPD2     C11992   4.282   1.627  11.518  0.2363 -0.2169  0.5431
  815MPD2    C111993   4.250   1.504  11.553 -1.8342  0.0491 -0.8107
  815MPD2    C211994   4.115   1.473  11.567  0.5073 -0.2095 -0.0678
  815MPD2    C311995   4.017   1.560  11.525  0.2510  1.0641 -1.2536
  815MPD2    C411996   4.056   1.688  11.490  0.0335  0.6682 -0.0920
  815MPD2    C511997   4.189   1.725  11.498 -0.4226  0.5490 -0.1784
  815MPD2     H11998   4.093   1.373  11.603  0.8727  0.1687  1.2434
  815MPD2    H111999   3.984   1.760  11.453 -0.4468 -0.4686 -1.3416
  815MPD2    H212000   4.385   1.659  11.505  1.1346 -3.2358  0.2461
  815MPD2    H312001   4.211   1.827  11.469  1.3741  0.3820  0.5507
  815MPD2     N12002   3.885   1.517  11.529 -0.1820  0.2225  0.2328
  815MPD2    H512003   3.876   1.420  11.556  1.9519  0.3409  1.4211
  815MPD2    N112004   4.353   1.406  11.568 -0.0107 -0.2849  0.4157
  815MPD2    H712005   4.447   1.432  11.540 -0.1644  1.6864  1.7033
  816MPD2     C12006   4.633   0.143  17.290  0.1148  0.1626  0.1571
  816MPD2    C112007   4.578   0.145  17.163 -0.2904  0.4422 -0.2108
  816MPD2    C212008   4.662   0.131  17.054 -0.2674  0.4502 -0.6494
  816MPD2    C312009   0.072   0.111  17.073 -0.5964 -0.5827 -0.3329
  816MPD2    C412010   0.130   0.116  17.200 -0.7425  0.8005  0.0538
  816MPD2    C512011   0.048   0.134  17.313 -0.6961 -1.0286  0.3575
  816MPD2     H12012   4.621   0.133  16.954 -1.7471  0.6239 -0.0396
  816MPD2    H112013   0.237   0.121  17.214 -0.7921  1.6570  0.1081
  816MPD2    H212014   4.565   0.157  17.373  0.9095  2.1093  0.4847
  816MPD2    H312015   0.095   0.129  17.410  0.2045  1.0594  0.0350
  816MPD2     N12016   0.154   0.089  16.962 -0.2683  0.3023  0.0103
  816MPD2    H512017   0.105   0.110  16.875  0.6909 -0.8538 -0.8057
  816MPD2    N112018   4.439   0.166  17.159  0.1254 -0.0086  0.2608
  816MPD2    H712019   4.398   0.195  17.247 -2.1257  0.0904 -0.8136
  817MPD2     C12020   4.560   2.089   9.716 -0.3659 -0.1060  0.0765
  817MPD2    C112021   4.620   1.968   9.721  0.9807 -0.4530 -0.2114
  817MPD2    C212022   0.029   1.955   9.682  0.1746 -0.9168 -1.1893
  817MPD2    C312023   0.103   2.064   9.646  0.0305  0.1510 -0.1079
  817MPD2    C412024   0.044   2.194   9.644  0.1330 -0.3743 -0.2401
  817MPD2    C512025   4.636   2.200   9.679  0.5039 -0.6796 -0.7138
  817MPD2     H12026   0.079   1.858   9.685 -0.3668 -1.2034 -1.5776
  817MPD2    H112027   0.091   2.281   9.599  0.4769 -0.2351  0.3864
  817MPD2    H212028   4.455   2.104   9.737 -0.5185 -1.0528 -0.0261
  817MPD2    H312029   4.584   2.295   9.671  0.7575 -0.3480  1.4768
  817MPD2     N12030   0.237   2.041   9.602  0.4127 -0.2730  0.2045
  817MPD2    H512031   0.261   1.942   9.596  0.8525 -0.2447  1.4035
  817MPD2    N112032   4.541   1.852   9.755 -0.3363 -0.0534 -0.0040
  817MPD2    H712033   4.584   1.765   9.728 -0.6951  0.1032 -1.0982
  818MPD2     C12034   2.609   2.921   9.708  0.5479  0.3722 -0.0617
  818MPD2    C112035   2.678   2.835   9.781  0.2967  0.2388  0.1322
  818MPD2    C212036   2.675   2.700   9.759 -0.4565 -0.6557  0.2847
  818MPD2    C312037   2.612   2.653   9.647 -0.2809  0.5377  0.8156
  818MPD2    C412038   2.534   2.743   9.580 -0.2631  0.3238 -0.1396
  818MPD2    C512039   2.526   2.873   9.611  0.6658  0.7123 -0.4842
  818MPD2     H12040   2.715   2.628   9.830  0.7156 -0.4942 -0.2007
  818MPD2    H112041   2.477   2.706   9.496  0.3489  1.9380 -1.2726
  818MPD2    H212042   2.597   3.025   9.736 -1.5870 -0.1906  1.1487
  818MPD2    H312043   2.461   2.936   9.551  1.5212  2.6534  0.6407
  818MPD2     N12044   2.596   2.513   9.620 -0.1045  0.0067 -0.6954
  818MPD2    H512045   2.520   2.490   9.557 -1.1751 -0.9188  0.9098
  818MPD2    N112046   2.735   2.870   9.905  0.1699 -0.2851 -0.2408
  818MPD2    H712047   2.780   2.798   9.961 -0.6199 -2.0381 -1.8659
  819MPD2     C12048   1.036   2.980  15.245 -0.2094  0.2555  0.2650
  819MPD2    C112049   1.028   2.886  15.343  0.1739  0.9829  0.3831
  819MPD2    C212050   1.137   2.834  15.405 -0.5732 -0.5537 -0.1544
  819MPD2    C312051   1.263   2.883  15.371 -0.1965  0.4152  0.4897
  819MPD2    C412052   1.270   2.975  15.268 -0.4224 -0.5296  0.0568
  819MPD2    C512053   1.161   3.023  15.203 -0.2299  0.0538 -0.2318
  819MPD2     H12054   1.128   2.770  15.491 -1.5860  0.2277  0.3224
  819MPD2    H112055   1.362   3.019  15.229 -0.4030 -1.2924 -0.7467
  819MPD2    H212056   0.948   3.019  15.194 -0.5262 -2.1829 -1.0774
  819MPD2    H312057   1.168   3.104  15.131  2.4639 -0.2803 -0.3650
  819MPD2     N12058   1.381   2.833  15.435  0.2096  0.3915  0.2864
  819MPD2    H512059   1.370   2.793  15.528  1.2625 -2.4621 -0.8224
  819MPD2    N112060   0.894   2.856  15.381  0.5392 -0.3203  0.0997
  819MPD2    H712061   0.814   2.861  15.318 -1.0936 -1.2705  2.1003
  820MPD2     C12062   4.674   2.767  15.104 -0.2409 -0.5012  0.3851
  820MPD2    C112063   0.034   2.868  15.169  0.4448  0.4386  0.7903
  820MPD2    C212064   0.162   2.830  15.204 -0.5807 -0.0288  0.1110
  820MPD2    C312065   0.214   2.706  15.175  0.3962 -0.3140  0.3888
  820MPD2    C412066   0.131   2.608  15.119 -0.0711  0.4451  0.5532
  820MPD2    C512067   0.002   2.645  15.084  0.1389 -0.1934  1.1512
  820MPD2     H12068   0.218   2.902  15.263  1.0862 -0.8202 -0.5119
  820MPD2    H112069   0.166   2.510  15.090  0.3670  1.1073 -1.1851
  820MPD2    H212070   4.570   2.778  15.076 -0.7035 -1.7158  1.6233
  820MPD2    H312071   4.671   2.566  15.033  0.3614  0.6445 -0.3901
  820MPD2     N12072   0.341   2.665  15.220  0.2770  0.4596 -0.3979
  820MPD2    H512073   0.351   2.564  15.214 -1.6907  0.2488  0.0807
  820MPD2    N112074   4.710   2.999  15.197 -0.1294 -0.0307  0.0129
  820MPD2    H712075   4.616   3.026  15.169 -0.6553  0.4175  2.2277
  821MPD2     C12076   1.253   4.594  13.169  0.2404 -0.4173 -0.2491
  821MPD2    C112077   1.358   4.577  13.255  0.3798  0.6118 -0.1006
  821MPD2    C212078   1.489   4.565  13.209 -0.3507 -0.4312  0.3999
  821MPD2    C312079   1.516   4.600  13.080  0.0753  0.2634 -0.5301
  821MPD2    C412080   1.412   4.617  12.990 -0.1250  0.0633 -0.5172
  821MPD2    C512081   1.282   4.604  13.034  0.1990 -0.0535  0.2562
  821MPD2     H12082   1.568   4.552  13.282  0.3844 -0.2979 -0.3794
  821MPD2    H112083   1.437   4.641  12.887 -0.4420 -1.1323 -0.8691
  821MPD2    H212084   1.153   4.598  13.212  0.3848  2.9242 -0.1731
  821MPD2    H312085   1.196   4.619  12.970  0.2819 -3.8501 -0.7627
  821MPD2     N12086   1.646   4.634  13.033  0.1914 -0.4446  0.1875
  821MPD2    H512087   1.653   4.668  12.938 -1.2717 -1.0491 -0.1404
  821MPD2    N112088   1.337   4.575  13.401  0.1629  0.0507  0.2251
  821MPD2    H712089   1.422   4.540  13.445  1.0004  3.2135  1.1459
  822MPD2     C12090   1.559   4.681  15.625 -0.0099  0.5443 -0.1658
  822MPD2    C112091   1.528   4.619  15.741  0.7628 -0.4208  0.4563
  822MPD2    C212092   1.482   4.692  15.851 -0.1998  0.0972  0.2372
  822MPD2    C312093   1.476   0.104  15.846  0.5126  0.5273 -0.2509
  822MPD2    C412094   1.516   0.173  15.733  0.2204 -0.0760 -0.4960
  822MPD2    C512095   1.553   0.092  15.625  0.0848  0.5520  0.1951
  822MPD2     H12096   1.453   4.637  15.940 -1.5113  1.5094  0.6868
  822MPD2    H112097   1.525   0.280  15.722  1.2733 -0.0883  0.2849
  822MPD2    H212098   1.605   4.631  15.540  3.0950  1.1667  1.1203
  822MPD2    H312099   1.569   0.154  15.537 -0.0270 -1.5291 -1.2920
  822MPD2     N12100   1.454   0.162  15.975  0.0747 -0.4423 -0.1169
  822MPD2    H512101   1.439   0.100  16.054 -2.6702 -1.1104 -1.1501
  822MPD2    N112102   1.559   4.480  15.761 -0.3831 -0.7524  0.4239
  822MPD2    H712103   1.541   4.446  15.855 -0.8473  0.7586  0.8971
  823MPD2     C12104   1.151   0.329  16.778 -0.3993  0.3145  0.4803
  823MPD2    C112105   1.216   0.250  16.679 -0.2728  0.3594  0.1368
  823MPD2    C212106   1.247   0.115  16.701  0.7048 -0.7667  0.6835
  823MPD2    C312107   1.226   0.056  16.826 -0.0293 -0.0487 -0.1359
  823MPD2    C412108   1.162   0.133  16.921  0.5072 -0.0708 -0.1848
  823MPD2    C512109   1.112   0.258  16.890  0.1339 -1.2223 -0.2900
  823MPD2     H12110   1.271   0.057  16.612 -1.9234 -1.0734  0.1725
  823MPD2    H112111   1.137   0.090  17.017  2.4268 -0.3604  0.1917
  823MPD2    H212112   1.115   0.429  16.755 -1.6759 -0.1629  0.4257
  823MPD2    H312113   1.044   0.307  16.958 -0.6029 -1.2019 -1.0389
  823MPD2     N12114   1.269   4.651  16.868 -0.4448 -0.1108 -0.3516
  823MPD2    H512115   1.229   4.616  16.954 -0.8092  0.5481 -0.2546
  823MPD2    N112116   1.248   0.311  16.559 -0.7224 -0.4289 -0.5415
  823MPD2    H712117   1.266   0.411  16.565 -1.2152 -0.3241 -0.7538
  824MPD2     C12118   1.938   3.796  15.353 -0.9524  0.0748 -0.6675
  824MPD2    C112119   1.997   3.833  15.472 -0.4074 -0.1275 -0.4988
  824MPD2    C212120   2.123   3.782  15.505  0.3475  0.6844 -0.1918
  824MPD2    C312121   2.182   3.695  15.412 -0.1577 -0.6639 -0.7552
  824MPD2    C412122   2.114   3.647  15.294  0.2457  0.0669 -0.5084
  824MPD2    C512123   1.992   3.702  15.270 -0.2577  0.3496  0.2962
  824MPD2     H12124   2.176   3.804  15.597  1.7487  1.0340 -1.0902
  824MPD2    H112125   2.160   3.575  15.227  0.2620  0.8386 -1.3322
  824MPD2    H212126   1.839   3.834  15.331 -1.4007  0.1688  1.4782
  824MPD2    H312127   1.947   3.669  15.176  0.9158  0.7968 -0.4237
  824MPD2     N12128   2.321   3.656  15.437  0.2377 -0.2132  0.1614
  824MPD2    H512129   2.352   3.683  15.530  1.6707  0.2766 -0.4549
  824MPD2    N112130   1.938   3.925  15.564 -0.3076  0.6541 -0.5443
  824MPD2    H712131   1.999   3.958  15.638 -0.0109  0.3765 -0.6672
  825MPD2     C12132   2.990   3.993  15.706 -0.1256  0.1164 -0.4947
  825MPD2    C112133   2.927   3.976  15.591 -0.2011 -0.7000 -0.2227
  825MPD2    C212134   2.914   4.082  15.509 -0.0819 -0.4354 -0.0298
  825MPD2    C312135   2.976   4.203  15.539 -0.9403 -0.7378 -0.6653
  825MPD2    C412136   3.072   4.202  15.644 -0.4428  0.4476  0.3126
  825MPD2    C512137   3.061   4.099  15.740  0.0830 -0.2525 -0.1540
  825MPD2     H12138   2.848   4.071  15.423  1.8932 -1.0254 -1.4699
  825MPD2    H112139   3.115   4.295  15.680  0.3125 -0.1465  0.9442
  825MPD2    H212140   3.014   3.910  15.772 -0.0443  0.0504 -0.6063
  825MPD2    H312141   3.112   4.100  15.835  0.9991  0.9086 -0.6682
  825MPD2     N12142   2.961   4.320  15.459 -0.2704  0.2061  0.2632
  825MPD2    H512143   3.027   4.394  15.482  0.1959  0.0278 -0.5020
  825MPD2    N112144   2.873   3.853  15.562 -0.0923  0.2346  0.1684
  825MPD2    H712145   2.883   3.788  15.639 -0.3760 -1.6716 -1.4051
  826MPD2     C12146   2.488   4.088  13.664 -0.3242 -0.3931 -0.3512
  826MPD2    C112147   2.436   4.081  13.536 -0.5411  0.3011 -0.0054
  826MPD2    C212148   2.320   4.140  13.518  0.2246  0.4588 -0.4270
  826MPD2    C312149   2.255   4.201  13.626  0.5092  0.8130  0.0810
  826MPD2    C412150   2.310   4.217  13.755  0.0970 -0.0314 -0.6222
  826MPD2    C512151   2.430   4.161  13.769  0.3552  0.0434 -0.2118
  826MPD2     H12152   2.271   4.140  13.421 -2.1290 -0.0897  0.7894
  826MPD2    H112153   2.255   4.286  13.818 -0.2057 -2.5617  1.9018
  826MPD2    H212154   2.587   4.051  13.685 -0.4248 -0.1056  0.6340
  826MPD2    H312155   2.482   4.186  13.860 -0.0032 -0.7980  0.2209
  826MPD2     N12156   2.137   4.270  13.614 -0.3557  0.0104 -0.3130
  826MPD2    H512157   2.092   4.311  13.696  1.9776  1.2798  0.3298
  826MPD2    N112158   2.510   4.013  13.437  0.5019  0.4281 -0.5637
  826MPD2    H712159   2.592   3.965  13.471 -1.0425 -1.1349  0.9828
  827MPD2     C12160   3.098   0.910   9.910 -0.1042 -0.4444  0.2232
  827MPD2    C112161   3.041   0.832  10.012  0.0441 -0.0307  0.3528
  827MPD2    C212162   2.937   0.746   9.984 -0.0047  0.7358 -0.3263
  827MPD2    C312163   2.885   0.746   9.851  0.4263 -0.0629  0.0592
  827MPD2    C412164   2.929   0.838   9.757  0.0400 -0.9852  0.1718
  827MPD2    C512165   3.036   0.917   9.786  0.2195  1.0840 -0.3227
  827MPD2     H12166   2.898   0.682  10.063 -0.5381  1.1028 -0.2898
  827MPD2    H112167   2.883   0.851   9.660 -2.3410 -0.6752  1.3517
  827MPD2    H212168   3.171   0.983   9.943  1.0480 -1.5012  0.0179
  827MPD2    H312169   3.079   0.994   9.724 -0.1868  1.3765 -0.2345
  827MPD2     N12170   2.784   0.658   9.813 -0.1624  0.4398  0.4163
  827MPD2    H512171   2.756   0.596   9.887  0.4309 -0.2541  0.0683
  827MPD2    N112172   3.114   0.838  10.139 -0.3944  0.8814 -0.1130
  827MPD2    H712173   3.184   0.910  10.154  1.4059 -0.5892 -1.4457
  828MPD2     C12174   1.538   0.385  12.477  0.0693  0.1229  0.4379
  828MPD2    C112175   1.474   0.403  12.353 -0.5504  0.3518 -0.4662
  828MPD2    C212176   1.547   0.402  12.237 -0.2857  0.1944 -0.4548
  828MPD2    C312177   1.684   0.375  12.242 -0.2158 -0.3518 -0.2003
  828MPD2    C412178   1.744   0.360  12.366 -0.1551 -0.0734 -0.2093
  828MPD2    C512179   1.675   0.365  12.480 -0.1154 -0.2148 -0.5206
  828MPD2     H12180   1.502   0.423  12.141  0.0930 -2.1747 -1.1299
  828MPD2    H112181   1.843   0.317  12.364 -0.3081 -0.4468  0.2247
  828MPD2    H212182   1.489   0.395  12.573  3.6542 -2.7393  2.5578
  828MPD2    H312183   1.727   0.358  12.574 -1.3502  0.6838  0.2329
  828MPD2     N12184   1.765   0.359  12.128 -0.5076  0.2227  0.9102
  828MPD2    H512185   1.864   0.349  12.147  0.6136  1.3088 -4.3613
  828MPD2    N112186   1.333   0.427  12.348  0.6139 -0.4614  0.2982
  828MPD2    H712187   1.290   0.455  12.261  0.3531  1.5504  1.0724
  829MPD2     C12188   0.985   0.917  11.803 -0.1986 -0.3620 -0.0409
  829MPD2    C112189   0.890   0.895  11.896  0.2777 -0.8864  0.3410
  829MPD2    C212190   0.917   0.850  12.026  0.0546 -0.3080 -0.7677
  829MPD2    C312191   1.046   0.830  12.069  0.3059 -0.4509 -1.0559
  829MPD2    C412192   1.142   0.850  11.976  0.4591 -0.5864 -0.0914
  829MPD2    C512193   1.116   0.889  11.847 -0.3388 -0.5175 -0.6940
  829MPD2     H12194   0.832   0.832  12.090  0.3713 -2.9946 -1.0750
  829MPD2    H112195   1.243   0.823  12.002 -0.0493 -1.5174  0.9461
  829MPD2    H212196   0.967   0.941  11.699 -1.3232  0.0821  0.2530
  829MPD2    H312197   1.199   0.909  11.781  0.2899 -2.1846 -0.4152
  829MPD2     N12198   1.081   0.793  12.197  0.4240  0.7192 -0.1303
  829MPD2    H512199   1.171   0.747  12.197  1.3062  2.4415  0.1022
  829MPD2    N112200   0.759   0.905  11.843  0.0326 -0.2754  0.4109
  829MPD2    H712201   0.759   0.934  11.746 -1.0493 -3.1183 -0.4303
  830MPD2     C12202   2.209   3.080  15.551 -0.0765 -0.4031 -0.0137
  830MPD2    C112203   2.121   3.041  15.459  0.0058 -0.2672  0.1242
  830MPD2    C212204   2.126   3.099  15.333 -0.3408 -0.5189 -0.2025
  830MPD2    C312205   2.223   3.195  15.299  0.9020 -0.6382 -0.1012
  830MPD2    C412206   2.320   3.219  15.388 -0.0735 -0.3600 -0.7738
  830MPD2    C512207   2.312   3.162  15.513  0.4970 -0.1781  0.5709
  830MPD2     H12208   2.053   3.068  15.259  0.7068 -2.5412 -0.3935
  830MPD2    H112209   2.402   3.286  15.366 -0.3323  0.3936  0.5197
  830MPD2    H212210   2.216   3.030  15.647 -1.5009  1.3717  1.0268
  830MPD2    H312211   2.384   3.166  15.593 -1.8410  0.5190  2.6459
  830MPD2     N12212   2.226   3.269  15.175 -0.1207  0.1043  0.0333
  830MPD2    H512213   2.284   3.352  15.174 -0.2894  0.2698  2.0822
  830MPD2    N112214   2.037   2.931  15.485  0.0417 -0.3411 -0.0769
  830MPD2    H712215   2.017   2.925  15.584  1.3739 -1.7828  0.1069
  831MPD2     C12216   1.769   0.144  16.271  0.1103 -0.2046 -0.2158
  831MPD2    C112217   1.728   0.049  16.185  0.9491  0.0528  0.1371
  831MPD2    C212218   1.625   4.683  16.218  0.8209  0.0307  0.0574
  831MPD2    C312219   1.557   4.701  16.335  0.0596  0.8768  0.4523
  831MPD2    C412220   1.602   0.072  16.433  0.3335 -0.0816  0.7893
  831MPD2    C512221   1.712   0.155  16.400 -0.8051 -0.6046 -0.0300
  831MPD2     H12222   1.595   4.605  16.150 -1.1996 -0.9606  2.0975
  831MPD2    H112223   1.551   0.099  16.525 -1.3225 -0.4204 -0.0250
  831MPD2    H212224   1.843   0.218  16.241  0.7614 -1.1071 -0.8064
  831MPD2    H312225   1.742   0.239  16.462 -3.2134 -0.4656  0.9299
  831MPD2     N12226   1.437   4.637  16.366  0.0676 -0.1965 -0.3416
  831MPD2    H512227   1.399   4.658  16.458 -0.7827 -0.3681 -0.6485
  831MPD2    N112228   1.791   0.050  16.058 -0.1936 -0.2758  0.3893
  831MPD2    H712229   1.852   0.125  16.028 -2.0325  1.1719  0.2980
  832MPD2     C12230   0.410   0.932  17.315 -0.5265 -0.8795  0.0991
  832MPD2    C112231   0.392   1.067  17.294 -0.6656 -0.7857 -0.4249
  832MPD2    C212232   0.288   1.106  17.219 -0.0884  0.1098 -0.4626
  832MPD2    C312233   0.202   1.021  17.160 -0.0723  0.2263  0.5745
  832MPD2    C412234   0.215   0.887  17.183 -0.2400  0.7789 -0.0397
  832MPD2    C512235   0.316   0.842  17.264 -0.4541 -0.6586 -0.1636
  832MPD2     H12236   0.285   1.211  17.191  1.0606 -0.0643 -1.2182
  832MPD2    H112237   0.154   0.809  17.140  0.3916  0.4164 -0.2770
  832MPD2    H212238   0.494   0.903  17.376 -0.2549 -0.1204  0.0827
  832MPD2    H312239   0.335   0.738  17.287 -3.8299 -0.9869  1.0702
  832MPD2     N12240   0.090   1.069  17.081  0.0192 -0.0145  0.5216
  832MPD2    H512241   0.027   0.994  17.054 -2.6488  1.4327  2.7347
  832MPD2    N112242   0.478   1.165  17.359  0.7077 -0.0248  0.4249
  832MPD2    H712243   0.555   1.115  17.401  0.4254  0.6822  1.7602
  833MPD2     C12244   2.036   3.251  12.489 -1.0020 -0.0275 -0.2613
  833MPD2    C112245   2.067   3.376  12.442  0.0649 -0.0037 -0.3902
  833MPD2    C212246   2.197   3.402  12.409 -0.0354 -0.5573 -0.4572
  833MPD2    C312247   2.289   3.301  12.398  0.4245  0.7773  0.3398
  833MPD2    C412248   2.252   3.172  12.435  0.1401  0.0784  0.8519
  833MPD2    C512249   2.127   3.150  12.477  0.0462  0.3988 -0.1466
  833MPD2     H12250   2.216   3.499  12.366 -0.5367 -0.5298 -0.6117
  833MPD2    H112251   2.319   3.086  12.433  1.2085  0.8975  1.1446
  833MPD2    H212252   1.936   3.225  12.522 -1.1693 -0.2028 -0.8914
  833MPD2    H312253   2.099   3.059  12.528 -1.7955  1.2982  0.4503
  833MPD2     N12254   2.412   3.325  12.343 -0.0615  0.6178 -0.7867
  833MPD2    H512255   2.469   3.250  12.306  0.1110  0.8981 -1.0878
  833MPD2    N112256   1.957   3.466  12.418 -0.1529 -0.0222 -0.0635
  833MPD2    H712257   1.864   3.434  12.444 -1.3189  1.3133 -2.5528
  834MPD2     C12258   2.776   2.812  11.694  0.3020  0.7452  0.4791
  834MPD2    C112259   2.718   2.917  11.630 -1.0495 -0.0300  1.0057
  834MPD2    C212260   2.705   3.029  11.707  0.3433 -0.2778 -0.3906
  834MPD2    C312261   2.741   3.032  11.840  0.4271  0.3218  0.2762
  834MPD2    C412262   2.801   2.922  11.896  0.0190 -0.2634 -0.2360
  834MPD2    C512263   2.831   2.821  11.815 -1.0132  0.1673  0.4504
  834MPD2     H12264   2.627   3.098  11.676  1.3378  0.5059 -1.1832
  834MPD2    H112265   2.840   2.922  11.997 -1.4272  2.5535  0.3030
  834MPD2    H212266   2.780   2.709  11.659 -0.6153  0.1219  2.1901
  834MPD2    H312267   2.871   2.731  11.860  0.8683  0.3678 -0.8337
  834MPD2     N12268   2.716   3.151  11.899 -0.1292  0.0128  0.0087
  834MPD2    H512269   2.654   3.220  11.857 -0.6394 -0.9189 -0.7449
  834MPD2    N112270   2.648   2.893  11.515  0.7854  0.0933 -0.5773
  834MPD2    H712271   2.649   2.794  11.493  0.9041  0.3417 -1.6922
  835MPD2     C12272   2.347   0.356  10.917 -0.1752  1.0898  0.6277
  835MPD2    C112273   2.340   0.490  10.890 -0.0225 -0.5083 -0.2533
  835MPD2    C212274   2.361   0.571  10.997 -0.3070 -0.2430 -0.6362
  835MPD2    C312275   2.375   0.529  11.121  0.8739  0.3629  0.3345
  835MPD2    C412276   2.376   0.395  11.145  0.5988  0.2251  1.1837
  835MPD2    C512277   2.366   0.309  11.040 -0.0282  0.2614  0.2410
  835MPD2     H12278   2.360   0.678  10.978 -1.0208  0.0542  1.0505
  835MPD2    H112279   2.384   0.345  11.241 -1.1250  0.7467  1.6023
  835MPD2    H212280   2.343   0.287  10.834 -0.2678  0.4805  1.1361
  835MPD2    H312281   2.365   0.201  11.054  2.0540  0.2947  0.7111
  835MPD2     N12282   2.398   0.612  11.237 -0.1860  0.2256 -0.7225
  835MPD2    H512283   2.399   0.567  11.328  0.3703  1.2294 -0.2367
  835MPD2    N112284   2.318   0.556  10.767 -0.5669 -0.5713  0.0274
  835MPD2    H712285   2.321   0.658  10.767 -0.4968 -0.5785  0.6167
  836MPD2     C12286   1.858   0.634  11.554 -0.4464  0.0372  0.0620
  836MPD2    C112287   1.954   0.687  11.642 -0.1342 -0.2581 -0.6078
  836MPD2    C212288   1.922   0.719  11.773 -0.1779  0.5276 -0.7256
  836MPD2    C312289   1.792   0.688  11.821 -0.2803 -0.2998 -0.2599
  836MPD2    C412290   1.701   0.610  11.738 -0.3849  0.8025 -0.2516
  836MPD2    C512291   1.739   0.581  11.608 -0.1976 -0.0928 -0.2316
  836MPD2     H12292   2.003   0.749  11.840  0.5570  0.8317 -1.7515
  836MPD2    H112293   1.602   0.571  11.758  0.1337  0.3552  1.4074
  836MPD2    H212294   1.877   0.614  11.449 -2.8074 -0.9692 -0.1902
  836MPD2    H312295   1.669   0.534  11.540 -0.0382 -2.3607  1.1662
  836MPD2     N12296   1.742   0.717  11.951  0.0115 -0.5366 -0.4528
  836MPD2    H512297   1.646   0.691  11.969  0.0357 -0.1590  0.2238
  836MPD2    N112298   2.075   0.731  11.584 -0.1423 -0.0897 -0.0398
  836MPD2    H712299   2.085   0.699  11.488 -0.8765 -1.1823  0.2479
  837MPD2     C12300   0.746   0.485   9.909 -0.0090 -0.2516  0.9095
  837MPD2    C112301   0.675   0.531   9.800  0.6626 -0.9895  0.3621
  837MPD2    C212302   0.647   0.664   9.786 -0.2012 -0.9065 -0.1851
  837MPD2    C312303   0.683   0.755   9.885  0.3138 -0.7341 -0.1559
  837MPD2    C412304   0.756   0.707   9.999  1.0261 -0.3904  0.9877
  837MPD2    C512305   0.784   0.573  10.002  0.0097  0.4078  0.1230
  837MPD2     H12306   0.570   0.694   9.716 -0.3601  0.0207  0.3917
  837MPD2    H112307   0.790   0.773  10.078  0.4931 -0.7930  1.5572
  837MPD2    H212308   0.778   0.383   9.919  1.6531  0.2980  1.1655
  837MPD2    H312309   0.845   0.524  10.077 -1.1197 -0.7965  0.2617
  837MPD2     N12310   0.622   0.879   9.883  0.8768 -0.3292  0.0851
  837MPD2    H512311   0.561   0.893   9.803  0.6923 -3.5212 -0.3263
  837MPD2    N112312   0.605   0.453   9.703 -0.0318 -0.8773 -0.4901
  837MPD2    H712313   0.538   0.503   9.645  1.3284 -1.1760 -2.3336
  838MPD2     C12314   3.797   3.927  11.888  0.1154  0.2126 -0.0095
  838MPD2    C112315   3.721   3.830  11.824 -0.5101  0.0804 -0.0775
  838MPD2    C212316   3.607   3.790  11.884  0.0073  0.0052  0.3507
  838MPD2    C312317   3.570   3.835  12.009 -0.1551 -0.2320 -0.2322
  838MPD2    C412318   3.654   3.924  12.074  0.0861 -0.1863  0.7035
  838MPD2    C512319   3.764   3.969  12.012 -0.3605 -0.6366 -0.0971
  838MPD2     H12320   3.534   3.730  11.829 -1.8557  2.8858 -0.3104
  838MPD2    H112321   3.636   3.974  12.169 -2.9346  0.4684 -0.2172
  838MPD2    H212322   3.887   3.974  11.850 -0.3617  1.5196  0.4802
  838MPD2    H312323   3.831   4.038  12.062  2.3916 -4.1810  1.0914
  838MPD2     N12324   3.445   3.791  12.060  0.4529  0.4822 -0.3606
  838MPD2    H512325   3.414   3.706  12.014 -0.7955 -0.0274  1.3987
  838MPD2    N112326   3.750   3.772  11.700 -0.8646  0.9400 -0.1871
  838MPD2    H712327   3.684   3.704  11.665 -0.6436  0.1571  0.9219
  839MPD2     C12328   3.157   3.362  11.321 -0.2548 -0.3506 -0.2433
  839MPD2    C112329   3.259   3.292  11.251 -0.1151 -0.1631 -0.2723
  839MPD2    C212330   3.391   3.328  11.272 -0.1869  0.3033  0.1658
  839MPD2    C312331   3.413   3.439  11.353 -0.6365  0.5937  0.4118
  839MPD2    C412332   3.309   3.509  11.413 -0.8929  0.4498 -0.0644
  839MPD2    C512333   3.181   3.473  11.392 -1.1366  0.4033 -0.5897
  839MPD2     H12334   3.473   3.270  11.230  0.2677  1.6046 -0.7302
  839MPD2    H112335   3.326   3.585  11.489 -0.7660  0.1795  0.1817
  839MPD2    H212336   3.056   3.324  11.309 -0.1997 -1.4108  2.7010
  839MPD2    H312337   3.105   3.530  11.445 -0.1920  2.5421 -1.5036
  839MPD2     N12338   3.543   3.490  11.379  0.1803 -0.0619 -0.3701
  839MPD2    H512339   3.542   3.575  11.434  2.3187  0.4855 -1.1834
  839MPD2    N112340   3.235   3.177  11.176 -0.2676  0.3653 -0.4841
  839MPD2    H712341   3.315   3.120  11.150  0.2686  1.7301 -1.8940
  840MPD2     C12342   3.733   0.656  10.195  1.3708  0.7543  0.4505
  840MPD2    C112343   3.706   0.719  10.315 -0.5413 -0.5444  0.7462
  840MPD2    C212344   3.811   0.748  10.399 -0.1737 -0.4331 -0.5857
  840MPD2    C312345   3.942   0.728  10.358  0.1590  0.7674 -0.4027
  840MPD2    C412346   3.973   0.673  10.234  0.6075  0.3939  0.1233
  840MPD2    C512347   3.861   0.631  10.162  0.3149  0.2516  0.1522
  840MPD2     H12348   3.791   0.809  10.487 -1.1962 -2.8818  0.8895
  840MPD2    H112349   4.073   0.667  10.191 -0.1121 -0.6267 -1.3977
  840MPD2    H212350   3.660   0.640  10.117  0.2056  0.2508  1.6404
  840MPD2    H312351   3.872   0.608  10.057  1.6827 -0.6662  0.5037
  840MPD2     N12352   4.052   0.774  10.434 -0.1449 -0.7232  0.1305
  840MPD2    H512353   4.142   0.759  10.389 -0.0362 -0.1979  0.1674
  840MPD2    N112354   3.567   0.746  10.345 -0.0258  0.1132  0.6736
  840MPD2    H712355   3.496   0.735  10.274 -0.8006 -1.5220  1.6892
  841MPD2     C12356   3.063   0.300  14.883 -0.0622  0.1583 -0.1698
  841MPD2    C112357   3.056   0.310  14.745  0.1600 -0.1711  0.2573
  841MPD2    C212358   3.074   0.433  14.687  0.4784 -0.1357  1.0217
  841MPD2    C312359   3.118   0.538  14.758  0.4078  0.4056 -0.0937
  841MPD2    C412360   3.129   0.526  14.891 -0.1529 -0.0474  0.3992
  841MPD2    C512361   3.096   0.412  14.959  0.3574 -0.0443  0.1482
  841MPD2     H12362   3.052   0.455  14.583 -3.7712 -1.4984  1.6127
  841MPD2    H112363   3.159   0.599  14.966  1.2436  1.0045 -1.2013
  841MPD2    H212364   3.025   0.207  14.924 -0.6187 -0.2515 -1.5985
  841MPD2    H312365   3.110   0.405  15.067  0.2813 -0.8091  0.1071
  841MPD2     N12366   3.150   0.648  14.675  0.4065 -0.1772 -0.2759
  841MPD2    H512367   3.143   0.640  14.574 -2.1661  0.0510 -0.1047
  841MPD2    N112368   3.028   0.203  14.652  0.0470 -0.2634  0.2008
  841MPD2    H712369   3.015   0.237  14.557  0.2456  0.1270  0.3135
  842MPD2     C12370   4.484   1.612  16.918 -0.2673 -0.1820  0.1021
  842MPD2    C112371   4.376   1.524  16.920 -0.1677 -0.0825 -0.0691
  842MPD2    C212372   4.361   1.431  17.024 -0.1436 -0.1170  0.3652
  842MPD2    C312373   4.463   1.424  17.118 -0.7374  0.7798 -0.3492
  842MPD2    C412374   4.564   1.520  17.123  0.0261  0.8578  0.7577
  842MPD2    C512375   4.576   1.609  17.019  0.0171 -0.3597 -0.0120
  842MPD2     H12376   4.291   1.350  17.007 -0.9264  0.7611 -0.6027
  842MPD2    H112377   4.637   1.522  17.203  1.0470  1.5407 -0.2037
  842MPD2    H212378   4.503   1.672  16.829  1.5023  0.3712  0.8419
  842MPD2    H312379   4.652   1.687  17.021  0.9367 -1.2710  0.0716
  842MPD2     N12380   4.452   1.342  17.233  0.5784 -0.7432  0.0151
  842MPD2    H512381   4.501   1.391  17.307 -0.3036  0.7257 -0.3681
  842MPD2    N112382   4.285   1.529  16.817  0.3993  0.4250  0.4326
  842MPD2    H712383   4.285   1.612  16.758 -2.9568  0.1309  0.0189
  843MPD2     C12384   1.055   0.483  17.582 -0.2835  0.0429 -0.5824
  843MPD2    C112385   1.134   0.465  17.691 -0.4917  0.1618  0.4859
  843MPD2    C212386   1.264   0.496  17.687  0.0373  0.4935 -0.3956
  843MPD2    C312387   1.325   0.553  17.574  1.2142 -0.7202 -0.2976
  843MPD2    C412388   1.240   0.575  17.465  0.0351  0.3046 -0.2166
  843MPD2    C512389   1.109   0.545  17.474  0.1347  0.6270 -0.2393
  843MPD2     H12390   1.323   0.466   0.076 -2.0318  0.6321  1.0555
  843MPD2    H112391   1.276   0.634  17.381 -0.5181  1.5234  0.4051
  843MPD2    H212392   0.947   0.484  17.587 -0.2309 -0.5379  0.7573
  843MPD2    H312393   1.035   0.578  17.402 -2.4933 -1.9812  1.2586
  843MPD2     N12394   1.458   0.596  17.565 -0.1452  0.3818 -0.2073
  843MPD2    H512395   1.482   0.652  17.484 -0.0412  0.7548  0.0829
  843MPD2    N112396   1.071   0.408   0.111 -0.0347  0.5044  0.4326
  843MPD2    H712397   0.972   0.387   0.107 -0.3314  1.6169  2.1602
  844MPD2     C12398   4.467   0.981  16.400  0.3213 -0.1620  0.5000
  844MPD2    C112399   4.525   0.867  16.437 -0.5514 -0.2668 -0.3805
  844MPD2    C212400   4.638   0.873  16.515 -0.4436 -0.1625  0.3755
  844MPD2    C312401   4.701   0.991  16.547 -0.1937  1.2779  0.8601
  844MPD2    C412402   4.640   1.109  16.497  0.2662  0.6490 -0.0318
  844MPD2    C512403   4.519   1.098  16.438 -0.5832  0.2206  0.1539
  844MPD2     H12404   4.689   0.779  16.533 -0.5286  0.3146  3.1560
  844MPD2    H112405   4.687   1.206  16.509  1.4724 -0.1548  1.6941
  844MPD2    H212406   4.376   0.991  16.341  0.2529 -2.0259  0.3037
  844MPD2    H312407   4.471   1.193  16.419 -0.8004  0.3681  1.4536
  844MPD2     N12408   0.098   0.987  16.627 -0.0170 -0.0335 -0.0707
  844MPD2    H512409   0.118   0.901  16.678 -3.0429 -0.6323  0.0675
  844MPD2    N112410   4.473   0.753  16.369  0.3909  0.2667  0.2825
  844MPD2    H712411   4.403   0.766  16.297 -0.7100  1.9612  1.6833
  845MPD2     C12412   0.448   1.791  17.093  0.4078  0.0284  0.1691
  845MPD2    C112413   0.334   1.740  17.139  0.0588  0.1813 -0.0157
  845MPD2    C212414   0.322   1.603  17.117 -0.3999  0.0352  0.3255
  845MPD2    C312415   0.423   1.528  17.047  0.3663 -0.5819  0.1876
  845MPD2    C412416   0.543   1.582  17.014  0.3907 -0.0718  0.1306
  845MPD2    C512417   0.549   1.714  17.039  0.2557  0.2338 -0.1029
  845MPD2     H12418   0.223   1.564  17.138 -0.6775  0.5751  0.0194
  845MPD2    H112419   0.627   1.529  16.972 -0.9412 -1.7854 -0.3710
  845MPD2    H212420   0.463   1.898  17.097  2.8964 -0.2954 -0.1969
  845MPD2    H312421   0.637   1.765  17.001  0.4524 -0.3542 -0.4428
  845MPD2     N12422   0.390   1.390  17.022  0.2095 -0.4532 -0.6136
  845MPD2    H512423   0.295   1.363  17.042 -0.2675  0.1038 -2.1270
  845MPD2    N112424   0.229   1.823  17.197  0.1050 -0.1103 -0.2318
  845MPD2    H712425   0.229   1.925  17.188  0.2503  0.0303  1.3372
  846MPD2     C12426   1.576   2.390  13.315 -0.0098  0.3736  0.6465
  846MPD2    C112427   1.529   2.505  13.378  0.5895  0.2311  0.8441
  846MPD2    C212428   1.487   2.497  13.505 -0.2173 -0.3663  0.5748
  846MPD2    C312429   1.505   2.384  13.589  0.1519 -0.1800 -0.0010
  846MPD2    C412430   1.562   2.275  13.532  0.0513  0.2685 -0.2268
  846MPD2    C512431   1.589   2.276  13.396  0.7859  0.3227 -0.0058
  846MPD2     H12432   1.439   2.587  13.541  1.3557  0.6387  0.1805
  846MPD2    H112433   1.581   2.177  13.573 -2.5462 -0.3491 -0.5432
  846MPD2    H212434   1.617   2.391  13.215  0.1563  0.6154  0.7182
  846MPD2    H312435   1.642   2.192  13.353  0.4977 -0.0892  0.4388
  846MPD2     N12436   1.462   2.389  13.723 -0.1017 -0.5448 -0.3139
  846MPD2    H512437   1.414   2.471  13.759 -0.8348 -0.5751 -1.2128
  846MPD2    N112438   1.519   2.629  13.308  0.3391 -0.1891 -0.0425
  846MPD2    H712439   1.487   2.707  13.365 -0.7760  0.0220 -0.9626
  847MPD2     C12440   1.159   3.206  13.761  0.4309  0.2041 -0.1997
  847MPD2    C112441   1.224   3.220  13.879  0.0063 -0.6629  0.4057
  847MPD2    C212442   1.346   3.155  13.903 -0.3400  0.7855 -0.2776
  847MPD2    C312443   1.422   3.106  13.795  0.3408 -0.4622  0.6776
  847MPD2    C412444   1.362   3.097  13.671  0.7095 -0.2644 -0.0181
  847MPD2    C512445   1.234   3.147  13.662  0.2525  0.0016  0.2681
  847MPD2     H12446   1.391   3.161  14.001  0.0205 -0.7589 -0.3441
  847MPD2    H112447   1.408   3.068  13.577  1.1566  1.2602 -0.2658
  847MPD2    H212448   1.057   3.238  13.741  0.6524  1.6522  0.9571
  847MPD2    H312449   1.188   3.144  13.565  0.4484 -2.2292  0.2508
  847MPD2     N12450   1.563   3.068  13.800  0.0848 -0.3775  0.3346
  847MPD2    H512451   1.612   3.053  13.713 -2.6619 -0.8497 -1.1116
  847MPD2    N112452   1.175   3.300  13.985 -0.6670  0.4044  0.4087
  847MPD2    H712453   1.219   3.302  14.077  1.0624  1.3019 -0.4316
  848MPD2     C12454   0.140   1.518  16.458 -0.5084  0.0152 -0.2152
  848MPD2    C112455   0.018   1.531  16.519  0.6845  0.3384  0.4720
  848MPD2    C212456   4.670   1.646  16.495 -0.1605 -0.4768  0.1789
  848MPD2    C312457   4.710   1.726  16.389  0.2301 -0.7003 -0.2624
  848MPD2    C412458   0.111   1.707  16.325 -0.3466 -0.3371  0.0989
  848MPD2    C512459   0.193   1.615  16.385  0.5991  0.6702 -0.0775
  848MPD2     H12460   4.571   1.661  16.536 -1.1754 -1.2108 -2.0154
  848MPD2    H112461   0.154   1.787  16.266 -3.8486  0.0849 -1.8410
  848MPD2    H212462   0.204   1.431  16.451 -0.1358  0.2335  0.4715
  848MPD2    H312463   0.294   1.600  16.349 -0.6044 -0.4519 -2.9881
  848MPD2     N12464   4.634   1.838  16.363 -0.5956  0.0027 -0.1548
  848MPD2    H512465   4.553   1.854  16.423  0.0703 -1.5047  1.1654
  848MPD2    N112466   4.702   1.428  16.616 -0.6298 -0.1951 -0.5253
  848MPD2    H712467   0.047   1.359  16.647 -1.5660 -0.4435  0.9971
  849MPD2     C12468   3.362   1.460  13.906  0.1340  0.1956  0.3852
  849MPD2    C112469   3.459   1.395  13.850 -0.1642 -0.1779  0.5905
  849MPD2    C212470   3.539   1.320  13.926  0.6056 -0.3161  0.1335
  849MPD2    C312471   3.509   1.289  14.057 -0.1908 -0.6058 -0.1152
  849MPD2    C412472   3.392   1.332  14.107  0.2995 -0.0748 -0.7598
  849MPD2    C512473   3.323   1.424  14.034  1.0839 -0.5499 -0.4834
  849MPD2     H12474   3.636   1.288  13.888  0.5162 -2.6830  1.9232
  849MPD2    H112475   3.352   1.317  14.207  1.9300  3.9568  0.5065
  849MPD2    H212476   3.302   1.533  13.854 -1.6289 -2.3188 -1.0664
  849MPD2    H312477   3.237   1.474  14.078  1.1683 -0.1276 -0.7954
  849MPD2     N12478   3.607   1.221  14.129 -0.2379 -0.5419 -0.8560
  849MPD2    H512479   3.692   1.207  14.074  0.3809  1.6162 -0.4444
  849MPD2    N112480   3.482   1.428  13.717  0.1871  0.3672  0.1374
  849MPD2    H712481   3.432   1.509  13.682  0.6091  1.7793  2.8693
  850MPD2     C12482   1.542   3.950  14.312  0.3846 -0.3767 -0.1200
  850MPD2    C112483   1.519   4.005  14.433 -0.1493 -0.2352  0.0381
  850MPD2    C212484   1.623   4.081  14.498  0.0697 -0.2760 -0.1471
  850MPD2    C312485   1.754   4.067  14.446 -0.3374 -0.1003  0.6788
  850MPD2    C412486   1.775   4.012  14.321 -0.8018  0.5567 -0.3045
  850MPD2    C512487   1.670   3.949  14.260  0.2451 -0.5867 -0.2084
  850MPD2     H12488   1.606   4.116  14.600 -2.4784 -2.6159  0.2283
  850MPD2    H112489   1.870   4.016  14.270  0.0169  0.1630  1.1736
  850MPD2    H212490   1.464   3.900  14.256 -0.8204 -0.0066  1.2369
  850MPD2    H312491   1.694   3.906  14.164  0.1939  1.2390 -1.0281
  850MPD2     N12492   1.866   4.112  14.519 -0.1809 -0.4454  0.5218
  850MPD2    H512493   1.953   4.078  14.479  0.5448  0.7627  1.0759
  850MPD2    N112494   1.397   3.986  14.495 -0.1911 -0.2937 -0.1838
  850MPD2    H712495   1.337   3.907  14.474 -1.8379  1.4315 -1.9356
  851MPD2     C12496   1.806   3.969  15.024 -0.2754 -0.2877  0.1434
  851MPD2    C112497   1.752   3.868  14.948  0.4140 -0.3312 -0.9058
  851MPD2    C212498   1.840   3.775  14.894 -0.1046  0.7887 -0.4486
  851MPD2    C312499   1.973   3.787  14.912 -0.8283 -0.0391  0.4749
  851MPD2    C412500   2.026   3.890  14.993  0.2811 -0.7077 -0.1652
  851MPD2    C512501   1.938   3.984  15.039  1.0308  0.2391 -0.2071
  851MPD2     H12502   1.802   3.689  14.839  1.1263 -1.7168  2.5728
  851MPD2    H112503   2.131   3.908  15.011 -0.2341  0.0249  2.1046
  851MPD2    H212504   1.748   4.045  15.075  0.6492  0.0551  0.6805
  851MPD2    H312505   1.971   4.056  15.113  0.5394 -0.6602  0.8833
  851MPD2     N12506   2.062   3.697  14.853  0.4137 -0.1571  0.1889
  851MPD2    H512507   2.013   3.630  14.795  0.5759  1.1020 -1.4011
  851MPD2    N112508   1.613   3.873  14.945 -0.6928 -0.4551 -0.3261
  851MPD2    H712509   1.566   3.961  14.967  1.3008  0.5383 -0.0106
  852MPD2     C12510   1.060   1.999  10.074 -0.2197  0.4828 -1.1877
  852MPD2    C112511   1.102   2.071  10.184  0.7102 -0.3277  1.1453
  852MPD2    C212512   1.201   2.163  10.168 -0.7010  0.5207  0.6904
  852MPD2    C312513   1.251   2.200  10.047  0.4580 -0.5398  0.0973
  852MPD2    C412514   1.196   2.134   9.936  0.4336  0.0198  0.4709
  852MPD2    C512515   1.111   2.030   9.950 -0.7112  0.7764 -0.3114
  852MPD2     H12516   1.249   2.196  10.260  0.8214  0.4589 -0.0827
  852MPD2    H112517   1.218   2.153   9.832 -1.2852 -1.4363 -0.1748
  852MPD2    H212518   0.999   1.911  10.089 -0.4068  0.5442 -1.6075
  852MPD2    H312519   1.094   1.972   9.859 -1.3547 -0.7947  0.8208
  852MPD2     N12520   1.372   2.273  10.037 -0.1695  0.6337 -0.1820
  852MPD2    H512521   1.407   2.300  10.129 -2.8887  1.9086  0.4783
  852MPD2    N112522   1.070   2.031  10.318 -0.7362 -0.3749  0.4042
  852MPD2    H712523   1.122   2.081  10.390  1.0238  0.3140 -1.3427
  853MPD2     C12524   3.668   2.014  11.917 -0.2972  0.0615  0.1398
  853MPD2    C112525   3.542   2.035  11.883  0.3616  0.2757  1.2126
  853MPD2    C212526   3.505   2.024  11.743 -0.2733  0.1052 -0.3746
  853MPD2    C312527   3.596   1.984  11.647 -0.5581 -0.9199  0.0103
  853MPD2    C412528   3.723   1.944  11.690 -0.0254 -0.6051 -0.3952
  853MPD2    C512529   3.751   1.972  11.822  0.1533  0.0205  0.0749
  853MPD2     H12530   3.405   2.057  11.717  1.1591  3.6007 -1.3924
  853MPD2    H112531   3.799   1.905  11.622  2.1928 -0.7179  2.1817
  853MPD2    H212532   3.709   2.019  12.017  0.4001  2.2431 -0.2476
  853MPD2    H312533   3.851   1.946  11.857  0.7411 -0.7833 -2.1681
  853MPD2     N12534   3.564   1.970  11.509  0.4603 -0.5920  0.3943
  853MPD2    H512535   3.641   1.935  11.453 -0.8582 -0.6785 -1.3279
  853MPD2    N112536   3.459   2.090  11.989  0.3980 -0.1355  0.1439
  853MPD2    H712537   3.506   2.098  12.079  0.6669 -1.8376  0.1634
  854MPD2     C12538   0.456   2.446  12.821 -0.1937  0.1902 -0.6484
  854MPD2    C112539   0.463   2.327  12.758 -0.3174  0.2052 -0.0722
  854MPD2    C212540   0.570   2.245  12.777  0.3065  0.2623  0.3060
  854MPD2    C312541   0.666   2.277  12.876  0.3164 -0.1415 -0.9763
  854MPD2    C412542   0.662   2.401  12.936  0.5315 -0.1703  0.3550
  854MPD2    C512543   0.555   2.485  12.912  0.1299  0.1391 -0.2477
  854MPD2     H12544   0.581   2.154  12.718 -0.2243  1.6157 -1.8957
  854MPD2    H112545   0.736   2.443  13.003  0.2584  0.5237  0.2245
  854MPD2    H212546   0.374   2.513  12.797 -0.1627 -0.0503 -1.4154
  854MPD2    H312547   0.544   2.579  12.965  0.9135  0.5962 -0.8926
  854MPD2     N12548   0.775   2.194  12.901  0.5711 -0.3411  0.0152
  854MPD2    H512549   0.849   2.222  12.965  0.5267  0.9941 -0.5179
  854MPD2    N112550   0.375   2.285  12.659 -1.0461 -0.2497 -0.0387
  854MPD2    H712551   0.381   2.187  12.634  0.6470  0.0652 -0.9185
  855MPD2     C12552   0.800   2.009  13.662 -0.2254 -0.3430 -0.6333
  855MPD2    C112553   0.899   1.915  13.629 -0.6325  0.8995  1.0028
  855MPD2    C212554   0.963   1.921  13.510 -0.1638  0.3683  0.4885
  855MPD2    C312555   0.926   2.017  13.419 -0.8560  0.2103 -0.6787
  855MPD2    C412556   0.826   2.105  13.449 -0.1379  1.1557 -0.9172
  855MPD2    C512557   0.763   2.096  13.566  0.2241 -0.4769 -0.0795
  855MPD2     H12558   1.044   1.849  13.499  1.9066  2.7354  0.1559
  855MPD2    H112559   0.786   2.173  13.374 -2.7711 -0.0459 -0.6063
  855MPD2    H212560   0.748   2.024  13.756 -0.8542 -2.1422 -0.6847
  855MPD2    H312561   0.690   2.172  13.593 -1.9192 -1.6292 -2.5728
  855MPD2     N12562   0.981   2.021  13.285  0.7773  0.0506  0.1715
  855MPD2    H512563   0.961   2.104  13.231 -0.0387  1.5336  2.7294
  855MPD2    N112564   0.951   1.817  13.715 -0.0076 -0.2962  0.4648
  855MPD2    H712565   1.029   1.763  13.679  1.3691  1.0751  1.3793
  856MPD2     C12566   2.271   2.668  13.666 -0.0374 -0.4917 -0.2000
  856MPD2    C112567   2.385   2.743  13.661  0.2204 -0.5018 -0.7739
  856MPD2    C212568   2.382   2.886  13.677 -0.3549 -0.4407  0.1339
  856MPD2    C312569   2.262   2.943  13.703  0.2306  0.7202  0.5700
  856MPD2    C412570   2.148   2.861  13.701 -0.1935 -0.1011 -0.1249
  856MPD2    C512571   2.149   2.728  13.692 -0.6165 -0.2526 -0.2199
  856MPD2     H12572   2.476   2.935  13.701 -0.5478  0.3590 -0.7650
  856MPD2    H112573   2.047   2.895  13.721  0.1574 -1.0304  3.1440
  856MPD2    H212574   2.274   2.563  13.638  1.1058 -0.4443 -0.2377
  856MPD2    H312575   2.057   2.670  13.694  0.5165 -2.0184  0.7429
  856MPD2     N12576   2.248   3.087  13.738 -0.1013 -0.5063 -0.1975
  856MPD2    H512577   2.156   3.128  13.726  0.6427  1.2652  0.2385
  856MPD2    N112578   2.512   2.681  13.638 -0.5843 -0.2021  0.1511
  856MPD2    H712579   2.510   2.580  13.627 -1.5685 -0.0937 -0.7137
  857MPD2     C12580   4.015   0.286  13.024 -0.1162  0.2427 -1.3787
  857MPD2    C112581   4.134   0.255  12.975 -0.0197 -0.0367  0.0666
  857MPD2    C212582   4.238   0.343  13.004 -0.1655  0.1342  0.1147
  857MPD2    C312583   4.215   0.451  13.091 -0.0412 -0.3059  0.9346
  857MPD2    C412584   4.100   0.466  13.158  0.4381  0.2929  0.2893
  857MPD2    C512585   3.996   0.383  13.118  0.6307 -0.0462 -0.3789
  857MPD2     H12586   4.339   0.320  12.971  0.1446  2.1918 -0.3587
  857MPD2    H112587   4.087   0.530  13.244 -0.9092  0.6990 -0.2173
  857MPD2    H212588   3.933   0.221  12.998 -0.0080 -1.4297  2.5345
  857MPD2    H312589   3.897   0.384  13.163  1.3680  1.5239  1.2097
  857MPD2     N12590   4.314   0.542  13.112 -0.3250  0.4476 -0.0543
  857MPD2    H512591   4.399   0.538  13.058 -1.3465  3.9030 -1.9243
  857MPD2    N112592   4.152   0.142  12.901  0.0043 -0.6221 -0.2216
  857MPD2    H712593   4.070   0.083  12.887  1.4677 -2.3550 -1.4763
  858MPD2     C12594   0.353   3.856  16.520  0.5488  0.1257 -0.0743
  858MPD2    C112595   0.335   3.743  16.593  0.0803  0.3330  0.6393
  858MPD2    C212596   0.331   3.752  16.731 -0.3265 -0.3887 -0.3298
  858MPD2    C312597   0.352   3.876  16.792 -0.0402  0.1056 -0.3540
  858MPD2    C412598   0.378   3.990  16.717  0.1289 -0.2403 -0.0335
  858MPD2    C512599   0.373   3.980  16.579  0.2939  0.8805 -0.6656
  858MPD2     H12600   0.335   3.668  16.801 -0.3235 -1.7146 -1.9222
  858MPD2    H112601   0.407   4.082  16.765 -0.1523  0.3143 -0.9398
  858MPD2    H212602   0.372   3.854  16.413 -0.2153 -0.3533 -0.2007
  858MPD2    H312603   0.392   4.070  16.522  2.4914  2.8505  3.1661
  858MPD2     N12604   0.375   3.893  16.932  0.3925  0.6057 -0.0572
  858MPD2    H512605   0.400   3.989  16.954 -1.5235  0.7348  1.5240
  858MPD2    N112606   0.309   3.625  16.527 -0.9595  1.1706 -0.4039
  858MPD2    H712607   0.338   3.629  16.430  1.0950  1.3594  0.2050
  859MPD2     C12608   3.381   1.128  15.056  0.1117  0.4183  0.2885
  859MPD2    C112609   3.518   1.123  15.052  0.4351 -0.4353 -0.3126
  859MPD2    C212610   3.574   1.002  15.051 -0.7175  0.0303 -0.3365
  859MPD2    C312611   3.498   0.890  15.061  0.8353  0.1890  0.0173
  859MPD2    C412612   3.361   0.904  15.063 -0.3055 -0.1455  0.4682
  859MPD2    C512613   3.302   1.025  15.057 -0.1868  0.2845  0.2299
  859MPD2     H12614   3.682   0.989  15.044 -0.5188  1.7196 -0.2278
  859MPD2    H112615   3.294   0.819  15.067 -0.2624 -0.1566  0.9029
  859MPD2    H212616   3.337   1.226  15.039  0.3046  0.6747  1.2985
  859MPD2    H312617   3.196   1.045  15.061 -0.1266  0.7676 -0.5089
  859MPD2     N12618   3.542   0.757  15.058  0.1537 -0.1570  0.1974
  859MPD2    H512619   3.470   0.693  15.091  1.0218  0.2583  2.8494
  859MPD2    N112620   3.588   1.246  15.054 -0.2970 -0.4649 -0.4360
  859MPD2    H712621   3.537   1.334  15.051 -0.1040 -0.3329  0.2599
  860MPD2     C12622   1.524   1.922  11.381  0.3041  0.6291 -0.0230
  860MPD2    C112623   1.539   1.939  11.519 -0.1510 -0.2509  0.3300
  860MPD2    C212624   1.454   1.866  11.606 -0.0080  0.0939 -0.4260
  860MPD2    C312625   1.352   1.794  11.555 -0.2326  0.0213 -0.4243
  860MPD2    C412626   1.327   1.790  11.419  0.2948  0.0558 -0.1153
  860MPD2    C512627   1.414   1.850  11.335 -0.0479 -0.4142  0.0018
  860MPD2     H12628   1.481   1.860  11.710 -0.6714 -0.3938 -0.2808
  860MPD2    H112629   1.248   1.727  11.378 -0.8276  1.5562 -0.2607
  860MPD2    H212630   1.582   1.967  11.302  1.3212  0.5428  0.6761
  860MPD2    H312631   1.398   1.860  11.228  0.3939 -0.1021 -0.0368
  860MPD2     N12632   1.269   1.726  11.657  0.9207  0.0360  0.0688
  860MPD2    H512633   1.306   1.719  11.751 -0.7332  2.7579  0.9168
  860MPD2    N112634   1.647   2.006  11.580 -0.8555 -0.4646 -0.1184
  860MPD2    H712635   1.662   1.988  11.679  3.5805  1.1507 -0.4701
  861MPD2     C12636   0.077   0.018  10.995  0.1664 -0.4969  0.0679
  861MPD2    C112637   4.682   0.054  11.050 -0.2923  0.6919 -0.8045
  861MPD2    C212638   4.570   0.097  10.973 -0.5468  0.3354 -0.2120
  861MPD2    C312639   4.579   0.094  10.836  0.5333  0.8828 -0.4845
  861MPD2    C412640   4.703   0.059  10.781  0.1276 -0.3859  0.4969
  861MPD2    C512641   0.087   0.020  10.856  0.1030  0.3551  0.0367
  861MPD2     H12642   4.480   0.135  11.019  0.4987 -0.2702  2.3317
  861MPD2    H112643   4.713   0.062  10.674  1.8515  0.4871  0.6648
  861MPD2    H212644   0.162   4.702  11.048 -1.9279  0.2969  4.0093
  861MPD2    H312645   0.170   4.700  10.800 -0.3876 -0.1649 -0.2841
  861MPD2     N12646   4.486   0.145  10.740  0.7483  0.0325 -0.0135
  861MPD2    H512647   4.522   0.154  10.646  2.8811 -1.6594  0.6459
  861MPD2    N112648   4.674   0.065  11.190  0.5600  0.5860 -0.1707
  861MPD2    H712649   4.582   0.087  11.225 -0.6708  0.8952 -3.6013
  862MPD2     C12650   4.192   0.327  10.109  0.0636  0.0681  0.2660
  862MPD2    C112651   4.276   0.252  10.183 -0.5759  0.1657 -0.1053
  862MPD2    C212652   4.306   0.123  10.150 -0.3838  0.4411 -0.0338
  862MPD2    C312653   4.256   0.070  10.034 -0.6205  0.1177 -0.0357
  862MPD2    C412654   4.181   0.150   9.948 -0.2137  0.5298 -0.1584
  862MPD2    C512655   4.142   0.274   9.991 -1.2482 -0.4401  1.0284
  862MPD2     H12656   4.363   0.061  10.219  0.9476 -1.4837 -2.8460
  862MPD2    H112657   4.143   0.107   9.856  1.3664  1.3093 -1.1817
  862MPD2    H212658   4.168   0.428  10.140 -0.6577 -0.3667  1.1310
  862MPD2    H312659   4.072   0.333   9.935  0.8955 -0.1972 -1.3893
  862MPD2     N12660   4.268   4.661   9.997 -0.7285 -0.2834 -0.2825
  862MPD2    H512661   4.249   4.638   9.900  1.9732 -0.8981 -0.6697
  862MPD2    N112662   4.353   0.306  10.292 -0.2227 -0.0448 -0.0614
  862MPD2    H712663   4.411   0.237  10.339 -1.3746 -0.1148  1.2743
  863MPD2     C12664   3.558   2.201  16.724 -0.3890 -0.0715 -0.9088
  863MPD2    C112665   3.447   2.186  16.808 -1.2659 -0.0657 -0.3722
  863MPD2    C212666   3.454   2.199  16.938  0.0669 -0.0728  0.3729
  863MPD2    C312667   3.573   2.231  16.997  0.3845  0.5229  0.2674
  863MPD2    C412668   3.687   2.246  16.920  0.3341 -0.0538 -0.7049
  863MPD2    C512669   3.685   2.224  16.784 -1.2743 -0.3486 -0.1884
  863MPD2     H12670   3.361   2.189  16.994  0.8559 -2.0873  1.2979
  863MPD2    H112671   3.784   2.278  16.957  0.8136  1.4542 -3.2757
  863MPD2    H212672   3.541   2.191  16.617 -0.2233  0.6759 -1.0013
  863MPD2    H312673   3.774   2.227  16.724 -0.7388  0.2412  0.6382
  863MPD2     N12674   3.589   2.258  17.139  0.7245  0.2568 -0.2596
  863MPD2    H512675   3.676   2.299  17.172  0.1191  2.0962 -0.9452
  863MPD2    N112676   3.323   2.161  16.743  0.1440 -0.2134 -0.3437
  863MPD2    H712677   3.333   2.163  16.642 -1.0411 -2.3912 -0.5068
  864MPD2     C12678   3.803   3.768  17.497 -0.7036 -0.3708  0.2610
  864MPD2    C112679   3.774   3.721  17.375 -0.6775 -0.1509  0.5090
  864MPD2    C212680   3.817   3.779  17.262  0.4570 -0.5538  0.0694
  864MPD2    C312681   3.888   3.901  17.270  0.6589  0.1783  0.6569
  864MPD2    C412682   3.900   3.955  17.394 -0.3988 -0.1417 -0.3186
  864MPD2    C512683   3.862   3.889  17.508 -0.1613 -0.0919 -0.0411
  864MPD2     H12684   3.794   3.732  17.168  3.3791 -1.9210  0.0176
  864MPD2    H112685   3.953   4.049  17.404  2.1409 -1.8309  2.1333
  864MPD2    H212686   3.772   3.730  17.593 -0.0103  0.3078  0.7488
  864MPD2    H312687   3.882   3.937  17.603 -1.1110 -0.9683  0.5999
  864MPD2     N12688   3.944   3.966  17.160 -0.3343  0.7094 -0.7584
  864MPD2    H512689   3.980   4.060  17.170  0.0010  0.6310 -1.2122
  864MPD2    N112690   3.705   3.599  17.380  0.0829  0.0801  1.0802
  864MPD2    H712691   3.699   3.556  17.472 -2.2902 -1.2822  0.2956
  865MPD2     C12692   4.032   4.195  16.328  0.6718 -0.1850 -0.4565
  865MPD2    C112693   4.025   4.108  16.438  0.2342 -0.1808 -0.6357
  865MPD2    C212694   4.015   4.155  16.567  0.7252  0.7420  0.6314
  865MPD2    C312695   4.006   4.296  16.583 -0.1853  0.4203 -0.1044
  865MPD2    C412696   4.017   4.374  16.476 -1.1867 -0.2494  0.5311
  865MPD2    C512697   4.019   4.328  16.349  0.4218 -0.1617 -0.5223
  865MPD2     H12698   3.993   4.083  16.645  2.1899 -3.0090 -2.3860
  865MPD2    H112699   4.006   4.481  16.487  0.2606  0.0102 -0.5808
  865MPD2    H212700   4.048   4.161  16.226  0.4268 -0.3551 -0.4385
  865MPD2    H312701   4.021   4.396  16.264 -1.2844 -0.5272 -0.8658
  865MPD2     N12702   4.004   4.371  16.706 -0.0747  0.5834 -0.1712
  865MPD2    H512703   3.980   4.470  16.698  0.5512  0.6965 -0.7103
  865MPD2    N112704   4.033   3.972  16.409  0.5891 -0.4380 -0.5228
  865MPD2    H712705   4.037   3.941  16.313 -0.3496 -0.3635 -0.5946
  866MPD2     C12706   0.701   0.430  11.436 -0.5048 -0.6553 -0.0025
  866MPD2    C112707   0.684   0.351  11.324 -0.0535 -0.1673 -0.2978
  866MPD2    C212708   0.554   0.332  11.275 -0.2547  0.6229 -0.2465
  866MPD2    C312709   0.445   0.394  11.341  0.4898 -0.1290  0.8882
  866MPD2    C412710   0.468   0.451  11.466  0.1785 -0.8767  0.1742
  866MPD2    C512711   0.594   0.475  11.506 -0.0810 -0.1600 -0.1153
  866MPD2     H12712   0.544   0.257  11.197  2.2687 -0.2913  0.2896
  866MPD2    H112713   0.383   0.490  11.521 -0.5216 -0.8557 -0.9443
  866MPD2    H212714   0.797   0.438  11.484 -1.2056  0.2720  1.2443
  866MPD2    H312715   0.612   0.517  11.604  0.0281  2.7505 -1.3776
  866MPD2     N12716   0.311   0.388  11.286 -0.5256 -0.2279  0.5445
  866MPD2    H512717   0.246   0.449  11.334 -0.0820  0.8789 -0.2601
  866MPD2    N112718   0.802   0.298  11.262 -0.1883 -0.0767 -0.5209
  866MPD2    H712719   0.894   0.337  11.283  0.4393 -1.0602 -1.4587
  867MPD2     C12720   2.425   3.360  16.705 -0.5866  0.2126 -0.2557
  867MPD2    C112721   2.544   3.403  16.764  0.3375  0.1077 -0.0691
  867MPD2    C212722   2.588   3.533  16.734  0.1367  0.3767  0.1994
  867MPD2    C312723   2.513   3.616  16.650 -0.4032 -0.9603  0.9004
  867MPD2    C412724   2.390   3.565  16.607 -0.9170 -0.7524 -0.2970
  867MPD2    C512725   2.353   3.438  16.625 -0.4688  0.2680  0.3480
  867MPD2     H12726   2.678   3.578  16.774  1.1761 -3.5387  2.3556
  867MPD2    H112727   2.329   3.621  16.537  0.9026  1.8388  0.2039
  867MPD2    H212728   2.398   3.255  16.703  0.1975 -0.0460  2.3368
  867MPD2    H312729   2.259   3.409  16.579 -1.3368  1.4703  1.3768
  867MPD2     N12730   2.554   3.746  16.611 -0.2533  0.4220  0.1706
  867MPD2    H512731   2.640   3.774  16.657  0.9453 -0.7310 -1.4004
  867MPD2    N112732   2.619   3.309  16.841  0.3702 -0.9079  0.0907
  867MPD2    H712733   2.580   3.216  16.851 -0.1515 -0.8823 -1.5649
  868MPD2     C12734   4.249   3.155  12.462  0.5212  0.4122  0.2314
  868MPD2    C112735   4.215   3.136  12.590  0.6366  0.9363  0.1647
  868MPD2    C212736   4.083   3.123  12.625 -0.3588  0.7586  0.4698
  868MPD2    C312737   3.987   3.127  12.532  0.2923  0.0357  0.4789
  868MPD2    C412738   4.018   3.150  12.401 -0.0132  0.3407 -0.0063
  868MPD2    C512739   4.150   3.157  12.366 -0.2511 -0.3015  0.2325
  868MPD2     H12740   4.057   3.105  12.729 -1.0243  2.0434  0.5301
  868MPD2    H112741   3.947   3.152  12.319 -0.6116 -0.4557  0.4882
  868MPD2    H212742   4.353   3.147  12.435  0.4986 -0.4417  0.3744
  868MPD2    H312743   4.174   3.194  12.267  0.9883  1.3309  1.1486
  868MPD2     N12744   3.851   3.111  12.571 -0.9542 -0.3163  0.1752
  868MPD2    H512745   3.842   3.083  12.668  1.5702 -0.4013  0.3959
  868MPD2    N112746   4.326   3.144  12.679 -0.7655 -0.2013  0.1801
  868MPD2    H712747   4.413   3.159  12.630 -0.1350  0.4513  1.4857
  869MPD2     C12748   1.770   1.005   1.607  0.0333  0.3768 -0.6648
  869MPD2    C112749   1.677   0.968   1.698  0.3181 -0.4720 -1.0579
  869MPD2    C212750   1.552   0.915   1.666  0.4186  0.4359  0.0658
  869MPD2    C312751   1.526   0.885   1.537  0.5663  0.6176 -0.3928
  869MPD2    C412752   1.614   0.926   1.441 -0.5456  0.3806  0.0273
  869MPD2    C512753   1.735   0.983   1.475  0.2486  0.0252  0.0421
  869MPD2     H12754   1.489   0.864   1.738  0.4923 -0.8445 -0.7719
  869MPD2    H112755   1.587   0.901   1.339  0.7971  0.1379 -0.2724
  869MPD2    H212756   1.867   1.042   1.638 -0.8813  1.4470  0.9426
  869MPD2    H312757   1.810   1.015   1.403  0.6490 -0.3742  0.2825
  869MPD2     N12758   1.402   0.837   1.488 -0.0742  0.5139  0.2910
  869MPD2    H512759   1.394   0.832   1.387 -1.5655 -2.7501  0.5509
  869MPD2    N112760   1.725   0.976   1.829  0.1115 -0.2974 -0.3498
  869MPD2    H712761   1.818   1.015   1.838 -0.7639  1.3004  1.7847
  870MPD2     C12762   0.782   0.244   2.093  0.2693 -0.4902 -0.1072
  870MPD2    C112763   0.778   0.126   2.013  0.0223  0.1626 -0.7948
  870MPD2    C212764   0.723   0.127   1.886 -0.0134 -0.3091 -0.0682
  870MPD2    C312765   0.669   0.251   1.839  0.0750 -0.2309 -0.1547
  870MPD2    C412766   0.678   0.367   1.917 -1.0788  0.3104 -0.1682
  870MPD2    C512767   0.721   0.357   2.046 -0.7887  0.3154 -0.3097
  870MPD2     H12768   0.711   0.040   1.823  1.2357 -1.1802  0.8842
  870MPD2    H112769   0.636   0.461   1.882 -1.1542 -0.3043 -1.7153
  870MPD2    H212770   0.821   0.247   2.194  1.1485 -0.6254 -0.4414
  870MPD2    H312771   0.717   0.447   2.106  2.7038 -1.3758  2.5047
  870MPD2     N12772   0.612   0.253   1.709 -0.8090  0.3736  0.0906
  870MPD2    H512773   0.615   0.166   1.656  0.2257 -0.2029  1.0883
  870MPD2    N112774   0.826   0.013   2.083  0.1612  0.5727  0.1263
  870MPD2    H712775   0.868   0.025   2.175 -1.0875  0.4546  0.7223
  871MPD2     C12776   1.568   4.275  16.290  0.1400  0.0943 -0.2580
  871MPD2    C112777   1.517   4.186  16.382  0.5844 -0.1771 -0.3216
  871MPD2    C212778   1.461   4.067  16.331  0.0248 -0.1702  0.0861
  871MPD2    C312779   1.437   4.051  16.194 -0.0427  0.3137 -0.4110
  871MPD2    C412780   1.475   4.151  16.108  0.3672 -0.1882 -0.0413
  871MPD2    C512781   1.555   4.256  16.154  0.2200  0.5233  0.0341
  871MPD2     H12782   1.443   3.988  16.404 -2.4488 -2.2249 -2.7882
  871MPD2    H112783   1.461   4.152  16.001 -2.7440 -0.3562  0.3598
  871MPD2    H212784   1.615   4.371  16.310  2.0741 -0.8008 -0.5071
  871MPD2    H312785   1.585   4.334  16.086  2.1965 -0.9623 -0.8044
  871MPD2     N12786   1.375   3.925  16.142 -0.1034  0.5247  0.3378
  871MPD2    H512787   1.375   3.844  16.204  0.8299  1.1041  1.0959
  871MPD2    N112788   1.529   4.227  16.512  0.0481  0.3245  0.2770
  871MPD2    H712789   1.574   4.317  16.526  2.9307 -1.4137  2.0641
  872MPD2     C12790   2.350   1.975  14.089  0.1723 -0.2182 -0.0078
  872MPD2    C112791   2.267   1.991  13.985 -0.1772 -0.6240  0.5432
  872MPD2    C212792   2.130   1.965  14.001  0.3257  0.1540 -0.3323
  872MPD2    C312793   2.084   1.916  14.125 -0.5138 -0.5416 -0.0147
  872MPD2    C412794   2.172   1.903  14.230  0.2122 -0.3761 -0.0928
  872MPD2    C512795   2.300   1.940  14.213 -0.5958  0.2409  0.6671
  872MPD2     H12796   2.067   1.963  13.913  1.8894  0.6489 -1.4638
  872MPD2    H112797   2.152   1.863  14.329 -1.0171 -2.2726 -1.1250
  872MPD2    H212798   2.455   2.002  14.091  0.0657 -0.0040  2.6946
  872MPD2    H312799   2.375   1.938  14.292  0.7746 -0.3304 -0.6439
  872MPD2     N12800   1.945   1.885  14.157  0.4147 -0.4046 -0.1027
  872MPD2    H512801   1.934   1.842  14.248  1.7443  0.9962  0.7247
  872MPD2    N112802   2.319   2.045  13.853 -0.1207 -0.1928 -0.3047
  872MPD2    H712803   2.255   2.030  13.775  1.8091 -0.8948 -1.7281
  873MPD2     C12804   4.485   1.638   0.739  0.0790  0.5753 -0.2214
  873MPD2    C112805   4.371   1.623   0.812  0.4667  0.0573 -0.1269
  873MPD2    C212806   4.323   1.488   0.839  0.7798  0.7499 -0.4284
  873MPD2    C312807   4.391   1.375   0.794 -0.3537  0.1149 -0.0513
  873MPD2    C412808   4.495   1.403   0.709  0.4491 -0.1589 -0.3250
  873MPD2    C512809   4.544   1.528   0.691  0.6342  0.0115 -0.2725
  873MPD2     H12810   4.242   1.472   0.909 -0.0567 -2.1652 -2.0913
  873MPD2    H112811   4.557   1.319   0.677  1.9078 -0.6997  4.0018
  873MPD2    H212812   4.541   1.730   0.729  0.2102  0.7005  1.5346
  873MPD2    H312813   4.635   1.543   0.634  0.8898 -2.2759 -0.4685
  873MPD2     N12814   4.354   1.239   0.815 -0.2722  0.2039  0.3502
  873MPD2    H512815   4.402   1.174   0.753  0.6677 -0.8321  2.1769
  873MPD2    N112816   4.310   1.740   0.851 -0.3477 -0.5722  0.0967
  873MPD2    H712817   4.362   1.826   0.837 -0.5591 -0.9235 -3.0625
  874MPD2     C12818   3.798   1.901  16.222 -0.1212  0.5650  0.0029
  874MPD2    C112819   3.917   1.862  16.279  0.6316 -0.4807 -0.6249
  874MPD2    C212820   4.034   1.928  16.245  0.3130  0.4825 -0.4535
  874MPD2    C312821   4.030   2.033  16.157 -0.2105  0.2672 -0.1182
  874MPD2    C412822   3.908   2.083  16.110  0.2101 -0.0716 -0.8050
  874MPD2    C512823   3.795   2.016  16.147 -0.8088 -0.4460  0.0383
  874MPD2     H12824   4.125   1.892  16.291  0.0579 -1.8207 -1.7768
  874MPD2    H112825   3.902   2.170  16.045 -0.2406  0.7290  0.2968
  874MPD2    H212826   3.705   1.850  16.246 -0.1126 -0.3372 -1.8545
  874MPD2    H312827   3.695   2.046  16.117  0.1442  3.2648  0.6011
  874MPD2     N12828   4.149   2.103  16.131  0.6771  0.2264 -0.3455
  874MPD2    H512829   4.159   2.195  16.088  2.1793  0.3297  0.2504
  874MPD2    N112830   3.923   1.760  16.377  0.0535  0.1134  0.2510
  874MPD2    H712831   3.847   1.693  16.380  1.5150 -1.5262  0.8171
  875MPD2     C12832   0.381   0.096  14.538 -0.3396 -0.4508  0.3902
  875MPD2    C112833   0.258   0.130  14.594 -0.3581  0.0820 -0.8546
  875MPD2    C212834   0.243   0.181  14.721  0.0451  0.3515  0.8275
  875MPD2    C312835   0.355   0.196  14.799 -0.1817 -0.0572  0.1298
  875MPD2    C412836   0.485   0.176  14.749  0.2528 -0.1063  0.0582
  875MPD2    C512837   0.491   0.113  14.622 -0.1011  0.5181  0.3793
  875MPD2     H12838   0.141   0.210  14.744 -0.7884 -1.8882  0.0234
  875MPD2    H112839   0.570   0.185  14.816  0.8246 -1.3431 -0.5067
  875MPD2    H212840   0.394   0.066  14.435 -0.6462 -0.5136  0.3692
  875MPD2    H312841   0.588   0.074  14.592 -0.7103 -0.8382  0.1953
  875MPD2     N12842   0.335   0.252  14.932 -0.5539  0.4209 -0.4242
  875MPD2    H512843   0.423   0.282  14.974 -2.2253  2.6130  1.4535
  875MPD2    N112844   0.138   0.122  14.517  0.9605  0.9966 -0.1214
  875MPD2    H712845   0.053   0.151  14.564  0.1236  0.0265 -1.0623
  876MPD2     C12846   4.295   1.638  16.263  0.5964  0.0035 -0.0758
  876MPD2    C112847   4.209   1.591  16.168  0.0784  0.4550  0.1555
  876MPD2    C212848   4.166   1.461  16.167  0.2412 -0.5667  0.0049
  876MPD2    C312849   4.185   1.375  16.270 -0.4294 -0.1939 -0.1805
  876MPD2    C412850   4.274   1.418  16.368  0.7702  0.5931 -0.0127
  876MPD2    C512851   4.333   1.547  16.359  0.4920  0.1179 -0.2303
  876MPD2     H12852   4.109   1.424  16.082 -2.6467  1.1212  1.1975
  876MPD2    H112853   4.295   1.363  16.459 -1.0603  1.5944  1.0160
  876MPD2    H212854   4.334   1.739  16.263  1.7630 -0.4621  3.1991
  876MPD2    H312855   4.392   1.570  16.446 -0.4987  1.1535  0.1688
  876MPD2     N12856   4.128   1.247  16.274 -0.1512 -0.6581  0.5502
  876MPD2    H512857   4.076   1.213  16.194 -0.3458  0.3661  0.2389
  876MPD2    N112858   4.167   1.675  16.069  0.1079 -0.0594  0.6279
  876MPD2    H712859   4.214   1.764  16.063 -2.0111  1.0265 -0.2119
  877MPD2     C12860   3.666   1.854  15.386  0.7737  0.0489  0.3038
  877MPD2    C112861   3.788   1.912  15.414  0.2281  0.2296  0.1774
  877MPD2    C212862   3.845   1.976  15.309 -0.0127 -0.6313  0.5499
  877MPD2    C312863   3.790   1.981  15.181 -0.1783  0.1170  0.0440
  877MPD2    C412864   3.666   1.935  15.163 -0.2725  0.3334  0.3753
  877MPD2    C512865   3.603   1.866  15.266  0.1291  0.7387  0.2730
  877MPD2     H12866   3.947   2.008  15.326  0.6861 -1.4574 -2.0926
  877MPD2    H112867   3.602   1.949  15.077  2.5992  1.7797 -1.5068
  877MPD2    H212868   3.615   1.796  15.463  0.4958 -1.4222 -0.9912
  877MPD2    H312869   3.510   1.815  15.244  1.7827 -2.2109  0.1677
  877MPD2     N12870   3.850   2.041  15.064 -0.3316  0.9259  0.3885
  877MPD2    H512871   3.808   2.034  14.972  0.7391  1.6079 -0.1392
  877MPD2    N112872   3.853   1.920  15.533  0.8767  0.1294  0.2945
  877MPD2    H712873   3.931   1.985  15.537  0.0507  1.0566  1.2884
  878MPD2     C12874   3.689   2.283  13.292 -0.4792  0.3170 -0.3147
  878MPD2    C112875   3.712   2.195  13.191 -0.2108  0.2207  0.4645
  878MPD2    C212876   3.727   2.058  13.227 -0.0517 -0.1269  1.3618
  878MPD2    C312877   3.698   2.010  13.353 -0.5159  0.2416  0.2490
  878MPD2    C412878   3.683   2.102  13.455 -0.2439 -0.3736  0.1241
  878MPD2    C512879   3.673   2.238  13.424  0.2250 -0.6152 -0.5575
  878MPD2     H12880   3.760   1.981  13.157  2.9787  1.4763  1.0385
  878MPD2    H112881   3.671   2.070  13.558 -2.7113 -1.0853 -0.3698
  878MPD2    H212882   3.700   2.390  13.282 -0.4550  0.4119  0.7581
  878MPD2    H312883   3.648   2.317  13.494  2.2345 -0.7333  0.3155
  878MPD2     N12884   3.717   1.869  13.369  0.4886  0.5343  0.3965
  878MPD2    H512885   3.739   1.804  13.295  0.2347 -1.6526  2.2196
  878MPD2    N112886   3.739   2.250  13.066 -0.0669 -0.3318  0.2106
  878MPD2    H712887   3.727   2.350  13.056 -1.1177 -0.7387 -2.6118
  879MPD2     C12888   3.881   2.738  17.080 -0.2802  0.5857  0.0735
  879MPD2    C112889   3.992   2.670  17.120  0.2536 -0.2636  0.4301
  879MPD2    C212890   4.021   2.549  17.057  0.7971  0.3911  0.0168
  879MPD2    C312891   3.949   2.514  16.950 -0.5537 -0.3914 -0.3168
  879MPD2    C412892   3.845   2.591  16.912  0.5211  0.1124 -0.0582
  879MPD2    C512893   3.806   2.701  16.978 -0.0011  0.2635 -0.0017
  879MPD2     H12894   4.103   2.484  17.084 -1.0958 -2.7033 -1.6702
  879MPD2    H112895   3.787   2.560  16.826  0.3430  0.4627 -0.0658
  879MPD2    H212896   3.855   2.831  17.129 -0.9671  0.5525 -0.2262
  879MPD2    H312897   3.721   2.761  16.947  0.2713  0.9558  0.5872
  879MPD2     N12898   3.988   2.407  16.860 -0.5199  1.3130  0.1412
  879MPD2    H512899   3.940   2.416  16.771 -0.0579  0.9750 -0.1411
  879MPD2    N112900   4.074   2.718  17.229  0.3602  0.1691  0.9605
  879MPD2    H712901   4.052   2.812  17.261  3.6724  0.2658  2.9358
  880MPD2     C12902   1.016   4.214   1.291  0.2621  0.2894  0.1143
  880MPD2    C112903   1.072   4.176   1.173  0.5949  0.0423  0.0155
  880MPD2    C212904   1.107   4.040   1.155 -0.3952  0.0092  0.3765
  880MPD2    C312905   1.081   3.947   1.255  0.1634 -0.0597  0.6039
  880MPD2    C412906   1.013   3.987   1.368 -0.2178 -0.6455 -0.4663
  880MPD2    C512907   0.976   4.119   1.383  0.8158 -0.4316 -0.6661
  880MPD2     H12908   1.152   4.006   1.063 -1.7494 -0.3079 -0.1615
  880MPD2    H112909   0.977   3.914   1.440 -3.6938 -0.1829 -1.7529
  880MPD2    H212910   1.006   4.321   1.308 -0.4044  0.5650 -1.9329
  880MPD2    H312911   0.935   4.161   1.474  0.0597  1.2566 -1.7823
  880MPD2     N12912   1.133   3.814   1.235  0.2174 -0.3697  0.3695
  880MPD2    H512913   1.187   3.792   1.151  0.3470  0.0763  0.3389
  880MPD2    N112914   1.090   4.273   1.080  0.1124 -0.8878 -0.6775
  880MPD2    H712915   1.037   4.358   1.097  0.3375 -0.8447 -0.2021
  881MPD2     C12916   0.962   3.979   0.146 -0.0382 -0.0916 -0.1151
  881MPD2    C112917   0.912   4.109   0.143 -0.3059  0.6731  0.0262
  881MPD2    C212918   0.947   4.180   0.253  0.2779  0.0214 -1.2750
  881MPD2    C312919   0.994   4.126   0.375  0.3841 -0.4848 -1.1004
  881MPD2    C412920   1.028   3.995   0.374 -0.1896 -0.0869 -0.5080
  881MPD2    C512921   1.006   3.918   0.262 -0.1844  0.2282  0.3304
  881MPD2     H12922   0.922   4.284   0.237 -0.8185  0.0294  0.4836
  881MPD2    H112923   1.080   3.945   0.455 -1.7213 -1.1637 -0.1882
  881MPD2    H212924   0.939   3.917   0.061 -0.1747 -0.8597  0.4780
  881MPD2    H312925   1.041   3.816   0.264  0.8714  0.6559  2.7192
  881MPD2     N12926   1.016   4.197   0.489 -0.1925 -0.2607  0.5946
  881MPD2    H512927   1.046   4.141   0.568  1.0645 -1.4189 -0.7113
  881MPD2    N112928   0.864   4.161   0.022  0.0718  0.5005  0.5701
  881MPD2    H712929   0.857   4.095  17.641 -0.3985  1.3993 -0.1590
  882MPD2     C12930   3.977   2.400  14.331 -0.0257 -0.0571  0.1374
  882MPD2    C112931   3.886   2.320  14.397 -0.3622 -0.6396 -0.4191
  882MPD2    C212932   3.751   2.322  14.361 -0.5951 -0.0538 -0.4324
  882MPD2    C312933   3.709   2.414  14.268  0.6829 -1.3594  0.1669
  882MPD2    C412934   3.801   2.494  14.211  0.7756  0.1656 -0.1438
  882MPD2    C512935   3.935   2.488  14.241 -0.0261  0.2832 -0.1108
  882MPD2     H12936   3.670   2.272  14.413  0.7133 -1.0253  0.6404
  882MPD2    H112937   3.772   2.574  14.144 -1.1263 -2.2760 -2.2430
  882MPD2    H212938   4.081   2.400  14.361 -1.2051  2.0476  4.1668
  882MPD2    H312939   4.006   2.561  14.204 -0.4845  0.2651 -1.0444
  882MPD2     N12940   3.571   2.442  14.232  0.2069 -0.0478  0.5016
  882MPD2    H512941   3.569   2.517  14.164 -4.3570 -0.1771  0.4600
  882MPD2    N112942   3.947   2.238  14.493 -0.2965  0.5142  0.2699
  882MPD2    H712943   4.048   2.249  14.498 -0.3450  0.8781  0.4160
  883MPD2     C12944   1.157   1.854  16.541  0.0690 -0.2048  1.0234
  883MPD2    C112945   1.222   1.950  16.461 -0.4165 -0.0391  0.6838
  883MPD2    C212946   1.334   2.012  16.513 -0.8991  0.2377  0.4340
  883MPD2    C312947   1.381   1.978  16.638  0.5320  0.6899  0.5563
  883MPD2    C412948   1.323   1.871  16.710  0.1156 -0.6314  0.0464
  883MPD2    C512949   1.210   1.816  16.661 -0.3795  0.2048  0.3072
  883MPD2     H12950   1.378   2.085  16.445 -0.1912 -0.0797  0.5542
  883MPD2    H112951   1.364   1.836  16.804  0.1763  0.2399  0.3460
  883MPD2    H212952   1.064   1.806  16.515 -0.5559  0.9049  1.2134
  883MPD2    H312953   1.165   1.736  16.718  1.9486 -0.3837  1.3173
  883MPD2     N12954   1.489   2.047  16.688  0.0768 -0.4032 -0.4138
  883MPD2    H512955   1.538   2.112  16.627 -0.7871  1.1142  0.5100
  883MPD2    N112956   1.184   1.980  16.328 -0.0782  0.3815 -0.2374
  883MPD2    H712957   1.247   2.037  16.273  0.4827  1.1659  1.2078
  884MPD2     C12958   2.806   2.380  15.292 -0.1521 -0.5398 -0.4096
  884MPD2    C112959   2.827   2.498  15.224  0.1405 -0.0615  0.5035
  884MPD2    C212960   2.748   2.605  15.244  0.0166  0.6115  0.0075
  884MPD2    C312961   2.645   2.601  15.334  0.0811 -0.6218 -0.4292
  884MPD2    C412962   2.621   2.481  15.401 -0.0072 -0.5468 -0.5190
  884MPD2    C512963   2.705   2.368  15.385  0.0656 -0.1513  0.0186
  884MPD2     H12964   2.761   2.701  15.197  0.3063  1.0423  0.9746
  884MPD2    H112965   2.537   2.480  15.469  0.7352  0.9211  0.4155
  884MPD2    H212966   2.869   2.293  15.276 -0.0774 -0.3687 -1.0644
  884MPD2    H312967   2.685   2.281  15.447 -1.3462 -1.9469 -2.9812
  884MPD2     N12968   2.561   2.714  15.336  0.0313  0.3882 -0.0754
  884MPD2    H512969   2.591   2.792  15.279  1.5076  0.7209  1.1497
  884MPD2    N112970   2.916   2.509  15.115 -0.5281  0.2707  0.0580
  884MPD2    H712971   2.891   2.590  15.058 -0.3418  0.3545  0.0927
  885MPD2     C12972   1.133   2.245  17.579  0.2641 -0.2412 -0.1734
  885MPD2    C112973   1.220   2.350  17.591 -0.3652 -0.4399  0.8509
  885MPD2    C212974   1.217   2.446  17.487  0.1812  0.4739 -0.3834
  885MPD2    C312975   1.142   2.428  17.372  0.1577  0.6655 -0.3949
  885MPD2    C412976   1.055   2.327  17.367  0.6320  0.0138  0.0430
  885MPD2    C512977   1.049   2.238  17.469  0.8719  0.0077  0.4908
  885MPD2     H12978   1.280   2.533  17.499 -1.4080  1.2891  1.9571
  885MPD2    H112979   0.996   2.313  17.277  0.3430 -1.2858  0.4311
  885MPD2    H212980   1.125   2.162  17.648 -0.8398  0.2276  0.2778
  885MPD2    H312981   0.986   2.150  17.456  1.8507 -0.7097  0.5860
  885MPD2     N12982   1.147   2.522  17.267 -0.2878 -0.4648  0.2500
  885MPD2    H512983   1.211   2.600  17.282 -0.2008 -0.4279 -0.3093
  885MPD2    N112984   1.278   2.374   0.024 -0.0819 -0.3943  0.0584
  885MPD2    H712985   1.269   2.294   0.086  0.0334 -2.1572 -2.2140
  886MPD2     C12986   2.352   1.106  15.167  0.5057 -0.2680 -0.2120
  886MPD2    C112987   2.486   1.117  15.187 -0.8264 -0.6755  0.2334
  886MPD2    C212988   2.535   1.244  15.151  0.3922  0.5357 -0.2405
  886MPD2    C312989   2.466   1.355  15.109  0.3991 -0.2229  0.0935
  886MPD2    C412990   2.329   1.343  15.111  0.9500 -0.3182 -0.9196
  886MPD2    C512991   2.280   1.216  15.138  0.9960 -0.1798  0.1600
  886MPD2     H12992   2.643   1.245  15.155  0.4111 -0.9514 -0.2868
  886MPD2    H112993   2.259   1.418  15.077 -1.8571 -0.9027  3.6489
  886MPD2    H212994   2.299   1.016  15.195 -0.8979  1.1880  1.8111
  886MPD2    H312995   2.172   1.206  15.132  1.0808 -1.4365  0.8786
  886MPD2     N12996   2.527   1.474  15.065 -0.1024 -0.1514  0.0935
  886MPD2    H512997   2.476   1.544  15.012 -0.3767  0.1761  0.7896
  886MPD2    N112998   2.577   1.016  15.213  0.3451 -0.4147 -0.3168
  886MPD2    H712999   2.673   1.034  15.185  0.4573 -1.5357 -0.6582
  887MPD2     C13000   3.252   1.087  15.443 -0.3180 -0.2613  0.1497
  887MPD2    C113001   3.121   1.123  15.409  0.2268  0.6179  0.3804
  887MPD2    C213002   3.084   1.252  15.368 -0.0870 -0.6440 -0.1507
  887MPD2    C313003   3.181   1.351  15.363  0.1632 -0.2817 -0.5081
  887MPD2    C413004   3.315   1.313  15.381 -0.0371 -0.1430 -0.0590
  887MPD2    C513005   3.345   1.187  15.424 -0.0657 -0.4631  0.4768
  887MPD2     H13006   2.982   1.276  15.340  0.2583  1.1077  0.0869
  887MPD2    H113007   3.407   1.369  15.373 -0.3868  0.3034 -0.9289
  887MPD2    H213008   3.273   0.987  15.479 -1.0580 -0.4181  0.1543
  887MPD2    H313009   3.449   1.164  15.444 -0.1120  1.6143  3.0913
  887MPD2     N13010   3.138   1.482  15.342 -0.1164  0.1393  0.0705
  887MPD2    H513011   3.038   1.484  15.328  0.0388  0.8436 -0.8939
  887MPD2    N113012   3.010   1.033  15.407 -0.1065  0.0435  0.3794
  887MPD2    H713013   2.925   1.077  15.376  1.2956  0.3582 -2.9846
  888MPD2     C13014   0.407   1.544  14.674 -0.1078 -0.1358  0.0725
  888MPD2    C113015   0.425   1.578  14.808 -0.3546  0.1772 -0.1575
  888MPD2    C213016   0.481   1.702  14.832 -0.3913 -0.5172 -0.1941
  888MPD2    C313017   0.522   1.787  14.734  0.4221 -1.7542  0.2776
  888MPD2    C413018   0.514   1.744  14.607 -0.0656  0.2244  0.2353
  888MPD2    C513019   0.464   1.619  14.577  0.3549 -0.2882 -0.2157
  888MPD2     H13020   0.498   1.730  14.935 -2.1002 -1.5212  0.3633
  888MPD2    H113021   0.559   1.804  14.529  1.4203 -0.6679  0.3874
  888MPD2    H213022   0.364   1.447  14.650  3.1680 -1.3886 -0.7180
  888MPD2    H313023   0.466   1.582  14.475 -1.0727 -0.7784 -0.0557
  888MPD2     N13024   0.560   1.914  14.767 -0.2256 -0.0906 -0.2150
  888MPD2    H513025   0.565   1.924  14.868  1.8520  1.0610 -0.4248
  888MPD2    N113026   0.387   1.501  14.921 -0.7269  0.4543 -0.1653
  888MPD2    H713027   0.428   1.538  15.006 -2.5191 -1.6076  1.5717
  889MPD2     C13028   4.527   1.306  13.004 -0.2604 -0.0401  0.4458
  889MPD2    C113029   4.456   1.265  13.115 -0.5200 -0.4751  0.4461
  889MPD2    C213030   4.343   1.344  13.154 -0.2398 -0.1418  0.2340
  889MPD2    C313031   4.331   1.477  13.115 -0.4679 -0.1534  0.0389
  889MPD2    C413032   4.430   1.523  13.031  0.2300  0.0733  0.5907
  889MPD2    C513033   4.526   1.441  12.975  0.1091  0.9412 -0.3932
  889MPD2     H13034   4.273   1.304  13.226  0.0137 -1.8049 -0.4547
  889MPD2    H113035   4.435   1.622  12.987 -2.3525 -0.9040 -1.8613
  889MPD2    H213036   4.607   1.252  12.956 -1.3617 -0.6426 -0.7067
  889MPD2    H313037   4.596   1.485  12.904  2.1824  2.7201  2.7523
  889MPD2     N13038   4.235   1.561  13.179  0.6566  0.2423 -0.4073
  889MPD2    H513039   4.171   1.523  13.248 -0.2609 -0.4382 -1.6257
  889MPD2    N113040   4.461   1.130  13.150 -0.1854  0.0274 -0.6590
  889MPD2    H713041   4.393   1.097  13.218 -0.6723  0.5224 -0.9036
  890MPD2     C13042   3.751   2.702  14.564  0.3016  0.2492  0.1403
  890MPD2    C113043   3.795   2.804  14.647 -0.3642 -0.3441 -0.1881
  890MPD2    C213044   3.838   2.774  14.775  0.2817  0.0829 -0.1947
  890MPD2    C313045   3.826   2.645  14.819 -0.2765  0.5586 -0.9739
  890MPD2    C413046   3.777   2.542  14.736  0.0159  0.2385 -0.1505
  890MPD2    C513047   3.739   2.573  14.610  0.0232  0.7217  0.3122
  890MPD2     H13048   3.861   2.854  14.844 -1.3508  1.2116 -0.9443
  890MPD2    H113049   3.778   2.439  14.767 -0.1791 -0.1889 -1.5726
  890MPD2    H213050   3.718   2.727  14.464 -2.2441  0.6407  1.0860
  890MPD2    H313051   3.697   2.501  14.541  1.7130  0.6602 -0.6759
  890MPD2     N13052   3.857   2.622  14.959  0.5448  0.1131  0.3124
  890MPD2    H513053   3.902   2.700  15.006  0.6807 -0.5328  1.2572
  890MPD2    N113054   3.793   2.931  14.595 -0.2905  0.0987  0.1744
  890MPD2    H713055   3.743   2.935  14.508  1.5098  0.4316 -0.8447
  891MPD2     C13056   2.087   0.873  16.818 -0.4849 -0.3900  0.0299
  891MPD2    C113057   1.989   0.781  16.817  0.0882 -0.2621 -0.5877
  891MPD2    C213058   2.021   0.648  16.828 -0.6888  0.1367  0.0128
  891MPD2    C313059   2.155   0.612  16.847 -0.3912  0.2308 -0.0621
  891MPD2    C413060   2.253   0.706  16.861  0.0322  0.4960  0.2602
  891MPD2    C513061   2.218   0.840  16.849 -0.4670 -0.2807 -0.1428
  891MPD2     H13062   1.948   0.569  16.833 -0.0573 -0.4519 -0.0032
  891MPD2    H113063   2.353   0.675  16.885 -0.7435 -0.8067  1.7655
  891MPD2    H213064   2.067   0.979  16.809  0.3271 -0.3238 -0.9815
  891MPD2    H313065   2.287   0.920  16.872 -0.5894 -0.1817 -0.1229
  891MPD2     N13066   2.185   0.474  16.859 -0.4445  0.2185  0.0387
  891MPD2    H513067   2.107   0.410  16.860  1.9409 -2.6905 -4.9839
  891MPD2    N113068   1.859   0.830  16.792  0.2707 -0.1361 -0.4828
  891MPD2    H713069   1.856   0.931  16.780  0.3619 -0.0688  0.0435
  892MPD2     C13070   2.928   2.200  14.881 -0.2171  0.3218 -0.6946
  892MPD2    C113071   2.857   2.272  14.789  0.4058  1.0851  0.1209
  892MPD2    C213072   2.917   2.327  14.680 -0.0698 -0.2562 -0.0009
  892MPD2    C313073   3.052   2.309  14.652  0.5394  0.5939  0.0559
  892MPD2    C413074   3.133   2.253  14.750  0.0149 -0.0891  0.2471
  892MPD2    C513075   3.073   2.193  14.866 -0.1875  0.9704 -0.2328
  892MPD2     H13076   2.849   2.378  14.612 -0.3287 -1.2056 -0.4451
  892MPD2    H113077   3.241   2.248  14.750 -0.0362 -1.6085 -2.0901
  892MPD2    H213078   2.883   2.164  14.973 -1.7654  1.5366 -0.9873
  892MPD2    H313079   3.131   2.143  14.942  0.0069 -0.0392 -1.0465
  892MPD2     N13080   3.113   2.347  14.530 -0.1994 -0.0852 -0.2654
  892MPD2    H513081   3.214   2.336  14.535  0.1138  1.5413 -2.8252
  892MPD2    N113082   2.726   2.314  14.806  0.2065  0.0029  0.2968
  892MPD2    H713083   2.693   2.381  14.738 -0.8910 -0.6339  0.2109
  893MPD2     C13084   0.888   0.282   1.324 -0.7775 -0.5898 -0.1497
  893MPD2    C113085   0.870   0.355   1.442  0.3508  0.1072  0.0808
  893MPD2    C213086   0.790   0.473   1.438 -0.7909 -0.5458  0.4301
  893MPD2    C313087   0.716   0.506   1.323  0.0093 -0.3777  0.3268
  893MPD2    C413088   0.727   0.426   1.210 -0.3345  0.0524  0.1043
  893MPD2    C513089   0.816   0.320   1.211  0.3362 -0.7092 -0.9840
  893MPD2     H13090   0.772   0.525   1.532 -0.9799  0.6773 -0.2770
  893MPD2    H113091   0.672   0.461   1.123  0.3020  3.1304  0.9360
  893MPD2    H213092   0.956   0.198   1.321  0.2115  0.1246  2.3126
  893MPD2    H313093   0.836   0.266   1.118  0.5603 -0.4434 -1.0885
  893MPD2     N13094   0.635   0.618   1.319 -0.1872  0.1125  0.3052
  893MPD2    H513095   0.607   0.652   1.228  0.8337  0.3473  0.0729
  893MPD2    N113096   0.940   0.306   1.559 -0.0316 -0.2787  0.1468
  893MPD2    H713097   0.976   0.211   1.557 -1.0049 -0.6347 -0.4885
  894MPD2     C13098   2.948   3.194   1.057 -0.1875  0.2248 -0.3968
  894MPD2    C113099   3.055   3.218   1.149  0.1633 -0.4572 -0.1813
  894MPD2    C213100   3.160   3.298   1.093  0.1627  0.0629 -0.3692
  894MPD2    C313101   3.157   3.346   0.964  0.2643  0.7645 -0.0417
  894MPD2    C413102   3.042   3.331   0.890  0.1045 -0.2409 -0.4638
  894MPD2    C513103   2.936   3.253   0.934 -0.2122  0.4354 -0.0093
  894MPD2     H13104   3.247   3.310   1.156  0.2025  0.0641 -0.4251
  894MPD2    H113105   3.041   3.361   0.786 -0.6233  0.8282 -0.1465
  894MPD2    H213106   2.869   3.127   1.089 -1.5094  2.3655  0.8242
  894MPD2    H313107   2.849   3.241   0.872  0.9156 -1.2852 -1.2510
  894MPD2     N13108   3.262   3.427   0.913 -1.0606 -0.3379  0.2607
  894MPD2    H513109   3.339   3.438   0.978 -0.6331  0.1446 -0.3186
  894MPD2    N113110   3.056   3.160   1.279  0.5701 -0.6901 -0.0034
  894MPD2    H713111   2.974   3.104   1.302 -0.2824  0.3457 -0.5124
  895MPD2     C13112   2.469   1.588  13.011 -0.3673 -0.2657 -0.5506
  895MPD2    C113113   2.442   1.578  12.876 -0.2453 -0.7037  0.3015
  895MPD2    C213114   2.479   1.470  12.806 -0.1078  0.6105 -0.1358
  895MPD2    C313115   2.543   1.365  12.875 -0.6339  0.2364  0.4452
  895MPD2    C413116   2.571   1.375  13.009 -0.1473 -0.1188  0.1963
  895MPD2    C513117   2.535   1.488  13.072  0.2794  0.5694 -0.4646
  895MPD2     H13118   2.436   1.454  12.707  0.2605  0.5258 -0.2842
  895MPD2    H113119   2.635   1.302  13.057  2.4304  2.2148  0.2384
  895MPD2    H213120   2.433   1.677  13.061  1.5912 -0.0397  0.4311
  895MPD2    H313121   2.576   1.503  13.171 -1.4324 -1.9478  0.6157
  895MPD2     N13122   2.566   1.239  12.814 -0.1430 -0.4357  0.1435
  895MPD2    H513123   2.569   1.155  12.870 -0.1035 -0.4872  0.0641
  895MPD2    N113124   2.361   1.670  12.798  0.4102 -0.2636 -0.6921
  895MPD2    H713125   2.319   1.623  12.718  1.3052 -2.0257 -0.1196
  896MPD2     C13126   4.683   3.528   1.711  0.6688 -0.0089 -0.5144
  896MPD2    C113127   4.713   3.573   1.585 -0.0932  0.5943  0.7791
  896MPD2    C213128   4.623   3.555   1.480  0.3915  0.1993  0.1404
  896MPD2    C313129   4.507   3.483   1.505  0.0178  0.0295  0.6175
  896MPD2    C413130   4.485   3.429   1.628 -0.4777 -0.0839  0.4771
  896MPD2    C513131   4.566   3.460   1.735 -0.2423  0.2638  0.3893
  896MPD2     H13132   4.646   3.587   1.379  1.6525 -0.3858  0.2395
  896MPD2    H113133   4.414   3.348   1.638 -1.5863  0.7497 -0.7395
  896MPD2    H213134   0.039   3.534   1.785 -0.8014  0.8893  1.0005
  896MPD2    H313135   4.555   3.404   1.827  1.6826  2.5257  1.9976
  896MPD2     N13136   4.417   3.466   1.396 -0.5824 -0.2983  0.3271
  896MPD2    H513137   4.452   3.484   1.303  0.2482 -2.2028  0.2784
  896MPD2    N113138   0.112   3.638   1.569 -0.2735 -0.2620  0.3196
  896MPD2    H713139   0.164   3.660   1.654  2.4130  2.0486 -1.9238
  897MPD2     C13140   0.909   1.358  10.737  0.1081  0.2572  0.3207
  897MPD2    C113141   0.908   1.294  10.618 -0.0181 -0.4062 -0.0349
  897MPD2    C213142   0.874   1.158  10.613 -0.4282 -0.0554  0.3623
  897MPD2    C313143   0.813   1.098  10.722 -0.3371  0.3769 -0.3951
  897MPD2    C413144   0.820   1.167  10.844  0.1475  0.4041  0.4513
  897MPD2    C513145   0.868   1.293  10.846 -0.8811 -0.1574  0.7273
  897MPD2     H13146   0.853   1.103  10.522  1.6048 -1.2147  0.5818
  897MPD2    H113147   0.780   1.126  10.935 -0.9388  0.9810  0.2338
  897MPD2    H213148   0.948   1.459  10.748  2.3887 -0.4311 -1.3797
  897MPD2    H313149   0.866   1.347  10.940  2.7892  1.2116  0.0138
  897MPD2     N13150   0.717   0.993  10.704 -0.6101 -0.2108 -0.2278
  897MPD2    H513151   0.714   0.951  10.612 -0.0324 -1.4185  0.2935
  897MPD2    N113152   0.916   1.369  10.495  0.4447 -0.2831 -0.2371
  897MPD2    H713153   0.887   1.466  10.503 -1.9882 -0.9819 -0.3056
  898MPD2     C13154   3.163   1.431  16.860  0.5668 -0.3406 -0.1173
  898MPD2    C113155   3.140   1.451  16.996  0.7273 -0.4799 -0.3713
  898MPD2    C213156   3.007   1.450  17.033 -0.5004 -0.1804  0.3884
  898MPD2    C313157   2.906   1.450  16.934 -0.5595 -0.2349 -0.0112
  898MPD2    C413158   2.942   1.437  16.803 -0.2341  0.0690  0.2965
  898MPD2    C513159   3.068   1.421  16.763  0.1557 -0.1754  0.0646
  898MPD2     H13160   2.972   1.455  17.135  0.4113 -0.2674  0.7007
  898MPD2    H113161   2.875   1.445  16.718  1.1996  1.6138 -0.6718
  898MPD2    H213162   3.268   1.424  16.831  0.7594  4.2136 -0.5435
  898MPD2    H313163   3.107   1.416  16.662  1.4570 -0.8788  0.5952
  898MPD2     N13164   2.772   1.482  16.984  0.3242 -0.3281  0.4409
  898MPD2    H513165   2.762   1.487  17.085 -0.2692 -1.9536  0.4626
  898MPD2    N113166   3.241   1.467  17.097 -0.5455 -0.1246 -0.3024
  898MPD2    H713167   3.214   1.497  17.190 -0.8466  0.9649 -0.7406
  899MPD2     C13168   3.154   1.983   0.030  0.2611  0.2122 -0.1354
  899MPD2    C113169   3.233   2.084   0.077  0.7754  0.0617 -0.9321
  899MPD2    C213170   3.244   2.103   0.216 -0.6408  0.0055 -0.4882
  899MPD2    C313171   3.156   2.034   0.304  0.2522 -0.1143  0.5066
  899MPD2    C413172   3.074   1.935   0.251 -0.3512  0.2240  0.4488
  899MPD2    C513173   3.078   1.905   0.117 -0.4080  0.0680  0.1506
  899MPD2     H13174   3.300   2.181   0.266  0.3315  0.6176 -2.5215
  899MPD2    H113175   3.010   1.874   0.314 -2.4853  2.4112  0.4278
  899MPD2    H213176   3.139   1.974  17.620  3.6712 -0.2932 -0.5786
  899MPD2    H313177   3.013   1.826   0.081  0.1824  0.5738 -2.0461
  899MPD2     N13178   3.147   2.057   0.444  0.2916 -0.5752 -0.6133
  899MPD2    H513179   3.073   2.012   0.499  0.3186 -0.9090 -0.8510
  899MPD2    N113180   3.309   2.159  17.678  0.2863 -0.5274  0.3869
  899MPD2    H713181   3.314   2.132  17.580 -1.4855  1.9073 -0.3520
  900MPD2     C13182   3.038   4.353  12.323 -0.5486  0.3539  0.1303
  900MPD2    C113183   2.937   4.262  12.317  0.8234  0.9672 -0.1950
  900MPD2    C213184   2.844   4.276  12.213  0.1977  0.9329  0.1388
  900MPD2    C313185   2.848   4.381  12.128  0.1901  0.8518  0.0086
  900MPD2    C413186   2.947   4.479  12.146 -0.6068 -0.0874  0.0981
  900MPD2    C513187   3.036   4.461  12.241 -0.8280 -0.5967  0.0558
  900MPD2     H13188   2.769   4.199  12.202 -0.8546  1.8559  0.8649
  900MPD2    H113189   2.961   4.564  12.080  0.6301 -1.6622 -1.6253
  900MPD2    H213190   3.113   4.346  12.401 -0.6990  1.3921  0.3678
  900MPD2    H313191   3.118   4.533  12.243 -1.7603  0.4114  1.3588
  900MPD2     N13192   2.749   4.384  12.023  0.0396  0.8342  0.2506
  900MPD2    H513193   2.677   4.312  12.029 -1.5190  2.5082  1.3958
  900MPD2    N113194   2.940   4.156  12.416 -0.1462 -0.3990 -0.0053
  900MPD2    H713195   3.029   4.137  12.461  1.0009  5.1081  0.0319
  901MPD2     C13196   2.440   3.205  12.704 -1.0719 -0.8082 -0.3167
  901MPD2    C113197   2.563   3.188  12.625  0.3425 -0.6249  0.4952
  901MPD2    C213198   2.623   3.306  12.587 -0.2082 -0.6539  0.2081
  901MPD2    C313199   2.579   3.433  12.627 -0.8677 -0.1495  0.5270
  901MPD2    C413200   2.466   3.443  12.704  0.3336  0.2439 -0.3914
  901MPD2    C513201   2.394   3.327  12.737 -0.5449  0.1960 -0.1398
  901MPD2     H13202   2.719   3.306  12.538  0.3966  0.0167  1.4066
  901MPD2    H113203   2.436   3.530  12.760 -1.8223 -2.2183  2.2963
  901MPD2    H213204   2.397   3.111  12.736  0.2129 -1.6366 -0.9949
  901MPD2    H313205   2.309   3.338  12.802 -0.1721  2.1086  0.0084
  901MPD2     N13206   2.672   3.536  12.598 -0.2783  0.2320  0.2368
  901MPD2    H513207   2.757   3.498  12.557  0.5476  0.8510  1.3918
  901MPD2    N113208   2.611   3.058  12.591  0.2373  0.4555 -0.5386
  901MPD2    H713209   2.570   2.974  12.632  1.4967  0.5544  0.9437
  902MPD2     C13210   2.161   2.168  13.030  0.2343  0.1081 -0.0809
  902MPD2    C113211   2.117   2.252  12.931  0.0487 -0.6408  0.1250
  902MPD2    C213212   2.205   2.319  12.846  0.3492 -0.0057  0.4510
  902MPD2    C313213   2.341   2.298  12.862  0.0868  0.7715  0.1867
  902MPD2    C413214   2.381   2.218  12.969  0.0861 -0.3492  0.0302
  902MPD2    C513215   2.293   2.146  13.048  0.5323  0.6495  0.0840
  902MPD2     H13216   2.173   2.389  12.769  1.0517  0.2146  0.3648
  902MPD2    H113217   2.484   2.187  12.982  0.3371 -0.1741 -1.5929
  902MPD2    H213218   2.094   2.125  13.103 -0.5925  0.7782 -0.4490
  902MPD2    H313219   2.322   2.068  13.118  2.6815  0.4160 -1.0767
  902MPD2     N13220   2.442   2.354  12.788 -0.0211 -0.0961 -0.0498
  902MPD2    H513221   2.524   2.295  12.779 -0.3912 -0.4168 -1.2663
  902MPD2    N113222   1.981   2.288  12.932 -0.2135 -0.1334 -0.7991
  902MPD2    H713223   1.936   2.298  13.023  0.6008 -2.6713 -0.1300
  903MPD2     C13224   2.209   2.733  12.090  0.0490  0.6115 -0.6220
  903MPD2    C113225   2.265   2.611  12.111 -0.0737  0.1414  0.3327
  903MPD2    C213226   2.237   2.520  12.017 -0.3589  0.0759 -1.6853
  903MPD2    C313227   2.153   2.531  11.910 -1.1046 -0.5439 -0.4377
  903MPD2    C413228   2.090   2.655  11.890  0.3610  0.2951  0.2590
  903MPD2    C513229   2.119   2.756  11.983 -0.5086 -1.1178 -0.8388
  903MPD2     H13230   2.289   2.425  12.010 -2.3067 -1.1292  0.1883
  903MPD2    H113231   2.028   2.660  11.801 -1.4894 -2.3571  1.4243
  903MPD2    H213232   2.234   2.821  12.149 -0.5489  1.1545 -1.1740
  903MPD2    H313233   2.079   2.856  11.983  0.9798 -0.5220  0.2437
  903MPD2     N13234   2.135   2.413  11.829 -0.3811 -0.7390 -0.1408
  903MPD2    H513235   2.162   2.328  11.876 -0.7371 -1.0570 -0.5151
  903MPD2    N113236   2.351   2.598  12.224  0.1406 -0.5248  0.0478
  903MPD2    H713237   2.374   2.683  12.274  0.2545 -1.3603  1.4063
  904MPD2     C13238   2.445   1.821  13.338  0.8712  0.3030  0.3561
  904MPD2    C113239   2.383   1.703  13.343 -0.0656  0.1190 -1.2925
  904MPD2    C213240   2.430   1.599  13.421 -0.8673 -1.0627 -0.4128
  904MPD2    C313241   2.548   1.617  13.490 -1.3221 -0.2655 -0.1094
  904MPD2    C413242   2.619   1.736  13.480  0.1002 -0.2718 -0.2821
  904MPD2    C513243   2.565   1.835  13.404  0.3053  0.2049  0.2775
  904MPD2     H13244   2.385   1.503  13.442  0.5675 -1.0449  2.6572
  904MPD2    H113245   2.709   1.765  13.533 -0.3474  0.9771 -0.1976
  904MPD2    H213246   2.423   1.903  13.270 -1.1811  0.1589  0.8644
  904MPD2    H313247   2.617   1.929  13.392  0.3085  0.1707  0.0385
  904MPD2     N13248   2.596   1.510  13.560  0.3630  0.2023 -0.4012
  904MPD2    H513249   2.538   1.427  13.560 -0.6857  0.9557 -3.5972
  904MPD2    N113250   2.260   1.683  13.272 -0.2676  0.0007 -0.2157
  904MPD2    H713251   2.229   1.586  13.268 -0.5881  0.1790 -1.7415
  905MPD2     C13252   1.788   1.129  12.941 -0.5889  0.1388 -0.3666
  905MPD2    C113253   1.892   1.216  12.903  0.1843 -0.5896 -0.2456
  905MPD2    C213254   1.986   1.174  12.815  0.0599 -0.5021  0.4778
  905MPD2    C313255   1.982   1.052  12.754 -0.6339 -0.7307 -0.0051
  905MPD2    C413256   1.873   0.973  12.784 -0.0376  0.2614 -0.0083
  905MPD2    C513257   1.778   1.009  12.872  0.0026  0.5861  0.2897
  905MPD2     H13258   2.071   1.241  12.806 -0.1874 -0.7451 -3.6149
  905MPD2    H113259   1.862   0.871  12.747 -0.3163 -0.4582  2.1004
  905MPD2    H213260   1.715   1.148  13.018  0.9142  0.9986  0.8458
  905MPD2    H313261   1.692   0.945  12.886  0.9507 -0.2298  2.3644
  905MPD2     N13262   2.086   0.996  12.679  0.2340 -0.0631  0.3511
  905MPD2    H513263   2.084   0.895  12.677 -0.5487 -0.0549  0.7992
  905MPD2    N113264   1.901   1.334  12.983 -0.2495  0.9757 -0.5021
  905MPD2    H713265   1.827   1.347  13.052  0.3043 -0.3616  0.3355
  906MPD2     C13266   4.202   1.234  11.146  0.6428 -0.4495  0.1258
  906MPD2    C113267   4.115   1.153  11.077  0.6047  0.4013 -0.0759
  906MPD2    C213268   4.001   1.109  11.142 -0.9311 -0.2490 -0.1000
  906MPD2    C313269   3.962   1.170  11.266  0.0913 -0.3871  0.1922
  906MPD2    C413270   4.038   1.266  11.319 -0.1401 -0.4667 -0.9114
  906MPD2    C513271   4.162   1.296  11.264 -0.0456 -0.2971 -0.5008
  906MPD2     H13272   3.947   1.026  11.098 -2.9164  0.2763  1.3338
  906MPD2    H113273   4.015   1.316  11.413 -0.3799 -1.4034 -0.4727
  906MPD2    H213274   4.294   1.269  11.100  1.3179  0.6201  2.2887
  906MPD2    H313275   4.219   1.384  11.292  1.5197 -0.2650 -3.7312
  906MPD2     N13276   3.835   1.124  11.325  0.0490  0.1622  0.1703
  906MPD2    H513277   3.781   1.061  11.268 -0.0400 -0.6703  1.1655
  906MPD2    N113278   4.144   1.091  10.954  0.6219  0.6675 -0.5432
  906MPD2    H713279   4.089   1.009  10.928 -0.5672  1.0565  0.7450
  907MPD2     C13280   3.094   0.283  15.494 -0.2494 -0.1256 -0.9441
  907MPD2    C113281   3.132   0.153  15.493  0.4162  0.7818 -0.4544
  907MPD2    C213282   3.246   0.101  15.548 -0.5086 -0.3517 -0.6966
  907MPD2    C313283   3.306   0.183  15.643  0.2113 -0.5585 -0.1284
  907MPD2    C413284   3.276   0.316  15.653 -0.4478 -0.1371  0.0926
  907MPD2    C513285   3.178   0.365  15.572 -0.8224  0.1549 -0.3209
  907MPD2     H13286   3.272   4.720  15.537  0.5770  0.0443 -1.7843
  907MPD2    H113287   3.333   0.388  15.711 -1.5365 -0.4854  1.5738
  907MPD2    H213288   3.017   0.331  15.435 -1.5359 -1.0609 -0.0190
  907MPD2    H313289   3.154   0.470  15.584 -2.9092 -0.5547  1.7898
  907MPD2     N13290   3.398   0.113  15.724  0.1135 -0.3671  0.4555
  907MPD2    H513291   3.401   0.011  15.731 -1.0228 -0.5150 -1.1362
  907MPD2    N113292   3.061   0.059  15.412 -0.0264 -0.6660 -0.0725
  907MPD2    H713293   3.095   4.688  15.418  4.0830  0.7031 -1.4603
  908MPD2     C13294   0.911   1.055   9.513  0.3161 -0.6169  0.4734
  908MPD2    C113295   0.932   0.984   9.630  0.4319  0.1383  0.0119
  908MPD2    C213296   0.902   1.045   9.753 -1.6659  0.3792 -0.1118
  908MPD2    C313297   0.847   1.173   9.765  0.0862 -0.5525 -0.1859
  908MPD2    C413298   0.825   1.237   9.646  0.0346 -0.1138 -0.1455
  908MPD2    C513299   0.864   1.185   9.525 -0.5248 -0.0839 -0.4919
  908MPD2     H13300   0.909   0.991   9.846  2.3559  0.6966 -0.2264
  908MPD2    H113301   0.788   1.338   9.633  0.3777 -0.0217 -0.4005
  908MPD2    H213302   0.932   1.023   9.412 -1.6266  1.7095 -0.6841
  908MPD2    H313303   0.850   1.244   9.435  1.4747  0.1650 -0.6313
  908MPD2     N13304   0.821   1.233   9.893  0.1075  0.4431 -0.2691
  908MPD2    H513305   0.854   1.191   9.980 -0.3816  1.5276  0.4369
  908MPD2    N113306   0.964   0.851   9.615  0.5651 -0.3472  0.7893
  908MPD2    H713307   0.958   0.813   9.521  0.1364  0.0970  0.6412
  909MPD2     C13308   0.961   3.456  11.555  0.6362  0.2075  0.0976
  909MPD2    C113309   0.962   3.595  11.530 -0.1486  0.0349 -0.4193
  909MPD2    C213310   0.895   3.683  11.609 -0.0147  0.0430  0.4228
  909MPD2    C313311   0.818   3.635  11.713  0.2185 -0.4478 -0.4999
  909MPD2    C413312   0.813   3.499  11.733 -0.8973 -0.4994  0.3119
  909MPD2    C513313   0.882   3.411  11.658 -0.2211 -0.3617 -0.7048
  909MPD2     H13314   0.889   3.789  11.586  1.0434  0.3404  1.4877
  909MPD2    H113315   0.745   3.452  11.803  0.5075 -0.7517  1.5000
  909MPD2    H213316   1.027   3.386  11.504 -0.5400 -0.8743  0.0716
  909MPD2    H313317   0.886   3.307  11.690  0.4225 -0.0751  0.1687
  909MPD2     N13318   0.758   3.721  11.806  0.4721  0.6214  0.1113
  909MPD2    H513319   0.778   3.818  11.784  0.4359  0.6399  0.1609
  909MPD2    N113320   1.026   3.664  11.422 -0.0764 -0.1175  0.2371
  909MPD2    H713321   1.037   3.765  11.417  1.4868 -0.2939  0.1073
  910MPD2     C13322   2.653   0.361  15.080 -0.9674  0.4811 -0.0872
  910MPD2    C113323   2.538   0.399  15.143 -0.4469  0.2134 -0.5860
  910MPD2    C213324   2.471   0.518  15.108  0.1860  0.2673 -0.0599
  910MPD2    C313325   2.518   0.597  15.010  0.1103  0.0441 -0.5594
  910MPD2    C413326   2.637   0.557  14.942  0.3833 -0.0097 -0.0900
  910MPD2    C513327   2.698   0.442  14.981  0.5186  1.1342  0.9015
  910MPD2     H13328   2.382   0.551  15.160 -0.1705  0.1764 -0.6101
  910MPD2    H113329   2.683   0.607  14.857 -1.4748 -1.6402 -2.0658
  910MPD2    H213330   2.711   0.271  15.098 -0.9960  0.3355 -0.7177
  910MPD2    H313331   2.785   0.410  14.924 -1.0914 -0.4323 -0.6857
  910MPD2     N13332   2.438   0.705  14.973 -0.5643  0.2911 -0.5867
  910MPD2    H513333   2.346   0.715  15.014 -0.3906 -0.7664  0.0574
  910MPD2    N113334   2.477   0.316  15.241  0.6031  1.0136  0.0796
  910MPD2    H713335   2.399   0.349  15.296  0.0723 -0.5321  0.2591
  911MPD2     C13336   0.141   0.810  16.194 -0.4203 -0.0158 -0.7307
  911MPD2    C113337   0.219   0.900  16.262  0.3593  0.5966  0.0595
  911MPD2    C213338   0.171   1.032  16.277 -0.3865  0.7297  0.7443
  911MPD2    C313339   0.048   1.064  16.206  0.0403 -0.0761  0.0444
  911MPD2    C413340   4.702   0.972  16.128  0.1789 -0.2755 -1.0860
  911MPD2    C513341   0.026   0.847  16.124 -0.4097  0.1295 -0.4962
  911MPD2     H13342   0.218   1.115  16.329  0.3163  1.0513 -0.4079
  911MPD2    H113343   4.614   0.997  16.071  0.3421 -2.5348 -2.3486
  911MPD2    H213344   0.176   0.713  16.162  2.5343  0.9383 -0.3925
  911MPD2    H313345   4.708   0.778  16.051 -0.5630  0.7432 -0.9837
  911MPD2     N13346   4.722   1.200  16.192  0.5621  0.5854 -0.0205
  911MPD2    H513347   4.633   1.199  16.143  0.3625 -0.2694  0.3519
  911MPD2    N113348   0.341   0.853  16.312 -0.0867 -0.1014  0.3468
  911MPD2    H713349   0.363   0.757  16.288  0.7441 -0.1751  1.3866
  912MPD2     C13350   4.371   1.131  15.724  0.1145  1.2504  0.5402
  912MPD2    C113351   4.374   1.131  15.859 -0.4145  0.1543  0.0950
  912MPD2    C213352   4.388   1.004  15.916 -0.3344 -0.1464 -0.1662
  912MPD2    C313353   4.398   0.888  15.837  0.5124  0.3075 -0.1813
  912MPD2    C413354   4.393   0.893  15.702  0.6382  0.6737  0.0836
  912MPD2    C513355   4.390   1.022  15.647 -0.1739  0.4159 -0.2186
  912MPD2     H13356   4.392   1.000  16.024  0.7242  1.5710 -0.1346
  912MPD2    H113357   4.386   0.802  15.643  0.7078 -0.4023  1.7522
  912MPD2    H213358   4.354   1.227  15.677 -0.1679  1.1289  0.3913
  912MPD2    H313359   4.387   1.030  15.539  2.4869 -1.2058 -0.4128
  912MPD2     N13360   4.414   0.766  15.895 -0.3907 -0.1404 -0.1138
  912MPD2    H513361   4.452   0.696  15.832 -3.5997  0.5318 -2.8008
  912MPD2    N113362   4.366   1.254  15.934 -0.3783  0.1330  0.0689
  912MPD2    H713363   4.337   1.336  15.882  0.6125 -0.4312 -1.4035
  913MPD2     C13364   0.359   1.991  10.063 -0.5149 -0.4211  0.3112
  913MPD2    C113365   0.322   2.102  10.134 -0.1779  0.0333  0.3329
  913MPD2    C213366   0.346   2.225  10.082  0.3537  0.1213  0.3524
  913MPD2    C313367   0.388   2.238   9.951 -0.1260  0.7159 -0.0158
  913MPD2    C413368   0.440   2.127   9.887 -0.3163 -0.6512 -0.3840
  913MPD2    C513369   0.428   2.003   9.945  0.2659 -0.3731 -0.1931
  913MPD2     H13370   0.323   2.313  10.141 -0.2497  0.1597  0.0673
  913MPD2    H113371   0.488   2.140   9.791  1.1767 -2.4552  0.1128
  913MPD2    H213372   0.325   1.898  10.107 -2.4588 -0.7925 -1.9495
  913MPD2    H313373   0.469   1.921   9.886 -0.5276 -1.5390  0.8862
  913MPD2     N13374   0.405   2.360   9.884  0.3800  0.1725  0.1344
  913MPD2    H513375   0.428   2.357   9.785 -1.5036  1.6667 -0.3507
  913MPD2    N113376   0.263   2.069  10.257 -0.0863  0.4496  0.2356
  913MPD2    H713377   0.267   1.972  10.286  2.9870  0.1932 -1.0613
  914MPD2     C13378   3.300   3.190  11.996  0.6447  0.6235  0.7125
  914MPD2    C113379   3.204   3.259  12.067  0.1233 -0.2894 -0.3225
  914MPD2    C213380   3.107   3.174  12.127  0.0814  0.2625  0.9186
  914MPD2    C313381   3.118   3.034  12.135  0.6210  0.8590 -0.3011
  914MPD2    C413382   3.217   2.977  12.069 -0.3195  0.5833 -0.2867
  914MPD2    C513383   3.305   3.052  11.995 -0.5269  0.0191 -0.3894
  914MPD2     H13384   3.024   3.206  12.190 -0.6960  0.3673 -0.1722
  914MPD2    H113385   3.230   2.870  12.065  0.1252  0.5646  1.7550
  914MPD2    H213386   3.376   3.248  11.945  0.0627  2.8206  2.3191
  914MPD2    H313387   3.382   3.003  11.938 -0.1502 -0.7875  0.8232
  914MPD2     N13388   3.018   2.968  12.202  0.3410  0.1039  0.0891
  914MPD2    H513389   2.947   3.025  12.246  1.7757  0.9432  1.2971
  914MPD2    N113390   3.205   3.399  12.081  0.6949  0.3144  0.1388
  914MPD2    H713391   3.288   3.449  12.053 -0.1016  0.8697 -1.2520
  915MPD2     C13392   1.224   2.304  15.416  0.3111  0.2253 -0.0445
  915MPD2    C113393   1.153   2.412  15.377  0.0361 -0.2498 -0.1278
  915MPD2    C213394   1.083   2.473  15.482 -0.0087 -0.1161  0.2735
  915MPD2    C313395   1.072   2.426  15.615  0.7015  0.1563 -0.2930
  915MPD2    C413396   1.150   2.316  15.648 -0.6058 -0.2171  0.2592
  915MPD2    C513397   1.227   2.261  15.546  0.0472  0.6469  0.0217
  915MPD2     H13398   1.035   2.567  15.458  0.0949  0.4543  2.2864
  915MPD2    H113399   1.160   2.271  15.747 -0.6409 -0.3476  0.2036
  915MPD2    H213400   1.287   2.265  15.337 -0.5177  1.2764 -1.2218
  915MPD2    H313401   1.282   2.171  15.572 -1.2371 -0.2405 -0.3461
  915MPD2     N13402   0.993   2.500  15.714 -0.1873  0.0592 -0.8917
  915MPD2    H513403   0.953   2.588  15.680 -1.4417  0.4300  1.5424
  915MPD2    N113404   1.153   2.448  15.243  0.3830 -0.2768  0.5447
  915MPD2    H713405   1.212   2.396  15.179  2.1008  2.1676  0.1212
  916MPD2     C13406   4.071   0.905  15.740 -0.7536 -0.7417  0.2833
  916MPD2    C113407   4.078   0.812  15.842  0.4995 -0.4637 -0.4868
  916MPD2    C213408   4.115   0.684  15.809  0.0455  0.3586 -0.2187
  916MPD2    C313409   4.134   0.646  15.679 -0.6107 -0.3000  0.0609
  916MPD2    C413410   4.124   0.737  15.577  0.3713  0.2755  0.0784
  916MPD2    C513411   4.086   0.867  15.608  0.0079  0.0354 -0.1597
  916MPD2     H13412   4.125   0.600  15.878  0.0620 -0.2183 -0.9289
  916MPD2    H113413   4.137   0.709  15.473  0.0835  1.4203 -0.2687
  916MPD2    H213414   4.037   1.006  15.759 -0.4266 -0.9784  2.1227
  916MPD2    H313415   4.066   0.938  15.528 -1.8392 -1.0080 -0.6287
  916MPD2     N13416   4.192   0.518  15.658 -0.3783 -0.1434  0.4114
  916MPD2    H513417   4.196   0.456  15.738  0.7150 -1.0932 -0.3829
  916MPD2    N113418   4.060   0.860  15.974 -0.3434 -0.3613 -0.1882
  916MPD2    H713419   4.041   0.959  15.981  1.3657 -0.2162  2.0925
  917MPD2     C13420   4.274   3.562  10.967  0.5100  0.1501 -0.3450
  917MPD2    C113421   4.321   3.589  11.095  0.0680  0.0737  0.6234
  917MPD2    C213422   4.425   3.675  11.113 -0.2486 -0.1062  0.0475
  917MPD2    C313423   4.484   3.730  10.999  0.0157 -0.0339  0.3078
  917MPD2    C413424   4.425   3.713  10.880 -0.3543  0.0346 -0.1819
  917MPD2    C513425   4.321   3.629  10.859 -0.1971  0.6122  0.0981
  917MPD2     H13426   4.460   3.697  11.213 -1.0105  1.1299  0.0522
  917MPD2    H113427   4.464   3.765  10.794 -0.6236  1.8639  0.8031
  917MPD2    H213428   4.193   3.492  10.954  1.2046 -0.4173 -1.6602
  917MPD2    H313429   4.283   3.620  10.758 -2.7238  0.5472  1.0454
  917MPD2     N13430   4.596   3.825  11.010 -0.6014  0.1230 -0.0778
  917MPD2    H513431   4.643   3.854  10.924 -0.4998 -0.5048 -0.2317
  917MPD2    N113432   4.259   3.506  11.194  0.5882  0.4731 -0.3788
  917MPD2    H713433   4.194   3.437  11.157  1.3132 -0.3563 -0.1236
  918MPD2     C13434   4.150   3.817  12.112  0.4207 -0.0976  0.3801
  918MPD2    C113435   4.267   3.790  12.050 -0.5087  0.6392 -0.3299
  918MPD2    C213436   4.268   3.706  11.939 -0.4629  0.4047  0.3449
  918MPD2    C313437   4.152   3.643  11.902 -1.0562  0.3571 -0.0838
  918MPD2    C413438   4.033   3.678  11.965  0.7918  0.4541 -0.3982
  918MPD2    C513439   4.032   3.768  12.065  0.1055 -0.4518 -0.3702
  918MPD2     H13440   4.357   3.676  11.885  0.1753  2.1090  0.4485
  918MPD2    H113441   3.934   3.639  11.942 -0.2176  2.5043  0.4834
  918MPD2    H213442   4.147   3.898  12.184  1.1516  1.5037 -1.4035
  918MPD2    H313443   3.939   3.788  12.117 -0.3569 -4.2486  0.2929
  918MPD2     N13444   4.156   3.550  11.796  0.1549  0.4574  0.0145
  918MPD2    H513445   4.244   3.548  11.746 -0.8750  0.0292 -1.7909
  918MPD2    N113446   4.394   3.831  12.093 -0.0509  0.3560  0.1467
  918MPD2    H713447   4.474   3.801  12.039 -1.5925  0.3926 -2.1363
  919MPD2     C13448   0.495   2.437  12.022  0.8907 -0.3289 -0.2771
  919MPD2    C113449   0.476   2.326  11.939 -0.5662  0.1607  0.4939
  919MPD2    C213450   0.465   2.344  11.805 -0.0486 -0.4876 -0.1858
  919MPD2    C313451   0.451   2.468  11.749 -0.8516  0.3549  0.5595
  919MPD2    C413452   0.474   2.575  11.829 -1.0885  0.2804 -0.0120
  919MPD2    C513453   0.497   2.563  11.961 -0.7164 -0.2105  0.3777
  919MPD2     H13454   0.464   2.263  11.734 -1.9579 -1.0805  0.5162
  919MPD2    H113455   0.463   2.677  11.794 -1.0192  0.7164  1.2427
  919MPD2    H213456   0.515   2.433  12.128 -1.8715 -0.6964  0.2323
  919MPD2    H313457   0.514   2.641  12.035  1.2214 -0.0933 -0.1929
  919MPD2     N13458   0.389   2.491  11.625  0.5496 -0.8127  0.3293
  919MPD2    H513459   0.390   2.587  11.594 -2.6549  0.5595  4.4487
  919MPD2    N113460   0.460   2.191  11.978  0.3926  0.0814  0.2066
  919MPD2    H713461   0.441   2.127  11.902  2.7916 -2.9021  2.1408
  920MPD2     C13462   0.231   3.202  10.958 -0.1842  0.1119  0.1138
  920MPD2    C113463   0.171   3.109  10.878 -0.3028  0.4355  0.2288
  920MPD2    C213464   0.158   2.983  10.930  0.3580  0.3767 -0.8204
  920MPD2    C313465   0.205   2.945  11.054 -0.3962  0.2172 -0.0895
  920MPD2    C413466   0.263   3.047  11.131  0.0566 -0.4377  0.4798
  920MPD2    C513467   0.278   3.174  11.082  0.0091  0.2670 -0.3268
  920MPD2     H13468   0.120   2.906  10.863 -2.2384  0.7380  0.2367
  920MPD2    H113469   0.292   3.021  11.232 -0.7599  0.5723  0.9754
  920MPD2    H213470   0.231   3.309  10.940  0.2800  0.1839  0.5410
  920MPD2    H313471   0.333   3.247  11.141  0.2630  0.8130 -1.2312
  920MPD2     N13472   0.191   2.816  11.112  0.3614 -0.2376 -0.1450
  920MPD2    H513473   0.131   2.751  11.061  0.3899  0.0031 -0.4804
  920MPD2    N113474   0.145   3.133  10.742 -0.2827 -0.0899 -0.1787
  920MPD2    H713475   0.116   3.049  10.693 -3.4174  1.1110 -0.3520
  921MPD2     C13476   1.125   0.648  17.012  0.3503  0.7484  0.8998
  921MPD2    C113477   1.131   0.743  16.913  0.5461 -0.4445 -0.0278
  921MPD2    C213478   1.019   0.755  16.833 -0.2120  0.4914 -0.0483
  921MPD2    C313479   0.907   0.667  16.847 -0.7938  0.0779 -0.9407
  921MPD2    C413480   0.905   0.569  16.946  0.1493 -0.2187  0.1575
  921MPD2    C513481   1.014   0.561  17.025  0.3126  0.0908 -0.0829
  921MPD2     H13482   1.026   0.822  16.748 -1.1061 -1.0093 -1.2944
  921MPD2    H113483   0.817   0.509  16.966  0.5852 -0.7736  0.4039
  921MPD2    H213484   1.211   0.647  17.078  1.5580  1.1145 -0.6866
  921MPD2    H313485   1.030   0.486  17.101  0.9154  0.8496  0.5376
  921MPD2     N13486   0.799   0.667  16.759 -0.2540 -0.1598 -0.4777
  921MPD2    H513487   0.739   0.586  16.757 -0.3023 -0.1479  0.4835
  921MPD2    N113488   1.251   0.819  16.906  0.3434 -0.7890  0.4090
  921MPD2    H713489   1.317   0.800  16.981 -1.2116 -0.9770  1.7284
  922MPD2     C13490   1.818   2.985  17.187 -0.5190  0.3491  0.9051
  922MPD2    C113491   1.805   3.124  17.179 -0.1901  0.0213 -0.5024
  922MPD2    C213492   1.686   3.180  17.141  0.4150 -0.0368  0.1601
  922MPD2    C313493   1.573   3.108  17.121 -0.0573 -0.4895  0.2914
  922MPD2    C413494   1.585   2.970  17.134 -0.0986 -0.4290 -0.4420
  922MPD2    C513495   1.708   2.913  17.151  0.4929 -0.0980 -0.0302
  922MPD2     H13496   1.695   3.288  17.130 -2.6833  0.3141  1.1689
  922MPD2    H113497   1.500   2.903  17.120  0.5208 -0.8283 -2.2670
  922MPD2    H213498   1.911   2.935  17.211 -0.9972 -0.5337  0.9143
  922MPD2    H313499   1.716   2.805  17.159 -2.8332 -0.4012 -0.7066
  922MPD2     N13500   1.461   3.181  17.082  0.2608  0.4756  0.5111
  922MPD2    H513501   1.476   3.279  17.063  1.7709  0.3394  1.0317
  922MPD2    N113502   1.913   3.219  17.184 -0.5091 -0.5849 -0.3434
  922MPD2    H713503   1.884   3.316  17.170 -0.0321 -0.1127  1.9347
  923MPD2     C13504   3.400   1.387   9.125  0.3912 -0.3097 -0.1788
  923MPD2    C113505   3.349   1.418   9.254  0.3330  0.4627  0.3394
  923MPD2    C213506   3.412   1.380   9.369 -0.6632  0.6905  0.2709
  923MPD2    C313507   3.529   1.303   9.360  0.1645  0.1842 -0.0385
  923MPD2    C413508   3.575   1.267   9.236 -0.3571 -0.0212 -0.1545
  923MPD2    C513509   3.512   1.313   9.121 -0.8448 -0.2507 -0.2200
  923MPD2     H13510   3.370   1.389   9.469 -0.8329 -1.5372  0.4124
  923MPD2    H113511   3.669   1.214   9.224 -0.2523 -0.1019  0.9733
  923MPD2    H213512   3.360   1.425   9.031  0.0521  1.5386  0.7056
  923MPD2    H313513   3.556   1.283   9.027  0.2338 -1.0928  0.5620
  923MPD2     N13514   3.605   1.253   9.469  0.6774  0.5841 -0.0954
  923MPD2    H513515   3.671   1.178   9.451  0.3506  0.7620 -1.9852
  923MPD2    N113516   3.232   1.490   9.259 -0.1846  0.1777 -0.1196
  923MPD2    H713517   3.204   1.542   9.177 -2.4199  0.7809  1.0337
  924MPD2     C13518   3.339   3.975  15.838 -0.8947  0.5793  0.3406
  924MPD2    C113519   3.324   4.039  15.963 -0.1898 -0.1672  0.2583
  924MPD2    C213520   3.390   4.157  15.995 -0.5892  0.8875 -0.1871
  924MPD2    C313521   3.468   4.221  15.900 -0.3442  0.4953  0.1469
  924MPD2    C413522   3.474   4.173  15.774 -0.3572 -0.1436 -0.8553
  924MPD2    C513523   3.413   4.055  15.748  0.2864 -1.0743 -0.4178
  924MPD2     H13524   3.387   4.205  16.092  1.7471  1.3349 -0.3289
  924MPD2    H113525   3.514   4.214  15.683  2.0603  0.4389  0.4688
  924MPD2    H213526   3.290   3.887  15.800 -0.2259  0.4110 -0.1417
  924MPD2    H313527   3.413   4.015  15.647 -0.9775  0.8919 -1.1694
  924MPD2     N13528   3.533   4.341  15.936  0.1680  0.3548 -0.1746
  924MPD2    H513529   3.521   4.378  16.029 -1.7640 -2.0218  0.5017
  924MPD2    N113530   3.223   3.990  16.048 -0.0756 -0.4135  0.2410
  924MPD2    H713531   3.169   3.912  16.014  0.5920 -1.6656  2.0397
  925MPD2     C13532   1.532   1.354  14.575 -0.5345  0.0210  0.2166
  925MPD2    C113533   1.554   1.496  14.579 -0.5585  0.2593  0.3337
  925MPD2    C213534   1.575   1.557  14.701  0.1503  0.8479 -0.0671
  925MPD2    C313535   1.569   1.480  14.818 -0.0160 -0.3672 -0.2288
  925MPD2    C413536   1.557   1.343  14.805 -0.3637  0.2401 -0.2340
  925MPD2    C513537   1.530   1.287  14.688 -0.1817 -0.2072  0.5665
  925MPD2     H13538   1.608   1.660  14.706 -1.7292  1.6022 -3.1954
  925MPD2    H113539   1.561   1.284  14.896 -1.3321 -1.3810 -1.2262
  925MPD2    H213540   1.523   1.301  14.481 -1.6684  2.2016 -0.9262
  925MPD2    H313541   1.516   1.179  14.681  0.7149 -0.3238  0.5745
  925MPD2     N13542   1.606   1.530  14.945  0.1683  0.3181  0.7330
  925MPD2    H513543   1.633   1.458  15.012 -2.5120 -1.3251  0.0438
  925MPD2    N113544   1.568   1.565  14.456  0.2509 -0.1181 -0.1859
  925MPD2    H713545   1.550   1.513  14.370 -1.8607 -1.9911  1.3783
  926MPD2     C13546   1.191   0.565  12.941  0.3348 -0.0589 -0.3844
  926MPD2    C113547   1.100   0.660  12.964 -0.0314  0.5087 -0.6393
  926MPD2    C213548   1.081   0.762  12.867 -1.0134  0.3648 -0.6225
  926MPD2    C313549   1.169   0.769  12.754 -0.6687 -0.1291  0.3490
  926MPD2    C413550   1.262   0.667  12.741  0.0684 -0.6415 -0.5979
  926MPD2    C513551   1.274   0.565  12.831 -0.1282 -0.2564  0.1077
  926MPD2     H13552   0.999   0.832  12.874  0.0236  1.5725 -0.4614
  926MPD2    H113553   1.336   0.658  12.662 -0.3579  2.5566 -1.3632
  926MPD2    H213554   1.210   0.484  13.011 -2.0893  0.0373  0.3793
  926MPD2    H313555   1.348   0.486  12.819  1.2556  1.2200 -1.2298
  926MPD2     N13556   1.173   0.871  12.657  0.0228  0.5542 -0.4264
  926MPD2    H513557   1.241   0.860  12.583 -0.2261  1.6942 -0.8136
  926MPD2    N113558   1.009   0.648  13.073  0.1236 -0.4166 -0.0737
  926MPD2    H713559   0.950   0.729  13.092  1.1303  0.5741 -1.1143
  927MPD2     C13560   0.885   2.620   0.390 -0.2945  0.4667  0.4504
  927MPD2    C113561   0.753   2.599   0.356  1.0792 -0.2620  0.0014
  927MPD2    C213562   0.726   2.580   0.219 -0.4595 -0.3501  0.3235
  927MPD2    C313563   0.829   2.591   0.127 -0.6372 -0.0335  0.3175
  927MPD2    C413564   0.957   2.616   0.168  0.0514  0.1278 -0.2442
  927MPD2    C513565   0.989   2.625   0.301  0.0557  0.0774 -0.0393
  927MPD2     H13566   0.627   2.551   0.187 -0.0551 -1.4317  0.0513
  927MPD2    H113567   1.040   2.620   0.098 -0.7261 -0.2271 -1.1925
  927MPD2    H213568   0.911   2.635   0.494 -0.3082 -1.5231  0.7417
  927MPD2    H313569   1.086   2.654   0.337 -0.4072  1.0640  0.3995
  927MPD2     N13570   0.790   2.570  17.689 -0.0118 -0.0102  0.2637
  927MPD2    H513571   0.706   2.518  17.668  0.4378  0.0361 -1.6030
  927MPD2    N113572   0.663   2.566   0.465  0.1665 -0.4759 -0.1588
  927MPD2    H713573   0.702   2.528   0.551 -0.4327 -0.8403 -0.0528
  928MPD2     C13574   2.741   0.832   0.614  0.1206 -0.0940 -0.1237
  928MPD2    C113575   2.818   0.919   0.687  0.0652 -0.2741 -0.2168
  928MPD2    C213576   2.951   0.930   0.657 -0.4568  0.5598  0.1036
  928MPD2    C313577   3.003   0.858   0.549  0.6194 -0.2331 -1.2409
  928MPD2    C413578   2.923   0.782   0.469  0.7099 -0.3688  0.1134
  928MPD2    C513579   2.789   0.765   0.503 -0.0642  0.7536 -0.6672
  928MPD2     H13580   3.014   1.003   0.705  0.4900 -0.2332  0.0656
  928MPD2    H113581   2.956   0.720   0.386 -0.8890  0.0644 -0.8586
  928MPD2    H213582   2.637   0.809   0.632 -0.1822  1.1175 -0.3293
  928MPD2    H313583   2.720   0.695   0.457 -1.2242  0.5362  1.4191
  928MPD2     N13584   3.140   0.859   0.512 -0.6565 -0.7786 -0.7667
  928MPD2    H513585   3.166   0.795   0.438  0.1495 -1.1233 -0.1841
  928MPD2    N113586   2.760   0.984   0.794 -0.1261 -0.6138  0.2491
  928MPD2    H713587   2.661   0.963   0.802 -0.5536  0.7616 -1.5291
  929MPD2     C13588   3.213   1.735   9.700  0.0981 -0.4133  0.2025
  929MPD2    C113589   3.092   1.684   9.744 -0.6257  0.6996  0.6360
  929MPD2    C213590   2.984   1.778   9.730 -0.8784 -0.1588 -0.2732
  929MPD2    C313591   3.001   1.893   9.658 -0.3359  0.3716  0.1998
  929MPD2    C413592   3.120   1.936   9.608 -0.3368 -0.3623 -0.3253
  929MPD2    C513593   3.225   1.856   9.636 -0.0854  0.1531 -0.0246
  929MPD2     H13594   2.892   1.748   9.779 -1.1978  1.4051  0.0816
  929MPD2    H113595   3.135   2.026   9.550 -0.4567  0.4782  0.9294
  929MPD2    H213596   3.305   1.679   9.712 -0.4044 -1.7055 -1.9702
  929MPD2    H313597   3.319   1.896   9.601  1.2177 -0.4399  2.8742
  929MPD2     N13598   2.886   1.974   9.625  0.3515 -0.8552 -0.3082
  929MPD2    H513599   2.899   2.054   9.563 -0.5737  0.6334  1.4319
  929MPD2    N113600   3.088   1.569   9.824  0.4804  0.0781 -0.1076
  929MPD2    H713601   3.173   1.516   9.842 -0.9867 -2.1821  0.1484
  930MPD2     C13602   4.559   3.403  13.858 -0.5610 -0.8626 -0.3175
  930MPD2    C113603   4.683   3.353  13.888 -0.1748  0.1682 -0.3091
  930MPD2    C213604   0.009   3.256  13.808  0.2977 -0.0711 -0.2808
  930MPD2    C313605   4.656   3.206  13.707  0.3754 -0.0914  0.1804
  930MPD2    C413606   4.531   3.255  13.684  0.5769 -0.4938 -0.2342
  930MPD2    C513607   4.481   3.348  13.769 -0.0295  0.2700 -0.2735
  930MPD2     H13608   0.117   3.243  13.806  0.1263 -1.5556 -0.3299
  930MPD2    H113609   4.473   3.232  13.596  1.1703  0.3559 -0.8463
  930MPD2    H213610   4.517   3.479  13.923  1.5394 -0.9790  1.1954
  930MPD2    H313611   4.382   3.392  13.755 -0.1503 -0.1501 -0.7714
  930MPD2     N13612   4.712   3.129  13.603 -0.8788  0.3319  0.2652
  930MPD2    H513613   4.675   3.140  13.509  1.3973  2.6054 -0.3489
  930MPD2    N113614   0.042   3.428  13.979  0.6906 -0.1657 -0.1441
  930MPD2    H713615   0.017   3.524  14.000  1.2769 -0.4148  1.7220
  931MPD2     C13616   0.840   2.009   0.697  0.5281 -0.0137  0.2731
  931MPD2    C113617   0.707   2.028   0.725 -0.2442  0.8815 -0.0976
  931MPD2    C213618   0.641   1.957   0.821  0.1263 -0.7762 -0.4476
  931MPD2    C313619   0.717   1.862   0.893  0.6114  0.8319 -0.0736
  931MPD2    C413620   0.852   1.841   0.868  0.4035  0.4568 -0.2957
  931MPD2    C513621   0.909   1.907   0.764 -0.1657 -0.2184  0.1984
  931MPD2     H13622   0.548   2.003   0.852  0.6711 -1.7070  2.4778
  931MPD2    H113623   0.907   1.768   0.927 -2.6022 -1.4141  0.2297
  931MPD2    H213624   0.896   2.070   0.628  0.5638 -0.8126 -0.4040
  931MPD2    H313625   1.015   1.902   0.747  0.0837 -0.2806  1.7467
  931MPD2     N13626   0.664   1.797   1.004  0.2373  0.4417 -0.1126
  931MPD2    H513627   0.723   1.745   1.067  1.4063  0.1580 -1.4553
  931MPD2    N113628   0.643   2.126   0.640  0.8657  0.7183 -0.3451
  931MPD2    H713629   0.696   2.187   0.578  2.5912  0.4310  0.8362
  932MPD2     C13630   2.112   2.458  11.311  0.6237 -0.5517  0.1289
  932MPD2    C113631   2.230   2.489  11.376 -0.2624 -0.0028 -0.1926
  932MPD2    C213632   2.291   2.401  11.455  0.6912 -0.1320 -0.1954
  932MPD2    C313633   2.247   2.269  11.457  0.4171 -0.3790 -0.2658
  932MPD2    C413634   2.135   2.235  11.392 -0.4082  0.9813 -0.5532
  932MPD2    C513635   2.063   2.328  11.324 -0.3563  0.5329  0.7334
  932MPD2     H13636   2.371   2.424  11.525 -1.1063  0.8369  1.5628
  932MPD2    H113637   2.092   2.135  11.391  1.6698  0.0737  0.7592
  932MPD2    H213638   2.057   2.521  11.242 -0.0934  1.3734  2.4880
  932MPD2    H313639   1.975   2.310  11.263  0.0315 -0.1871  0.3830
  932MPD2     N13640   2.321   2.177  11.536 -0.7586  0.3285  0.2613
  932MPD2    H513641   2.412   2.211  11.566 -0.4092 -0.0076 -0.4029
  932MPD2    N113642   2.286   2.617  11.366 -0.0841 -0.1686  0.3581
  932MPD2    H713643   2.369   2.628  11.423  0.1451  1.7031 -0.3369
  933MPD2     C13644   2.164   1.469   1.189  0.7113  0.0819 -0.5953
  933MPD2    C113645   2.220   1.419   1.069  0.4733  0.3170 -0.2427
  933MPD2    C213646   2.146   1.432   0.952 -0.0382  0.3571  0.0440
  933MPD2    C313647   2.015   1.487   0.963  0.2093 -0.1227  0.7823
  933MPD2    C413648   1.952   1.515   1.083 -0.3751  0.3735  0.5119
  933MPD2    C513649   2.026   1.498   1.198  0.4023 -0.1796  0.8990
  933MPD2     H13650   2.185   1.401   0.856 -0.7142  0.7292 -0.3550
  933MPD2    H113651   1.849   1.547   1.088  0.6912  3.4231  2.9749
  933MPD2    H213652   2.226   1.467   1.278 -0.8111 -2.1689  0.3935
  933MPD2    H313653   1.990   1.525   1.297 -0.0145  1.4582  0.3070
  933MPD2     N13654   1.951   1.512   0.839  0.0251  0.1799 -0.3532
  933MPD2    H513655   1.999   1.481   0.756 -0.2809  1.7223 -1.0913
  933MPD2    N113656   2.349   1.371   1.072  0.7334 -0.2116  0.3961
  933MPD2    H713657   2.391   1.380   1.164 -0.2533 -0.7617  0.9016
  934MPD2     C13658   4.252   3.505   2.181 -0.0963 -0.3460  0.7957
  934MPD2    C113659   4.353   3.443   2.109 -0.7492 -0.2485  0.2399
  934MPD2    C213660   4.310   3.360   2.005 -0.7995  0.3007 -0.0622
  934MPD2    C313661   4.173   3.341   1.986  0.1440  0.5756 -0.6221
  934MPD2    C413662   4.075   3.394   2.069  0.1897 -0.4190  0.2290
  934MPD2    C513663   4.119   3.489   2.154  0.4659  0.1290  0.3332
  934MPD2     H13664   4.386   3.308   1.948 -2.0267  1.3844 -2.7310
  934MPD2    H113665   3.971   3.380   2.042  0.4662  0.9747 -1.5769
  934MPD2    H213666   4.290   3.569   2.260 -0.3295  0.2265  0.4497
  934MPD2    H313667   4.049   3.545   2.215  0.4452  0.7161 -0.2248
  934MPD2     N13668   4.121   3.250   1.882 -0.1855 -0.2290 -0.1923
  934MPD2    H513669   4.021   3.233   1.874 -0.4032  0.7305  0.4223
  934MPD2    N113670   4.491   3.463   2.132 -0.4508 -0.1515  0.5783
  934MPD2    H713671   4.550   3.405   2.073 -0.2655 -1.1284  1.7246
  935MPD2     C13672   4.535   2.560   1.292  0.3409  0.1886  0.1723
  935MPD2    C113673   4.400   2.539   1.276 -0.1673  0.0868  0.3941
  935MPD2    C213674   4.311   2.634   1.325 -0.0690 -0.0061 -0.1453
  935MPD2    C313675   4.357   2.745   1.399 -0.0156 -0.1489  0.2107
  935MPD2    C413676   4.490   2.763   1.418 -0.4303 -0.0941 -0.0097
  935MPD2    C513677   4.580   2.669   1.359  0.5253  0.1703  0.6688
  935MPD2     H13678   4.206   2.634   1.295 -0.7594 -1.4802  2.2867
  935MPD2    H113679   4.532   2.844   1.476 -1.1685  1.8893 -2.2214
  935MPD2    H213680   4.611   2.495   1.250  0.4845  1.3079 -1.2937
  935MPD2    H313681   4.686   2.684   1.373  0.3183 -0.6415  3.0766
  935MPD2     N13682   4.272   2.839   1.464  0.4514 -0.3191 -0.4303
  935MPD2    H513683   4.316   2.912   1.518 -0.4685 -0.5466  0.6166
  935MPD2    N113684   4.354   2.432   1.195  0.3457  0.4260 -0.2323
  935MPD2    H713685   4.261   2.449   1.159  0.5957  3.2607  0.5257
  936MPD2     C13686   2.469   0.654  12.046  0.7827 -0.2550 -0.1023
  936MPD2    C113687   2.559   0.679  12.148 -0.1326 -0.5256 -0.1473
  936MPD2    C213688   2.600   0.803  12.180 -0.5657 -0.1136 -0.3106
  936MPD2    C313689   2.564   0.913  12.104 -0.3736 -0.6534  0.0364
  936MPD2    C413690   2.470   0.894  12.005 -0.2501 -0.0434 -1.1434
  936MPD2    C513691   2.423   0.766  11.982  0.8188  0.4172 -0.0831
  936MPD2     H13692   2.679   0.815  12.254 -2.0021  2.9723  0.6802
  936MPD2    H113693   2.436   0.977  11.943 -0.5218  1.1363  0.5949
  936MPD2    H213694   2.433   0.554  12.022  1.5011 -0.6292  0.3718
  936MPD2    H313695   2.347   0.765  11.904 -1.8635 -0.2416  2.5651
  936MPD2     N13696   2.632   1.044  12.130 -0.1877  0.0983  0.8879
  936MPD2    H513697   2.702   1.047  12.203  1.4815 -0.3834 -0.7011
  936MPD2    N113698   2.614   0.573  12.228  0.0894 -0.6223  0.2111
  936MPD2    H713699   2.665   0.596  12.313 -1.2336  1.6148  0.4107
  937MPD2     C13700   0.570   1.606  11.616 -0.3926 -0.4699 -0.1383
  937MPD2    C113701   0.585   1.734  11.655  0.1521 -0.3846  0.1238
  937MPD2    C213702   0.621   1.832  11.556 -0.3153  0.0365  0.0387
  937MPD2    C313703   0.658   1.794  11.429 -0.3898  0.1446 -0.0637
  937MPD2    C413704   0.658   1.658  11.398 -0.0904  0.9904  0.0129
  937MPD2    C513705   0.613   1.569  11.491  0.0029  0.6023 -0.3543
  937MPD2     H13706   0.614   1.938  11.578 -1.5244  0.0574 -0.4140
  937MPD2    H113707   0.702   1.619  11.307  0.6504  1.0045  0.3642
  937MPD2    H213708   0.543   1.525  11.683 -1.7423 -0.9738 -1.2813
  937MPD2    H313709   0.613   1.463  11.466 -1.9092  0.3311  0.7912
  937MPD2     N13710   0.681   1.903  11.341 -0.2040 -0.1105  0.2166
  937MPD2    H513711   0.686   1.999  11.371  0.5524  0.0090 -0.2816
  937MPD2    N113712   0.528   1.787  11.773  0.3208 -0.0174 -0.1497
  937MPD2    H713713   0.533   1.888  11.784  1.1615 -0.0526 -0.1645
  938MPD2     C13714   2.862   2.686   0.902 -0.2762 -0.1856  0.4288
  938MPD2    C113715   2.989   2.719   0.940  0.5024  0.2125 -0.7620
  938MPD2    C213716   3.041   2.654   1.051 -0.0564 -0.9748 -0.2970
  938MPD2    C313717   2.962   2.565   1.129  0.2353 -0.0486 -0.4995
  938MPD2    C413718   2.830   2.545   1.099 -0.3647  0.4129 -0.7936
  938MPD2    C513719   2.788   2.604   0.982 -0.1782  0.6681 -0.3555
  938MPD2     H13720   3.147   2.665   1.067 -0.2080 -2.2290  1.5435
  938MPD2    H113721   2.775   2.485   1.171  1.2757  0.2224  0.3046
  938MPD2    H213722   2.809   2.726   0.816 -1.1588  2.0451  2.0307
  938MPD2    H313723   2.680   2.601   0.966 -0.2624 -1.3141  0.5887
  938MPD2     N13724   3.004   2.515   1.256 -0.3383 -0.6572 -0.8152
  938MPD2    H513725   2.923   2.495   1.314 -0.5511 -0.9751 -1.2295
  938MPD2    N113726   3.067   2.821   0.873 -0.4657  0.0063 -0.1947
  938MPD2    H713727   3.168   2.821   0.879 -0.4800  2.7962  0.1132
  939MPD2     C13728   0.137   4.033   1.246 -0.3712  0.0952 -0.5349
  939MPD2    C113729   0.197   4.158   1.251 -0.0126 -0.0089  0.4814
  939MPD2    C213730   0.280   4.194   1.139  0.0150  0.3564 -0.0117
  939MPD2    C313731   0.301   4.105   1.036 -0.4786  0.2302 -0.4442
  939MPD2    C413732   0.230   3.987   1.041 -0.5041  0.7342  0.0799
  939MPD2    C513733   0.155   3.947   1.146  0.2197  0.1485 -0.1928
  939MPD2     H13734   0.331   4.289   1.127 -0.5056  0.4432 -1.5554
  939MPD2    H113735   0.226   3.912   0.962  0.7102  0.4450  0.2824
  939MPD2    H213736   0.061   3.996   1.315  0.9245  0.3992  1.0658
  939MPD2    H313737   0.111   3.848   1.148  1.4793 -0.4253 -0.7254
  939MPD2     N13738   0.383   4.141   0.927 -0.1030 -0.0556 -0.5075
  939MPD2    H513739   0.420   4.236   0.918 -1.2383  0.1870 -2.5971
  939MPD2    N113740   0.180   4.241   1.362 -1.0531 -0.1471  0.2722
  939MPD2    H713741   0.099   4.223   1.420 -1.1252 -1.0045 -0.0967
  940MPD2     C13742   2.908   0.768  13.040  0.2299 -0.9322  0.0794
  940MPD2    C113743   2.993   0.698  13.120  0.1756 -0.7365  1.0620
  940MPD2    C213744   3.109   0.641  13.065 -0.6983  0.1311  0.3109
  940MPD2    C313745   3.140   0.659  12.930  0.5865 -0.9437  1.0767
  940MPD2    C413746   3.047   0.717  12.847  0.4644  0.2266 -0.0802
  940MPD2    C513747   2.939   0.777  12.906  0.2154 -0.1131 -0.8628
  940MPD2     H13748   3.179   0.590  13.130 -0.9019 -1.9006 -1.0733
  940MPD2    H113749   3.060   0.729  12.740  0.3287 -0.9681 -0.2250
  940MPD2    H213750   2.812   0.803  13.076  0.2711  0.3712 -1.0858
  940MPD2    H313751   2.875   0.824  12.833  0.1754  0.5031 -0.4276
  940MPD2     N13752   3.256   0.600  12.867  0.1525  0.1841  0.4190
  940MPD2    H513753   3.254   0.599  12.765  1.4667  2.6727  0.3520
  940MPD2    N113754   2.965   0.664  13.255 -0.3592  1.0878 -0.9223
  940MPD2    H713755   3.033   0.602  13.298 -1.7720 -0.7430 -1.3640
  941MPD2     C13756   2.257   4.157   9.095 -0.2397  0.2639 -0.0975
  941MPD2    C113757   2.192   4.139   9.214 -0.0802  0.1379 -0.1698
  941MPD2    C213758   2.181   4.013   9.271  0.0881  0.8089  0.4394
  941MPD2    C313759   2.223   3.902   9.195  0.3269  0.6057 -0.0586
  941MPD2    C413760   2.291   3.926   9.072 -0.7888  0.1977  0.6169
  941MPD2    C513761   2.297   4.047   9.024  0.6913 -0.5152 -0.0917
  941MPD2     H13762   2.139   3.986   9.367 -2.1604  0.6373 -0.5860
  941MPD2    H113763   2.346   3.844   9.025  1.5272 -0.4968  4.5306
  941MPD2    H213764   2.296   4.251   9.057 -1.4777  0.5373 -0.6929
  941MPD2    H313765   2.353   4.067   8.933  0.1787  0.0987 -0.2715
  941MPD2     N13766   2.193   3.775   9.225 -0.4212  0.6584 -0.1115
  941MPD2    H513767   2.231   3.702   9.167  2.0351  1.1738  0.8529
  941MPD2    N113768   2.154   4.242   9.296  0.5965  0.2223 -0.1043
  941MPD2    H713769   2.119   4.230   9.391 -0.7966 -2.0443 -0.8807
  942MPD2     C13770   2.573   1.122   9.475  0.1934  0.1326 -0.2022
  942MPD2    C113771   2.602   1.229   9.396  1.0076  0.0953  0.7660
  942MPD2    C213772   2.727   1.239   9.331  0.8684 -0.5879 -0.1018
  942MPD2    C313773   2.813   1.132   9.344 -0.1170  0.0993 -0.6120
  942MPD2    C413774   2.776   1.018   9.418 -0.0626 -0.2681 -0.6953
  942MPD2    C513775   2.653   1.010   9.481 -0.2704 -0.9337  0.3953
  942MPD2     H13776   2.739   1.310   9.250 -1.7387  1.6920  1.5061
  942MPD2    H113777   2.838   0.929   9.423 -0.3372 -0.4278 -0.1212
  942MPD2    H213778   2.479   1.126   9.529  0.1522  0.0107 -0.2654
  942MPD2    H313779   2.621   0.925   9.539 -2.2274  0.0481  0.7736
  942MPD2     N13780   2.939   1.133   9.279 -0.3859 -0.3202 -0.3059
  942MPD2    H513781   2.987   1.047   9.303 -2.4550 -1.2095  0.7157
  942MPD2    N113782   2.508   1.328   9.367  0.0404 -0.0450  0.1299
  942MPD2    H713783   2.542   1.403   9.308 -0.2901  0.2992  0.3774
  943MPD2     C13784   1.520   3.046   9.193 -0.5251 -0.5544 -0.5511
  943MPD2    C113785   1.523   3.171   9.254 -0.8266  0.5521  0.5125
  943MPD2    C213786   1.603   3.272   9.199 -0.4939 -0.0092  0.0823
  943MPD2    C313787   1.680   3.242   9.087  0.1282  0.1282  0.3084
  943MPD2    C413788   1.665   3.122   9.029 -0.1542  0.4837  0.3197
  943MPD2    C513789   1.598   3.015   9.088  0.4672 -0.0276  0.4281
  943MPD2     H13790   1.622   3.365   9.251 -0.3578 -0.6846  1.2379
  943MPD2    H113791   1.705   3.094   8.933 -0.4846  0.9254  0.0522
  943MPD2    H213792   1.459   2.967   9.237 -2.7097  1.3527 -0.1583
  943MPD2    H313793   1.603   2.912   9.054  2.4919 -0.0175  0.7348
  943MPD2     N13794   1.759   3.332   9.013  0.0470 -0.1551 -0.5328
  943MPD2    H513795   1.810   3.291   8.935  2.5008 -0.5435  1.2567
  943MPD2    N113796   1.470   3.182   9.385  0.1850 -0.5836  0.0222
  943MPD2    H713797   1.422   3.102   9.424  2.1182 -2.1331 -0.8378
  944MPD2     C13798   0.749   3.033  11.102  0.1264 -0.3350 -0.2917
  944MPD2    C113799   0.862   3.109  11.103  0.2869  0.0147 -0.3232
  944MPD2    C213800   0.853   3.235  11.165 -0.3321 -0.2603  0.3635
  944MPD2    C313801   0.737   3.271  11.232  0.4451  0.4305 -0.1685
  944MPD2    C413802   0.633   3.181  11.243 -0.1898 -0.9710 -0.4012
  944MPD2    C513803   0.639   3.062  11.175 -0.0706 -0.1980 -0.0815
  944MPD2     H13804   0.927   3.314  11.161  0.5287 -1.0819  0.0945
  944MPD2    H113805   0.543   3.204  11.298  0.6452 -0.7542  0.8645
  944MPD2    H213806   0.742   2.935  11.055 -0.7672  0.6658 -2.2336
  944MPD2    H313807   0.558   2.990  11.187 -0.3256  0.2468  0.9296
  944MPD2     N13808   0.728   3.397  11.291 -0.3974 -0.1114  0.3953
  944MPD2    H513809   0.807   3.460  11.281 -1.4894  1.4454  1.4910
  944MPD2    N113810   0.986   3.076  11.052  0.7116 -0.1625 -0.2954
  944MPD2    H713811   1.054   3.152  11.045  0.9398 -0.2322  1.1419
    1TCq1    O113812   3.628   3.700  14.766  0.2972 -0.1488  0.3436
    1TCq1    C113813   3.615   3.686  14.638 -0.9202  0.2209 -0.1117
    1TCq1    O213814   3.570   3.592  14.574  0.1400 -0.0160 -0.4833
    1TCq1    C213815   3.593   3.819  14.580  0.4412  0.5023 -0.3121
    1TCq1    C313816   3.603   3.832  14.444 -0.0417 -0.3377 -0.8442
    1TCq1    C413817   3.649   3.947  14.394 -0.8300  0.5144  0.1553
    1TCq1    C513818   3.670   4.050  14.476 -0.0563 -0.3745  0.4642
    1TCq1    C613819   3.651   4.039  14.610  0.0705 -0.5996  0.7597
    1TCq1    C713820   3.619   3.922  14.669  0.4284 -0.6033 -0.0059
    1TCq1    C813821   3.710   4.139  14.705  0.2637 -0.3015 -0.0059
    1TCq1    O413822   3.739   4.095  14.817 -0.2039  0.0737 -0.7594
    1TCq1    C913823   3.676   3.957  14.255 -0.0344  0.5319 -0.1335
    1TCq1    O513824   3.714   4.061  14.201  0.0887 -0.0527  0.5779
    1TCq1    O613825   3.664   3.845  14.192 -0.1568 -0.1352 -0.3283
    1TCq1    H113826   3.684   3.774  14.798  1.3107 -1.5281  1.7301
    1TCq1    H213827   3.580   3.751  14.376  1.0504 -1.8077  0.5383
    1TCq1    H313828   3.717   4.139  14.436 -1.2610 -0.7028 -1.6710
    1TCq1    H413829   3.587   3.925  14.772 -0.1670 -2.3656 -0.1438
    2MPD2     C13830   3.836   4.633  14.818  0.0908 -1.0853  0.9559
    2MPD2    C113831   3.772   4.631  14.698  0.3777  0.0734 -0.2452
    2MPD2    C213832   3.725   4.514  14.640 -0.0806 -0.0844  0.3665
    2MPD2    C313833   3.743   4.392  14.703  0.3570  0.3221  0.3574
    2MPD2    C413834   3.798   4.392  14.829  0.7929  0.8028 -0.8980
    2MPD2    C513835   3.839   4.509  14.885  0.3370 -0.6102  0.5701
    2MPD2     H13836   3.696   4.514  14.536 -0.9939 -1.3194  0.6235
    2MPD2    H113837   3.801   4.304  14.891 -1.0894  0.8256 -0.7641
    2MPD2    H213838   3.868   0.002  14.865  0.3358 -0.7456  0.1207
    2MPD2    H313839   3.891   4.509  14.980  0.3194  2.2279  0.5845
    2MPD2     N13840   3.703   4.270  14.644  0.0267  0.2060 -0.3001
    2MPD2    H513841   3.669   4.267  14.549 -3.0352  0.4135  0.8067
    2MPD2    N113842   3.787   0.034  14.642  0.3531  0.5804 -0.4749
    2MPD2    H713843   3.867   0.086  14.675 -0.4374  1.7244 -0.3703
    3TMC2    C113844   3.810   0.205  14.494 -0.0789 -0.2165 -0.4661
    3TMC2    C213845   3.863   0.286  14.596  0.0880 -1.0394 -1.0723
    3TMC2    C313846   3.906   0.408  14.570  0.9077  0.6133 -0.5412
    3TMC2    C413847   3.805   0.251  14.363  0.0201  0.6924 -0.2958
    3TMC2    C513848   3.852   0.378  14.332  0.0389  0.2528  0.4402
    3TMC2    C613849   3.900   0.461  14.442 -0.3077 -0.1815 -0.2430
    3TMC2     C13850   3.743   0.083  14.522  0.2520  0.3577 -0.0048
    3TMC2     O13851   3.674   0.032  14.438 -0.6791  0.4583 -0.3776
    3TMC2     H13852   3.865   0.264  14.702 -0.8443 -1.8358 -1.2172
    3TMC2    H113853   3.762   0.184  14.289 -0.8991 -0.4445  1.2598
    3TMC2    H213854   3.920   0.567  14.426 -1.9110  0.4708  2.1176
    3TMC2    C713855   3.782   0.437  14.217  0.5304  0.2676 -0.8178
    3TMC2    C813856   3.932   0.498  14.681  0.2284  0.4675 -0.0157
    3TMC2    O113857   3.672   0.399  14.183 -0.2793 -0.6177 -0.4037
    3TMC2    O213858   3.926   0.618  14.670  0.4962 -0.3750 -0.1062
    3TMC2    O513859   4.009   0.438  14.774 -0.3138  0.2108  0.7584
    3TMC2    H513860   4.029   0.346  14.747 -0.8140 -0.3314  2.2465
    4MPD2     C13861   3.833   1.143  13.043 -0.1704 -0.1919 -0.2309
    4MPD2    C113862   3.765   1.092  13.155 -0.1138 -0.1940  0.4455
    4MPD2    C213863   3.846   1.064  13.268 -0.3906 -0.6040  0.0294
    4MPD2    C313864   3.986   1.081  13.271  0.5203  0.1324  0.0020
    4MPD2    C413865   4.047   1.128  13.156  0.0432 -0.0491  0.0935
    4MPD2    C513866   3.972   1.157  13.051 -0.6731  0.2403  0.0169
    4MPD2     H13867   3.803   1.021  13.358 -1.0540  0.5802  0.2923
    4MPD2    H113868   4.155   1.140  13.150  0.4116 -3.3905  0.1735
    4MPD2    H213869   3.784   1.154  12.947 -0.8622 -3.8333 -0.2759
    4MPD2    H313870   4.033   1.184  12.965  0.9709 -1.5070  0.6183
    4MPD2     N13871   4.049   1.045  13.395 -0.4072  0.2657  0.2300
    4MPD2    H513872   3.988   1.016  13.472 -0.0983  2.4199  1.2936
    4MPD2    N113873   3.629   1.061  13.150 -0.1602  0.2411 -0.1691
    4MPD2    H713874   3.589   1.060  13.057  1.8893 -1.0113 -1.0536
    5TCq2    C113875   4.186   1.065  13.423 -0.3546  0.3625 -0.0795
    5TCq2    O213876   4.279   1.107  13.359  0.6116  0.0872  0.7542
    5TCq2    C213877   4.231   1.024  13.559  0.2412 -0.0633 -0.4879
    5TCq2    C313878   4.358   1.052  13.593 -0.7748 -0.3163 -0.1714
    5TCq2    C413879   4.397   1.037  13.724 -0.2122  0.3046  1.0309
    5TCq2    C513880   4.311   0.988  13.821 -0.6327  0.2498 -0.1371
    5TCq2    C613881   4.182   0.952  13.781 -0.6649 -0.3600 -0.1575
    5TCq2    C713882   4.137   0.977  13.652  0.7235  0.2989 -0.2150
    5TCq2    C813883   4.106   0.884  13.876  0.5636 -0.1510  0.2398
    5TCq2    O413884   4.161   0.827  13.972 -0.2358 -0.1500 -0.0727
    5TCq2    C913885   4.523   1.089  13.768  0.5560 -0.3820 -0.1200
    5TCq2    O513886   4.549   1.088  13.893  0.5504 -0.1430  0.3566
    5TCq2    O613887   4.577   1.154  13.679  0.0085 -0.2897  1.1228
    5TCq2    H213888   4.426   1.100  13.523 -0.2246 -0.5484  0.2108
    5TCq2    H313889   4.341   0.977  13.924 -0.2853  0.6512 -0.1958
    5TCq2    H413890   4.041   0.939  13.621  1.5118 -1.2356 -0.7840
    6MPD1     C13891   2.269   1.950  12.150 -1.0575  0.3311  0.3584
    6MPD1    C113892   2.274   1.990  12.281 -0.3492  0.5691  0.2512
    6MPD1    C213893   2.381   1.952  12.357 -0.8535  0.0375  0.1055
    6MPD1    C313894   2.485   1.877  12.310 -0.0446  0.5262 -0.3762
    6MPD1    C413895   2.482   1.840  12.177 -0.8457 -0.4669 -0.8414
    6MPD1    C513896   2.376   1.879  12.095 -1.2118 -0.2270 -0.7690
    6MPD1     H13897   2.381   1.977  12.463  0.9764  0.1970  0.0725
    6MPD1    H113898   2.562   1.779  12.134  1.5681 -0.5149  3.7385
    6MPD1    H213899   2.186   1.972  12.084 -0.0809  1.2590 -0.5500
    6MPD1    H313900   2.377   1.854  11.989 -1.2477 -2.8488 -0.1409
    6MPD1     N13901   2.581   1.823  12.398 -0.6891  0.4666 -0.2643
    6MPD1    H513902   2.648   1.758  12.357 -3.1897 -1.1968 -1.7432
    6MPD1    N113903   2.165   2.059  12.339  0.0533  0.5532  0.1794
    6MPD1    H613904   2.127   2.129  12.276  0.4225 -0.0565 -0.7198
    6MPD1    H713905   2.187   2.106  12.427 -1.0764 -0.5190  1.0395
    7MPD2     C13906   2.852   1.611  13.229  1.3780  0.0619  0.0058
    7MPD2    C113907   2.893   1.543  13.118  1.0802 -0.1958 -0.0810
    7MPD2    C213908   2.950   1.414  13.128 -0.1277 -0.3501  0.7673
    7MPD2    C313909   2.983   1.358  13.248  0.1165  0.6050 -0.4659
    7MPD2    C413910   2.954   1.433  13.360 -0.5739  0.3808  0.5706
    7MPD2    C513911   2.894   1.554  13.345  0.0338 -0.4168 -0.1603
    7MPD2     H13912   2.973   1.351  13.042 -0.9406 -1.1911  1.1702
    7MPD2    H113913   2.980   1.406  13.462 -2.4272 -0.4828  0.8304
    7MPD2    H213914   2.790   1.701  13.229  2.7856  1.0337 -0.4380
    7MPD2    H313915   2.886   1.617  13.434 -1.8741  1.0780 -1.3822
    7MPD2     N13916   3.066   1.242  13.246  0.1571  0.0523  0.1276
    7MPD2    H513917   3.069   1.206  13.152 -2.2163  1.2062 -0.3876
    7MPD2    N113918   2.861   1.576  12.982  0.5664  0.4358 -0.5729
    7MPD2    H713919   2.890   1.510  12.910 -1.1353  0.3495 -1.1719
    8TMC3    C113920   3.177   1.052  13.285  0.1709 -0.2480  1.1671
    8TMC3    C213921   3.309   1.034  13.326 -0.1958 -0.6717  0.0352
    8TMC3    C313922   3.403   1.016  13.225  0.4401 -0.0617 -0.0396
    8TMC3    C413923   3.145   1.032  13.154  0.3216 -0.2653 -0.7492
    8TMC3    C513924   3.238   1.036  13.061  0.6010 -0.9448 -0.7697
    8TMC3    C613925   3.369   1.015  13.091 -0.2749 -0.2171  0.2227
    8TMC3     C13926   3.122   1.171  13.348 -0.6231  0.2424 -0.3724
    8TMC3     O13927   3.140   1.183  13.466  0.4430  0.0218  0.0150
    8TMC3     H13928   3.329   1.031  13.433 -0.4497  1.7436  0.1470
    8TMC3    H113929   3.042   1.016  13.127  0.5309 -1.9846 -0.5206
    8TMC3    H213930   3.440   0.984  13.016 -0.2929  0.1534  0.0519
    8TMC3    C713931   3.184   1.107  12.941  0.0730  0.2741  0.4719
    8TMC3    C813932   3.541   1.037  13.259  0.2473  0.0388  0.2177
    8TMC3    O113933   3.079   1.161  12.962 -0.5349 -0.0895 -0.1907
    8TMC3    O213934   3.561   1.045  13.381  0.0395 -0.4225 -0.1334
    9TMC3    C113935   2.701   1.766  12.589  0.5196  0.2469  0.3329
    9TMC3    C213936   2.798   1.696  12.511 -0.1142  0.9343 -0.0652
    9TMC3    C313937   2.900   1.640  12.585  0.4170  0.2638  0.2049
    9TMC3    C413938   2.705   1.770  12.726 -0.1849 -0.2439  0.3762
    9TMC3    C513939   2.801   1.697  12.793 -0.2384  0.3592  0.5797
    9TMC3    C613940   2.900   1.642  12.724 -0.0630 -0.3960 -0.2929
    9TMC3     C13941   2.587   1.839  12.535 -0.7082  0.4729  0.1115
    9TMC3     O13942   2.512   1.904  12.614  0.0521  0.0228 -0.1101
    9TMC3     H13943   2.796   1.688  12.403 -2.1850 -2.5865  0.2029
    9TMC3    H113944   2.640   1.837  12.782  0.8785 -0.9106  2.4090
    9TMC3    H213945   2.988   1.603  12.772  0.2502 -0.5636 -0.9946
    9TMC3    C713946   2.800   1.690  12.937 -0.1405 -0.4262  0.0711
    9TMC3    C813947   2.995   1.550  12.517  0.0138 -0.6130  0.1012
    9TMC3    O113948   2.747   1.777  13.004  0.5470 -0.5133 -0.0105
    9TMC3    O213949   3.028   1.574  12.400 -0.4855  0.1625  0.3852
   10MPD2     C13950   3.354   1.187  12.622 -0.7479  0.3201  0.0479
   10MPD2    C113951   3.250   1.187  12.718  0.4942  0.5949 -0.3215
   10MPD2    C213952   3.139   1.264  12.692  0.7013 -0.2060 -0.3144
   10MPD2    C313953   3.135   1.358  12.597 -0.5041  0.4681 -0.0725
   10MPD2    C413954   3.242   1.360  12.502 -0.1044  0.4593  0.7162
   10MPD2    C513955   3.348   1.275  12.518  0.3159 -0.4072  0.2224
   10MPD2     H13956   3.054   1.245  12.758  0.6673  1.3163  0.0680
   10MPD2    H113957   3.237   1.424  12.414 -0.8236  0.7207  0.9428
   10MPD2    H213958   3.448   1.134  12.630 -0.4538  0.4402 -2.5875
   10MPD2    H313959   3.427   1.290  12.446 -0.1357 -1.6204 -0.5076
   10MPD2     N13960   3.028   1.446  12.597 -0.2404 -0.2453  0.5861
   10MPD2    H513961   2.956   1.425  12.665  1.7679 -3.6416  1.6387
   10MPD2    N113962   3.274   1.108  12.835  0.1748 -0.3282 -0.2278
   10MPD2    H713963   3.352   1.043  12.837  1.4461  1.1874 -0.1057
   11MPD2     C13964   3.681   0.651  14.052 -0.1665 -0.1938 -0.3196
   11MPD2    C113965   3.811   0.624  14.060  0.1363 -0.4179 -0.4353
   11MPD2    C213966   3.910   0.702  13.998 -0.0187  0.8601 -0.3077
   11MPD2    C313967   3.878   0.808  13.917 -0.2235  0.1961 -0.1866
   11MPD2    C413968   3.741   0.836  13.912 -0.0760  0.6533 -0.4668
   11MPD2    C513969   3.645   0.764  13.978 -0.3178  0.2094  0.2477
   11MPD2     H13970   4.013   0.669  14.008 -0.4926 -0.8402 -1.0988
   11MPD2    H113971   3.707   0.927  13.865 -0.4746 -0.4919 -2.3768
   11MPD2    H213972   3.600   0.601  14.105  0.6975 -0.9204  0.3154
   11MPD2    H313973   3.539   0.786  13.974 -0.3144  0.1387 -0.3005
   11MPD2     N13974   3.972   0.880  13.847  0.2418 -0.3885  0.5040
   11MPD2    H513975   3.935   0.950  13.783 -2.7331 -1.2309  1.2727
   11MPD2    N113976   3.860   0.528  14.149  0.6426  0.1322  0.3443
   11MPD2    H713977   3.957   0.540  14.176  0.7779 -0.9324  0.3468
    1MPD1     C13978   2.386   1.706  15.994  0.6758 -0.6042  0.7175
    1MPD1    C113979   2.273   1.746  16.057  0.3426  0.1426  0.3698
    1MPD1    C213980   2.223   1.668  16.161 -0.0959  0.2249  0.8072
    1MPD1    C313981   2.294   1.570  16.225  0.2495 -0.8229  1.0892
    1MPD1    C413982   2.415   1.539  16.164 -0.2166  0.3336 -0.2001
    1MPD1    C513983   2.452   1.595  16.041 -0.1146 -0.2135  0.6013
    1MPD1     H13984   2.123   1.691  16.194 -0.7055  0.9016 -1.5007
    1MPD1    H113985   2.476   1.456  16.197 -0.0714 -0.8585 -3.4377
    1MPD1    H213986   2.415   1.752  15.900 -1.3293  2.3334  1.5337
    1MPD1    H313987   2.546   1.561  15.999 -0.6001 -1.1349  0.2626
    1MPD1     N13988   2.248   1.496  16.339  0.6305 -0.3244  0.5599
    1MPD1    H513989   2.301   1.415  16.369  0.6418 -0.1898  0.9158
    1MPD1    N113990   2.181   1.843  15.999  0.5488 -0.4409 -0.2462
    1MPD1    H613991   2.219   1.921  15.945 -0.8995  0.8008  0.5498
    1MPD1    H713992   2.122   1.886  16.070  0.1190  0.3246 -1.0619
    2MPD1     C13993   2.749   1.021  16.742  0.2727 -0.1892 -0.0622
    2MPD1    C113994   2.685   1.006  16.617 -0.0244 -0.3238 -0.1769
    2MPD1    C213995   2.556   1.063  16.609 -0.1855  0.6119 -1.0607
    2MPD1    C313996   2.494   1.125  16.714  0.7059 -0.0682 -0.1599
    2MPD1    C413997   2.555   1.127  16.840  0.0787  0.3468  0.6997
    2MPD1    C513998   2.684   1.078  16.847  0.4598 -0.6488 -0.3430
    2MPD1     H13999   2.501   1.070  16.516 -1.9399 -0.2897 -0.0867
    2MPD1    H114000   2.517   1.181  16.925 -1.8788  1.4118 -0.8461
    2MPD1    H214001   2.857   1.017  16.755  0.3716 -1.7798 -1.4282
    2MPD1    H314002   2.737   1.094  16.941 -0.6161 -3.4399  0.7471
    2MPD1     N14003   2.374   1.198  16.684 -0.5882 -0.3035  0.7270
    2MPD1    H514004   2.355   1.212  16.585 -0.7475  1.8306  1.0627
    2MPD1    N114005   2.761   0.975  16.502  0.0099 -0.1466  0.1394
    2MPD1    H614006   2.704   0.925  16.434 -1.1576 -1.1539  1.8761
    2MPD1    H714007   2.841   0.914  16.513  1.1628  1.3375  0.0582
    3TMC3    C114008   2.180   1.327  16.717  0.1256  1.0530  0.1840
    3TMC3    C214009   2.052   1.324  16.764 -0.4120 -0.2083  0.4463
    3TMC3    C314010   1.946   1.362  16.687 -0.2166  0.5672 -1.0007
    3TMC3    C414011   2.208   1.385  16.595 -0.3157 -0.0762  0.6048
    3TMC3    C514012   2.104   1.431  16.521  0.3507 -0.1679 -0.4589
    3TMC3    C614013   1.976   1.413  16.563  0.6988  0.7560 -0.0685
    3TMC3     C14014   2.285   1.245  16.778 -1.0784  0.4268 -1.0006
    3TMC3     O14015   2.258   1.207  16.892 -0.1296  0.3314 -0.1914
    3TMC3     H14016   2.037   1.283  16.864 -2.6474 -0.7602 -0.1091
    3TMC3    H114017   2.308   1.421  16.577 -0.9739  1.5131  0.1881
    3TMC3    H214018   1.902   1.467  16.504 -0.4917 -0.2735  0.4996
    3TMC3    C714019   2.126   1.511  16.405  1.0674 -0.6884  0.0099
    3TMC3    C814020   1.815   1.357  16.746 -0.4466  0.6793  0.2198
    3TMC3    O114021   2.045   1.600  16.379 -0.2914  0.2466 -0.3133
    3TMC3    O214022   1.801   1.364  16.870  0.0765 -1.0810 -0.0922
    4MPD1     C14023   1.319   1.440  16.662 -0.1159  0.1938 -0.9937
    4MPD1    C114024   1.373   1.387  16.548 -0.1279  1.2309 -0.4722
    4MPD1    C214025   1.509   1.369  16.550 -0.6081 -0.1291 -0.2873
    4MPD1    C314026   1.590   1.396  16.660 -0.5298 -0.8472 -0.6187
    4MPD1    C414027   1.523   1.433  16.774  0.4096 -0.4856 -0.5417
    4MPD1    C514028   1.391   1.470  16.774 -0.3298 -0.2488  0.7544
    4MPD1     H14029   1.553   1.346  16.454  3.7760  4.4136  0.6269
    4MPD1    H114030   1.585   1.462  16.858 -0.3307 -0.4335 -0.0155
    4MPD1    H214031   1.213   1.461  16.666  0.2167  2.2304 -2.7717
    4MPD1    H314032   1.345   1.510  16.863 -1.2166 -1.5888  0.8934
    4MPD1     N14033   1.720   1.363  16.646  0.6437 -0.3082 -0.3033
    4MPD1    H514034   1.739   1.322  16.555  1.1466  0.9951 -0.7842
    4MPD1    N114035   1.306   1.368  16.423 -0.1533  0.3330  0.1687
    4MPD1    H614036   1.210   1.337  16.434 -0.1506  0.9824  2.1832
    4MPD1    H714037   1.355   1.313  16.353 -2.0908 -0.6587 -0.4052
    1TCq1    O114038   2.532   1.897  11.256  0.0821 -0.4794  0.1690
    1TCq1    C114039   2.445   2.005  11.230  0.3132 -0.1431 -0.5457
    1TCq1    O214040   2.490   2.113  11.209  0.1704 -0.0463  0.3601
    1TCq1    C214041   2.318   1.949  11.191  0.3772  0.4289 -0.6524
    1TCq1    C314042   2.278   1.827  11.243  0.1949 -0.4733 -0.5853
    1TCq1    C414043   2.163   1.775  11.192 -0.2519  0.2578  0.6543
    1TCq1    C514044   2.126   1.819  11.070  0.1140  0.2813  0.3380
    1TCq1    C614045   2.171   1.931  11.012  0.2892 -0.1551  0.7180
    1TCq1    C714046   2.265   2.003  11.077 -0.4181  0.3951 -0.1658
    1TCq1    C814047   2.115   1.998  10.900 -0.4188 -0.6247 -0.1368
    1TCq1    O414048   2.159   2.107  10.866 -0.0850  0.3291 -0.0188
    1TCq1    C914049   2.134   1.639  11.241 -0.3351 -0.2747 -0.3133
    1TCq1    O514050   2.056   1.571  11.170 -0.1824 -0.7281 -0.2374
    1TCq1    O614051   2.203   1.603  11.336  0.8487  0.2242  0.5939
    1TCq1    H114052   2.486   1.813  11.235  0.8708 -0.9625  0.3576
    1TCq1    H214053   2.324   1.793  11.335  1.2436 -0.0627 -0.9553
    1TCq1    H314054   2.037   1.767  11.036 -0.1811  0.5214  0.7479
    1TCq1    H414055   2.316   2.091  11.039  0.9936 -0.5560 -0.4730
    2MPD1     C14056   1.898   1.956  10.427 -0.4995  0.6602  0.4439
    2MPD1    C114057   1.836   1.872  10.518 -1.0195 -0.1309  0.1054
    2MPD1    C214058   1.873   1.869  10.651 -0.1891  0.0171 -0.0014
    2MPD1    C314059   1.977   1.946  10.701 -0.6145 -0.3740  0.1774
    2MPD1    C414060   2.027   2.043  10.614 -0.2636  0.0605  0.3298
    2MPD1    C514061   1.988   2.047  10.482 -0.3748 -0.2772 -0.8922
    2MPD1     H14062   1.816   1.807  10.719  2.8670 -1.0158  1.6221
    2MPD1    H114063   2.112   2.108  10.632  0.2039 -1.2598  2.9789
    2MPD1    H214064   1.876   1.950  10.321 -0.1401  2.4310  0.2721
    2MPD1    H314065   2.047   2.110  10.416  1.0826  0.3905  1.0419
    2MPD1     N14066   2.024   1.925  10.830  0.0304  0.5084 -0.4301
    2MPD1    H514067   1.989   1.842  10.876 -1.4803  1.1201 -0.4562
    2MPD1    N114068   1.760   1.763  10.469  0.6964 -0.0838  0.3088
    2MPD1    H614069   1.701   1.705  10.527 -0.8470  2.0508  0.8529
    2MPD1    H714070   1.711   1.782  10.382  0.7341  3.1287  0.9886
    1TCq1    O114071   1.206   3.707   9.492  0.0721 -0.4057 -0.0089
    1TCq1    C114072   1.195   3.663   9.367  0.3736 -0.3315  0.6929
    1TCq1    O214073   1.258   3.710   9.274 -0.0470  0.3515 -0.4888
    1TCq1    C214074   1.128   3.535   9.375  0.2054 -0.6190  0.2501
    1TCq1    C314075   1.027   3.519   9.464  0.3122  0.4496 -0.7198
    1TCq1    C414076   0.952   3.399   9.471  0.6905 -0.2962 -0.2820
    1TCq1    C514077   0.962   3.316   9.357 -0.0414 -0.5860 -0.5941
    1TCq1    C614078   1.067   3.328   9.267 -0.5569 -0.1547 -0.5900
    1TCq1    C714079   1.148   3.442   9.283 -0.4694  0.2626 -0.2156
    1TCq1    C814080   1.077   3.261   9.142 -0.0057 -0.1600 -0.4293
    1TCq1    O414081   1.140   3.310   9.051  0.2091 -0.3802 -0.0824
    1TCq1    C914082   0.830   3.386   9.553  0.7155 -0.1322  0.5931
    1TCq1    O514083   0.779   3.487   9.608 -0.5131 -0.0989  0.5575
    1TCq1    O614084   0.757   3.282   9.536 -0.2102  0.0578  0.0346
    1TCq1    H114085   1.177   3.646   9.564  1.5807  0.3924  1.2896
    1TCq1    H214086   1.005   3.595   9.537  2.1469  0.5070 -0.2345
    1TCq1    H314087   0.896   3.231   9.346  0.3227 -1.0171  0.5385
    1TCq1    H414088   1.228   3.471   9.216 -0.1925 -2.3587 -1.0139
    2MPD1     C14089   0.938   2.903   8.799  0.6362 -0.2021  0.2730
    2MPD1    C114090   0.889   2.868   8.918 -0.1107  0.2578  0.2917
    2MPD1    C214091   0.912   2.953   9.024  0.5439  0.9895 -0.0186
    2MPD1    C314092   0.989   3.071   9.012 -0.0566 -0.1060 -0.1611
    2MPD1    C414093   1.046   3.095   8.887  0.5126  0.0284 -0.4157
    2MPD1    C514094   1.022   3.012   8.784  0.1746 -0.0410  0.6685
    2MPD1     H14095   0.859   2.940   9.118  1.5467  0.3274  0.4596
    2MPD1    H114096   1.101   3.185   8.865  0.5022  0.1040 -0.1302
    2MPD1    H214097   0.925   2.838   8.713  2.6056 -0.9728  0.5604
    2MPD1    H314098   1.071   3.028   8.689  0.6778  0.2865  0.9811
    2MPD1     N14099   0.995   3.151   9.130  0.4391 -0.8222 -0.2484
    2MPD1    H514100   0.952   3.117   9.216  1.0420  0.1026  0.4189
    2MPD1    N114101   0.782   2.772   8.923  0.2382  0.8618 -0.1852
    2MPD1    H614102   0.805   2.693   8.863 -1.4985 -0.8962  1.4779
    2MPD1    H714103   0.762   2.745   9.019  0.3688 -3.3894 -1.3472
    1MPD1     C14104   3.722   1.165  12.022  0.4880 -0.1969  0.7154
    1MPD1    C114105   3.855   1.156  12.045  0.2836 -0.5053 -0.4536
    1MPD1    C214106   3.944   1.264  12.032 -0.1295 -0.6990 -0.5785
    1MPD1    C314107   3.886   1.375  11.964  0.3229 -0.0346 -0.0278
    1MPD1    C414108   3.751   1.374  11.930  0.1483 -0.6109  0.3063
    1MPD1    C514109   3.671   1.272  11.967 -1.1995  0.7991  0.2628
    1MPD1     H14110   4.052   1.259  12.044  0.1002  1.5737 -1.7290
    1MPD1    H114111   3.703   1.472  11.925  1.0482 -0.2398 -1.0729
    1MPD1    H214112   3.653   1.086  12.049  0.0861 -0.2296 -0.4080
    1MPD1    H314113   3.563   1.278  11.966 -1.1869  1.0314  0.5870
    1MPD1     N14114   3.976   1.472  11.927  0.1792 -0.3088  0.2572
    1MPD1    H514115   4.074   1.463  11.953  0.5722 -1.1905 -1.5173
    1MPD1    N114116   3.902   1.036  12.092 -0.0453  0.3822  0.0208
    1MPD1    H614117   4.000   1.012  12.076 -0.1274 -0.0567  0.1600
    1MPD1    H714118   3.839   0.958  12.073  1.1338 -0.2697 -1.2609
    2MPD1     C14119   3.784   2.084  11.230  0.1009 -0.2538 -0.1449
    2MPD1    C114120   3.745   2.070  11.097  0.3019  1.0307 -0.3373
    2MPD1    C214121   3.805   1.973  11.021 -0.0891 -0.0670 -0.7863
    2MPD1    C314122   3.931   1.922  11.059 -0.0318  0.3424 -0.2198
    2MPD1    C414123   3.977   1.954  11.187  0.2357  0.3336 -0.7349
    2MPD1    C514124   3.898   2.022  11.275  0.0081 -0.3709  0.0382
    2MPD1     H14125   3.770   1.954  10.921 -3.4381 -0.4087  0.4692
    2MPD1    H114126   4.070   1.919  11.228  1.0992  1.6196 -1.6044
    2MPD1    H214127   3.731   2.154  11.294  1.2655 -1.0311  1.6939
    2MPD1    H314128   3.940   2.036  11.374  0.8033  0.8581 -0.4820
    2MPD1     N14129   4.011   1.842  10.978  0.4017  0.0350  0.0145
    2MPD1    H514130   4.089   1.793  11.022 -1.4305 -2.4698  0.5200
    2MPD1    N114131   3.622   2.118  11.050 -0.2895  0.8383  0.1798
    2MPD1    H614132   3.591   2.204  11.095 -1.3280 -0.4535  1.9643
    2MPD1    H714133   3.633   2.146  10.953  2.3657 -2.7217 -0.5325
    3MPD1     C14134   3.674   1.168  10.256 -0.5885  0.5381 -0.9450
    3MPD1    C114135   3.668   1.309  10.237  0.6512  0.1728  0.3427
    3MPD1    C214136   3.753   1.388  10.319  0.6790 -0.2907 -0.0163
    3MPD1    C314137   3.849   1.336  10.408  0.5051 -0.3332 -1.0723
    3MPD1    C414138   3.861   1.201  10.417 -0.0972 -0.0413  0.1881
    3MPD1    C514139   3.772   1.121  10.348 -0.5021 -0.3322  0.5105
    3MPD1     H14140   3.743   1.495  10.308 -1.7774 -0.6866 -1.7586
    3MPD1    H114141   3.909   1.153  10.501  0.8261  2.1189  0.9183
    3MPD1    H214142   3.599   1.105  10.211  0.6825  0.3490 -2.8025
    3MPD1    H314143   3.775   1.015  10.370 -1.8869 -0.6320 -0.7368
    3MPD1     N14144   3.909   1.426  10.509 -0.1361 -0.5108  0.1078
    3MPD1    H514145   3.859   1.514  10.510  1.5729  0.4557  1.3495
    3MPD1    N114146   3.557   1.362  10.170  0.3554  0.0392  0.2482
    3MPD1    H614147   3.584   1.437  10.107  0.3489 -0.4710 -0.3667
    3MPD1    H714148   3.505   1.296  10.113  1.7247  0.5273 -1.5612
    4MPD2     C14149   4.250   2.114  11.460  0.2476 -0.4211 -0.0370
    4MPD2    C114150   4.324   2.058  11.557 -0.4405 -0.6107  0.2763
    4MPD2    C214151   4.464   2.043  11.534  0.2929  0.4852  0.2184
    4MPD2    C314152   4.528   2.082  11.424 -0.0402 -0.4385 -0.2269
    4MPD2    C414153   4.451   2.147  11.330  0.2120 -0.3563  0.3734
    4MPD2    C514154   4.321   2.167  11.353 -0.0045 -0.1824  0.2243
    4MPD2     H14155   4.520   1.993  11.612  1.7903  1.1461 -0.4372
    4MPD2    H114156   4.508   2.192  11.250 -0.0486  0.3546  0.5952
    4MPD2    H214157   4.144   2.132  11.470  0.3869  1.3421 -1.7129
    4MPD2    H314158   4.266   2.212  11.271  0.7419 -1.4228 -0.9520
    4MPD2     N14159   4.668   2.050  11.391  0.2853 -0.1630 -0.3448
    4MPD2    H514160   4.698   2.083  11.300 -0.4373 -0.9515 -0.8622
    4MPD2    N114161   4.274   2.003  11.677  0.1813 -0.1569  0.0146
    4MPD2    H714162   4.340   1.952  11.736  0.0964 -3.4367 -2.7531
    5TMC3    C114163   4.127   1.903  11.826 -0.1854  0.2090 -0.5113
    5TMC3    C214164   4.041   1.800  11.802  0.2478  0.1796  0.4264
    5TMC3    C314165   4.057   1.681  11.866 -0.2153  0.1811 -1.3811
    5TMC3    C414166   4.239   1.897  11.905 -0.0553 -1.2208 -0.6125
    5TMC3    C514167   4.272   1.768  11.942  0.9569  0.7842  0.5135
    5TMC3    C614168   4.177   1.664  11.934 -0.2187 -0.3804  0.0032
    5TMC3     C14169   4.143   1.987  11.708  0.4734  0.6119 -0.2866
    5TMC3     O14170   4.042   1.989  11.638  0.8440  0.6724  0.9073
    5TMC3     H14171   3.968   1.815  11.724  1.8294  0.3770 -1.0026
    5TMC3    H114172   4.303   1.982  11.925  0.2244 -1.5233 -0.2081
    5TMC3    H214173   4.203   1.569  11.978 -1.8310  0.2449  2.2918
    5TMC3    C714174   4.400   1.738  11.867 -0.7814 -0.2830 -0.1007
    5TMC3    C814175   3.944   1.589  11.869  0.5692 -0.0625  0.3833
    5TMC3    O114176   4.455   1.840  11.827  0.9078 -0.4735  0.1241
    5TMC3    O214177   3.840   1.630  11.817 -0.6258  0.4993  0.1183
    6TMC3    C114178   4.058   1.698  10.788  0.3884 -0.5949 -0.2268
    6TMC3    C214179   3.990   1.611  10.706  0.1531 -0.0780 -0.6507
    6TMC3    C314180   4.066   1.500  10.670  0.8127 -0.5755 -0.2015
    6TMC3    C414181   4.180   1.691  10.831  0.4176  0.2185  0.2951
    6TMC3    C514182   4.253   1.587  10.793  0.0731 -0.2204 -0.0206
    6TMC3    C614183   4.200   1.490  10.712 -0.8568  0.2849 -0.1880
    6TMC3     C14184   3.980   1.805  10.848 -0.1168  0.8977 -0.7344
    6TMC3     O14185   3.890   1.842  10.774 -0.1943  0.2849 -0.2496
    6TMC3     H14186   3.886   1.629  10.681  0.5651  1.7972 -0.9834
    6TMC3    H114187   4.224   1.770  10.891 -2.0605  0.8361  1.3104
    6TMC3    H214188   4.258   1.406  10.675  2.7193  1.9646  1.5932
    6TMC3    C714189   4.397   1.596  10.812 -0.0233 -0.8675  0.3472
    6TMC3    C814190   4.021   1.401  10.583  0.2661  0.4530  0.1356
    6TMC3    O114191   4.436   1.708  10.819  0.4603 -0.1525  0.2514
    6TMC3    O214192   4.087   1.299  10.580  0.1177  0.2641  0.8048
    7MPD2     C14193   0.026   1.432  11.649  0.0089 -0.7295 -0.5028
    7MPD2    C114194   0.014   1.573  11.641 -0.0446  0.0227  0.3829
    7MPD2    C214195   4.639   1.629  11.714  0.1659 -0.6800  0.1508
    7MPD2    C314196   4.545   1.560  11.786  0.4603  0.5085 -0.1663
    7MPD2    C414197   4.557   1.423  11.786 -0.6806 -0.0835 -0.3726
    7MPD2    C514198   4.652   1.361  11.717  0.3569  0.4923  0.5741
    7MPD2     H14199   4.645   1.737  11.721  0.4446 -0.7700  1.3918
    7MPD2    H114200   4.484   1.359  11.836 -1.8329  1.0579 -0.5968
    7MPD2    H214201   0.097   1.369  11.596 -0.0180 -2.0875  1.0665
    7MPD2    H314202   4.657   1.253  11.708  1.6532  0.6916 -1.0555
    7MPD2     N14203   4.437   1.606  11.856 -0.3779  0.4410 -0.3686
    7MPD2    H514204   4.377   1.540  11.906 -0.1092  0.2969 -0.2355
    7MPD2    N114205   0.108   1.653  11.573  0.4086 -0.4582 -0.2719
    7MPD2    H714206   0.099   1.753  11.560 -0.7550 -0.4160  0.9302
    8TMC3    C114207   0.262   1.718  11.406 -0.0632  0.8324  0.4447
    8TMC3    C214208   0.250   1.690  11.274 -0.3402  0.0417  0.6425
    8TMC3    C314209   0.164   1.768  11.201  0.1742  0.6349  0.4715
    8TMC3    C414210   0.232   1.844  11.459 -0.8526 -0.8750 -0.4403
    8TMC3    C514211   0.147   1.924  11.392  0.2919 -0.5387  0.1939
    8TMC3    C614212   0.120   1.888  11.256  0.5813  0.1242  0.4116
    8TMC3     C14213   0.208   1.606  11.491 -0.1943  0.3525 -0.1711
    8TMC3     O14214   0.233   1.494  11.454  0.4301 -0.6277  0.2945
    8TMC3     H14215   0.279   1.590  11.245  0.6917  0.1923  1.1479
    8TMC3    H114216   0.259   1.871  11.560  0.1842 -0.1109 -0.9136
    8TMC3    H214217   0.048   1.946  11.200  0.8873 -0.2432 -0.3558
    8TMC3    C714218   0.035   1.980  11.473  0.2104 -0.3089  0.4568
    8TMC3    C814219   0.095   1.727  11.078  0.0581 -1.4089  0.4921
    8TMC3    O114220   0.025   1.925  11.579  0.1264  0.0928  0.0189
    8TMC3    O214221   4.707   1.787  11.063  0.0923  0.0336  0.0687
    9MPD2     C14222   0.141   1.415  10.905 -0.6557 -0.6142  0.2584
    9MPD2    C114223   0.086   1.533  10.923 -0.1849 -1.5161  0.1283
    9MPD2    C214224   4.682   1.549  10.883 -0.0673  0.2077 -0.0341
    9MPD2    C314225   4.602   1.451  10.826  0.3054  0.3693 -1.0487
    9MPD2    C414226   4.666   1.327  10.803  0.1254  1.0725  0.2730
    9MPD2    C514227   0.073   1.321  10.845 -0.0261 -0.0010 -0.6587
    9MPD2     H14228   4.638   1.645  10.906  0.6838  0.5729 -0.1318
    9MPD2    H114229   4.619   1.237  10.767  0.3294  0.4855  1.4780
    9MPD2    H214230   0.239   1.390  10.943 -0.7240 -4.3416 -2.0772
    9MPD2    H314231   0.118   1.222  10.850  0.1962  0.0931 -0.8124
    9MPD2     N14232   4.463   1.473  10.814 -0.1874  0.1923  0.3746
    9MPD2    H514233   4.418   1.385  10.794 -1.0854  0.8185 -0.3887
    9MPD2    N114234   0.152   1.621  11.019  0.5736 -0.8238  0.0611
    9MPD2    H714235   0.251   1.611  11.037  1.1183  0.2122 -2.3917
    1MPD1     C14236   3.227   3.791  16.821 -0.0433 -0.4730 -0.6394
    1MPD1    C114237   3.196   3.690  16.737 -0.1782  0.0503  0.3021
    1MPD1    C214238   3.254   3.701  16.611  1.1284 -0.2286  0.0095
    1MPD1    C314239   3.338   3.805  16.571  0.0545 -0.8560  0.2650
    1MPD1    C414240   3.361   3.901  16.657 -0.0406 -0.7867 -0.3146
    1MPD1    C514241   3.307   3.896  16.784 -0.0852 -0.3456 -0.3425
    1MPD1     H14242   3.230   3.634  16.529 -0.1471 -0.2487  0.3951
    1MPD1    H114243   3.416   3.993  16.641 -2.4588  0.8554  0.9755
    1MPD1    H214244   3.192   3.783  16.924  2.9666  0.6003  0.4768
    1MPD1    H314245   3.336   3.971  16.857 -0.0072 -1.4324  0.7317
    1MPD1     N14246   3.402   3.821  16.447 -0.2077 -0.0201  0.6670
    1MPD1    H514247   3.475   3.891  16.449  0.2425 -0.4620 -0.3580
    1MPD1    N114248   3.088   3.602  16.760  0.3455 -0.1398  0.1859
    1MPD1    H614249   3.104   3.516  16.709 -0.8907  1.4623 -2.8805
    1MPD1    H714250   3.083   3.571  16.857 -2.5043 -1.6853 -0.4431
    2MPD1     C14251   3.962   4.372  15.849 -0.0188 -0.0382  0.2464
    2MPD1    C114252   3.929   4.268  15.763  0.6076 -0.7316  0.3136
    2MPD1    C214253   3.849   4.166  15.817  0.5416  0.1905  0.7622
    2MPD1    C314254   3.822   4.157  15.950 -0.2106 -0.1165 -0.3293
    2MPD1    C414255   3.863   4.263  16.034 -0.0305  0.6104 -0.1463
    2MPD1    C514256   3.940   4.357  15.983  0.2285 -0.4031 -0.0751
    2MPD1     H14257   3.821   4.084  15.752  1.4857 -0.4873  1.1995
    2MPD1    H114258   3.844   4.254  16.140  1.4667 -2.2411 -0.1332
    2MPD1    H214259   4.007   4.463  15.811 -1.2090 -0.4383 -2.1236
    2MPD1    H314260   3.988   4.431  16.046  2.0986  0.3080 -2.3535
    2MPD1     N14261   3.761   4.038  15.995 -0.2191  0.4914  0.1251
    2MPD1    H514262   3.743   3.958  15.935 -1.2074 -0.4612  1.6876
    2MPD1    N114263   3.944   4.284  15.626 -0.5733 -0.1805  0.3694
    2MPD1    H614264   4.024   4.343  15.605 -0.9594  0.2962  0.2325
    2MPD1    H714265   3.954   4.192  15.583  0.0242  1.2991 -2.7063
    3TCq2    C114266   3.704   4.018  16.120  0.8558  0.2527 -0.4365
    3TCq2    O214267   3.706   4.090  16.220  0.0350  0.3449  0.4276
    3TCq2    C214268   3.644   3.886  16.125  0.4057 -0.3621  0.0298
    3TCq2    C314269   3.662   3.794  16.022 -0.0082  0.0635 -0.3076
    3TCq2    C414270   3.568   3.685  16.025 -0.1745  0.6906  0.4976
    3TCq2    C514271   3.480   3.672  16.129 -0.1199 -0.3929 -0.3890
    3TCq2    C614272   3.473   3.764  16.232  0.1408  0.2364 -0.3424
    3TCq2    C714273   3.554   3.875  16.227  0.7803  0.1534 -0.2239
    3TCq2    C814274   3.378   3.736  16.337  0.0679  0.5490 -0.1508
    3TCq2    O414275   3.300   3.641  16.322 -0.8248  0.0962  0.0713
    3TCq2    C914276   3.558   3.601  15.906  0.6937 -0.0156 -0.8585
    3TCq2    O514277   3.617   3.647  15.806 -1.3609 -0.1937 -0.5828
    3TCq2    O614278   3.467   3.508  15.905  0.1572 -0.3578 -0.1247
    3TCq2    H214279   3.738   3.807  15.946 -0.8972  3.9310 -0.5388
    3TCq2    H314280   3.404   3.595  16.119 -2.4001  1.7614  0.4037
    3TCq2    H414281   3.529   3.963  16.284  1.0203  0.7068 -0.9816
    1TCq1    O114282   1.588   4.463  12.626  0.4224 -0.3151 -0.3034
    1TCq1    C114283   1.695   4.522  12.683 -0.0498 -1.0701  0.1043
    1TCq1    O214284   1.693   4.636  12.734  0.6382  0.4752 -0.5141
    1TCq1    C214285   1.777   4.422  12.736 -0.4814  0.1197  0.1246
    1TCq1    C314286   1.725   4.303  12.787  0.3700 -0.9299 -0.7546
    1TCq1    C414287   1.810   4.214  12.854 -0.7556  0.1888  0.4614
    1TCq1    C514288   1.937   4.249  12.873 -0.1716 -0.1329 -1.0371
    1TCq1    C614289   1.989   4.374  12.840 -0.5678 -0.2110 -0.1227
    1TCq1    C714290   1.903   4.459  12.759 -0.6460  0.1205  0.2247
    1TCq1    C814291   2.135   4.391  12.835  0.0840  0.4824  0.3066
    1TCq1    O414292   2.173   4.473  12.752  0.2256 -0.5797 -0.3351
    1TCq1    C914293   1.761   4.087  12.905 -0.4147 -0.4391 -1.1438
    1TCq1    O514294   1.639   4.077  12.892 -0.0099  0.0671 -0.5537
    1TCq1    O614295   1.856   4.008  12.944  0.1045 -0.8765  0.6617
    1TCq1    H114296   1.616   4.372  12.599  0.8060 -0.1624 -0.4109
    1TCq1    H214297   1.617   4.298  12.776  0.2909 -1.3510  0.1741
    1TCq1    H314298   2.003   4.178  12.921  1.0101  1.2033 -0.7045
    1TCq1    H414299   1.936   4.555  12.720 -1.5703  0.9337  1.4400
    2MPD2     C14300   2.437   4.408  12.867  0.0892 -0.4078  0.2615
    2MPD2    C114301   2.349   4.352  12.955 -0.1173  0.3386  0.7238
    2MPD2    C214302   2.404   4.329  13.083 -0.0268 -0.2001  0.1633
    2MPD2    C314303   2.534   4.351  13.114  0.6900  0.0999 -0.2054
    2MPD2    C414304   2.624   4.395  13.020  0.9483 -0.6236  0.0975
    2MPD2    C514305   2.572   4.427  12.896 -0.3274 -0.5255  0.9396
    2MPD2     H14306   2.334   4.287  13.154 -0.1748 -1.2895 -0.6068
    2MPD2    H114307   2.728   4.418  13.042  0.9622 -2.4523  1.9581
    2MPD2    H214308   2.408   4.429  12.765 -0.1508 -0.3769  0.3373
    2MPD2    H314309   2.634   4.479  12.823 -0.3436 -1.4532  0.2616
    2MPD2     N14310   2.576   4.328  13.248  0.4704 -0.1019 -0.1957
    2MPD2    H514311   2.500   4.335  13.315  0.9891  0.4806  0.3382
    2MPD2    N114312   2.207   4.335  12.936  0.3979  0.2082  0.0130
    2MPD2    H714313   2.158   4.284  13.009  0.3125 -1.3192 -1.1086
    3TCq1    O114314   2.514   4.544  13.776  0.6784  0.4502 -0.2752
    3TCq1    C114315   2.581   4.567  13.659 -0.2506 -0.6206  0.4468
    3TCq1    O214316   2.551   4.660  13.584  0.1852  0.0182  0.0655
    3TCq1    C214317   2.626   4.443  13.614 -0.2565 -0.3942 -0.5064
    3TCq1    C314318   2.714   4.373  13.696  0.4570  0.4226 -0.7110
    3TCq1    C414319   2.798   4.283  13.638  0.4166 -0.1407  0.1040
    3TCq1    C514320   2.798   4.264  13.499  0.2662 -0.3483 -0.5686
    3TCq1    C614321   2.712   4.336  13.423 -0.2225 -0.3408 -0.5546
    3TCq1    C714322   2.631   4.428  13.478  0.4821  0.1711 -0.3038
    3TCq1    C814323   2.704   4.312  13.286  0.1302 -0.0297  0.3267
    3TCq1    O414324   2.799   4.285  13.219 -0.5456 -0.5699  0.2392
    3TCq1    C914325   2.894   4.215  13.716  0.3864  0.4009 -0.4094
    3TCq1    O514326   2.915   4.249  13.838  0.1155 -0.7773 -0.1668
    3TCq1    O614327   2.959   4.120  13.659 -0.3700  0.0770  0.1926
    3TCq1    H114328   2.539   4.458  13.816 -1.1709 -0.3880 -0.8910
    3TCq1    H214329   2.727   4.400  13.800 -1.9252  0.5619 -0.4456
    3TCq1    H314330   2.861   4.194  13.445 -0.4240 -1.0434 -0.4933
    3TCq1    H414331   2.566   4.494  13.421  0.5328 -1.3723 -2.1898
    1MPD2     C14332   1.944   0.351  15.031  0.2400  0.3213 -0.2175
    1MPD2    C114333   1.819   0.316  15.069  0.3845  0.8624  0.3116
    1MPD2    C214334   1.784   0.188  15.038 -0.5617 -0.2793 -0.7344
    1MPD2    C314335   1.867   0.094  14.973  0.7686  0.2942 -0.2915
    1MPD2    C414336   1.993   0.121  14.949 -0.6999 -0.4595 -0.1064
    1MPD2    C514337   2.028   0.254  14.976 -0.5441 -0.5769 -0.5562
    1MPD2     H14338   1.678   0.165  15.037 -0.6642  0.2459 -1.4206
    1MPD2    H114339   2.064   0.054  14.904  1.0374 -0.6079  2.8793
    1MPD2    H214340   1.980   0.453  15.040  2.7890 -0.7377  1.5605
    1MPD2    H314341   2.127   0.286  14.944 -0.7167  2.2741  1.6646
    1MPD2     N14342   1.815   4.694  14.923 -0.0975  0.2789  0.2488
    1MPD2    H514343   1.862   4.634  14.857  0.7265 -1.1581  2.1345
    1MPD2    N114344   1.725   0.406  15.118  0.2698 -0.1242 -0.2698
    1MPD2    H714345   1.751   0.503  15.098 -1.9142 -0.0389 -2.6995
    2TMC3    C114346   1.520   0.480  15.220 -0.6558  0.3674 -0.2960
    2TMC3    C214347   1.428   0.444  15.315  1.0536  0.2501  1.3931
    2TMC3    C314348   1.292   0.474  15.303  0.1226  0.4990 -0.3046
    2TMC3    C414349   1.476   0.559  15.117 -0.6617 -0.6405  0.0547
    2TMC3    C514350   1.345   0.600  15.105 -0.1693  0.0093  0.2211
    2TMC3    C614351   1.252   0.559  15.200 -0.3801  0.3513  0.4513
    2TMC3     C14352   1.607   0.371  15.187 -0.7025 -0.9715 -0.2074
    2TMC3     O14353   1.572   0.269  15.244 -0.1427  0.3309  0.4173
    2TMC3     H14354   1.459   0.388  15.402  0.0698  0.8710  2.1449
    2TMC3    H114355   1.540   0.580  15.032  0.1572 -1.7458  0.3992
    2TMC3    H214356   1.147   0.568  15.173  0.1144  0.1158 -1.5274
    2TMC3    C714357   1.316   0.703  15.007  0.2052  0.6222  0.0613
    2TMC3    C814358   1.205   0.357  15.306 -0.1127 -0.4069 -0.3737
    2TMC3    O114359   1.415   0.776  14.997  0.1723  0.8287 -0.4626
    2TMC3    O214360   1.086   0.384  15.328  0.1260  0.7508 -0.7107
    3TCq1    O114361   0.256   0.841  14.682  0.8925  0.2918  0.0797
    3TCq1    C114362   0.364   0.770  14.707  0.0196 -0.1398  1.3255
    3TCq1    O214363   0.366   0.652  14.735 -0.1224  0.1951 -0.3977
    3TCq1    C214364   0.446   0.805  14.590 -0.1232  0.6074 -0.5208
    3TCq1    C314365   0.390   0.819  14.471  0.0903  0.5028 -0.3080
    3TCq1    C414366   0.468   0.856  14.364  0.6430 -0.0153 -0.3105
    3TCq1    C514367   0.603   0.871  14.388 -0.5687  0.8062  0.8340
    3TCq1    C614368   0.656   0.842  14.514 -0.6500  0.0716 -0.3120
    3TCq1    C714369   0.577   0.816  14.622 -0.2424  0.5383  0.4346
    3TCq1    C814370   0.786   0.911  14.537  0.6287  0.5781  0.3955
    3TCq1    O414371   0.806   1.017  14.485  0.0691 -0.7416 -0.2948
    3TCq1    C914372   0.410   0.862  14.230  0.7706  0.4145  0.0192
    3TCq1    O514373   0.488   0.875  14.131  0.6420  0.0278 -0.3528
    3TCq1    O614374   0.297   0.814  14.215  0.3703  0.5161  0.6665
    3TCq1    H114375   0.282   0.933  14.661 -1.1714  0.9000  0.1817
    3TCq1    H214376   0.285   0.797  14.451  0.0283  0.4782  0.0345
    3TCq1    H314377   0.673   0.886  14.307 -0.1916 -2.2790  0.5932
    3TCq1    H414378   0.608   0.813  14.726 -2.3509  0.3692  1.0723
    4MPD2     C14379   1.076   0.947  14.619  0.8093 -0.5934 -0.7713
    4MPD2    C114380   0.992   0.845  14.673 -0.2583  0.1464 -0.0688
    4MPD2    C214381   1.030   0.764  14.776  0.1535 -0.2460 -0.3024
    4MPD2    C314382   1.163   0.780  14.825  0.5591 -0.4252 -0.0693
    4MPD2    C414383   1.252   0.871  14.768  0.1364 -0.2106 -0.1510
    4MPD2    C514384   1.207   0.953  14.671 -0.4142  0.3231 -0.0491
    4MPD2     H14385   0.957   0.695  14.816  0.3133  1.0590  2.2523
    4MPD2    H114386   1.348   0.881  14.818  1.9338 -0.7370 -3.4264
    4MPD2    H214387   1.047   1.013  14.538 -0.0517 -0.6699 -0.5225
    4MPD2    H314388   1.269   1.033  14.632 -0.5581  0.6625  0.4183
    4MPD2     N14389   1.200   0.700  14.939  0.2542 -0.2812 -0.1803
    4MPD2    H514390   1.128   0.631  14.961  0.5124 -0.8641 -1.1472
    4MPD2    N114391   0.854   0.834  14.635 -0.8570  0.1691  0.0954
    4MPD2    H714392   0.816   0.747  14.671 -0.3651 -0.8305 -1.8509
    5TMC2    C114393   1.437   4.420  14.901 -0.2531 -0.2977 -0.6991
    5TMC2    C214394   1.428   4.419  14.766  0.4458  0.1244  0.0080
    5TMC2    C314395   1.536   4.468  14.696 -0.0052  0.3631 -0.1877
    5TMC2    C414396   1.554   4.459  14.960 -0.3991  0.6817  0.7366
    5TMC2    C514397   1.654   4.519  14.896 -0.8346  0.2431  0.1997
    5TMC2    C614398   1.643   4.526  14.761 -0.0961  0.2052  0.8824
    5TMC2     C14399   1.313   4.457  14.966  0.1416  0.0419  0.0076
    5TMC2     O14400   1.202   4.425  14.917 -0.1978  0.5702  0.2520
    5TMC2     H14401   1.338   4.387  14.716 -0.3968  1.4252  0.7071
    5TMC2    H114402   1.565   4.464  15.068  0.7987 -1.1239  0.7008
    5TMC2    H214403   1.727   4.573  14.712 -0.9473  0.3799 -0.3905
    5TMC2    C714404   1.701   4.632  14.971  0.2274 -0.3870 -0.3938
    5TMC2    C814405   1.533   4.469  14.549 -0.1605 -0.3113  1.2345
    5TMC2    O114406   1.624   4.670  15.062  0.4413  0.0532  0.1674
    5TMC2    O214407   1.599   4.539  14.479  0.1973  0.2614  0.3800
    5TMC2    O514408   1.445   4.375  14.509  0.0930 -0.1533  0.4283
    5TMC2    H514409   1.413   4.326  14.588  1.1438  2.2198  2.3467
    6MPD2     C14410   1.074   0.108  15.227 -0.0061 -0.0635  0.1199
    6MPD2    C114411   1.215   0.127  15.226 -0.6853 -0.1543 -0.2100
    6MPD2    C214412   1.299   0.035  15.164 -0.2979 -0.7677 -0.1398
    6MPD2    C314413   1.246   4.641  15.110 -0.1361 -0.4895 -0.1288
    6MPD2    C414414   1.109   4.623  15.113 -0.0047  0.3025  0.2699
    6MPD2    C514415   1.024   4.715  15.173  0.6295  0.5248 -0.5121
    6MPD2     H14416   1.405   0.052  15.176 -1.1952  4.2590  0.4892
    6MPD2    H114417   1.069   4.525  15.086 -0.9784  1.3160 -1.9398
    6MPD2    H214418   1.004   0.181  15.268  0.7243  1.0522 -0.6141
    6MPD2    H314419   0.917   4.694  15.173  1.0605 -1.7554  2.1734
    6MPD2     N14420   1.343   4.563  15.047 -0.0715  0.3593  0.4746
    6MPD2    H514421   1.439   4.595  15.053 -0.5644  1.9794 -0.4725
    6MPD2    N114422   1.274   0.244  15.272 -0.4891 -0.8114  0.1454
    6MPD2    H714423   1.371   0.261  15.250 -0.1771 -1.2253  1.2091
  945NH4     N114424   3.749   1.720  14.477  0.1620  0.6157  0.5732
  945NH4     H214425   3.699   1.792  14.422  0.9981  0.3918 -0.4618
  945NH4     H314426   3.829   1.767  14.525  0.3286 -0.2007  1.0914
  945NH4     H414427   3.786   1.650  14.410  1.0389  0.0619  1.6346
  945NH4     H514428   3.679   1.673  14.538 -0.3241 -0.8256 -1.1351
  946SOD     NA14429   4.324   3.740   9.093 -0.4421 -0.1600  0.0481
  947SOD     NA14430   3.260   4.326  14.151  0.2670 -0.0188 -0.1151
  948SOD     NA14431   2.683   0.923   8.844  0.0060  0.0346  0.4548
  949SOD     NA14432   0.867   1.500  16.144  1.0567 -0.1493 -0.3498
  950SOD     NA14433   1.032   3.702   9.887 -0.1545  0.5580  0.2493
  951SOD     NA14434   0.087   1.632   8.142 -0.3717  0.1088 -0.0848
  952SOD     NA14435   1.800   3.952   2.326 -0.2079 -0.2014  0.1368
  953SOD     NA14436   3.218   0.325  12.399  0.2319 -0.0879 -0.2796
  954SOD     NA14437   0.074   2.061  15.021  0.6767  0.0197 -0.0982
  955SOD     NA14438   3.287   1.942  16.243 -0.1429  0.5934 -0.8505
  956SOD     NA14439   0.310   2.284  13.592  0.3590  0.8130 -0.1271
  957SOD     NA14440   0.789   3.068   9.592  0.0345 -0.0748  0.1018
  958SOD     NA14441   1.305   3.774   9.729 -0.1063  0.2689 -0.5331
  959SOD     NA14442   1.640   0.391  14.242  0.6379 -0.4351 -0.8443
  960SOD     NA14443   2.002   3.949  13.092  0.5366 -0.1049  0.3097
  961SOD     NA14444   0.498   3.321  10.753 -0.0299  0.0008 -0.0083
  962SOD     NA14445   4.459   3.276   0.300  0.0159 -0.4606 -0.0047
  963SOD     NA14446   1.145   3.966   7.376 -0.1649 -0.2238 -0.3836
  964SOD     NA14447   1.486   4.166  13.025 -0.1238 -0.3864 -0.7838
  965SOD     NA14448   2.260   4.295  12.172  0.0001 -0.2847 -0.1479
  966SOD     NA14449   3.253   4.632   1.257 -0.7664  0.5991  0.1935
  967SOD     NA14450   2.528   4.257  11.351 -0.4758  0.4952  0.3778
  968SOD     NA14451   1.804   4.087  10.087  0.1761 -0.4143  0.1529
  969SOD     NA14452   1.741   0.578  12.819  0.1741  0.0105 -0.2316
  970SOD     NA14453   2.953   0.892   2.384 -0.0557 -0.7483 -0.0537
  971SOD     NA14454   0.593   4.670  11.232  0.0225 -0.2832  0.5472
  972SOD     NA14455   4.104   0.453  14.990 -0.4856  0.2487  0.1576
  973SOD     NA14456   2.663   0.110  11.517 -0.2277  0.9386  0.1728
  974SOD     NA14457   2.421   1.332  11.659 -0.1802 -0.0524  0.6606
  975SOD     NA14458   1.906   2.760  11.109  0.5824  0.3433 -0.4460
  976SOD     NA14459   3.940   4.156  14.200 -0.5520 -0.1934  0.7221
  977SOD     NA14460   2.564   1.638   6.003  0.3009 -0.3614 -0.1263
  978SOD     NA14461   1.499   1.302  11.281 -0.2290  0.2290 -0.1210
  979SOD     NA14462   3.858   1.542   2.341 -0.0989 -0.0944 -0.2179
  980SOD     NA14463   3.769   3.806  13.209  0.3098  0.0198 -0.3547
  981SOD     NA14464   2.214   3.111   8.929 -0.4012 -0.1362 -0.0224
  982SOD     NA14465   1.368   4.109   9.710  0.6405 -0.0238 -0.1718
  983SOD     NA14466   3.397   0.709  15.942 -0.1951 -0.1700  0.2371
  984SOD     NA14467   0.767   4.512   0.319  0.3619 -0.3804  0.0873
  985SOD     NA14468   2.974   0.122   4.700  0.0191 -0.7204  0.1780
  986SOD     NA14469   0.358   3.043  15.129 -0.8895  0.1381 -0.1820
  987SOD     NA14470   3.751   1.806   0.553 -0.0726 -0.1280 -0.0681
  988SOD     NA14471   3.396   4.083  14.011  0.3161  0.3552  0.7106
  989SOD     NA14472   2.162   0.603   1.824 -0.3692  0.1086 -0.5424
  990SOD     NA14473   0.639   0.932  13.997 -0.4234  0.4734 -0.1616
  991SOD     NA14474   4.046   0.100  15.084 -0.1020  0.0259 -1.1658
  992SOD     NA14475   1.515   3.921  15.453  0.1756 -0.6249  0.0899
  993SOD     NA14476   2.750   3.982  15.174  0.3115 -0.0623  0.4306
  994SOD     NA14477   3.108   4.182  13.906 -0.1456  0.0059 -0.0782
  995SOD     NA14478   3.100   3.957   9.829  0.1040 -0.2923  0.4577
  996SOD     NA14479   3.790   2.246   1.991 -0.4597 -0.0729  0.1177
  997SOD     NA14480   2.028   3.864   9.910 -0.4390  0.3312  0.4239
  998SOD     NA14481   3.109   4.700  11.347 -0.1171  0.2252  0.0917
  999SOD     NA14482   0.463   3.706   9.094 -0.2776 -0.5615  0.3689
 1000SOD     NA14483   1.100   1.019  10.245 -0.3048  0.0170  0.1794
 1001SOD     NA14484   0.304   0.784  14.012  0.0783  0.4190 -0.4493
 1002SOD     NA14485   1.079   1.633   4.524 -0.0742  0.0958 -0.1052
 1003SOD     NA14486   1.789   0.304   0.686  0.0754  0.1738  0.3512
 1004SOD     NA14487   3.764   4.404  15.552  0.0146 -0.3117 -0.2613
 1005SOD     NA14488   0.264   3.580   0.458  0.2845  0.5007  0.1558
 1006SOD     NA14489   2.371   1.488  11.389  0.2704  0.2910  0.0279
 1007SOD     NA14490   0.927   3.549   5.348  0.2337  0.3002 -0.1579
 1008SOD     NA14491   0.594   3.365   9.666  0.0694 -0.3860 -0.1615
 1009SOD     NA14492   3.536   0.957  10.985 -0.1052 -0.4591 -0.5549
 1010SOD     NA14493   4.060   4.254   2.002  0.2059  0.0275  0.0990
 1011SOL     OW14494   0.173   1.561   2.660 -0.1951 -0.0845  0.4375
 1011SOL    HW114495   0.101   1.503   2.683 -1.0204  1.1737  1.0072
 1011SOL    HW214496   0.237   1.494   2.635 -1.0488 -0.8752  0.3784
 1012SOL     OW14497   4.165   4.459   1.549  0.1786 -0.1720 -0.0457
 1012SOL    HW114498   4.146   4.369   1.521 -0.0887 -0.6587  1.6920
 1012SOL    HW214499   4.099   4.513   1.506  1.1278 -0.2973 -1.6432
 1013SOL     OW14500   0.512   0.634   9.461 -1.2603  0.4127  0.1897
 1013SOL    HW114501   0.594   0.614   9.417 -2.0354 -0.6140 -0.7931
 1013SOL    HW214502   0.515   0.729   9.461 -1.7127  0.4305  0.8927
 1014SOL     OW14503   1.919   2.392   2.193  0.1286  0.3457  0.1568
 1014SOL    HW114504   1.908   2.305   2.156 -0.1803  1.1175 -1.5957
 1014SOL    HW214505   1.855   2.439   2.139  1.7635  2.3466 -0.0651
 1015SOL     OW14506   0.517   3.445  10.947  0.2461  0.4003 -0.0037
 1015SOL    HW114507   0.449   3.502  10.983  1.4570  1.1839  1.0196
 1015SOL    HW214508   0.600   3.486  10.970  1.9178 -1.9824 -1.7196
 1016SOL     OW14509   1.056   1.524  11.364 -0.2756 -0.1254  0.1095
 1016SOL    HW114510   1.020   1.565  11.443 -2.1509 -0.5547 -0.5188
 1016SOL    HW214511   0.975   1.495  11.321  2.1709 -0.4930 -4.2423
 1017SOL     OW14512   0.777   0.216   5.553  0.7078 -0.0634 -0.0818
 1017SOL    HW114513   0.686   0.192   5.536  0.3675  1.1969 -0.0451
 1017SOL    HW214514   0.804   0.140   5.604  1.3782  0.3952  0.2547
 1018SOL     OW14515   1.657   0.730   3.812 -0.0246 -0.0267  0.2974
 1018SOL    HW114516   1.744   0.698   3.836 -0.1941  0.6829  1.8337
 1018SOL    HW214517   1.639   0.794   3.881  0.0502  1.0338 -0.6802
 1019SOL     OW14518   4.625   2.274   7.382  0.0783  0.3638 -1.0510
 1019SOL    HW114519   4.609   2.365   7.406 -0.1400  0.3657 -1.1948
 1019SOL    HW214520   4.677   2.287   7.302  3.3217  1.5659  1.2724
 1020SOL     OW14521   1.574   4.393   3.728  0.3032 -0.2825  0.2366
 1020SOL    HW114522   1.544   4.471   3.682  1.7069 -0.2756 -0.6566
 1020SOL    HW214523   1.666   4.392   3.704  0.4405 -1.7611  0.8215
 1021SOL     OW14524   2.958   0.939   8.483 -0.3680  0.1083 -0.0730
 1021SOL    HW114525   2.935   0.860   8.531 -0.0349 -0.6304 -1.1215
 1021SOL    HW214526   2.878   0.961   8.434 -0.5618 -0.1841  0.1126
 1022SOL     OW14527   3.247   2.698   5.082 -0.2641  0.4078 -0.0535
 1022SOL    HW114528   3.283   2.746   5.008 -0.6487  1.1316  0.2291
 1022SOL    HW214529   3.184   2.647   5.030  0.3413  0.7087 -1.0742
 1023SOL     OW14530   2.562   3.891   4.123  0.5886  0.0054 -0.4244
 1023SOL    HW114531   2.636   3.852   4.169 -0.0049 -0.1833  0.3760
 1023SOL    HW214532   2.490   3.828   4.122  0.8489 -0.2965 -0.0665
 1024SOL     OW14533   0.868   3.224  15.601 -0.1811 -0.0421  0.1010
 1024SOL    HW114534   0.785   3.179  15.587  0.5498 -1.5339  0.5392
 1024SOL    HW214535   0.923   3.148  15.622 -0.8488 -0.6160 -0.1971
 1025SOL     OW14536   3.827   0.809   5.328 -0.0423 -0.2522 -0.5219
 1025SOL    HW114537   3.734   0.792   5.343 -0.5793  3.3004  0.0109
 1025SOL    HW214538   3.829   0.803   5.232  1.2022  1.1538 -0.5694
 1026SOL     OW14539   3.747   4.354   4.753  0.2246  0.6082 -0.3194
 1026SOL    HW114540   3.780   4.408   4.825  1.4450  0.1004 -0.5033
 1026SOL    HW214541   3.693   4.417   4.705 -1.7232 -0.6301  0.2307
 1027SOL     OW14542   3.464   3.006   8.382  0.0689 -0.2097  0.5993
 1027SOL    HW114543   3.501   3.029   8.467  1.7676  0.5807 -0.3530
 1027SOL    HW214544   3.429   2.920   8.406  0.3885 -0.1416  1.2879
 1028SOL     OW14545   1.925   3.439   6.899 -0.0039 -0.0417 -0.9214
 1028SOL    HW114546   1.920   3.343   6.906 -0.2717  0.1099  0.9465
 1028SOL    HW214547   1.925   3.467   6.990 -1.9805 -0.3198 -0.8350
 1029SOL     OW14548   3.694   1.167   3.332 -0.2067  0.8438  0.5944
 1029SOL    HW114549   3.650   1.085   3.354  1.6850  0.0751  1.5327
 1029SOL    HW214550   3.619   1.220   3.305  0.5051 -0.2805 -3.5982
 1030SOL     OW14551   3.282   4.502  17.213  0.2051 -0.0971  0.0653
 1030SOL    HW114552   3.345   4.547  17.270  0.5337 -0.1875 -0.2235
 1030SOL    HW214553   3.236   4.440  17.269 -1.7956  1.1366 -0.2002
 1031SOL     OW14554   0.111   1.115   9.349  0.1132 -0.4495 -0.2270
 1031SOL    HW114555   0.021   1.094   9.323  0.4794  0.4246 -2.1795
 1031SOL    HW214556   0.151   1.068   9.276  0.5394 -0.3564 -0.0488
 1032SOL     OW14557   3.238   1.775   3.255  0.2658  0.4610 -0.3484
 1032SOL    HW114558   3.277   1.833   3.190  1.3212 -1.7906 -1.7219
 1032SOL    HW214559   3.144   1.783   3.240 -0.0632 -0.0796  1.4491
 1033SOL     OW14560   0.442   0.190   3.483 -0.0380 -0.2262 -0.3418
 1033SOL    HW114561   0.358   0.152   3.458  1.0546 -2.7533 -0.1625
 1033SOL    HW214562   0.418   0.280   3.508 -1.7577 -0.1569 -2.2126
 1034SOL     OW14563   1.854   0.242   7.632 -0.1907 -0.0599  0.5899
 1034SOL    HW114564   1.941   0.253   7.594 -0.3190  0.5930  0.4878
 1034SOL    HW214565   1.842   0.307   7.701  1.6514  1.3761 -0.4443
 1035SOL     OW14566   2.230   4.536   2.474  0.1984  0.0403 -0.1925
 1035SOL    HW114567   2.194   4.608   2.422 -0.0915  0.0166 -0.0255
 1035SOL    HW214568   2.164   4.540   2.543  0.1755 -2.2427 -0.0866
 1036SOL     OW14569   3.848   1.889   6.729 -0.6757 -0.3642 -0.3626
 1036SOL    HW114570   3.858   1.883   6.824  0.0103  0.6904 -0.3676
 1036SOL    HW214571   3.938   1.913   6.706  0.8786 -2.2631  3.6955
 1037SOL     OW14572   2.786   3.089   3.574  0.0579  0.3351 -0.1772
 1037SOL    HW114573   2.762   3.162   3.516 -0.7793 -1.4258 -2.0413
 1037SOL    HW214574   2.812   3.022   3.511  0.8530  1.2673 -0.8516
 1038SOL     OW14575   1.160   2.824  17.685 -0.0598  0.3895  0.1027
 1038SOL    HW114576   1.215   2.746  17.690 -2.2358 -1.2227 -1.0197
 1038SOL    HW214577   1.084   2.787  17.642  0.1890 -2.2305  1.9166
 1039SOL     OW14578   2.769   3.689   9.669 -0.0302 -0.2787 -0.0349
 1039SOL    HW114579   2.702   3.627   9.640 -0.4983 -0.0492  0.5684
 1039SOL    HW214580   2.725   3.772   9.682  1.8720  1.0588 -2.0686
 1040SOL     OW14581   4.083   4.086   4.324 -0.4485 -0.0717  0.4052
 1040SOL    HW114582   4.146   4.103   4.254  0.1051  0.1520  0.9549
 1040SOL    HW214583   4.128   4.130   4.396  1.0752  0.2515 -0.7297
 1041SOL     OW14584   0.992   4.436   5.669 -0.6393  0.1035 -0.3278
 1041SOL    HW114585   0.986   4.451   5.763  1.2147  1.0718 -0.3647
 1041SOL    HW214586   1.080   4.401   5.656 -0.3668  0.2903  1.0494
 1042SOL     OW14587   1.155   3.504   3.401 -0.0517  0.6843 -0.4798
 1042SOL    HW114588   1.066   3.483   3.430 -1.2092  2.1064 -2.9977
 1042SOL    HW214589   1.138   3.507   3.307 -1.1764  0.5525 -0.2812
 1043SOL     OW14590   1.356   4.322  12.470 -0.4570 -0.0609 -0.1615
 1043SOL    HW114591   1.272   4.356  12.502 -0.2970 -0.1464  0.3394
 1043SOL    HW214592   1.383   4.278  12.550 -0.5914  0.3032  0.0878
 1044SOL     OW14593   4.668   3.032   6.637  0.3121 -0.1654 -0.4470
 1044SOL    HW114594   4.723   3.011   6.561  4.0551  0.2742  2.1342
 1044SOL    HW214595   4.595   3.077   6.595 -0.7645 -0.1359  1.4743
 1045SOL     OW14596   3.316   0.893  15.829 -0.0775  0.3804  0.0691
 1045SOL    HW114597   3.360   0.965  15.785 -0.2196  1.4844  1.7118
 1045SOL    HW214598   3.231   0.937  15.837 -0.4263 -0.6886  2.2357
 1046SOL     OW14599   4.067   0.314   4.371  0.0906 -0.1258  0.1762
 1046SOL    HW114600   4.127   0.389   4.373 -1.0328  0.7762 -0.3086
 1046SOL    HW214601   4.043   0.330   4.280  2.6190  0.9764 -0.3209
 1047SOL     OW14602   1.794   1.164   5.409 -0.0619 -0.7728  1.0878
 1047SOL    HW114603   1.875   1.121   5.380  1.3599  1.7691  1.3846
 1047SOL    HW214604   1.769   1.099   5.474  1.8195 -2.6420 -0.0250
 1048SOL     OW14605   3.425   1.582  14.289  0.5875 -0.2716  0.0760
 1048SOL    HW114606   3.414   1.501  14.238  1.0446 -0.4797  0.2983
 1048SOL    HW214607   3.519   1.601  14.283  0.4551  0.2060 -0.4388
 1049SOL     OW14608   1.396   1.431   3.486  0.3311  0.1909 -0.3103
 1049SOL    HW114609   1.403   1.518   3.446 -1.1094  1.3121  1.8824
 1049SOL    HW214610   1.342   1.389   3.419  2.1809 -1.5699 -0.7205
 1050SOL     OW14611   3.266   0.564   3.266  0.0643  0.1346  0.2178
 1050SOL    HW114612   3.312   0.495   3.314  1.9909  0.1944 -1.5573
 1050SOL    HW214613   3.326   0.638   3.272 -0.4067  0.4279  1.2036
 1051SOL     OW14614   2.950   2.398  16.979 -0.2617  0.4536 -0.1502
 1051SOL    HW114615   2.982   2.434  17.063 -0.8839  0.6272  0.0141
 1051SOL    HW214616   3.020   2.422  16.918 -0.6570  1.4626 -0.2164
 1052SOL     OW14617   3.348   2.241   6.372  0.3593  0.0071 -0.1747
 1052SOL    HW114618   3.279   2.210   6.313  1.2856 -1.2063 -0.6113
 1052SOL    HW214619   3.407   2.278   6.307  2.8585 -0.2736  1.9384
 1053SOL     OW14620   2.974   3.241   5.449  0.3811  0.1038 -0.3369
 1053SOL    HW114621   2.949   3.172   5.510 -0.5265  0.6521 -0.0965
 1053SOL    HW214622   3.019   3.185   5.386  2.5956  1.0884  0.3833
 1054SOL     OW14623   3.319   3.225   9.995  0.1461  0.1988 -0.8018
 1054SOL    HW114624   3.284   3.152  10.046  0.2132  0.3634 -0.5164
 1054SOL    HW214625   3.257   3.299   9.993  0.3737  0.4262  0.5089
 1055SOL     OW14626   3.720   1.126   7.230  0.6637 -0.4904  0.2145
 1055SOL    HW114627   3.805   1.084   7.245  0.6123 -0.4736  0.5413
 1055SOL    HW214628   3.733   1.220   7.240  0.6724 -0.5702  0.9501
 1056SOL     OW14629   2.570   0.374   8.666  0.3708 -0.0030 -0.1322
 1056SOL    HW114630   2.573   0.451   8.724  0.9776 -1.1806  1.3984
 1056SOL    HW214631   2.599   0.304   8.724  0.7307  2.1980  2.3826
 1057SOL     OW14632   3.416   3.266   2.758  0.1431 -1.0422 -0.1688
 1057SOL    HW114633   3.330   3.292   2.724  0.3108  0.4954  0.5721
 1057SOL    HW214634   3.392   3.198   2.820  0.3431  0.4039  1.5041
 1058SOL     OW14635   0.463   0.736   3.485 -0.5397  0.2666  0.1995
 1058SOL    HW114636   0.462   0.744   3.390 -0.0116 -3.6014 -0.1186
 1058SOL    HW214637   0.435   0.646   3.499 -0.8686  0.0517 -1.9175
 1059SOL     OW14638   1.476   3.685   4.682 -0.4117  0.0898 -0.0462
 1059SOL    HW114639   1.465   3.593   4.657 -2.2792  0.7250 -1.5588
 1059SOL    HW214640   1.567   3.695   4.709  0.2626 -2.1222 -1.4746
 1060SOL     OW14641   2.076   2.746   2.607  0.4638  0.2890  0.1497
 1060SOL    HW114642   2.037   2.736   2.694  2.2480 -0.6853  0.8284
 1060SOL    HW214643   2.167   2.733   2.632 -0.1573  0.0395  2.2855
 1061SOL     OW14644   2.538   0.309   0.709  0.1211  0.1986 -0.3717
 1061SOL    HW114645   2.541   0.240   0.643  3.1615 -0.3224  0.2942
 1061SOL    HW214646   2.631   0.322   0.729  0.1161 -0.0804 -0.1727
 1062SOL     OW14647   3.011   0.060   3.129 -0.4329  0.0406  0.8247
 1062SOL    HW114648   3.094   0.014   3.116  0.0709  0.8637  1.1432
 1062SOL    HW214649   2.948   4.715   3.107 -1.5083  2.1296 -2.7337
 1063SOL     OW14650   0.465   4.601   1.897  0.3909  0.0888 -0.4365
 1063SOL    HW114651   0.544   4.599   1.951 -0.6994 -2.4149  1.0661
 1063SOL    HW214652   0.398   4.591   1.965 -0.2065 -1.4101 -1.2467
 1064SOL     OW14653   4.495   1.040   5.434  0.4907 -0.3226 -0.1083
 1064SOL    HW114654   4.498   0.987   5.513 -1.0819 -0.2366  0.0124
 1064SOL    HW214655   4.451   0.977   5.376 -0.1139  0.2305 -0.2556
 1065SOL     OW14656   4.239   2.227   9.587 -0.8195  0.3641  0.2986
 1065SOL    HW114657   4.325   2.269   9.583  0.3875 -2.1035  0.2338
 1065SOL    HW214658   4.172   2.294   9.578 -1.2765 -0.0506  0.6736
 1066SOL     OW14659   4.252   2.135   6.130  0.1622  0.1508 -0.0737
 1066SOL    HW114660   4.315   2.189   6.178 -0.0943  0.8510 -0.5260
 1066SOL    HW214661   4.280   2.046   6.154 -1.4323 -0.6381 -1.1079
 1067SOL     OW14662   2.143   1.333   0.635 -0.1975  0.1555  0.2357
 1067SOL    HW114663   2.054   1.304   0.616  0.0861 -0.7635  0.2888
 1067SOL    HW214664   2.186   1.299   0.557  1.6828  1.4877  0.6990
 1068SOL     OW14665   1.631   1.089  13.714 -0.4758 -0.6856  0.8199
 1068SOL    HW114666   1.694   1.032  13.668  0.3618  2.1953 -1.6079
 1068SOL    HW214667   1.638   1.057  13.804  0.9390  0.0704  0.9905
 1069SOL     OW14668   0.790   3.047   1.625 -0.1631  0.2568  0.5178
 1069SOL    HW114669   0.854   3.112   1.653  1.6623 -0.8004 -1.1910
 1069SOL    HW214670   0.772   3.070   1.534 -2.6426 -1.1589  0.6567
 1070SOL     OW14671   3.996   2.043   4.825  0.2234  0.7504  1.0113
 1070SOL    HW114672   4.015   1.959   4.867 -1.3178 -1.3071 -2.4737
 1070SOL    HW214673   3.915   2.027   4.776  0.6755 -0.5868  0.7018
 1071SOL     OW14674   0.914   0.616   5.593  0.5807 -0.0553 -0.2827
 1071SOL    HW114675   0.911   0.700   5.547 -1.6329  0.9985  1.8271
 1071SOL    HW214676   0.905   0.550   5.524 -0.9934  1.0054 -1.1078
 1072SOL     OW14677   4.598   2.022   7.536  0.1479  0.2662  0.1835
 1072SOL    HW114678   4.584   2.108   7.496 -1.8585  0.2589  0.8295
 1072SOL    HW214679   4.683   2.028   7.579 -0.0292 -4.3981  1.1393
 1073SOL     OW14680   1.385   3.685   7.018  0.0130  0.5668 -0.3546
 1073SOL    HW114681   1.379   3.627   6.942  0.4409 -1.1917  0.9531
 1073SOL    HW214682   1.319   3.649   7.078  3.5857 -1.1799  2.5526
 1074SOL     OW14683   1.092   3.463  13.103 -0.0821 -0.9519 -0.6886
 1074SOL    HW114684   1.021   3.405  13.078  0.1082 -1.6761  0.4635
 1074SOL    HW214685   1.051   3.549  13.098  0.3588 -0.7451 -0.8167
 1075SOL     OW14686   3.877   4.576   6.347  0.3497 -0.2606  0.0309
 1075SOL    HW114687   3.910   4.627   6.274 -0.3708 -2.1502 -1.6098
 1075SOL    HW214688   3.963   4.549   6.381  0.2664 -1.0665 -0.4004
 1076SOL     OW14689   2.376   2.474   6.197  0.3937 -1.1359  0.0971
 1076SOL    HW114690   2.314   2.405   6.172 -0.5155 -0.4297  0.3612
 1076SOL    HW214691   2.328   2.547   6.157 -0.3134 -2.2029 -1.0003
 1077SOL     OW14692   3.201   0.745  13.501 -0.3347  0.0332  0.5410
 1077SOL    HW114693   3.222   0.791  13.583  1.5988  0.4954 -0.1956
 1077SOL    HW214694   3.264   0.673  13.509  0.0848  0.4697  1.1825
 1078SOL     OW14695   3.277   3.551   6.487  0.5759  0.7780 -0.4313
 1078SOL    HW114696   3.317   3.520   6.406 -0.2832 -0.3057 -0.4269
 1078SOL    HW214697   3.348   3.613   6.507  0.2924  0.9733 -0.0227
 1079SOL     OW14698   1.356   2.515   6.358 -0.4078  0.2673 -0.0673
 1079SOL    HW114699   1.336   2.515   6.451 -4.5469  1.7977 -0.9570
 1079SOL    HW214700   1.356   2.609   6.339  1.6029  0.0043 -1.4413
 1080SOL     OW14701   3.749   0.390   4.003  0.3713  0.0903 -0.1188
 1080SOL    HW114702   3.714   0.424   3.921 -0.5274 -0.9790 -0.1772
 1080SOL    HW214703   3.695   0.313   4.013  0.6219 -0.4196 -2.5991
 1081SOL     OW14704   0.877   3.759   3.810 -0.0312 -0.3851  0.0674
 1081SOL    HW114705   0.951   3.809   3.776 -1.1576  0.7029 -0.7954
 1081SOL    HW214706   0.816   3.827   3.838  0.5928 -0.0321  0.5716
 1082SOL     OW14707   1.862   0.448   9.797 -0.3869  0.2744  0.0705
 1082SOL    HW114708   1.854   0.528   9.849 -1.0589 -0.3815  0.9770
 1082SOL    HW214709   1.774   0.412   9.800 -0.4924  0.5552  0.3232
 1083SOL     OW14710   2.077   1.141   6.127  0.2261  0.3092 -0.1237
 1083SOL    HW114711   1.996   1.089   6.126 -0.2079  0.9671  0.9459
 1083SOL    HW214712   2.134   1.068   6.150  2.2619  1.1006 -2.6106
 1084SOL     OW14713   0.912   3.757   8.824 -0.1056  0.6379  0.0928
 1084SOL    HW114714   0.986   3.769   8.884  0.2354 -2.1158  0.2380
 1084SOL    HW214715   0.957   3.771   8.741 -0.3979 -0.5156 -0.2654
 1085SOL     OW14716   3.605   1.844  12.933  0.7113  0.4298 -0.3051
 1085SOL    HW114717   3.671   1.911  12.949  0.2727  0.6842  0.4821
 1085SOL    HW214718   3.553   1.867  12.856  1.6802  1.8496 -0.5297
 1086SOL     OW14719   1.890   3.274   8.594 -0.4412 -0.4269  0.3190
 1086SOL    HW114720   1.936   3.357   8.606  0.0052 -0.7488  0.7992
 1086SOL    HW214721   1.964   3.215   8.600 -0.9849 -1.0931  0.4119
 1087SOL     OW14722   1.561   1.016  14.876 -0.5063 -0.2772  0.3588
 1087SOL    HW114723   1.593   0.957  14.944 -0.5550 -3.0629 -2.0359
 1087SOL    HW214724   1.483   1.050  14.919  0.1034  2.4906 -0.6993
 1088SOL     OW14725   3.394   0.701   2.631  0.5660 -0.3089 -0.1615
 1088SOL    HW114726   3.380   0.702   2.725 -0.6001 -2.3135 -0.3061
 1088SOL    HW214727   3.376   0.788   2.596 -0.1785 -1.4722 -2.6864
 1089SOL     OW14728   2.545   4.333   0.580 -0.7296 -0.5397  0.3216
 1089SOL    HW114729   2.521   4.246   0.549 -0.9782 -0.5998  0.6788
 1089SOL    HW214730   2.640   4.326   0.581 -0.5932  1.1217 -0.8165
 1090SOL     OW14731   1.852   1.675   6.104 -0.5893  0.0811  0.5409
 1090SOL    HW114732   1.827   1.596   6.153 -0.4651 -0.4623 -0.2674
 1090SOL    HW214733   1.832   1.648   6.015 -0.3307  0.6348  0.3178
 1091SOL     OW14734   3.403   1.516   6.525 -0.0784 -0.0657 -0.2766
 1091SOL    HW114735   3.407   1.500   6.619 -1.9701 -0.6983 -0.3050
 1091SOL    HW214736   3.364   1.436   6.490  0.0456  0.1861 -1.0113
 1092SOL     OW14737   1.989   3.577  17.367 -0.1492 -0.1209 -0.4738
 1092SOL    HW114738   1.997   3.534  17.453 -0.6986 -0.2741 -0.4951
 1092SOL    HW214739   2.076   3.614  17.359 -0.0659  0.1455  1.5482
 1093SOL     OW14740   4.687   0.818  16.978 -0.2591 -0.0112 -0.2217
 1093SOL    HW114741   4.684   0.732  17.020 -0.4764  0.5506  0.9217
 1093SOL    HW214742   4.620   0.799  16.913  1.2333  1.0478 -2.0848
 1094SOL     OW14743   1.096   3.283   7.266 -0.3940 -0.0518  0.1429
 1094SOL    HW114744   1.161   3.296   7.334  0.3037  3.3998 -1.2101
 1094SOL    HW214745   1.071   3.190   7.267  1.8875 -0.6775  0.1447
 1095SOL     OW14746   2.657   2.316  11.236 -0.3254 -0.1083 -0.4256
 1095SOL    HW114747   2.611   2.235  11.215  0.2033 -0.6921  0.6963
 1095SOL    HW214748   2.719   2.319  11.163 -0.6293  0.6443 -0.6529
 1096SOL     OW14749   3.497   2.971   9.189 -0.4663  0.2837  0.1571
 1096SOL    HW114750   3.464   3.055   9.157 -2.1068 -0.4550 -0.1354
 1096SOL    HW214751   3.446   2.913   9.132 -1.5017 -0.1136  1.5064
 1097SOL     OW14752   1.171   2.869   6.535  0.3169 -0.4004  0.1904
 1097SOL    HW114753   1.113   2.943   6.553 -0.6639 -1.4216  1.2005
 1097SOL    HW214754   1.216   2.845   6.615 -2.2675  0.1874  1.8117
 1098SOL     OW14755   3.304   4.342  15.320 -0.3235  0.1682 -0.1885
 1098SOL    HW114756   3.306   4.247  15.329  1.5566  0.0842 -1.4271
 1098SOL    HW214757   3.384   4.362  15.271  0.8352 -0.3886  1.4750
 1099SOL     OW14758   3.331   0.350   1.345 -0.1085 -0.2488  0.0318
 1099SOL    HW114759   3.311   0.416   1.279 -1.0575  0.8300  1.4022
 1099SOL    HW214760   3.329   0.411   1.418 -1.2776 -2.9278  2.2485
 1100SOL     OW14761   0.574   0.416   8.888  0.1250 -0.3758  0.1247
 1100SOL    HW114762   0.553   0.489   8.830  1.1736  0.0826  0.3099
 1100SOL    HW214763   0.638   0.465   8.941 -1.8283  2.8741 -0.5077
 1101SOL     OW14764   1.997   3.465   0.689  0.0925  0.6120 -0.5575
 1101SOL    HW114765   1.926   3.512   0.732 -0.1706  0.0922 -0.4309
 1101SOL    HW214766   2.007   3.383   0.738  3.0247  0.5326 -1.2437
 1102SOL     OW14767   0.022   0.963  13.555 -0.6184  0.3210  0.0186
 1102SOL    HW114768   4.688   1.029  13.594 -2.6117 -0.4898 -1.5588
 1102SOL    HW214769   0.083   1.023  13.512 -1.5356 -0.1132 -1.8748
 1103SOL     OW14770   3.974   2.317  17.454 -0.3727  0.2702  0.0120
 1103SOL    HW114771   3.958   2.378  17.525 -0.6107  0.2558 -0.0311
 1103SOL    HW214772   4.046   2.262  17.485 -0.6624 -0.0641  0.0881
 1104SOL     OW14773   0.427   0.038  11.363  0.3370  0.5220 -0.5779
 1104SOL    HW114774   0.406   0.098  11.435  0.3815  0.8009 -0.7957
 1104SOL    HW214775   0.346   0.046  11.313 -0.7188  0.0705  1.0331
 1105SOL     OW14776   1.159   2.205   0.876 -0.1673 -0.3141  0.1377
 1105SOL    HW114777   1.103   2.187   0.800  0.3269 -0.5166 -0.1754
 1105SOL    HW214778   1.176   2.296   0.852  1.1450 -0.3374  1.0025
 1106SOL     OW14779   0.857   1.996   4.560 -0.0283 -0.0456 -0.2150
 1106SOL    HW114780   0.807   1.983   4.641  0.0446 -0.1054 -0.1792
 1106SOL    HW214781   0.861   2.091   4.557 -0.4992 -0.0253 -0.1358
 1107SOL     OW14782   0.273   0.002  13.948  0.2109  0.2791 -0.5324
 1107SOL    HW114783   0.355   0.044  13.921  1.2199 -0.7268  0.9513
 1107SOL    HW214784   0.316   4.677  14.018 -0.9804  0.5134  0.3574
 1108SOL     OW14785   2.739   2.235  12.967  0.5919  0.0844 -0.8201
 1108SOL    HW114786   2.712   2.177  12.896  0.3030  0.2947 -0.8809
 1108SOL    HW214787   2.697   2.319  12.951 -1.9535 -0.5348  2.4120
 1109SOL     OW14788   4.687   4.147   1.531 -0.3834 -0.6271  0.4494
 1109SOL    HW114789   4.630   4.073   1.512  0.5307 -0.9716 -0.9566
 1109SOL    HW214790   4.675   4.157   1.626 -0.7898  0.2125  0.3048
 1110SOL     OW14791   1.032   4.100  10.435  0.6048  0.2050 -0.1296
 1110SOL    HW114792   1.123   4.120  10.456  0.3785  0.8346  0.2554
 1110SOL    HW214793   1.008   4.018  10.478 -0.7411  0.0491 -1.1893
 1111SOL     OW14794   1.807   2.378  15.833 -0.0711 -0.3463  0.2171
 1111SOL    HW114795   1.899   2.391  15.810  0.3293 -1.7857  1.0174
 1111SOL    HW214796   1.777   2.469  15.839 -0.0505 -0.3849  0.8380
 1112SOL     OW14797   1.693   3.046   4.276 -0.3064  0.0257 -0.4308
 1112SOL    HW114798   1.764   3.063   4.213 -0.1266 -0.3909 -0.3412
 1112SOL    HW214799   1.618   3.036   4.218 -0.5608  4.2121 -0.8544
 1113SOL     OW14800   4.317   0.351   6.428 -0.4976 -0.2007  0.6293
 1113SOL    HW114801   4.309   0.279   6.490 -1.1807  0.0004  0.7701
 1113SOL    HW214802   4.256   0.418   6.456 -0.7264  0.3172 -1.1253
 1114SOL     OW14803   0.057   3.193   8.677 -0.2204  0.0948  0.4573
 1114SOL    HW114804   0.011   3.167   8.597  1.9933  0.0108 -0.7755
 1114SOL    HW214805   0.013   3.274   8.704  1.1362  0.1386  2.5401
 1115SOL     OW14806   1.530   3.416   4.388  0.2226  0.3482 -0.1489
 1115SOL    HW114807   1.462   3.411   4.321 -0.1483  0.1314  0.2403
 1115SOL    HW214808   1.492   3.448   4.470  3.4859  2.5738  0.5306
 1116SOL     OW14809   2.604   0.629   1.352 -0.5299  0.3102  0.2344
 1116SOL    HW114810   2.665   0.598   1.285  0.5164  2.0331  0.3874
 1116SOL    HW214811   2.533   0.645   1.291 -2.3648 -2.0212  1.7725
 1117SOL     OW14812   3.665   2.155   9.334  0.0929 -0.0382  1.0480
 1117SOL    HW114813   3.719   2.089   9.377  0.9965  0.0269  0.0102
 1117SOL    HW214814   3.591   2.153   9.395 -0.6425  0.0332  0.1588
 1118SOL     OW14815   2.750   1.964   0.058  0.1070 -0.1053  0.3704
 1118SOL    HW114816   2.771   2.057   0.049  2.2922 -0.7021 -0.5050
 1118SOL    HW214817   2.787   1.934  17.672  1.9806  1.7654  0.5205
 1119SOL     OW14818   1.626   0.814   3.555 -0.0336 -0.1939  0.3730
 1119SOL    HW114819   1.637   0.759   3.633 -1.1310  0.3423  0.9102
 1119SOL    HW214820   1.584   0.885   3.604  0.7021  2.4403 -2.8777
 1120SOL     OW14821   3.770   2.178   3.700  0.1942 -0.0515  0.3711
 1120SOL    HW114822   3.699   2.233   3.734  0.7562  0.0178  1.4194
 1120SOL    HW214823   3.720   2.121   3.643  0.4097 -1.4990  1.6433
 1121SOL     OW14824   2.195   3.608   4.314  0.3318 -0.4893 -0.0299
 1121SOL    HW114825   2.104   3.598   4.284  0.8380  1.0395 -2.0370
 1121SOL    HW214826   2.222   3.517   4.326  1.2633  0.1212  2.4106
 1122SOL     OW14827   1.515   1.253   5.346 -0.4049  0.5730  0.3184
 1122SOL    HW114828   1.530   1.331   5.400 -2.9203  2.0407 -1.0982
 1122SOL    HW214829   1.601   1.212   5.339 -0.1548  1.4789 -2.0005
 1123SOL     OW14830   4.104   2.122   7.024  0.2118  0.9866  0.2882
 1123SOL    HW114831   4.193   2.093   7.043  0.4183  1.7875  0.5456
 1123SOL    HW214832   4.116   2.131   6.930  0.6731 -0.0507  0.2501
 1124SOL     OW14833   1.728   1.937   1.067 -0.4930 -0.5393 -0.5701
 1124SOL    HW114834   1.731   2.024   1.108  0.3592 -1.0378  0.4363
 1124SOL    HW214835   1.640   1.920   1.035 -0.8343 -0.9815  0.6020
 1125SOL     OW14836   2.128   3.447   2.932  0.0734 -0.5369 -0.2003
 1125SOL    HW114837   2.045   3.486   2.905  0.0206 -0.9902 -0.6965
 1125SOL    HW214838   2.175   3.449   2.849 -2.1817  1.1518 -1.4273
 1126SOL     OW14839   0.515   2.074   3.341  0.1409  0.0262 -0.4608
 1126SOL    HW114840   0.495   1.991   3.298 -1.2864  0.9050 -1.4785
 1126SOL    HW214841   0.595   2.091   3.291  0.5451  1.3696  0.6402
 1127SOL     OW14842   0.794   2.460   0.681  0.5622 -0.3622 -0.1567
 1127SOL    HW114843   0.822   2.404   0.754 -1.6554 -0.0821  0.9161
 1127SOL    HW214844   0.858   2.426   0.618  0.2122 -0.8018 -0.2748
 1128SOL     OW14845   4.663   1.659   7.983  0.2403 -0.4797 -0.2650
 1128SOL    HW114846   4.637   1.577   7.941 -0.2390 -0.7311  0.5271
 1128SOL    HW214847   4.678   1.710   7.903 -0.8144  0.7782  0.3260
 1129SOL     OW14848   3.161   1.173   6.926  0.3496  0.6440  0.9685
 1129SOL    HW114849   3.179   1.228   7.002 -2.2013 -1.0125  2.7386
 1129SOL    HW214850   3.072   1.206   6.914  0.2086  0.1791  0.7316
 1130SOL     OW14851   1.385   1.745   2.088 -0.2422  0.0431  0.4078
 1130SOL    HW114852   1.415   1.776   2.002 -1.0561 -1.0063 -0.2521
 1130SOL    HW214853   1.301   1.705   2.065  0.4317 -2.2399  2.0215
 1131SOL     OW14854   0.175   0.197   0.138 -0.1699 -0.0755  0.2331
 1131SOL    HW114855   0.134   0.249   0.207 -0.7793 -0.6347  0.2922
 1131SOL    HW214856   0.247   0.168   0.193  0.0601  1.2577  0.6284
 1132SOL     OW14857   0.474   2.316  16.452  0.1249 -0.2413 -0.0643
 1132SOL    HW114858   0.467   2.301  16.546 -0.3307  0.1611 -0.0371
 1132SOL    HW214859   0.422   2.243  16.419 -1.8448  1.6247 -1.0579
 1133SOL     OW14860   2.012   4.712   3.161 -0.6398  0.4243  0.3827
 1133SOL    HW114861   1.981   0.079   3.165  2.7234  1.4271  3.4319
 1133SOL    HW214862   2.101   0.015   3.182 -0.6005  0.7588 -0.2076
 1134SOL     OW14863   1.162   3.661   3.627  1.1058 -0.2282  0.0514
 1134SOL    HW114864   1.144   3.584   3.681 -0.6115  0.3690  0.3386
 1134SOL    HW214865   1.174   3.616   3.543 -0.2181 -1.0698  0.3133
 1135SOL     OW14866   0.224   0.571   5.633  0.0858  0.7997  0.5414
 1135SOL    HW114867   0.279   0.610   5.565  0.9237 -2.9822 -0.9614
 1135SOL    HW214868   0.224   0.481   5.600 -1.6878  0.1513  2.3943
 1136SOL     OW14869   3.798   3.006   8.831 -0.2571  0.0049  0.0770
 1136SOL    HW114870   3.798   3.090   8.786 -2.4577 -1.3048 -2.3195
 1136SOL    HW214871   3.821   3.039   8.918  1.7988  0.3147 -0.5955
 1137SOL     OW14872   1.030   2.889   5.120 -0.0109  0.0941  0.4568
 1137SOL    HW114873   1.018   2.917   5.029 -1.0650  1.6064  1.0534
 1137SOL    HW214874   0.998   2.971   5.159 -0.1332  0.2427  0.0407
 1138SOL     OW14875   2.004   3.169   4.011 -0.2913 -0.3560 -0.5535
 1138SOL    HW114876   2.094   3.187   4.039 -0.6815 -1.1480  1.2336
 1138SOL    HW214877   1.981   3.087   4.055 -0.9244  0.8312  1.3483
 1139SOL     OW14878   3.816   4.524   4.414 -0.1615  0.5995  0.1429
 1139SOL    HW114879   3.823   4.470   4.335 -0.3383  0.5939  0.1305
 1139SOL    HW214880   3.771   4.601   4.379  4.1515  3.3495  0.7462
 1140SOL     OW14881   0.874   0.425   5.393  0.6150 -0.0063 -0.0201
 1140SOL    HW114882   0.941   0.372   5.349  1.1847 -0.5646  1.5442
 1140SOL    HW214883   0.839   0.360   5.453 -0.2089  0.1227 -0.3560
 1141SOL     OW14884   3.805   2.584   5.022 -0.1963  0.2440  0.2567
 1141SOL    HW114885   3.876   2.638   4.988 -1.0225 -0.4905 -2.6423
 1141SOL    HW214886   3.725   2.622   4.986 -0.1972  1.2817  1.3376
 1142SOL     OW14887   2.232   2.570   0.395  0.0255  0.2474 -0.0037
 1142SOL    HW114888   2.224   2.537   0.305  1.5159  0.5720 -0.2613
 1142SOL    HW214889   2.318   2.612   0.393 -0.3449  0.9752 -0.8756
 1143SOL     OW14890   1.130   0.793   4.226 -0.4857 -0.5109  0.4390
 1143SOL    HW114891   1.158   0.708   4.192  0.6607  1.1798 -2.7623
 1143SOL    HW214892   1.043   0.798   4.187  0.4269 -1.8813 -1.7376
 1144SOL     OW14893   1.779   1.317   1.881 -0.1185 -0.0931  0.3546
 1144SOL    HW114894   1.841   1.317   1.808 -0.0614 -1.0817  0.4061
 1144SOL    HW214895   1.703   1.282   1.834 -1.0320  0.5372  1.3799
 1145SOL     OW14896   1.883   3.767   2.676  0.8349 -0.5562 -0.0166
 1145SOL    HW114897   1.973   3.761   2.708  0.3117  0.5370  1.6306
 1145SOL    HW214898   1.905   3.826   2.603 -2.4578  0.1028 -0.4491
 1146SOL     OW14899   3.794   1.989   9.514 -0.1726  0.5487 -0.1210
 1146SOL    HW114900   3.798   1.897   9.490  1.1931 -0.0171  2.3366
 1146SOL    HW214901   3.883   2.008   9.542 -0.5860 -0.4105  1.8183
 1147SOL     OW14902   1.183   3.075   2.674  0.2082  0.2454 -0.4512
 1147SOL    HW114903   1.171   3.156   2.625  2.1640  1.0498  0.4018
 1147SOL    HW214904   1.160   3.009   2.609  0.2243 -1.2363  1.0451
 1148SOL     OW14905   4.234   3.238   6.722  0.1987 -0.0277  0.3164
 1148SOL    HW114906   4.257   3.186   6.799  0.0899 -1.5094 -0.6583
 1148SOL    HW214907   4.308   3.218   6.665 -0.2791  2.5263 -1.2255
 1149SOL     OW14908   4.609   4.215   8.179  0.3354  0.8780 -0.0557
 1149SOL    HW114909   4.673   4.151   8.147 -3.6894 -2.4107 -1.5790
 1149SOL    HW214910   4.639   4.301   8.148  0.7745  1.6141  2.4188
 1150SOL     OW14911   2.364   2.858   7.504 -0.1521 -0.8110  0.4102
 1150SOL    HW114912   2.428   2.929   7.510 -0.1017 -0.9996  2.1221
 1150SOL    HW214913   2.358   2.840   7.410  0.0403  0.9462  0.0591
 1151SOL     OW14914   2.862   2.779   5.060 -0.0729  0.0367  0.2822
 1151SOL    HW114915   2.827   2.741   5.141  0.8540 -0.7485  0.2993
 1151SOL    HW214916   2.934   2.729   5.023 -0.7895  0.6605 -2.0067
 1152SOL     OW14917   2.461   2.893  10.554 -0.0719  0.5588 -0.4580
 1152SOL    HW114918   2.440   2.965  10.495 -0.9137 -0.3152 -1.2391
 1152SOL    HW214919   2.388   2.833  10.538  0.5255 -0.5742  1.1029
 1153SOL     OW14920   2.885   3.191  16.364  0.8129 -0.0012 -0.0119
 1153SOL    HW114921   2.936   3.250  16.420  2.1650 -1.9053  0.7635
 1153SOL    HW214922   2.920   3.204  16.276 -0.2115 -0.7971 -0.5510
 1154SOL     OW14923   3.215   4.304   0.322  0.2796  0.0266  0.2433
 1154SOL    HW114924   3.251   4.379   0.370 -0.3966  1.1067 -0.9429
 1154SOL    HW214925   3.287   4.244   0.300  1.2732  0.7495  1.4787
 1155SOL     OW14926   0.253   0.541   7.945  0.2649 -0.2718  0.5220
 1155SOL    HW114927   0.323   0.476   7.953 -0.4504 -0.8983  1.6370
 1155SOL    HW214928   0.240   0.555   8.039  1.7055  0.7472  0.5532
 1156SOL     OW14929   2.652   0.985   5.750 -0.4377 -0.4753 -0.0775
 1156SOL    HW114930   2.585   0.930   5.708  0.5483 -0.5067 -1.6027
 1156SOL    HW214931   2.634   0.962   5.841  1.3704  0.5841  0.5423
 1157SOL     OW14932   3.533   3.286   9.502 -0.5618  0.0452  0.1677
 1157SOL    HW114933   3.548   3.370   9.458 -0.9012  0.5760  1.0657
 1157SOL    HW214934   3.438   3.290   9.510 -0.4388  2.2441  0.7824
 1158SOL     OW14935   2.203   3.983   6.394  0.6862 -0.8338  0.2677
 1158SOL    HW114936   2.250   4.055   6.353  2.4353 -0.8677  2.2140
 1158SOL    HW214937   2.113   3.992   6.363  0.9485  0.9560  0.0256
 1159SOL     OW14938   4.101   3.064   2.128  0.2461 -0.3302  0.5604
 1159SOL    HW114939   4.146   3.138   2.087  0.3054 -0.3524  0.5856
 1159SOL    HW214940   4.142   2.996   2.073  2.3824  1.0268  0.4522
 1160SOL     OW14941   3.701   3.015   9.624  0.4869  0.2692 -0.0600
 1160SOL    HW114942   3.625   2.985   9.574 -0.8351  0.0985  2.0357
 1160SOL    HW214943   3.721   2.943   9.684 -0.1825 -0.8374 -1.1799
 1161SOL     OW14944   1.075   2.505   5.618  0.2453  0.5291  0.2724
 1161SOL    HW114945   1.044   2.595   5.611  0.4980  0.6549  0.7665
 1161SOL    HW214946   1.129   2.516   5.696 -2.0367  1.3564  1.7261
 1162SOL     OW14947   0.993   1.752   6.963  0.0068  0.3712 -0.2383
 1162SOL    HW114948   1.042   1.818   6.914 -1.1023  1.2362 -0.1743
 1162SOL    HW214949   1.032   1.674   6.925 -0.3774 -0.4112  0.9626
 1163SOL     OW14950   0.739   3.014  10.759  0.0663  0.3447  0.0820
 1163SOL    HW114951   0.806   2.971  10.813  0.0114  0.2760  0.0958
 1163SOL    HW214952   0.659   2.975  10.796  0.1850 -0.0001 -0.0221
 1164SOL     OW14953   3.436   1.282   5.627  0.2203 -0.1826 -0.2872
 1164SOL    HW114954   3.418   1.188   5.636  1.0346 -0.2345  0.8272
 1164SOL    HW214955   3.391   1.315   5.704  1.0768  0.1978  0.0501
 1165SOL     OW14956   1.109   4.259  12.631 -0.1545 -0.2466  0.5199
 1165SOL    HW114957   1.107   4.192  12.562 -0.8341 -0.2887  0.5816
 1165SOL    HW214958   1.038   4.317  12.605  0.2486 -0.1373 -0.3154
 1166SOL     OW14959   1.175   4.095   6.941  0.2278 -0.0829  0.3812
 1166SOL    HW114960   1.111   4.129   7.003 -0.4115 -0.4507 -0.0756
 1166SOL    HW214961   1.138   4.008   6.927  1.6463 -0.3269 -1.9654
 1167SOL     OW14962   3.704   0.576   3.492 -0.3893 -0.2724  0.0795
 1167SOL    HW114963   3.786   0.602   3.535 -0.2233  2.1519 -1.7093
 1167SOL    HW214964   3.676   0.655   3.447  1.6258  0.1513 -0.4596
 1168SOL     OW14965   2.926   3.647  17.032  0.3848 -0.1322  0.8542
 1168SOL    HW114966   2.878   3.573  17.068  1.5303 -0.5486  1.5103
 1168SOL    HW214967   2.903   3.646  16.939 -1.1230  0.5403  1.2098
 1169SOL     OW14968   4.548   2.365  15.200  0.1680 -0.3105  0.0222
 1169SOL    HW114969   4.502   2.283  15.181 -1.2047  0.9246 -1.9822
 1169SOL    HW214970   4.476   2.411  15.243 -0.0362 -1.0516  0.4757
 1170SOL     OW14971   4.223   4.547   7.750 -0.0924 -0.7670  0.7507
 1170SOL    HW114972   4.141   4.578   7.787 -0.2536 -1.0926  0.6667
 1170SOL    HW214973   4.292   4.594   7.798  1.5049 -0.2052 -2.0522
 1171SOL     OW14974   0.417   3.178   3.150  0.3010  0.9195  0.0047
 1171SOL    HW114975   0.369   3.252   3.113 -1.3271 -0.6233 -0.9705
 1171SOL    HW214976   0.364   3.154   3.226 -1.4506  1.4577 -1.0510
 1172SOL     OW14977   4.029   3.808   8.698 -0.3581 -0.3822 -0.1899
 1172SOL    HW114978   3.991   3.745   8.636  0.7451 -0.1093 -1.1363
 1172SOL    HW214979   3.951   3.840   8.744 -0.4987  0.9788 -1.3801
 1173SOL     OW14980   0.526   2.799  12.689  0.4690  0.5811  0.3818
 1173SOL    HW114981   0.566   2.713  12.673 -1.7694 -0.2648 -0.7052
 1173SOL    HW214982   0.453   2.800  12.627  0.7231 -0.6223  0.0708
 1174SOL     OW14983   3.274   4.048  10.354  0.6786 -0.3589  0.2179
 1174SOL    HW114984   3.354   4.019  10.310  1.1099 -0.5933  1.1409
 1174SOL    HW214985   3.205   3.992  10.319  0.4993  0.7567 -1.1951
 1175SOL     OW14986   3.815   1.986   4.643  0.2188  0.1250 -0.0437
 1175SOL    HW114987   3.744   1.976   4.579 -1.5279  1.3770  1.7205
 1175SOL    HW214988   3.886   1.963   4.582  0.0128 -0.1638 -0.1792
 1176SOL     OW14989   2.878   3.240   9.132  0.0587  0.3801 -0.3005
 1176SOL    HW114990   2.816   3.201   9.070 -0.4326 -1.2201  1.2156
 1176SOL    HW214991   2.842   3.223   9.219  0.1363 -0.7842 -0.4958
 1177SOL     OW14992   1.785   2.746  11.712 -0.4980 -0.5013  0.3486
 1177SOL    HW114993   1.842   2.716  11.641  1.7887  1.1544  1.4932
 1177SOL    HW214994   1.798   2.840  11.719 -2.1726 -0.3744  1.6397
 1178SOL     OW14995   0.378   1.984   5.533  0.5249 -0.2501 -0.0374
 1178SOL    HW114996   0.462   2.018   5.562  0.6276  0.7072 -1.4704
 1178SOL    HW214997   0.411   1.932   5.461  2.4981  1.2749 -0.2260
 1179SOL     OW14998   4.029   0.009   2.172 -0.6478  0.0485 -0.0628
 1179SOL    HW114999   3.969   0.044   2.106 -1.0526 -1.5060 -0.5139
 1179SOL    HW215000   4.032   0.082   2.234  1.3937 -0.9448  0.9979
 1180SOL     OW15001   4.367   3.112   0.946  0.2403  0.2031 -0.1603
 1180SOL    HW115002   4.406   3.070   1.022  1.7027  0.8581 -0.5560
 1180SOL    HW215003   4.409   3.197   0.951 -1.7404  1.0805  1.5851
 1181SOL     OW15004   4.454   3.788  15.235  0.0052 -0.0481 -0.4217
 1181SOL    HW115005   4.501   3.748  15.308  1.7907  2.8846  0.0156
 1181SOL    HW215006   4.495   3.874  15.246  1.5292 -0.8831  0.5135
 1182SOL     OW15007   3.203   2.634   6.211  0.5394  0.6432  0.0017
 1182SOL    HW115008   3.232   2.725   6.210  3.0346 -0.1411  0.0900
 1182SOL    HW215009   3.208   2.606   6.303  0.0991 -1.5254 -0.6469
 1183SOL     OW15010   3.145   0.634   1.912 -0.1132 -0.2272  0.7703
 1183SOL    HW115011   3.074   0.661   1.970 -0.9178 -1.1072  0.1759
 1183SOL    HW215012   3.210   0.611   1.979  0.9227  1.1188  0.2294
 1184SOL     OW15013   0.398   2.518  10.328 -0.2203  0.1809  0.2088
 1184SOL    HW115014   0.419   2.505  10.236 -0.1973 -3.2674  0.7119
 1184SOL    HW215015   0.328   2.453  10.329  1.2253 -1.3354  2.1965
 1185SOL     OW15016   2.961   3.135   7.754 -0.5176 -0.0262 -0.0323
 1185SOL    HW115017   2.933   3.129   7.662  1.0493  1.8167 -0.6154
 1185SOL    HW215018   2.989   3.043   7.759 -1.0140 -0.2312 -0.9854
 1186SOL     OW15019   3.934   0.285   9.018  0.4459  0.0049 -0.2741
 1186SOL    HW115020   4.009   0.248   8.973  1.1540  0.4514  0.5348
 1186SOL    HW215021   3.905   0.203   9.059  0.4182 -1.1470 -2.6091
 1187SOL     OW15022   0.427   1.278   6.173  0.0504  0.2009  0.2281
 1187SOL    HW115023   0.346   1.247   6.213  0.4196  0.6752  1.3502
 1187SOL    HW215024   0.401   1.265   6.082  2.6961 -0.9874 -0.3701
 1188SOL     OW15025   0.449   2.991   8.669  0.0786 -0.1724  0.3342
 1188SOL    HW115026   0.449   3.056   8.739  1.9791  0.3146 -0.1434
 1188SOL    HW215027   0.403   3.044   8.605  1.3552  0.9286  0.3394
 1189SOL     OW15028   0.977   4.370  13.020  0.0203 -0.2724 -0.1269
 1189SOL    HW115029   1.043   4.301  13.018 -0.6550 -0.9194 -0.1303
 1189SOL    HW215030   0.909   4.347  13.084  1.0158 -2.1930  0.2090
 1190SOL     OW15031   4.543   3.372   7.342  0.2321  0.2266  0.0327
 1190SOL    HW115032   4.551   3.345   7.250  1.7690  0.3564  0.1147
 1190SOL    HW215033   4.451   3.383   7.365 -0.2060  0.7629 -1.9952
 1191SOL     OW15034   3.896   4.459   3.816  0.2201  0.3408 -0.6188
 1191SOL    HW115035   3.945   4.386   3.854 -0.2130  0.6673  0.5645
 1191SOL    HW215036   3.955   4.527   3.846  0.5572 -0.3523  0.2776
 1192SOL     OW15037   1.017   2.879   2.583 -0.4770 -0.3988  0.9606
 1192SOL    HW115038   1.042   2.802   2.633 -0.1311 -1.5698 -1.0453
 1192SOL    HW215039   1.054   2.857   2.498  1.8946  2.8071  1.1394
 1193SOL     OW15040   2.472   3.368   6.285 -0.2010  0.3365  0.0349
 1193SOL    HW115041   2.461   3.333   6.197 -2.6056  0.3529  0.3196
 1193SOL    HW215042   2.522   3.305   6.337 -0.6069 -0.5515 -0.6328
 1194SOL     OW15043   1.255   2.577   4.931 -0.3487  0.2970 -0.3478
 1194SOL    HW115044   1.324   2.512   4.918 -0.6707 -0.4033  1.4913
 1194SOL    HW215045   1.275   2.606   5.019 -0.9986 -0.3677  0.0215
 1195SOL     OW15046   0.871   3.777  16.185  0.3595  0.4486  0.2725
 1195SOL    HW115047   0.906   3.711  16.125 -1.4453  0.0465 -0.3449
 1195SOL    HW215048   0.948   3.793  16.240 -1.1971  2.1897  1.9360
 1196SOL     OW15049   0.924   3.019   6.237  0.3613 -0.1128  0.3904
 1196SOL    HW115050   1.004   3.033   6.288  0.9477 -0.2042 -0.5108
 1196SOL    HW215051   0.908   2.925   6.235  1.6617 -0.3262  0.2780
 1197SOL     OW15052   1.496   2.811  14.809  0.4606 -0.4278  0.5156
 1197SOL    HW115053   1.551   2.864  14.867 -0.6416  0.3558  0.8236
 1197SOL    HW215054   1.459   2.747  14.869 -1.2575 -1.7101 -1.8863
 1198SOL     OW15055   3.104   4.206   0.924 -0.3507 -0.1137  0.0890
 1198SOL    HW115056   3.155   4.207   0.843  0.5213 -0.8361  0.6356
 1198SOL    HW215057   3.020   4.170   0.898  0.0641 -1.5113  0.7207
 1199SOL     OW15058   1.340   3.792   2.984  0.0274 -0.1602  0.2959
 1199SOL    HW115059   1.403   3.726   3.013 -0.3028 -0.9636 -0.8362
 1199SOL    HW215060   1.384   3.877   2.970 -0.7208 -0.3232 -2.9615
 1200SOL     OW15061   0.148   1.920   4.387 -0.0495  0.1732 -0.0508
 1200SOL    HW115062   0.151   1.875   4.303 -1.9845 -1.0344  0.5313
 1200SOL    HW215063   0.056   1.919   4.413 -0.5698  0.6652 -1.9277
 1201SOL     OW15064   4.700   3.407   6.281 -0.1354  0.5378  0.0527
 1201SOL    HW115065   0.044   3.388   6.215 -0.0849 -1.6014  0.7205
 1201SOL    HW215066   4.642   3.333   6.266 -0.3692  0.6490  0.4159
 1202SOL     OW15067   1.966   4.703   5.040 -0.2749  0.4310  0.2034
 1202SOL    HW115068   1.977   4.677   4.949  1.5205 -1.3371  0.9183
 1202SOL    HW215069   1.936   4.623   5.084  0.8175 -0.0221  0.1206
 1203SOL     OW15070   0.906   3.456   2.723 -0.6730  0.1734 -0.0566
 1203SOL    HW115071   0.943   3.536   2.686  1.4067 -0.6064  0.3403
 1203SOL    HW215072   0.899   3.398   2.648  1.1161  1.1012 -0.9460
 1204SOL     OW15073   1.528   1.918  13.346 -0.0115  0.0598 -0.3043
 1204SOL    HW115074   1.501   1.957  13.263 -0.1140 -0.6420 -0.5968
 1204SOL    HW215075   1.452   1.927  13.403 -1.1327  1.5435 -2.0622
 1205SOL     OW15076   2.696   0.599  10.822 -0.3602  0.0566  0.1419
 1205SOL    HW115077   2.645   0.672  10.858 -0.4399 -0.7548  1.6876
 1205SOL    HW215078   2.776   0.641  10.790  0.2924 -0.8924  0.5492
 1206SOL     OW15079   3.964   0.206   5.853  0.5324  0.3185  0.1763
 1206SOL    HW115080   4.000   0.293   5.838 -0.7022  0.2325 -3.2100
 1206SOL    HW215081   3.906   0.221   5.928 -0.5290  2.4521 -1.0746
 1207SOL     OW15082   1.317   3.369   3.173 -0.0252  0.4747 -0.0785
 1207SOL    HW115083   1.259   3.335   3.105 -0.8417 -1.7353  1.7410
 1207SOL    HW215084   1.357   3.448   3.136 -1.4202  1.2818  0.1319
 1208SOL     OW15085   0.084   0.729   8.670 -0.2915  0.1260  0.6311
 1208SOL    HW115086   4.718   0.700   8.659  1.0900 -3.1663 -2.0606
 1208SOL    HW215087   0.098   0.757   8.580 -0.1003  0.1769  0.6746
 1209SOL     OW15088   2.816   0.455   1.957 -0.1338  0.0012 -0.4042
 1209SOL    HW115089   2.778   0.539   1.931  2.2276  1.0838 -0.3423
 1209SOL    HW215090   2.761   0.421   2.028 -2.0131  0.6192 -1.5539
 1210SOL     OW15091   0.070   2.570   8.105 -0.0518 -0.2126  0.3294
 1210SOL    HW115092   4.700   2.587   8.114  0.2145  1.9837 -1.1237
 1210SOL    HW215093   0.093   2.538   8.192  1.4124  0.5237  0.2160
 1211SOL     OW15094   2.119   4.646   8.630 -0.7520  0.7138 -0.0025
 1211SOL    HW115095   2.073   4.711   8.684 -1.9484 -0.6585  0.6321
 1211SOL    HW215096   2.201   4.695   8.630 -0.7774  0.7528  1.3030
 1212SOL     OW15097   2.796   3.927   4.773 -0.2918 -0.4711  0.3617
 1212SOL    HW115098   2.841   3.974   4.702  1.3256 -3.6818 -0.7088
 1212SOL    HW215099   2.756   3.853   4.726 -1.5615 -0.2414  1.0731
 1213SOL     OW15100   0.217   3.221   7.462  0.4228  0.2977 -0.0332
 1213SOL    HW115101   0.220   3.133   7.425 -4.1887  0.4179 -0.7650
 1213SOL    HW215102   0.129   3.218   7.501  1.0646 -2.0823  1.1985
 1214SOL     OW15103   2.296   1.845   1.668 -0.1701  0.3037  0.9299
 1214SOL    HW115104   2.260   1.934   1.663 -1.1778 -0.1938 -0.8230
 1214SOL    HW215105   2.236   1.794   1.723 -1.2773  1.8487  1.1644
 1215SOL     OW15106   2.046   2.341   7.940 -0.1176  0.3380  0.3446
 1215SOL    HW115107   1.994   2.385   7.872  1.3116  0.6977 -0.5087
 1215SOL    HW215108   1.984   2.288   7.991  0.8789  0.4300  1.6603
 1216SOL     OW15109   0.870   4.051   8.249  0.4310 -0.8835 -0.2106
 1216SOL    HW115110   0.863   4.088   8.337 -0.1032 -0.1534 -0.5592
 1216SOL    HW215111   0.785   4.008   8.240 -0.4618  0.7142  0.5949
 1217SOL     OW15112   1.610   3.976   4.196 -0.2732  0.4159 -0.3148
 1217SOL    HW115113   1.598   3.891   4.237 -0.1742  0.0247 -1.1182
 1217SOL    HW215114   1.630   3.945   4.108  0.9775  0.7597 -0.1635
 1218SOL     OW15115   0.427   4.687   3.793  0.0110  0.3439  0.2615
 1218SOL    HW115116   0.510   4.696   3.745 -0.7522  1.3256 -0.8708
 1218SOL    HW215117   0.438   0.031   3.860 -0.6789  0.7159 -0.0093
 1219SOL     OW15118   3.372   0.954   2.534 -0.7831 -0.3509  0.3072
 1219SOL    HW115119   3.384   1.006   2.614 -0.6653  1.6288 -1.0052
 1219SOL    HW215120   3.379   1.015   2.461 -0.2841  0.4132  0.9975
 1220SOL     OW15121   4.532   0.916   3.406 -0.7071  0.0303 -0.2252
 1220SOL    HW115122   4.531   1.012   3.403 -1.8952  0.0522  1.5871
 1220SOL    HW215123   4.622   0.902   3.437 -1.3456 -1.9270  0.6855
 1221SOL     OW15124   2.160   3.374  15.821  0.1002  0.3220 -0.1171
 1221SOL    HW115125   2.185   3.401  15.909  0.8490 -0.0352 -0.2250
 1221SOL    HW215126   2.107   3.448  15.790  2.9702  1.1450 -3.0089
 1222SOL     OW15127   0.070   2.190  13.560  0.3203 -0.2347 -0.4601
 1222SOL    HW115128   4.708   2.231  13.574 -0.9202 -2.2213 -2.1520
 1222SOL    HW215129   0.076   2.147  13.645  0.5011  2.6845  1.0169
 1223SOL     OW15130   3.391   2.974  11.556 -0.0108  0.2818  0.1875
 1223SOL    HW115131   3.415   2.893  11.601  0.2327 -1.2227 -2.6706
 1223SOL    HW215132   3.466   2.991  11.500 -0.1447 -1.6830 -0.5948
 1224SOL     OW15133   2.842   4.196   3.979  0.5238  0.4965 -0.3600
 1224SOL    HW115134   2.768   4.230   3.928  0.7549 -1.3831 -1.9664
 1224SOL    HW215135   2.806   4.152   4.056  0.0692 -1.6445 -1.8031
 1225SOL     OW15136   4.679   0.057   7.472  0.1425 -0.4081 -1.1607
 1225SOL    HW115137   4.675   0.088   7.563  1.6874 -1.3737 -0.7634
 1225SOL    HW215138   4.615   4.713   7.493  0.5924  0.3043  2.4638
 1226SOL     OW15139   2.978   1.850  17.135  0.7666  0.2108  0.4798
 1226SOL    HW115140   2.900   1.901  17.156  1.1482  0.6102  0.9200
 1226SOL    HW215141   2.986   1.804  17.219  0.5048  3.0589  2.0347
 1227SOL     OW15142   0.764   3.485  13.416 -0.1998 -0.2963 -0.4329
 1227SOL    HW115143   0.812   3.402  13.422  2.1104  1.2080  2.2600
 1227SOL    HW215144   0.779   3.521  13.504  0.1057  1.2450 -1.1054
 1228SOL     OW15145   0.833   1.601   6.151  0.2660  0.1312  0.4781
 1228SOL    HW115146   0.918   1.638   6.174  1.2678 -1.4059 -0.8318
 1228SOL    HW215147   0.769   1.652   6.202 -0.0079  1.5438 -1.2389
 1229SOL     OW15148   2.730   0.789  10.589  0.2346 -0.7161 -0.1595
 1229SOL    HW115149   2.814   0.793  10.635 -0.0362 -0.4973  0.3194
 1229SOL    HW215150   2.679   0.862  10.622  2.3618  0.1064  1.3645
 1230SOL     OW15151   2.284   1.571   2.584 -0.0464  1.0382  0.0829
 1230SOL    HW115152   2.362   1.603   2.539  1.0195 -1.2025  0.3399
 1230SOL    HW215153   2.227   1.554   2.509  0.5920  0.1193 -0.2007
 1231SOL     OW15154   1.515   0.207   7.767  0.5128 -0.4478 -0.2523
 1231SOL    HW115155   1.557   0.263   7.832  1.2374  0.2099 -1.2959
 1231SOL    HW215156   1.486   0.144   7.833  0.9473 -0.3350  0.0443
 1232SOL     OW15157   3.264   1.709  14.457 -0.4215 -0.2878  0.1588
 1232SOL    HW115158   3.227   1.782  14.408 -0.4075 -1.3461 -1.4333
 1232SOL    HW215159   3.331   1.672  14.399  0.7639  0.9150  0.7595
 1233SOL     OW15160   1.493   1.448   6.572  0.6248  0.4190  0.6743
 1233SOL    HW115161   1.506   1.381   6.639 -1.5098  1.1798  1.8355
 1233SOL    HW215162   1.529   1.400   6.497 -0.9559  0.3329 -0.0314
 1234SOL     OW15163   4.162   0.533   6.033  0.1847  0.2496  0.1101
 1234SOL    HW115164   4.119   0.517   5.948 -0.3762  0.4003  0.3666
 1234SOL    HW215165   4.232   0.470   6.017  1.2615  0.7778  2.7929
 1235SOL     OW15166   1.971   1.056  13.921 -0.0617  0.2962  0.1282
 1235SOL    HW115167   2.032   1.119  13.959  0.9912  0.4539 -1.8623
 1235SOL    HW215168   2.034   1.027  13.856 -0.8766 -0.4985 -0.3111
 1236SOL     OW15169   4.313   2.618   9.746  0.4105  0.1475  0.6347
 1236SOL    HW115170   4.231   2.667   9.755  0.7283  0.3716  2.4296
 1236SOL    HW215171   4.301   2.539   9.798 -0.4517  1.5162  2.5221
 1237SOL     OW15172   2.577   0.729   8.376  0.1348 -0.0815  0.4268
 1237SOL    HW115173   2.493   0.727   8.330 -0.2154  0.1499  1.0594
 1237SOL    HW215174   2.596   0.636   8.388  0.0014 -0.2544 -0.7269
 1238SOL     OW15175   1.400   3.603   6.202 -0.1964  0.5326 -0.3414
 1238SOL    HW115176   1.337   3.651   6.148  0.1894 -0.8227 -2.0004
 1238SOL    HW215177   1.357   3.519   6.217 -1.2557  1.5498  2.2524
 1239SOL     OW15178   0.574   0.008   7.592 -0.1698  0.0396  0.4761
 1239SOL    HW115179   0.492   0.052   7.571  0.2929  0.7980  0.2807
 1239SOL    HW215180   0.596   4.703   7.504  1.9042  0.4554  0.8635
 1240SOL     OW15181   3.750   0.353   4.306 -0.2453  0.3698  0.0948
 1240SOL    HW115182   3.823   0.345   4.367  0.2538  0.3223 -0.5197
 1240SOL    HW215183   3.788   0.387   4.225  0.9709  1.8342  1.2874
 1241SOL     OW15184   1.095   2.739   7.142 -0.0751 -0.2583  0.4984
 1241SOL    HW115185   1.175   2.696   7.171  0.2495 -1.4569 -2.1233
 1241SOL    HW215186   1.078   2.703   7.054  0.8062  0.0597  0.2045
 1242SOL     OW15187   0.724   3.093   6.639 -0.0002 -0.1908  0.0496
 1242SOL    HW115188   0.702   3.003   6.660  2.0870  0.0771  3.3595
 1242SOL    HW215189   0.817   3.080   6.621  0.0753  0.7695 -0.3042
 1243SOL     OW15190   4.643   0.340  12.172 -0.0677  0.3121  0.4442
 1243SOL    HW115191   4.647   0.423  12.220  1.5888  0.5414 -0.0833
 1243SOL    HW215192   4.613   0.284  12.243 -1.6833  1.5091  0.7092
 1244SOL     OW15193   4.463   0.268   8.298 -0.2053  0.3500  0.5479
 1244SOL    HW115194   4.507   0.353   8.293  3.6798 -1.7631 -1.2565
 1244SOL    HW215195   4.408   0.283   8.376  0.9162 -0.2908  1.4591
 1245SOL     OW15196   0.407   4.218  14.720 -0.1376  0.0048  0.2102
 1245SOL    HW115197   0.362   4.297  14.749  0.8980  0.2082  1.2547
 1245SOL    HW215198   0.381   4.214  14.628  0.7118  3.4553 -0.1749
 1246SOL     OW15199   2.530   0.230   3.916  0.1409  0.5182  0.1918
 1246SOL    HW115200   2.467   0.211   3.847  0.6024 -1.1141  0.2191
 1246SOL    HW215201   2.568   0.146   3.941 -0.9648 -0.7658 -2.4887
 1247SOL     OW15202   0.194   2.131   7.414  0.1388 -0.5135 -0.3175
 1247SOL    HW115203   0.188   2.218   7.454  1.9456 -0.7722  0.4585
 1247SOL    HW215204   0.190   2.155   7.321  0.1140 -0.3593 -0.2761
 1248SOL     OW15205   4.258   3.529   6.084 -0.0566 -0.2099  1.0689
 1248SOL    HW115206   4.217   3.487   6.160 -1.8140 -1.0343 -0.3454
 1248SOL    HW215207   4.327   3.468   6.059  1.1291  1.5297  0.0880
 1249SOL     OW15208   2.963   2.597  10.062  0.2221 -0.0465  0.2162
 1249SOL    HW115209   2.889   2.601  10.122  1.2956  0.0383  1.5343
 1249SOL    HW215210   2.967   2.503  10.050 -1.4936 -0.1445  0.3779
 1250SOL     OW15211   2.930   0.800   2.607 -0.3778 -0.3548  0.2229
 1250SOL    HW115212   2.958   0.815   2.697  0.7777 -2.0793  0.1498
 1250SOL    HW215213   2.894   0.712   2.620 -3.2555  0.8314  0.3333
 1251SOL     OW15214   0.706   2.719   8.017  0.3877  0.6691  0.2182
 1251SOL    HW115215   0.757   2.800   8.016  2.5337 -0.6836 -0.0007
 1251SOL    HW215216   0.748   2.662   8.081 -1.5458 -2.4283 -1.2600
 1252SOL     OW15217   0.170   0.798  10.193  0.3000  0.1589 -0.5629
 1252SOL    HW115218   0.259   0.810  10.158  0.0739  1.1667 -0.8091
 1252SOL    HW215219   0.178   0.795  10.288  2.7169 -3.1055 -0.8757
 1253SOL     OW15220   3.352   2.751   0.763  0.2701  1.2895 -0.8034
 1253SOL    HW115221   3.353   2.662   0.799 -2.7805  1.0741 -1.2276
 1253SOL    HW215222   3.395   2.734   0.680 -1.2286 -0.0320 -1.3270
 1254SOL     OW15223   2.392   4.356  16.662  0.0329  0.3794 -0.2292
 1254SOL    HW115224   2.481   4.387  16.676  0.9138 -0.6269 -3.5907
 1254SOL    HW215225   2.347   4.441  16.666  0.2778  0.4785  0.3001
 1255SOL     OW15226   0.199   0.960   6.370  0.4919  0.6542  0.0982
 1255SOL    HW115227   0.235   0.914   6.294 -1.0603 -0.5766  0.1124
 1255SOL    HW215228   0.249   1.041   6.357  0.3689  0.8873  1.0590
 1256SOL     OW15229   2.955   4.463  10.800 -0.1912  0.0713 -0.6446
 1256SOL    HW115230   2.980   4.551  10.826 -1.0409  0.2244 -0.3608
 1256SOL    HW215231   2.951   4.457  10.704  1.7073 -0.5618 -0.6942
 1257SOL     OW15232   3.794   4.453   2.940  0.2850  0.0178  0.3553
 1257SOL    HW115233   3.756   4.537   2.967 -0.1332  0.4163 -1.5318
 1257SOL    HW215234   3.768   4.452   2.848 -1.3712 -1.8123  0.8316
 1258SOL     OW15235   4.468   2.609   4.085  0.1499  0.6006  0.3911
 1258SOL    HW115236   4.434   2.520   4.083 -1.5186  1.2114  1.4398
 1258SOL    HW215237   4.392   2.668   4.084 -0.5582 -0.3322 -0.5519
 1259SOL     OW15238   2.012   4.642   4.724  0.5042  0.0439 -0.5013
 1259SOL    HW115239   2.027   4.572   4.660 -0.5538 -0.1683 -0.5231
 1259SOL    HW215240   1.917   4.655   4.716  0.4529 -0.2281 -0.3534
 1260SOL     OW15241   1.406   3.024   3.516  0.6493  0.1695 -0.5898
 1260SOL    HW115242   1.399   3.058   3.605 -1.9075  1.2717 -1.2204
 1260SOL    HW215243   1.342   3.074   3.465  1.1113  0.5569 -0.7967
 1261SOL     OW15244   0.917   1.075  16.467  0.6693  0.5621  0.4465
 1261SOL    HW115245   0.947   1.154  16.511  1.1294  0.0845  0.9832
 1261SOL    HW215246   0.902   1.018  16.542  0.5814 -0.8985 -0.6916
 1262SOL     OW15247   4.273   3.331   4.337 -0.8736  0.1455  0.0715
 1262SOL    HW115248   4.218   3.389   4.284 -2.3942 -0.4243  0.9925
 1262SOL    HW215249   4.357   3.340   4.293 -1.4107 -0.2094 -1.0043
 1263SOL     OW15250   3.228   4.433   9.967  0.0249 -0.3676 -0.7470
 1263SOL    HW115251   3.242   4.419  10.060  0.9185  1.6221 -0.5831
 1263SOL    HW215252   3.314   4.464   9.939  0.8620 -1.9839  0.0103
 1264SOL     OW15253   3.879   4.310   6.203 -0.1497  0.2601 -0.6231
 1264SOL    HW115254   3.807   4.373   6.203  1.6488  2.3029 -0.6811
 1264SOL    HW215255   3.892   4.325   6.109  1.1390 -0.6725 -0.5956
 1265SOL     OW15256   4.643   4.160  16.232 -0.0627  0.0510 -0.0254
 1265SOL    HW115257   4.646   4.234  16.171  0.8499 -0.2380 -0.3420
 1265SOL    HW215258   4.588   4.193  16.303  2.8920 -1.0054  2.7552
 1266SOL     OW15259   3.795   4.552   4.964 -0.6767  0.0481 -0.5174
 1266SOL    HW115260   3.728   4.581   5.026  2.4312 -0.2700  2.9869
 1266SOL    HW215261   3.827   4.636   4.932  0.3837 -0.9260 -1.9986
 1267SOL     OW15262   3.489   3.173  14.010 -0.1429  0.2564  0.7096
 1267SOL    HW115263   3.515   3.226  14.086 -0.5305  0.5333  0.6494
 1267SOL    HW215264   3.523   3.230  13.941  0.8769 -4.3326 -2.6224
 1268SOL     OW15265   3.172   3.647   2.624  0.7126  0.7422  0.0220
 1268SOL    HW115266   3.223   3.721   2.590  1.2950  1.1461  1.7419
 1268SOL    HW215267   3.093   3.696   2.649  0.9278  0.1436  1.8703
 1269SOL     OW15268   3.493   1.682   2.694 -0.1322  0.3103  0.0162
 1269SOL    HW115269   3.558   1.671   2.763 -0.8179  1.9265  0.9306
 1269SOL    HW215270   3.454   1.766   2.719  0.5217  1.2042 -2.0201
 1270SOL     OW15271   1.644   0.430  10.795 -0.0151 -0.1307 -0.4646
 1270SOL    HW115272   1.624   0.523  10.807  1.9855  0.3863 -1.1560
 1270SOL    HW215273   1.562   0.385  10.776  0.4768 -0.2408 -2.3229
 1271SOL     OW15274   2.749   4.442   2.058  0.3996 -0.3543 -0.1080
 1271SOL    HW115275   2.796   4.409   1.981 -1.0370 -0.3589 -0.9848
 1271SOL    HW215276   2.829   4.467   2.103 -0.1617  1.7829 -0.2898
 1272SOL     OW15277   1.362   2.876   5.855  0.3635  0.1528  0.0519
 1272SOL    HW115278   1.429   2.890   5.922 -0.1817 -0.5084  0.7303
 1272SOL    HW215279   1.407   2.896   5.773  0.0782 -0.8866 -0.3511
 1273SOL     OW15280   3.049   3.358   4.862 -0.4251 -0.0009  0.0112
 1273SOL    HW115281   2.968   3.401   4.889  1.2656  2.7338  0.7386
 1273SOL    HW215282   3.053   3.394   4.774 -1.7138 -0.3702 -0.2094
 1274SOL     OW15283   3.411   3.194   7.717 -0.2967 -0.1174  0.3958
 1274SOL    HW115284   3.360   3.274   7.703  1.5134  1.0957  0.7047
 1274SOL    HW215285   3.434   3.206   7.809  0.9916 -0.5698  0.1222
 1275SOL     OW15286   2.679   0.500  11.294 -0.0075  0.0876 -0.3710
 1275SOL    HW115287   2.693   0.406  11.285 -0.8322  0.0153 -0.9275
 1275SOL    HW215288   2.629   0.512  11.213 -0.4054  1.7520  0.1101
 1276SOL     OW15289   4.409   0.868   5.628 -0.3480  0.0110 -0.1012
 1276SOL    HW115290   4.364   0.787   5.604 -0.0562 -0.7305  1.8710
 1276SOL    HW215291   4.434   0.862   5.720  1.2264  2.8003 -0.3634
 1277SOL     OW15292   2.019   0.747   1.293 -0.9220 -0.0016 -0.0263
 1277SOL    HW115293   2.030   0.654   1.274 -0.2206 -0.0623  0.6515
 1277SOL    HW215294   2.070   0.762   1.373  0.3789 -1.0708 -0.6468
 1278SOL     OW15295   2.933   3.571   7.217  0.2272 -0.1105  0.2108
 1278SOL    HW115296   2.893   3.653   7.245  0.7662 -0.2171  1.2663
 1278SOL    HW215297   2.999   3.610   7.160  0.1925 -1.0902 -0.5033
 1279SOL     OW15298   2.722   0.531   8.121  0.1232 -0.1447  0.1828
 1279SOL    HW115299   2.714   0.506   8.029  0.4274  2.9534 -0.6809
 1279SOL    HW215300   2.813   0.511   8.142  0.1316  0.0411  0.3196
 1280SOL     OW15301   3.707   3.121   5.986 -0.4819  0.5731  0.0100
 1280SOL    HW115302   3.743   3.167   5.909 -0.0360 -0.0962 -0.1753
 1280SOL    HW215303   3.689   3.191   6.049  1.7186 -0.2307  1.5164
 1281SOL     OW15304   4.182   0.187   4.021  0.4162 -0.2374 -0.2095
 1281SOL    HW115305   4.107   0.223   4.069  1.3842  1.9324 -0.3227
 1281SOL    HW215306   4.193   0.241   3.943  1.5024  0.8909  0.7361
 1282SOL     OW15307   1.292   1.390  11.167  0.5148 -0.2908 -0.2441
 1282SOL    HW115308   1.286   1.484  11.150  0.5692 -0.3847 -0.7823
 1282SOL    HW215309   1.209   1.380  11.214  2.0077  0.9933  2.6685
 1283SOL     OW15310   0.991   3.142   4.478  0.0238 -0.0941  0.3627
 1283SOL    HW115311   0.946   3.064   4.511  0.1388 -0.0576  0.6044
 1283SOL    HW215312   0.915   3.200   4.485 -0.4510 -0.7282  0.5781
 1284SOL     OW15313   0.341   4.191   8.822 -0.1701 -0.1118 -0.0138
 1284SOL    HW115314   0.435   4.210   8.817 -0.5444  1.9650  1.0575
 1284SOL    HW215315   0.310   4.272   8.783  1.0953 -0.2098 -1.2371
 1285SOL     OW15316   1.899   2.373   6.972 -0.6767 -0.1631 -0.4846
 1285SOL    HW115317   1.947   2.445   7.015 -1.1727 -1.0461  1.5546
 1285SOL    HW215318   1.856   2.334   7.048  2.2542 -1.6041  0.4465
 1286SOL     OW15319   3.473   1.346   7.840  0.4792 -0.1693  0.0275
 1286SOL    HW115320   3.500   1.402   7.768 -0.9995 -0.6279 -0.8699
 1286SOL    HW215321   3.532   1.272   7.831  1.1071  0.2019  1.0191
 1287SOL     OW15322   2.173   0.826   7.789 -0.2713  0.3141  0.5046
 1287SOL    HW115323   2.226   0.760   7.746 -1.7013  0.3491 -1.2987
 1287SOL    HW215324   2.236   0.897   7.798 -1.8637  1.8702 -0.6245
 1288SOL     OW15325   4.102   1.131   7.711  0.1642 -0.2404 -0.1042
 1288SOL    HW115326   4.107   1.220   7.747  1.9650 -0.3210 -0.1215
 1288SOL    HW215327   4.053   1.088   7.782 -0.7144  0.6866 -0.1516
 1289SOL     OW15328   3.474   2.317   6.168  0.8620  0.4560 -0.6397
 1289SOL    HW115329   3.416   2.383   6.128 -0.7312  0.5525  1.8104
 1289SOL    HW215330   3.558   2.334   6.125  1.7986 -1.2751  0.5231
 1290SOL     OW15331   2.674   0.197   8.870 -0.3128  0.1413 -0.4717
 1290SOL    HW115332   2.715   0.110   8.872 -0.4166  0.1303  1.3112
 1290SOL    HW215333   2.592   0.181   8.918 -0.0468  2.6000  0.8050
 1291SOL     OW15334   3.156   1.614   4.412  0.3444  0.1545 -0.4176
 1291SOL    HW115335   3.212   1.538   4.394  0.6681  0.4303 -0.5636
 1291SOL    HW215336   3.102   1.610   4.333 -0.1105 -0.9558 -0.0676
 1292SOL     OW15337   0.076   2.821   7.974  0.6492 -0.2117 -0.2465
 1292SOL    HW115338   0.155   2.842   8.024  0.6190  1.1904 -0.7615
 1292SOL    HW215339   0.057   2.734   8.008  1.7266  0.5340  2.2673
 1293SOL     OW15340   4.716   3.400  14.293  0.1660 -0.1916 -1.0014
 1293SOL    HW115341   4.715   3.307  14.317 -1.5505  0.2071  0.5694
 1293SOL    HW215342   4.635   3.409  14.243 -1.7721 -4.5826  1.3374
 1294SOL     OW15343   2.952   4.402   2.496 -0.5894  0.3903 -0.4274
 1294SOL    HW115344   2.879   4.440   2.545 -2.5626 -1.3721 -2.0038
 1294SOL    HW215345   3.018   4.394   2.565 -0.5525 -1.3287 -0.6579
 1295SOL     OW15346   0.959   4.352   9.603  0.1173  0.0881  0.0344
 1295SOL    HW115347   0.958   4.447   9.604 -1.6427  0.0710 -0.3892
 1295SOL    HW215348   0.949   4.329   9.511 -0.8705 -1.1597  0.4361
 1296SOL     OW15349   3.498   4.380   7.023  0.2487  0.1242 -0.5060
 1296SOL    HW115350   3.488   4.448   6.956 -1.2972 -2.7840 -3.2408
 1296SOL    HW215351   3.493   4.435   7.102  1.1400 -1.7405  0.8398
 1297SOL     OW15352   4.077   4.708  17.440  0.5545  0.7621 -0.0681
 1297SOL    HW115353   4.133   0.048  17.485 -0.8480  1.8955  0.0952
 1297SOL    HW215354   4.148   4.677  17.384  1.5210 -0.3219  1.7308
 1298SOL     OW15355   2.765   1.732   9.000 -0.4073  0.2504 -0.1312
 1298SOL    HW115356   2.694   1.781   8.959 -0.0646  2.3122  1.7791
 1298SOL    HW215357   2.799   1.800   9.058 -0.3983 -1.5644  2.0356
 1299SOL     OW15358   0.434   2.088   7.590 -0.2792  0.3849  0.4154
 1299SOL    HW115359   0.442   2.182   7.578  0.2549  0.2288 -0.5401
 1299SOL    HW215360   0.517   2.059   7.551 -1.6690 -0.7979 -1.6873
 1300SOL     OW15361   1.203   3.999   5.991  0.0213 -0.2739  0.4880
 1300SOL    HW115362   1.129   4.026   5.937  0.1413 -0.4726  0.2197
 1300SOL    HW215363   1.265   4.069   5.970 -0.1897 -0.3247 -0.2978
 1301SOL     OW15364   1.211   4.588   9.558 -0.1771  0.3928 -0.5145
 1301SOL    HW115365   1.216   4.678   9.589  3.8376  1.0219 -3.0665
 1301SOL    HW215366   1.118   4.572   9.575  0.2325 -2.1096 -0.5159
 1302SOL     OW15367   2.760   1.078  10.952 -0.2269  0.1363  0.6865
 1302SOL    HW115368   2.696   1.107  11.017 -0.8067 -3.1742  1.5935
 1302SOL    HW215369   2.838   1.125  10.980 -0.2334  0.6989 -0.2284
 1303SOL     OW15370   1.206   2.045  11.105  0.0427 -0.1055 -0.1659
 1303SOL    HW115371   1.277   2.108  11.095 -0.9552  0.8200 -1.5101
 1303SOL    HW215372   1.159   2.054  11.021 -0.8613  0.6297  0.4225
 1304SOL     OW15373   2.451   2.783   8.753  0.4318  0.3249 -0.1741
 1304SOL    HW115374   2.527   2.786   8.695  1.6925 -3.6627  1.2786
 1304SOL    HW215375   2.428   2.692   8.773 -0.3785  0.8759  1.3725
 1305SOL     OW15376   0.764   3.599   1.169  0.3687 -0.0658  0.6079
 1305SOL    HW115377   0.781   3.632   1.258  1.1159  0.5621  0.2261
 1305SOL    HW215378   0.689   3.651   1.139 -1.0730 -0.8148  2.8679
 1306SOL     OW15379   4.402   1.618   2.325  0.2256 -0.0996 -0.9254
 1306SOL    HW115380   4.441   1.538   2.289  1.3018 -0.5505  1.2107
 1306SOL    HW215381   4.472   1.682   2.308 -1.3821  2.2057  1.2228
 1307SOL     OW15382   0.089   1.707   3.887 -1.0002  0.3476  0.2036
 1307SOL    HW115383   0.058   1.736   3.972  0.5356  0.4176  0.7434
 1307SOL    HW215384   0.165   1.649   3.896 -1.7959 -0.7256  0.0186
 1308SOL     OW15385   4.425   4.484   9.436  0.8137  0.1915 -0.3867
 1308SOL    HW115386   4.445   4.394   9.463  0.7555  0.1064 -0.6250
 1308SOL    HW215387   4.510   4.522   9.457  0.6685 -0.7428  1.8710
 1309SOL     OW15388   1.280   3.317   7.467  0.5604  0.2889 -0.5006
 1309SOL    HW115389   1.359   3.315   7.414  0.9306 -0.3361  0.0696
 1309SOL    HW215390   1.308   3.376   7.537 -1.0512  1.8832 -1.2163
 1310SOL     OW15391   3.679   0.462   5.215  0.3634  0.3348 -0.0032
 1310SOL    HW115392   3.636   0.514   5.283  0.4085 -0.0935  0.3518
 1310SOL    HW215393   3.615   0.465   5.143 -1.7444  0.6122  1.8889
 1311SOL     OW15394   0.040   1.041   3.220 -0.1688 -0.1551  0.1268
 1311SOL    HW115395   0.078   0.959   3.189  1.5911  0.4806  0.5574
 1311SOL    HW215396   0.034   1.026   3.314 -0.2107 -1.4982 -0.0994
 1312SOL     OW15397   4.382   1.750   6.477  0.3618 -0.0459 -0.3423
 1312SOL    HW115398   4.305   1.694   6.480  1.7761 -2.0205 -0.7628
 1312SOL    HW215399   4.349   1.818   6.418  0.4320  1.2717  1.1393
 1313SOL     OW15400   0.093   1.931  12.848  0.0996 -0.5923 -0.6735
 1313SOL    HW115401   0.112   2.011  12.897 -2.3894 -0.6277  0.3508
 1313SOL    HW215402   0.026   1.975  12.794 -0.5129 -0.0753  0.5095
 1314SOL     OW15403   4.709   2.869   2.700  0.4754  0.3163  0.1008
 1314SOL    HW115404   0.065   2.912   2.732  0.6937 -0.4005  0.5287
 1314SOL    HW215405   4.656   2.881   2.778  1.3821  0.1201  0.7534
 1315SOL     OW15406   3.038   3.747   9.706 -0.3354 -0.2957  0.3395
 1315SOL    HW115407   2.945   3.730   9.690 -0.4416 -0.0868  0.7207
 1315SOL    HW215408   3.060   3.738   9.613 -0.4946  1.2970  0.1417
 1316SOL     OW15409   2.113   4.527   3.657 -0.1615  0.6476  0.2698
 1316SOL    HW115410   2.050   4.515   3.728 -2.3221  0.8962 -1.5943
 1316SOL    HW215411   2.172   4.458   3.686 -0.5487 -0.6098 -1.9606
 1317SOL     OW15412   2.549   2.562   8.946 -0.8466  0.4465 -0.1350
 1317SOL    HW115413   2.501   2.626   8.999  1.0669  1.1573  0.7593
 1317SOL    HW215414   2.497   2.482   8.954  0.3055 -0.0597  2.4163
 1318SOL     OW15415   3.700   0.958   2.285  0.4715  0.1419  0.1966
 1318SOL    HW115416   3.759   0.938   2.357  0.3547  2.2837  0.8970
 1318SOL    HW215417   3.684   0.873   2.245 -0.7883  0.8456 -0.8080
 1319SOL     OW15418   3.915   2.684  11.014 -0.3757  0.2124  0.0688
 1319SOL    HW115419   3.861   2.763  11.018  1.0899  1.2514 -0.7122
 1319SOL    HW215420   3.998   2.731  11.022 -0.2590  0.1926 -0.9791
 1320SOL     OW15421   2.561   1.702   3.612 -0.2216 -0.1859 -0.3589
 1320SOL    HW115422   2.614   1.781   3.623  1.8820 -1.2309 -2.8788
 1320SOL    HW215423   2.487   1.735   3.560 -0.1199  1.0636  0.2971
 1321SOL     OW15424   3.015   0.012  10.822 -0.1775  0.0093  0.1737
 1321SOL    HW115425   3.104   0.048  10.817 -0.5252  1.3560  3.5731
 1321SOL    HW215426   2.947   0.075  10.846 -0.2126  0.5028 -1.2194
 1322SOL     OW15427   3.913   0.840  12.728  0.2636  0.1278  0.5791
 1322SOL    HW115428   3.903   0.931  12.700  0.9103 -0.3343 -1.1669
 1322SOL    HW215429   3.992   0.852  12.781  0.1482  0.0315  0.7707
 1323SOL     OW15430   0.936   2.768   7.377  0.1031 -0.3738  0.5345
 1323SOL    HW115431   0.951   2.746   7.285 -0.5937  0.4905  0.2141
 1323SOL    HW215432   0.909   2.858   7.359 -1.5012 -0.6843  1.3548
 1324SOL     OW15433   2.896   4.598  11.389 -0.2692 -0.1531 -0.0763
 1324SOL    HW115434   2.868   4.589  11.298  1.3082 -0.7630 -0.5057
 1324SOL    HW215435   2.814   4.619  11.433 -0.8299 -0.7641 -0.8362
 1325SOL     OW15436   1.917   1.952   1.655 -0.2691  1.0949  0.7966
 1325SOL    HW115437   1.999   2.002   1.653 -0.0343  0.6449 -1.4814
 1325SOL    HW215438   1.923   1.898   1.576 -0.8415 -0.5813  1.9045
 1326SOL     OW15439   3.740   2.573   7.539  0.4499 -0.2270 -0.0842
 1326SOL    HW115440   3.785   2.504   7.587 -1.8337 -1.5503  0.1694
 1326SOL    HW215441   3.799   2.648   7.548  1.8543 -1.4000  0.3965
 1327SOL     OW15442   2.365   2.505   8.667  0.3530  0.3603 -0.4006
 1327SOL    HW115443   2.270   2.500   8.660  0.4645 -2.5569  0.4212
 1327SOL    HW215444   2.377   2.421   8.710 -0.1850 -0.2360 -1.4363
 1328SOL     OW15445   4.011   2.952   9.664  0.6445 -0.4418  0.4685
 1328SOL    HW115446   3.942   2.939   9.598  0.8894  0.3755  0.0484
 1328SOL    HW215447   4.087   2.947   9.606  0.7993 -1.4144  0.7484
 1329SOL     OW15448   3.215   3.949   7.055 -0.3297 -0.0433  0.6089
 1329SOL    HW115449   3.271   3.976   6.982  1.4744  0.9055  2.3487
 1329SOL    HW215450   3.241   4.019   7.115 -0.2268  1.7971 -1.5742
 1330SOL     OW15451   4.164   3.250  14.477  0.8247  0.6535  1.0374
 1330SOL    HW115452   4.175   3.166  14.522 -2.9604  0.8501  2.3009
 1330SOL    HW215453   4.258   3.264  14.463  0.9775  0.8304  2.2004
 1331SOL     OW15454   2.381   0.389   2.727  0.0518 -0.0547  0.5409
 1331SOL    HW115455   2.360   0.406   2.635 -0.5062  1.3213  0.9208
 1331SOL    HW215456   2.321   0.450   2.770 -0.1342 -0.0761  0.3152
 1332SOL     OW15457   0.647   4.085  12.700 -0.1769 -0.0270 -0.4385
 1332SOL    HW115458   0.740   4.080  12.722  0.2130 -2.0935 -2.6066
 1332SOL    HW215459   0.618   3.995  12.711 -1.4297  0.2589 -1.4410
 1333SOL     OW15460   2.279   2.751  10.830  0.4388 -0.6885 -0.4429
 1333SOL    HW115461   2.312   2.702  10.906  0.0674 -0.9130 -0.4260
 1333SOL    HW215462   2.284   2.841  10.862  3.6189 -1.2972  0.7770
 1334SOL     OW15463   2.353   2.994   7.025 -0.1415  0.3504  0.4540
 1334SOL    HW115464   2.328   2.939   6.951  0.1234 -0.1510  0.7391
 1334SOL    HW215465   2.430   3.041   6.994  0.3665 -1.7106 -1.3613
 1335SOL     OW15466   0.816   0.532   8.995  0.1615 -0.3391 -0.1256
 1335SOL    HW115467   0.882   0.500   9.057 -0.0952  0.2785  0.4629
 1335SOL    HW215468   0.768   0.588   9.056 -0.0672 -0.2513 -0.3848
 1336SOL     OW15469   3.394   1.776   4.115 -0.1650  0.4711  0.3219
 1336SOL    HW115470   3.333   1.703   4.105 -0.2558  0.5723  0.1335
 1336SOL    HW215471   3.340   1.849   4.085 -2.0766 -0.5547  1.2506
 1337SOL     OW15472   3.441   4.511  12.226  0.1202  0.4835  0.2995
 1337SOL    HW115473   3.481   4.528  12.141  0.1417  2.3707  0.6965
 1337SOL    HW215474   3.506   4.446  12.251  2.1875  1.9383 -1.2590
 1338SOL     OW15475   0.495   4.652   0.469  0.2735 -0.4721  0.1217
 1338SOL    HW115476   0.586   4.673   0.488 -0.7301  1.7009  2.7285
 1338SOL    HW215477   0.491   4.557   0.473 -1.1007 -0.4286 -0.2027
 1339SOL     OW15478   2.317   1.812   2.377  0.2615  0.3661 -0.1402
 1339SOL    HW115479   2.389   1.763   2.416  0.6128  1.5797  0.7297
 1339SOL    HW215480   2.309   1.895   2.424 -2.6035 -0.2723  0.5118
 1340SOL     OW15481   1.654   0.570  13.060  0.0051 -0.0794 -0.7388
 1340SOL    HW115482   1.575   0.619  13.081  1.1245  0.6269  1.7435
 1340SOL    HW215483   1.638   0.498  13.120 -1.9349  0.6405 -0.3953
 1341SOL     OW15484   3.196   4.213  12.054  0.2662  0.1067 -0.3029
 1341SOL    HW115485   3.255   4.141  12.031 -0.3430  0.0384 -1.6717
 1341SOL    HW215486   3.240   4.275  12.111  3.6630 -1.8356 -0.8409
 1342SOL     OW15487   3.321   4.663   6.168  0.0945  0.5963 -0.2541
 1342SOL    HW115488   3.350   4.585   6.121  1.6242  1.7826 -1.2975
 1342SOL    HW215489   3.385   0.008   6.150  0.3014  0.5386  0.2903
 1343SOL     OW15490   1.058   1.622   2.069 -0.0615  0.2855 -0.5892
 1343SOL    HW115491   1.035   1.680   1.997 -1.1915  0.6914  0.1044
 1343SOL    HW215492   0.993   1.552   2.059  2.1353 -1.8036 -0.2314
 1344SOL     OW15493   3.879   0.817  16.870 -0.0325  0.3284  0.3772
 1344SOL    HW115494   3.866   0.825  16.776 -1.2637 -0.9756  0.4397
 1344SOL    HW215495   3.907   0.905  16.893  0.7504 -0.3773  2.1253
 1345SOL     OW15496   4.478   3.562   7.798  0.0074  0.2803 -0.1079
 1345SOL    HW115497   4.483   3.642   7.746  3.1226  0.7008  0.8327
 1345SOL    HW215498   4.516   3.592   7.880 -1.2873 -1.5773  1.1887
 1346SOL     OW15499   4.522   4.568   4.268  0.1282  0.1146 -0.4666
 1346SOL    HW115500   4.473   4.645   4.242  0.8179  0.8032  0.2632
 1346SOL    HW215501   4.462   4.496   4.248  1.0675  0.1215 -3.2108
 1347SOL     OW15502   1.586   3.792  15.231  0.6310 -0.5012 -0.3596
 1347SOL    HW115503   1.590   3.697  15.244 -0.8120 -0.4101  0.7273
 1347SOL    HW215504   1.650   3.815  15.164  0.8493 -0.9156 -0.2953
 1348SOL     OW15505   0.834   3.078   2.318 -0.2412 -0.0493  0.1957
 1348SOL    HW115506   0.773   3.005   2.320 -0.6138  0.2720  0.6799
 1348SOL    HW215507   0.791   3.140   2.260  1.7552  0.8913 -0.2700
 1349SOL     OW15508   4.326   3.635  17.388  0.4354 -0.0755  0.4420
 1349SOL    HW115509   4.311   3.668  17.299  4.1362 -1.3340 -0.6664
 1349SOL    HW215510   4.388   3.701  17.419  0.9597 -0.1720 -0.3897
 1350SOL     OW15511   3.585   4.532  15.466  0.5100 -0.6082 -0.0031
 1350SOL    HW115512   3.502   4.521  15.511  0.3773  1.4025  0.2293
 1350SOL    HW215513   3.576   4.617  15.423 -0.0174 -0.3959  0.5363
 1351SOL     OW15514   4.287   2.510   9.297 -0.0487 -0.2692  0.1372
 1351SOL    HW115515   4.373   2.544   9.321  0.2702 -1.5071  0.7702
 1351SOL    HW215516   4.299   2.460   9.216  1.6668 -2.3860  1.7109
 1352SOL     OW15517   2.167   4.233   5.190  0.0514 -0.1139 -0.1237
 1352SOL    HW115518   2.141   4.253   5.280 -0.0620 -0.6851 -0.0345
 1352SOL    HW215519   2.241   4.294   5.194 -0.4422  0.6740 -3.0398
 1353SOL     OW15520   4.613   3.278   3.938  0.7153 -0.3567 -0.0195
 1353SOL    HW115521   4.625   3.183   3.947  2.0536 -0.1725  0.1876
 1353SOL    HW215522   4.560   3.294   3.861 -0.1099  0.2258  0.6701
 1354SOL     OW15523   0.146   2.350   1.524 -0.1281 -0.3922  0.4805
 1354SOL    HW115524   0.216   2.311   1.471  0.4674  1.0382  0.2138
 1354SOL    HW215525   0.067   2.310   1.487  0.3752 -1.3949  0.4847
 1355SOL     OW15526   1.541   3.712   2.196 -0.1408  0.0413  0.2714
 1355SOL    HW115527   1.564   3.625   2.229 -0.6263  0.0599  0.6631
 1355SOL    HW215528   1.622   3.761   2.191 -1.6397  2.5382  0.4955
 1356SOL     OW15529   0.948   2.486   5.086  0.0683  0.6042  0.9106
 1356SOL    HW115530   0.881   2.510   5.150 -1.4284 -1.8038  0.2211
 1356SOL    HW215531   0.903   2.410   5.051 -0.8838  1.2261  0.7808
 1357SOL     OW15532   2.552   3.694   8.168 -0.2636  0.1931 -0.2542
 1357SOL    HW115533   2.467   3.714   8.208  1.1291  2.0115  1.7861
 1357SOL    HW215534   2.615   3.721   8.236  0.1066  0.4579 -0.7065
 1358SOL     OW15535   3.143   3.137   4.973 -0.1614  0.0187  0.0169
 1358SOL    HW115536   3.103   3.219   4.944  2.1812  1.2424  0.1975
 1358SOL    HW215537   3.088   3.112   5.047 -0.8370  0.6297 -0.2836
 1359SOL     OW15538   2.253   2.036   2.556  0.2515  0.4973 -0.1373
 1359SOL    HW115539   2.238   2.130   2.544  1.9992  0.8886  0.7319
 1359SOL    HW215540   2.164   2.002   2.552  1.7031 -3.3126 -1.0003
 1360SOL     OW15541   0.982   3.365   2.203 -0.0194  0.5653 -0.0930
 1360SOL    HW115542   1.025   3.346   2.120  0.5880  1.1068  0.1006
 1360SOL    HW215543   0.893   3.328   2.201  1.2908 -2.4348 -3.0205
 1361SOL     OW15544   3.267   1.245   8.007 -0.0077  0.0192  0.3783
 1361SOL    HW115545   3.298   1.275   8.093 -0.1206 -2.1452  1.1809
 1361SOL    HW215546   3.331   1.294   7.955  1.3427 -1.0432  1.0331
 1362SOL     OW15547   0.241   0.618   3.954  0.0414 -0.5176 -0.0807
 1362SOL    HW115548   0.288   0.693   3.918 -1.3425 -0.1698 -1.1722
 1362SOL    HW215549   0.212   0.638   4.043 -1.2504 -0.8118 -0.4340
 1363SOL     OW15550   4.332   4.399   4.134  0.2712  0.0030  0.0310
 1363SOL    HW115551   4.256   4.422   4.188 -0.0978 -0.4417 -0.2997
 1363SOL    HW215552   4.342   4.307   4.159  0.1844  0.5911  2.2369
 1364SOL     OW15553   2.251   2.512   1.179 -0.1254  0.2775 -0.4193
 1364SOL    HW115554   2.179   2.463   1.140 -0.3320  0.9901 -0.9394
 1364SOL    HW215555   2.202   2.563   1.243 -1.1660  0.7162 -1.5484
 1365SOL     OW15556   3.460   2.649   0.494 -0.0342 -0.4052 -0.1542
 1365SOL    HW115557   3.538   2.604   0.526 -0.4646  0.2446  1.8233
 1365SOL    HW215558   3.415   2.578   0.448  0.7603 -0.4081 -0.9141
 1366SOL     OW15559   4.067   1.903   6.465 -0.1982  0.0571  0.0253
 1366SOL    HW115560   4.062   1.859   6.550 -2.2763 -0.5962 -0.4286
 1366SOL    HW215561   4.146   1.869   6.425 -0.1489 -0.9366  0.9756
 1367SOL     OW15562   0.674   1.161   4.554 -0.1041 -0.0510  0.0578
 1367SOL    HW115563   0.763   1.186   4.580 -0.4224  1.7061 -0.5019
 1367SOL    HW215564   0.656   1.240   4.502  1.5145  0.2359 -0.0593
 1368SOL     OW15565   0.517   1.599   4.166 -0.0090 -0.6203 -0.2937
 1368SOL    HW115566   0.561   1.683   4.160  0.0872 -0.4963  2.0007
 1368SOL    HW215567   0.490   1.602   4.258 -1.0366  1.0749 -0.6473
 1369SOL     OW15568   2.891   1.614   2.239 -0.4141 -0.1810 -0.0790
 1369SOL    HW115569   2.797   1.600   2.223 -0.8708  0.9919  1.5860
 1369SOL    HW215570   2.913   1.697   2.197  1.6731 -0.1721  1.0337
 1370SOL     OW15571   4.308   3.886   3.494  0.6816  0.1529  0.0387
 1370SOL    HW115572   4.370   3.927   3.554 -0.6399  1.3866  0.5730
 1370SOL    HW215573   4.336   3.917   3.408 -0.8525 -1.0496 -0.8941
 1371SOL     OW15574   2.686   3.480   4.023 -0.8537 -0.2242 -0.0177
 1371SOL    HW115575   2.690   3.557   3.967  1.0938  0.0168  0.4719
 1371SOL    HW215576   2.639   3.509   4.101  0.6793 -1.2706  1.2929
 1372SOL     OW15577   2.824   0.427   5.062  0.1812  0.4609 -0.7368
 1372SOL    HW115578   2.837   0.521   5.055  0.4296  0.4172 -0.8529
 1372SOL    HW215579   2.808   0.418   5.156  0.8626  0.7617 -0.5898
 1373SOL     OW15580   1.191   3.113   1.647  0.3215  0.0871  0.1790
 1373SOL    HW115581   1.101   3.144   1.656  1.3621  4.3787 -4.2064
 1373SOL    HW215582   1.202   3.068   1.731  0.0399 -0.2743  0.0248
 1374SOL     OW15583   1.958   2.835   0.852  0.0037 -0.5531 -0.2327
 1374SOL    HW115584   2.004   2.872   0.777 -0.0615  0.4034  0.1955
 1374SOL    HW215585   1.877   2.884   0.870  0.8546  1.2015 -1.1712
 1375SOL     OW15586   3.872   2.910   1.980 -0.2703 -0.4368 -0.3360
 1375SOL    HW115587   3.789   2.958   1.976  0.1786  0.4024  0.2476
 1375SOL    HW215588   3.871   2.866   1.895 -0.1332 -1.9392  0.4484
 1376SOL     OW15589   2.886   3.643  10.693  0.0232  0.7515 -0.4467
 1376SOL    HW115590   2.798   3.680  10.701 -0.6944 -0.9736 -0.4257
 1376SOL    HW215591   2.914   3.636  10.784  1.0298  1.2041 -0.7163
 1377SOL     OW15592   2.956   1.402   7.970 -0.1014  0.3539  0.2366
 1377SOL    HW115593   3.009   1.408   7.890  0.4807 -1.9178  0.4397
 1377SOL    HW215594   2.965   1.307   7.979 -1.1790  0.3339  1.0489
 1378SOL     OW15595   3.371   3.777  15.276 -0.2683 -0.1173  0.2880
 1378SOL    HW115596   3.384   3.743  15.365  1.6041 -0.5978 -0.1739
 1378SOL    HW215597   3.403   3.867  15.285  0.2591 -0.1618 -1.0989
 1379SOL     OW15598   2.152   2.285   2.572 -0.0085 -0.2136 -0.1830
 1379SOL    HW115599   2.203   2.365   2.585  1.2763 -1.2814  1.3958
 1379SOL    HW215600   2.096   2.306   2.497  1.0746  2.4598 -0.2341
 1380SOL     OW15601   3.155   0.007   7.300 -0.0605 -0.0413  0.3983
 1380SOL    HW115602   3.228   0.023   7.240 -0.0630  2.1577  0.9969
 1380SOL    HW215603   3.124   4.647   7.265 -0.5919 -0.5380  2.0901
 1381SOL     OW15604   1.488   0.824   8.203  0.3517  0.0581  0.2183
 1381SOL    HW115605   1.528   0.851   8.285  3.1468 -1.7985 -0.5372
 1381SOL    HW215606   1.397   0.813   8.232 -0.1335 -0.4185 -1.4890
 1382SOL     OW15607   0.066   3.072   0.584  0.1510  0.4067  0.4729
 1382SOL    HW115608   4.712   3.035   0.624  0.2610  0.0445  0.3510
 1382SOL    HW215609   0.106   3.122   0.656  1.1412 -0.1392  0.3089
 1383SOL     OW15610   0.310   2.777  16.341 -0.1545 -0.0845  0.4050
 1383SOL    HW115611   0.244   2.709  16.353  2.4598 -2.2415  2.8318
 1383SOL    HW215612   0.332   2.787  16.434  0.5867 -2.9042  0.5498
 1384SOL     OW15613   3.379   1.508  15.099  0.2779 -0.1235 -0.0135
 1384SOL    HW115614   3.292   1.520  15.061  1.2444 -4.7151 -3.6871
 1384SOL    HW215615   3.368   1.551  15.184  3.3085  0.2278  0.1953
 1385SOL     OW15616   2.515   2.957   5.436  0.1374  0.5475 -0.3936
 1385SOL    HW115617   2.498   2.868   5.468 -0.0627  0.1971 -1.4927
 1385SOL    HW215618   2.425   2.985   5.446 -0.1531 -0.5556  0.1458
 1386SOL     OW15619   2.116   4.184   7.574  0.2640 -0.1480  0.5644
 1386SOL    HW115620   2.106   4.251   7.641 -1.8625 -0.6766  0.7717
 1386SOL    HW215621   2.028   4.148   7.560  0.4002 -0.0845 -0.4367
 1387SOL     OW15622   3.293   1.369  15.877  0.6067  0.5712 -0.8071
 1387SOL    HW115623   3.245   1.335  15.953  0.8838 -0.7809 -1.2390
 1387SOL    HW215624   3.227   1.428  15.838  0.5772  0.8271 -0.3658
 1388SOL     OW15625   3.006   4.219   7.114 -0.0689 -0.0472 -0.6304
 1388SOL    HW115626   3.102   4.213   7.113  0.0876  2.3603 -0.7855
 1388SOL    HW215627   2.997   4.311   7.091 -0.2925  0.0153 -0.2914
 1389SOL     OW15628   3.582   0.311   7.919  0.2991 -0.1319  0.3080
 1389SOL    HW115629   3.540   0.245   7.864 -1.1145  1.8605 -1.0256
 1389SOL    HW215630   3.665   0.342   7.882 -0.4018  0.7729 -0.5284
 1390SOL     OW15631   4.246   2.381  13.536 -0.3500 -0.5313 -0.1047
 1390SOL    HW115632   4.184   2.409  13.469  0.8152  2.1115 -0.0809
 1390SOL    HW215633   4.301   2.330  13.476 -0.5628 -0.8755 -0.0087
 1391SOL     OW15634   3.636   3.456   2.778 -0.0282 -0.7241  0.1141
 1391SOL    HW115635   3.564   3.395   2.794 -0.8483  0.5343  1.1403
 1391SOL    HW215636   3.617   3.530   2.836 -0.3188 -0.0246 -0.8737
 1392SOL     OW15637   1.573   2.982   5.983 -0.6119 -0.8782 -0.8141
 1392SOL    HW115638   1.554   3.070   6.015 -2.2778 -1.6797  0.3461
 1392SOL    HW215639   1.637   3.011   5.917 -0.4703  0.3911 -0.1362
 1393SOL     OW15640   1.358   1.657   6.649 -0.4034  0.1657  0.1281
 1393SOL    HW115641   1.397   1.683   6.733 -2.2108 -1.1038  1.3483
 1393SOL    HW215642   1.400   1.574   6.627  1.3362  1.9866 -3.4144
 1394SOL     OW15643   1.821   0.419   9.286  0.6932  0.1953 -0.0855
 1394SOL    HW115644   1.862   0.419   9.373  1.6807 -2.3608 -0.5516
 1394SOL    HW215645   1.869   0.493   9.248  2.0648 -0.0291  1.1641
 1395SOL     OW15646   1.410   0.323  17.040 -0.1892 -0.1174  0.2527
 1395SOL    HW115647   1.371   0.324  17.128  1.5315 -0.9485  1.0316
 1395SOL    HW215648   1.489   0.272  17.060 -0.0803 -0.4373 -0.9938
 1396SOL     OW15649   2.413   4.552   6.827  0.3961 -0.4315  0.5092
 1396SOL    HW115650   2.464   4.585   6.754  1.7299 -1.8241  0.8092
 1396SOL    HW215651   2.337   4.519   6.780  0.7680  0.1537 -0.5044
 1397SOL     OW15652   1.735   2.296   9.258 -0.3970  0.3076  0.1179
 1397SOL    HW115653   1.695   2.342   9.332 -2.1455  0.7484 -1.0846
 1397SOL    HW215654   1.820   2.273   9.293 -0.3161  1.2625  0.5603
 1398SOL     OW15655   3.822   0.432   0.373  0.5134  0.4746  0.5329
 1398SOL    HW115656   3.833   0.338   0.357 -0.8470  0.4659 -0.3229
 1398SOL    HW215657   3.735   0.430   0.412  0.9057  1.4266  1.4693
 1399SOL     OW15658   3.824   1.424   5.956  0.2541  0.4199 -0.7894
 1399SOL    HW115659   3.785   1.360   6.016 -0.5764  1.8780  0.2223
 1399SOL    HW215660   3.795   1.387   5.873 -0.5458  2.5845 -1.4597
 1400SOL     OW15661   2.540   3.206   8.959 -0.5925 -0.0585  0.4968
 1400SOL    HW115662   2.506   3.117   8.951 -1.3553  0.0793  2.1655
 1400SOL    HW215663   2.490   3.242   9.033  0.3968 -0.9274  1.6032
 1401SOL     OW15664   3.824   1.733  13.109 -0.0741  0.3674 -0.9503
 1401SOL    HW115665   3.861   1.646  13.095  0.0607  0.3807 -0.6727
 1401SOL    HW215666   3.782   1.757  13.026 -1.8931 -1.6799 -0.6480
 1402SOL     OW15667   3.814   3.813  13.985  0.0119 -0.1825  0.3725
 1402SOL    HW115668   3.868   3.893  13.978 -0.4792 -0.1349 -2.7372
 1402SOL    HW215669   3.749   3.834  14.052 -0.1148  0.0394  0.1791
 1403SOL     OW15670   1.905   0.926   6.130 -0.3000  0.1488  0.0435
 1403SOL    HW115671   1.841   0.956   6.194 -2.3512  0.7884 -2.2942
 1403SOL    HW215672   1.882   0.833   6.122 -0.0778 -0.1099  2.4267
 1404SOL     OW15673   4.016   2.887   4.243  0.2167 -0.1651 -0.4225
 1404SOL    HW115674   4.106   2.882   4.211  1.4831  3.0752  2.5956
 1404SOL    HW215675   3.986   2.947   4.174 -0.8898 -0.0364  0.1759
 1405SOL     OW15676   4.716   1.605  13.251  0.0002  0.5524  0.3063
 1405SOL    HW115677   0.058   1.612  13.320 -2.8492 -0.2573  3.1133
 1405SOL    HW215678   0.010   1.522  13.208 -1.3419 -0.8297  2.3823
 1406SOL     OW15679   1.679   0.389   5.599  0.1536 -0.1695 -0.5510
 1406SOL    HW115680   1.755   0.428   5.642 -0.0127  0.9835 -1.3057
 1406SOL    HW215681   1.669   0.426   5.511 -2.1109 -0.0696 -0.2354
 1407SOL     OW15682   1.112   4.020   7.586  0.3660  0.0915  0.3281
 1407SOL    HW115683   1.045   4.045   7.649  0.6727  0.9547  0.3046
 1407SOL    HW215684   1.181   4.077   7.619  0.8979 -1.2680  1.5331
 1408SOL     OW15685   3.338   3.677   3.208 -0.1240  0.6395  0.2701
 1408SOL    HW115686   3.380   3.744   3.262  0.9359  0.5557 -0.4492
 1408SOL    HW215687   3.399   3.664   3.136  1.3730  0.9870  1.4773
 1409SOL     OW15688   3.307   3.437   5.056  0.1994 -0.6634  0.3313
 1409SOL    HW115689   3.369   3.479   4.996  0.1367 -0.8333  0.1457
 1409SOL    HW215690   3.244   3.401   4.993  0.5862 -0.7940  0.0150
 1410SOL     OW15691   2.309   1.035   7.874 -0.2357 -0.0636  0.7074
 1410SOL    HW115692   2.266   1.004   7.954  1.0939 -1.0552  1.0496
 1410SOL    HW215693   2.395   1.062   7.908 -0.2392  1.6283 -0.6161
 1411SOL     OW15694   0.965   1.263   0.590  0.9260  0.2022 -0.1167
 1411SOL    HW115695   0.968   1.171   0.615  1.7662  1.1284  3.2230
 1411SOL    HW215696   0.974   1.260   0.495 -0.4926  1.6173 -0.2922
 1412SOL     OW15697   2.987   0.760  15.027  0.2567  0.2016 -0.0281
 1412SOL    HW115698   3.013   0.807  14.947  0.2769  0.1617 -0.0450
 1412SOL    HW215699   2.930   0.685  15.010  1.4200 -0.3903 -1.3626
 1413SOL     OW15700   0.530   4.689   1.649 -0.3045 -0.4905  0.7238
 1413SOL    HW115701   0.502   4.669   1.738 -1.0455 -1.5105  0.2670
 1413SOL    HW215702   0.585   4.613   1.629  0.4190 -0.2698  1.8967
 1414SOL     OW15703   1.458   0.671  11.074 -0.1275  0.1419 -0.0522
 1414SOL    HW115704   1.551   0.651  11.087 -0.9716 -3.7336 -0.1642
 1414SOL    HW215705   1.424   0.592  11.034 -0.4031  0.0401  0.3851
 1415SOL     OW15706   0.922   2.857   1.477 -0.0933 -0.0871  0.4766
 1415SOL    HW115707   0.911   2.762   1.477 -0.5070 -0.0394  0.4208
 1415SOL    HW215708   0.853   2.898   1.530 -0.6004 -0.0740 -0.1990
 1416SOL     OW15709   3.904   3.132   9.862  0.0672 -0.4312  0.6824
 1416SOL    HW115710   3.829   3.080   9.890 -0.5024  0.5699  0.9794
 1416SOL    HW215711   3.935   3.072   9.794 -0.8394  0.6646 -0.6911
 1417SOL     OW15712   2.924   2.163   4.860  0.1023 -0.5135  0.1064
 1417SOL    HW115713   2.869   2.203   4.793  0.2124 -1.1504 -0.3630
 1417SOL    HW215714   3.006   2.150   4.812  0.9002 -0.0554  1.3042
 1418SOL     OW15715   2.827   0.832   9.122 -0.2361 -0.2455 -0.3919
 1418SOL    HW115716   2.753   0.889   9.100  0.6454  0.3746 -1.7538
 1418SOL    HW215717   2.827   0.764   9.054 -0.4814  0.0600 -0.7033
 1419SOL     OW15718   4.457   0.697   6.137 -1.0219 -0.3141  0.5078
 1419SOL    HW115719   4.463   0.605   6.161  0.9353 -0.5264 -0.7830
 1419SOL    HW215720   4.399   0.737   6.202 -1.3266 -1.9806  1.2516
 1420SOL     OW15721   0.053   3.861   7.788  0.4399 -0.0833  0.3366
 1420SOL    HW115722   0.067   3.883   7.880  1.4706 -0.4261  0.2663
 1420SOL    HW215723   4.717   3.929   7.757 -0.4923 -0.4032  1.4576
 1421SOL     OW15724   4.134   4.222   1.414  0.1295 -0.0078 -0.9041
 1421SOL    HW115725   4.048   4.234   1.371  0.7552 -1.0564 -2.4364
 1421SOL    HW215726   4.118   4.144   1.465 -2.3407  0.3545 -1.1095
 1422SOL     OW15727   1.037   2.574   3.002  0.1668 -0.0329 -0.4157
 1422SOL    HW115728   1.122   2.595   2.962  1.0152 -1.0464  0.8556
 1422SOL    HW215729   1.073   2.567   3.090 -0.4542 -1.1198 -0.2587
 1423SOL     OW15730   1.408   1.432  17.670 -0.5048 -0.2999 -0.1575
 1423SOL    HW115731   1.378   1.509   0.023  1.5500 -0.6257  1.6605
 1423SOL    HW215732   1.448   1.383   0.046 -4.2922 -2.1353  0.6459
 1424SOL     OW15733   1.477   4.203   4.099 -0.0643  0.0697 -1.1763
 1424SOL    HW115734   1.550   4.262   4.079  0.8582 -0.8882 -0.6257
 1424SOL    HW215735   1.528   4.131   4.136 -0.9422  0.4620  0.7681
 1425SOL     OW15736   1.905   2.386   6.296  0.0383  0.5858 -0.1138
 1425SOL    HW115737   1.819   2.409   6.263  0.1365  1.2821  0.1245
 1425SOL    HW215738   1.926   2.316   6.234 -2.7050  0.9921 -1.4642
 1426SOL     OW15739   4.431   1.491  15.562 -0.2013 -0.2787 -0.3575
 1426SOL    HW115740   4.505   1.549  15.584  2.3033 -2.6851 -2.4394
 1426SOL    HW215741   4.449   1.482  15.468  1.2404  4.6782 -0.5781
 1427SOL     OW15742   4.410   4.684   3.334 -0.1566 -0.4563  0.5510
 1427SOL    HW115743   4.415   0.046   3.377  1.1937  0.3944 -1.3079
 1427SOL    HW215744   4.327   4.654   3.371 -1.0141 -1.6425 -2.2886
 1428SOL     OW15745   4.570   1.307  14.832  0.6432 -0.1568  0.5858
 1428SOL    HW115746   4.637   1.290  14.765  0.8278  1.3662  0.3949
 1428SOL    HW215747   4.489   1.316  14.781  0.3509 -1.0062  0.9010
 1429SOL     OW15748   0.548   2.553   3.650  0.4816 -0.0412 -0.5869
 1429SOL    HW115749   0.638   2.527   3.668  0.4546 -0.5357 -1.1897
 1429SOL    HW215750   0.490   2.480   3.673 -0.6826  0.8770 -0.5944
 1430SOL     OW15751   1.119   4.434   8.505 -0.3341  0.0572 -0.2886
 1430SOL    HW115752   1.114   4.473   8.592  1.9466 -0.2715  0.0037
 1430SOL    HW215753   1.143   4.342   8.521  1.5260  0.4119 -1.0168
 1431SOL     OW15754   3.781   3.279   9.620 -0.4485 -0.1989 -0.7703
 1431SOL    HW115755   3.706   3.308   9.569 -0.7807 -3.8163 -2.3931
 1431SOL    HW215756   3.754   3.187   9.628 -0.8367  0.1483  1.6468
 1432SOL     OW15757   3.784   1.839   3.708  0.5934  0.1310 -0.0016
 1432SOL    HW115758   3.834   1.887   3.642  2.5512 -0.9452  0.6886
 1432SOL    HW215759   3.757   1.759   3.663  0.6894  1.1983 -1.9762
 1433SOL     OW15760   0.828   1.263   7.919  0.0884  0.2225 -0.0335
 1433SOL    HW115761   0.756   1.281   7.979 -0.5522 -2.6681  0.0601
 1433SOL    HW215762   0.907   1.276   7.972 -1.2175  1.4520  1.6129
 1434SOL     OW15763   3.368   4.089   7.949  0.8375 -0.1634  0.1246
 1434SOL    HW115764   3.276   4.079   7.923  0.5953  0.6946  0.6626
 1434SOL    HW215765   3.382   4.001   7.985  3.9342 -0.5238 -1.9453
 1435SOL     OW15766   1.995   3.544   6.654 -0.0844  0.1638 -0.1504
 1435SOL    HW115767   2.021   3.628   6.692 -1.1124  1.7420 -2.9104
 1435SOL    HW215768   1.972   3.509   6.740 -1.0645  0.4268 -0.3008
 1436SOL     OW15769   2.734   2.691   6.130 -0.0609 -0.2815 -0.1971
 1436SOL    HW115770   2.802   2.647   6.079  0.0157 -0.8045  0.3548
 1436SOL    HW215771   2.707   2.617   6.184 -3.0120  0.5784 -0.4879
 1437SOL     OW15772   4.018   2.468   8.514  0.2664 -0.3921 -0.1854
 1437SOL    HW115773   4.009   2.456   8.609 -0.4475 -1.4847 -0.3997
 1437SOL    HW215774   4.001   2.563   8.512  1.5773 -0.1260  0.7111
 1438SOL     OW15775   1.473   0.397   4.066 -0.6060  0.3943 -0.2863
 1438SOL    HW115776   1.509   0.459   4.003 -0.0800 -0.6123 -0.9898
 1438SOL    HW215777   1.419   0.344   4.007 -0.6434  2.0448 -1.7231
 1439SOL     OW15778   0.184   0.340  13.368  0.2047  0.4775 -0.0861
 1439SOL    HW115779   0.188   0.389  13.450  0.0911  1.3993 -0.6288
 1439SOL    HW215780   0.128   0.396  13.315 -1.4685  0.2344  1.4415
 1440SOL     OW15781   2.663   0.606   1.026 -0.2192  0.4560  0.3716
 1440SOL    HW115782   2.730   0.613   0.958 -2.0883 -0.5451 -1.5838
 1440SOL    HW215783   2.676   0.697   1.053 -0.2948  0.8442 -0.8825
 1441SOL     OW15784   1.715   3.833   6.020  0.0691  0.0945 -0.5839
 1441SOL    HW115785   1.641   3.843   5.961  0.8434  3.7840 -0.9710
 1441SOL    HW215786   1.780   3.900   5.998  0.4263 -0.2629 -0.6181
 1442SOL     OW15787   0.873   3.738   9.276 -0.0592  0.2467  0.4983
 1442SOL    HW115788   0.879   3.735   9.181 -0.7759 -1.3551  0.5076
 1442SOL    HW215789   0.944   3.800   9.292  0.9285 -0.9035  0.6063
 1443SOL     OW15790   4.530   3.069  13.400  0.7382 -0.7355 -0.1462
 1443SOL    HW115791   4.511   3.008  13.472  0.3015 -0.9128 -0.4095
 1443SOL    HW215792   4.541   3.013  13.324  0.8871 -0.0219 -0.6469
 1444SOL     OW15793   0.645   1.599   6.842 -0.1578 -0.0770  0.0088
 1444SOL    HW115794   0.565   1.551   6.818 -0.2397  0.0866 -0.0479
 1444SOL    HW215795   0.611   1.656   6.911 -2.1976 -0.4078 -0.7041
 1445SOL     OW15796   1.862   0.548  10.913  0.2310  0.1153  0.3467
 1445SOL    HW115797   1.938   0.504  10.953  0.3994 -0.7211 -0.8842
 1445SOL    HW215798   1.822   0.484  10.855  0.3236 -0.2932  0.7321
 1446SOL     OW15799   2.875   2.123  14.253  0.4585  0.3157  0.1294
 1446SOL    HW115800   2.895   2.181  14.327  0.5546 -0.6669  0.8738
 1446SOL    HW215801   2.812   2.177  14.205 -0.4330  2.8195  3.9992
 1447SOL     OW15802   3.556   3.735   4.699 -0.1221  0.1974  0.5263
 1447SOL    HW115803   3.637   3.774   4.730 -0.4969  1.5431 -0.2020
 1447SOL    HW215804   3.518   3.796   4.635 -0.3930 -0.3863  0.1290
 1448SOL     OW15805   2.123   2.696   5.789  0.0642 -0.1932 -0.0953
 1448SOL    HW115806   2.185   2.741   5.846 -0.9055 -3.1371  3.2467
 1448SOL    HW215807   2.153   2.605   5.793 -1.3663 -0.5707  2.0820
 1449SOL     OW15808   0.060   2.600   5.582  0.7376 -0.1696  0.5372
 1449SOL    HW115809   0.025   2.513   5.564 -0.6876  0.9407 -2.1840
 1449SOL    HW215810   0.079   2.638   5.496 -2.3128  1.7244  0.6928
 1450SOL     OW15811   4.074   3.944   3.010 -0.2709  0.0253 -0.6601
 1450SOL    HW115812   4.041   3.855   3.004 -1.2512  0.2938  0.6928
 1450SOL    HW215813   4.011   3.986   3.069 -0.1795 -2.5440  1.2586
 1451SOL     OW15814   3.504   2.176   3.114 -0.1247 -0.5410  0.0171
 1451SOL    HW115815   3.461   2.168   3.199  1.3610 -2.5034  0.5845
 1451SOL    HW215816   3.595   2.154   3.136 -0.2821  0.2157  1.3928
 1452SOL     OW15817   3.142   4.040   5.136  0.1550  0.0624 -0.3273
 1452SOL    HW115818   3.183   3.966   5.180  0.4466  0.1272 -0.4928
 1452SOL    HW215819   3.053   4.006   5.125  1.7442 -4.6011  1.1727
 1453SOL     OW15820   4.608   0.722   3.205 -0.3684 -0.0109 -0.4717
 1453SOL    HW115821   4.701   0.735   3.189 -0.4040  1.1929  0.2818
 1453SOL    HW215822   4.580   0.790   3.267  0.4146  0.3070 -0.4691
 1454SOL     OW15823   3.776   2.215   4.072  0.0903  0.3638 -0.1606
 1454SOL    HW115824   3.726   2.141   4.106  1.2447 -0.6016 -0.5622
 1454SOL    HW215825   3.760   2.219   3.977  2.0281 -1.0412 -0.5353
 1455SOL     OW15826   4.307   2.526  14.528  0.2586  0.0463  0.2365
 1455SOL    HW115827   4.324   2.620  14.524  2.1171 -0.3098 -0.4650
 1455SOL    HW215828   4.230   2.523  14.585 -0.3922  1.4975 -0.5729
 1456SOL     OW15829   3.531   0.428   7.178  0.2894 -0.5298  0.0522
 1456SOL    HW115830   3.574   0.353   7.137  1.8041  0.9204 -0.9981
 1456SOL    HW215831   3.609   0.476   7.205 -0.2376 -0.4653  1.4793
 1457SOL     OW15832   2.683   1.855   5.244 -0.3280  0.4045 -0.2514
 1457SOL    HW115833   2.685   1.847   5.339  1.6823  1.5930 -0.1856
 1457SOL    HW215834   2.590   1.868   5.231 -0.3654  0.7565  0.3947
 1458SOL     OW15835   4.201   1.265   2.703 -0.3353  0.6596  0.4195
 1458SOL    HW115836   4.133   1.331   2.690 -2.0935 -1.0428  0.8936
 1458SOL    HW215837   4.184   1.207   2.629 -0.6460 -2.6830  3.1400
 1459SOL     OW15838   0.178   3.787   2.249 -0.6849  0.3525 -0.6127
 1459SOL    HW115839   0.108   3.757   2.191 -2.2429 -1.0763  2.0334
 1459SOL    HW215840   0.143   3.769   2.336  0.5456  2.2916  0.2830
 1460SOL     OW15841   2.028   1.897   6.128 -0.0723 -0.3185  0.2207
 1460SOL    HW115842   2.005   1.807   6.103  1.0067 -0.9847  1.5768
 1460SOL    HW215843   1.966   1.906   6.200 -0.7023  1.6930 -0.5899
 1461SOL     OW15844   0.300   0.178  11.583 -0.1136 -0.1658 -0.2101
 1461SOL    HW115845   0.327   0.198  11.672  1.3196  0.8434 -0.8677
 1461SOL    HW215846   0.241   0.248  11.555 -0.5698  0.1730  1.6149
 1462SOL     OW15847   0.552   3.044   9.639 -0.0985  0.1247 -0.7325
 1462SOL    HW115848   0.529   3.107   9.706  1.0935  0.6708 -0.8325
 1462SOL    HW215849   0.486   2.976   9.648 -0.0247  0.2411  0.6866
 1463SOL     OW15850   4.538   3.208   6.250 -0.2702  0.2232  0.4753
 1463SOL    HW115851   4.572   3.119   6.264 -0.9963 -0.2505 -0.8675
 1463SOL    HW215852   4.445   3.203   6.271 -0.1989 -2.8205  0.1779
 1464SOL     OW15853   4.233   3.436   7.826 -0.0259  0.1178  0.2725
 1464SOL    HW115854   4.311   3.491   7.817  0.5178 -0.6653  0.2317
 1464SOL    HW215855   4.261   3.369   7.764  1.9881  2.0864 -0.9631
 1465SOL     OW15856   0.157   3.776   8.746  0.1057  0.3112 -0.3403
 1465SOL    HW115857   0.073   3.818   8.763 -1.0019 -1.7564 -0.7540
 1465SOL    HW215858   0.155   3.683   8.768 -1.0900  0.2476 -0.7616
 1466SOL     OW15859   3.525   2.199   2.495  0.7596 -0.0294  0.6048
 1466SOL    HW115860   3.575   2.248   2.430 -0.8787  0.0250 -0.6295
 1466SOL    HW215861   3.520   2.107   2.469 -2.1268  0.6444 -1.2047
 1467SOL     OW15862   4.291   0.563  17.090 -0.4571 -0.2948 -0.4557
 1467SOL    HW115863   4.303   0.655  17.114 -0.6374 -0.8669  1.8141
 1467SOL    HW215864   4.350   0.519  17.151  1.0578 -1.2980 -2.6875
 1468SOL     OW15865   1.052   1.252   1.441  0.4699  0.0001 -0.3986
 1468SOL    HW115866   1.048   1.347   1.432  3.5486  0.2023  0.1296
 1468SOL    HW215867   0.964   1.239   1.406  0.5170  1.5019 -1.0527
 1469SOL     OW15868   3.636   0.165  16.343  0.2057  0.0879 -0.0965
 1469SOL    HW115869   3.705   0.168  16.410 -0.3317  0.9325  0.4228
 1469SOL    HW215870   3.674   0.216  16.272 -1.8532 -0.5572 -1.6704
 1470SOL     OW15871   2.733   2.613   3.279 -0.4169 -0.0559 -0.3305
 1470SOL    HW115872   2.714   2.628   3.187 -3.0694 -0.8399  0.0814
 1470SOL    HW215873   2.816   2.566   3.274 -0.8718 -0.9484  0.5001
 1471SOL     OW15874   2.234   1.335   8.052  0.3688  0.0643  0.2214
 1471SOL    HW115875   2.325   1.328   8.020  0.9375 -0.8719  2.0651
 1471SOL    HW215876   2.234   1.415   8.104  0.0374 -1.4123  2.4768
 1472SOL     OW15877   3.598   0.152   4.047 -0.1496 -0.1051 -0.2103
 1472SOL    HW115878   3.578   0.150   3.953  2.0509 -0.1741 -0.6752
 1472SOL    HW215879   3.517   0.125   4.090  0.7182 -1.2946  0.7028
 1473SOL     OW15880   2.334   4.308   4.423 -0.5094  0.8635  0.0858
 1473SOL    HW115881   2.403   4.346   4.478  0.1764  0.5964 -0.5785
 1473SOL    HW215882   2.371   4.226   4.392 -3.1432 -0.6328  0.8957
 1474SOL     OW15883   4.323   4.159   5.737  0.4802  0.1381  0.1284
 1474SOL    HW115884   4.264   4.137   5.665 -0.1593 -0.3904  0.8229
 1474SOL    HW215885   4.401   4.117   5.701 -0.3924 -0.1138 -1.4781
 1475SOL     OW15886   2.409   2.996  14.701 -0.4185  0.3037 -0.1022
 1475SOL    HW115887   2.345   2.947  14.649 -0.4371  3.2826 -2.8798
 1475SOL    HW215888   2.415   3.077  14.650  0.8255  1.0354  1.2302
 1476SOL     OW15889   4.329   3.517   6.778  0.0627  0.6871 -0.4729
 1476SOL    HW115890   4.289   3.517   6.691 -1.2446 -0.7808  0.1424
 1476SOL    HW215891   4.298   3.431   6.804 -2.4818  1.5938 -0.5472
 1477SOL     OW15892   0.207   3.153  14.960 -0.0425 -0.0628 -0.6696
 1477SOL    HW115893   0.145   3.101  14.908 -3.3229  2.3024  0.8668
 1477SOL    HW215894   0.166   3.239  14.964 -4.1177 -2.0742  0.8066
 1478SOL     OW15895   0.376   3.825   3.680  0.0568 -0.2480 -0.5204
 1478SOL    HW115896   0.423   3.748   3.650 -1.9889 -1.8710  0.3930
 1478SOL    HW215897   0.316   3.826   3.606  0.0205  0.8098 -0.4820
 1479SOL     OW15898   0.176   0.948   2.663 -0.7605  0.4590 -0.0616
 1479SOL    HW115899   0.252   0.930   2.608 -0.7463 -0.3688  0.2335
 1479SOL    HW215900   0.122   0.882   2.619 -0.8625 -0.4446  1.4275
 1480SOL     OW15901   3.846   2.313   8.358 -0.4386 -0.2517  0.0133
 1480SOL    HW115902   3.891   2.385   8.402 -0.7992  0.2789 -0.4968
 1480SOL    HW215903   3.807   2.267   8.432  0.4685 -0.2860  0.4789
 1481SOL     OW15904   3.789   3.478   7.429  0.2765  0.5774 -0.2588
 1481SOL    HW115905   3.742   3.434   7.358  0.0131  1.1664 -0.4415
 1481SOL    HW215906   3.811   3.406   7.488 -0.2334 -0.4472 -1.3023
 1482SOL     OW15907   4.479   3.031  16.677 -0.1933  0.1451  0.0580
 1482SOL    HW115908   4.479   3.113  16.727  0.7082 -0.4898  1.1141
 1482SOL    HW215909   4.546   3.056  16.614 -0.2036  0.3387  0.1244
 1483SOL     OW15910   0.763   2.011   2.967 -0.2326  0.2040  0.1204
 1483SOL    HW115911   0.829   2.056   2.914  0.8876 -2.4033 -0.6509
 1483SOL    HW215912   0.809   1.930   2.988 -0.5088  0.0611  0.1674
 1484SOL     OW15913   0.009   0.039   9.138  0.4830  0.2186  0.0031
 1484SOL    HW115914   0.101   0.016   9.129  0.3306 -1.0175  1.5047
 1484SOL    HW215915   4.685   4.716   9.070  0.3471  0.8471 -0.3277
 1485SOL     OW15916   4.262   0.921   2.507 -0.7026 -0.1154  0.1681
 1485SOL    HW115917   4.266   0.892   2.416 -2.8097 -2.2098  0.7463
 1485SOL    HW215918   4.318   0.858   2.553  1.1738  1.6281  0.2919
 1486SOL     OW15919   1.974   2.176  14.902 -0.0529 -0.8662 -0.1640
 1486SOL    HW115920   1.970   2.091  14.859  0.7608 -0.9302 -0.1039
 1486SOL    HW215921   1.882   2.180  14.929 -0.6007 -1.0869 -1.9865
 1487SOL     OW15922   4.159   3.356  16.067 -0.0632 -0.1595  0.2936
 1487SOL    HW115923   4.112   3.291  16.014 -2.4244  1.8199 -0.0209
 1487SOL    HW215924   4.112   3.356  16.151  1.2117  0.2684  1.0027
 1488SOL     OW15925   3.859   2.450   1.828  0.5039 -0.2828  0.3737
 1488SOL    HW115926   3.911   2.471   1.751  1.4723  0.7868  1.3244
 1488SOL    HW215927   3.781   2.502   1.808 -1.3773 -3.0338  0.5331
 1489SOL     OW15928   4.375   0.107  16.683  0.2922 -0.1639 -0.4296
 1489SOL    HW115929   4.384   0.112  16.778 -1.6713  1.2804 -0.3062
 1489SOL    HW215930   4.374   0.202  16.667  1.1120 -0.1378 -0.3459
 1490SOL     OW15931   1.707   2.112   8.603 -0.4344 -0.1440  0.4676
 1490SOL    HW115932   1.683   2.202   8.582 -2.4732 -1.2870 -2.1113
 1490SOL    HW215933   1.693   2.112   8.698  1.2773 -2.3120  0.7171
 1491SOL     OW15934   4.628   1.528   5.110 -0.7414 -0.3816 -0.4288
 1491SOL    HW115935   4.593   1.615   5.131 -0.7772 -0.6755  0.7354
 1491SOL    HW215936   4.560   1.471   5.145 -2.2437 -0.0831 -2.8423
 1492SOL     OW15937   1.293   1.031   1.922  0.2440  0.0253  0.1412
 1492SOL    HW115938   1.273   0.980   1.844  3.5503 -0.6716 -0.2515
 1492SOL    HW215939   1.384   1.004   1.936 -0.0403  0.1252  2.2371
 1493SOL     OW15940   3.799   3.215  14.940  0.1236 -0.6620  0.3828
 1493SOL    HW115941   3.733   3.268  14.896  0.3514 -1.4709 -0.8960
 1493SOL    HW215942   3.822   3.149  14.876 -2.2350 -0.6382 -0.4740
 1494SOL     OW15943   3.585   0.924  12.435 -0.4118  0.0265  0.0929
 1494SOL    HW115944   3.580   1.002  12.380  0.6968  1.0863  1.5093
 1494SOL    HW215945   3.673   0.893  12.415 -0.5285 -0.3720  0.2080
 1495SOL     OW15946   2.499   0.887   5.383  0.3126 -0.1490 -0.0311
 1495SOL    HW115947   2.440   0.953   5.348 -1.1209 -0.5467  1.6760
 1495SOL    HW215948   2.441   0.813   5.364  2.8408 -1.8482 -1.2718
 1496SOL     OW15949   1.622   3.010  14.656 -0.4382  0.2780 -0.2033
 1496SOL    HW115950   1.598   2.919  14.674  1.4823 -0.2562 -0.3220
 1496SOL    HW215951   1.647   2.998  14.564 -0.9331  0.4488 -0.3609
 1497SOL     OW15952   4.073   1.583  13.860  0.0213 -0.3619 -0.3230
 1497SOL    HW115953   4.107   1.639  13.790 -2.0649 -1.2159 -2.0211
 1497SOL    HW215954   4.103   1.500  13.823 -0.4368  0.4667 -2.5493
 1498SOL     OW15955   1.480   0.559   6.032 -0.3342  0.1987 -0.1822
 1498SOL    HW115956   1.463   0.577   6.125  1.6480  0.6480  0.0950
 1498SOL    HW215957   1.421   0.625   5.995  1.5563  0.6620 -2.3369
 1499SOL     OW15958   1.072   4.706  15.795  0.3117 -0.3892  0.3360
 1499SOL    HW115959   1.052   4.630  15.741 -0.5188  1.5627 -2.1352
 1499SOL    HW215960   1.056   4.676  15.884  1.7323 -2.9659 -0.3026
 1500SOL     OW15961   3.290   3.372   7.292 -0.2922  0.7771  0.0371
 1500SOL    HW115962   3.286   3.456   7.246 -0.0326  1.2994  0.9802
 1500SOL    HW215963   3.384   3.354   7.295 -0.5698 -0.4563  1.2605
 1501SOL     OW15964   2.289   1.410   5.208 -0.2528 -0.3299  0.1558
 1501SOL    HW115965   2.317   1.388   5.297  0.0729  0.8730  0.3545
 1501SOL    HW215966   2.196   1.392   5.214 -0.3382  0.9441  2.7718
 1502SOL     OW15967   3.279   2.088   5.034  0.1408  0.2134 -0.0396
 1502SOL    HW115968   3.330   2.049   4.963 -0.2354 -0.3431  0.0007
 1502SOL    HW215969   3.310   2.177   5.022  2.1003 -0.7958 -2.5104
 1503SOL     OW15970   3.722   1.534   0.089  0.1847  0.1382  0.1925
 1503SOL    HW115971   3.643   1.583   0.068  0.3263  0.5935  0.7140
 1503SOL    HW215972   3.779   1.586   0.032  0.0895 -0.3449 -0.3483
 1504SOL     OW15973   1.104   2.096   2.131  0.4716  0.7766 -0.0012
 1504SOL    HW115974   1.039   2.040   2.088 -0.2103  0.8555  0.9189
 1504SOL    HW215975   1.053   2.137   2.201 -0.4410 -0.2796 -0.0540
 1505SOL     OW15976   0.030   3.330   3.323 -0.4517  0.5635 -0.0652
 1505SOL    HW115977   0.112   3.301   3.362 -0.1139  1.9559  0.2637
 1505SOL    HW215978   0.060   3.408   3.276  0.5227 -1.0887 -2.1567
 1506SOL     OW15979   3.019   1.138  14.143 -0.3154 -0.0680 -0.6867
 1506SOL    HW115980   2.966   1.088  14.081 -1.0643  0.8745 -0.8054
 1506SOL    HW215981   3.000   1.105  14.231  1.5534  3.5446  1.1198
 1507SOL     OW15982   0.570   1.320   7.588 -0.2093  0.3816  0.3736
 1507SOL    HW115983   0.572   1.310   7.492 -0.4798 -1.6546  0.5685
 1507SOL    HW215984   0.664   1.324   7.606 -0.4241  1.0835  1.2904
 1508SOL     OW15985   3.815   3.965   6.719 -0.1914 -0.6553  0.1799
 1508SOL    HW115986   3.769   3.947   6.638  4.5492 -1.8298 -2.2831
 1508SOL    HW215987   3.746   4.005   6.771 -0.3898 -0.1347 -0.4890
 1509SOL     OW15988   3.740   1.687  13.856 -0.5964  0.2804 -0.2885
 1509SOL    HW115989   3.749   1.637  13.937 -0.0994  2.6505  1.1139
 1509SOL    HW215990   3.657   1.730  13.876  0.4756  0.9604  2.6864
 1510SOL     OW15991   0.569   1.572   3.324 -0.0280  0.1791  0.3215
 1510SOL    HW115992   0.554   1.486   3.365 -0.2067  0.7758  1.5222
 1510SOL    HW215993   0.588   1.551   3.233  2.0380  0.4231  0.6849
 1511SOL     OW15994   0.833   3.178   5.989 -0.1658  0.3317  0.6009
 1511SOL    HW115995   0.862   3.107   6.046 -0.7741  1.1868  1.9860
 1511SOL    HW215996   0.750   3.211   6.024  0.7700  1.3003  1.9010
 1512SOL     OW15997   4.607   2.641   1.890 -0.1658 -0.4166 -0.3029
 1512SOL    HW115998   4.567   2.562   1.853 -1.7460 -0.4971  1.5549
 1512SOL    HW215999   4.689   2.634   1.842 -0.0748 -1.2913 -0.0288
 1513SOL     OW16000   3.568   0.661   0.992 -0.2656 -0.5239 -0.0547
 1513SOL    HW116001   3.586   0.568   0.986  1.0605 -0.3608  1.4298
 1513SOL    HW216002   3.651   0.695   0.958 -1.0325  0.4785 -0.9327
 1514SOL     OW16003   0.223   3.005   7.305 -0.2630  0.1728 -0.1021
 1514SOL    HW116004   0.231   2.909   7.303 -2.8759 -0.0728  0.7329
 1514SOL    HW216005   0.174   3.014   7.224  0.1179 -1.1770 -0.4914
 1515SOL     OW16006   1.174   1.308   5.941  0.4561 -0.1176  0.3166
 1515SOL    HW116007   1.198   1.261   5.861 -0.3709 -1.5258  0.8818
 1515SOL    HW216008   1.172   1.398   5.911  0.3681 -0.1158  0.3255
 1516SOL     OW16009   2.280   2.730   0.748 -0.3428 -0.0635 -0.0788
 1516SOL    HW116010   2.218   2.727   0.821 -0.0285 -0.2142  0.1796
 1516SOL    HW216011   2.212   2.709   0.683  0.8598 -0.0186 -1.3461
 1517SOL     OW16012   1.099   3.868   7.860 -0.4765  0.0821 -0.0681
 1517SOL    HW116013   1.044   3.849   7.936  1.5720 -0.6136  1.2508
 1517SOL    HW216014   1.145   3.784   7.851  2.9940  1.9507  0.2456
 1518SOL     OW16015   2.789   3.811   0.636 -0.0042 -0.4494 -0.3741
 1518SOL    HW116016   2.858   3.760   0.679  0.0823  0.1598  0.1977
 1518SOL    HW216017   2.760   3.862   0.711  0.9818  3.3053 -2.5298
 1519SOL     OW16018   3.455   2.727   8.358 -0.0491  0.8184 -0.8865
 1519SOL    HW116019   3.501   2.645   8.375 -2.3030 -0.4515 -0.9416
 1519SOL    HW216020   3.365   2.707   8.383 -0.0646 -0.8606 -2.2643
 1520SOL     OW16021   0.454   2.783   7.574  0.2765  0.2674  0.5266
 1520SOL    HW116022   0.540   2.747   7.597 -0.3252 -0.8890  0.9374
 1520SOL    HW216023   0.481   2.862   7.527  0.9062 -0.6637 -0.6737
 1521SOL     OW16024   4.088   1.734   8.033  0.6918  0.3310  0.0565
 1521SOL    HW116025   4.026   1.798   8.069 -1.6054 -1.9460  0.1634
 1521SOL    HW216026   4.143   1.782   7.972  1.3048 -3.4822 -2.4156
 1522SOL     OW16027   4.719   1.805   5.313  0.1417 -0.4821  0.4472
 1522SOL    HW116028   4.644   1.774   5.364  0.5388 -0.4567  1.0428
 1522SOL    HW216029   4.712   1.900   5.319  0.2370 -0.6618  3.2325
 1523SOL     OW16030   2.271   4.407  16.986 -0.0146 -0.1124  0.6794
 1523SOL    HW116031   2.347   4.404  16.928 -0.8387 -2.8601 -0.2744
 1523SOL    HW216032   2.215   4.334  16.958 -0.2239 -0.5237  2.2015
 1524SOL     OW16033   1.192   2.252   9.153 -0.3564 -0.4646  0.2916
 1524SOL    HW116034   1.246   2.306   9.210  0.9737 -1.6162  0.1276
 1524SOL    HW216035   1.250   2.238   9.079  1.0656  0.1202  1.3082
 1525SOL     OW16036   1.401   4.307   6.449 -0.0750  0.1115  0.0268
 1525SOL    HW116037   1.468   4.365   6.486 -0.7801  0.0317  1.4110
 1525SOL    HW216038   1.352   4.294   6.529 -0.3321  3.2139  0.3971
 1526SOL     OW16039   0.670   3.423  15.445 -0.0245  0.4373 -0.7319
 1526SOL    HW116040   0.746   3.366  15.458  0.0064  0.3868 -1.1542
 1526SOL    HW216041   0.654   3.400  15.354  2.4108 -0.2118 -1.0093
 1527SOL     OW16042   2.594   3.213   1.007  0.8359 -0.2045  0.1193
 1527SOL    HW116043   2.586   3.256   0.922  0.4375  1.1358  0.8486
 1527SOL    HW216044   2.635   3.129   0.985  1.9037 -0.3511  2.7306
 1528SOL     OW16045   4.384   1.251   6.486  0.1204 -0.0228 -0.1307
 1528SOL    HW116046   4.415   1.272   6.574  0.2757  2.8024 -0.8807
 1528SOL    HW216047   4.379   1.337   6.445 -1.7832 -0.0236  0.1093
 1529SOL     OW16048   1.862   2.723   6.248 -0.3180  0.2206 -0.0501
 1529SOL    HW116049   1.802   2.692   6.181  1.5740  0.0390 -1.6438
 1529SOL    HW216050   1.811   2.712   6.328  0.8067 -0.0412  0.6394
 1530SOL     OW16051   1.084   0.120   2.338  0.6089  0.0674  0.4146
 1530SOL    HW116052   1.004   0.080   2.372 -0.2871  0.7804 -0.8631
 1530SOL    HW216053   1.084   0.201   2.389 -0.7984  0.3631 -0.0775
 1531SOL     OW16054   1.092   3.070   7.894  0.3971 -0.5155 -0.1678
 1531SOL    HW116055   1.150   3.109   7.828  2.0651 -1.7700  0.5514
 1531SOL    HW216056   1.138   3.087   7.976 -1.9430  1.9268  0.6163
 1532SOL     OW16057   2.302   1.743   1.301  0.7403 -0.3536 -0.1295
 1532SOL    HW116058   2.235   1.722   1.366  0.6235 -1.3513 -0.5837
 1532SOL    HW216059   2.266   1.827   1.272 -0.3891 -0.2185  1.6728
 1533SOL     OW16060   3.609   1.676  16.458 -0.0274  0.0895 -0.1133
 1533SOL    HW116061   3.541   1.667  16.392 -0.2209 -2.6085  0.4427
 1533SOL    HW216062   3.594   1.607  16.523 -1.6278  1.3959  0.8934
 1534SOL     OW16063   3.509   4.453   1.529  0.0164  0.5902  0.2070
 1534SOL    HW116064   3.426   4.492   1.501  0.1218  0.1735 -0.6966
 1534SOL    HW216065   3.542   4.405   1.453 -0.8067  1.7218 -0.8536
 1535SOL     OW16066   0.212   2.326  15.925 -0.2860 -0.0041 -0.3708
 1535SOL    HW116067   0.307   2.322  15.919 -0.4012 -3.3341  0.0314
 1535SOL    HW216068   0.185   2.235  15.928  0.6826 -0.2743 -0.0350
 1536SOL     OW16069   2.819   4.275   8.518 -0.2546 -0.6017  0.5631
 1536SOL    HW116070   2.764   4.203   8.486 -1.5190  0.3420  0.5819
 1536SOL    HW216071   2.766   4.349   8.488 -1.5453 -1.7078  0.1011
 1537SOL     OW16072   0.268   3.404  13.578 -0.0431  0.2417 -0.3396
 1537SOL    HW116073   0.283   3.493  13.610  1.7308  0.3893 -1.5950
 1537SOL    HW216074   0.348   3.373  13.536 -0.0228  0.4741 -0.4711
 1538SOL     OW16075   3.034   0.297  11.599 -0.1161  0.5643 -0.2920
 1538SOL    HW116076   3.068   0.384  11.577  2.1668 -0.8017 -2.0149
 1538SOL    HW216077   3.019   0.271  11.509 -0.2657  1.6573 -0.5834
 1539SOL     OW16078   1.567   2.393   5.926 -0.0347 -0.0660  0.0265
 1539SOL    HW116079   1.602   2.478   5.898  1.2966 -0.3785  0.7600
 1539SOL    HW216080   1.542   2.359   5.840  0.0042 -0.4695  0.1778
 1540SOL     OW16081   0.429   2.146   2.564  0.2693 -0.0457 -0.4103
 1540SOL    HW116082   0.414   2.052   2.553  0.2060 -0.2336  1.3149
 1540SOL    HW216083   0.456   2.142   2.656 -0.2032 -2.0386 -0.3652
 1541SOL     OW16084   2.741   2.671   5.597 -0.0985 -0.1540 -0.7229
 1541SOL    HW116085   2.782   2.607   5.655  0.3640  1.5132  0.8056
 1541SOL    HW216086   2.690   2.720   5.662  2.5873  1.3251  0.2749
 1542SOL     OW16087   0.262   3.905   6.070 -0.2865  0.1666  0.1211
 1542SOL    HW116088   0.248   3.999   6.066  1.8003  0.4139 -1.3415
 1542SOL    HW216089   0.282   3.888   6.162 -0.7851  1.0855  0.4028
 1543SOL     OW16090   3.861   2.663   4.740 -0.4699 -0.2778  0.2245
 1543SOL    HW116091   3.906   2.735   4.696 -0.0751 -0.7890 -0.2064
 1543SOL    HW216092   3.777   2.668   4.694  1.6424 -2.4806 -3.7948
 1544SOL     OW16093   3.680   2.705   5.492 -0.0205 -0.1477 -0.2305
 1544SOL    HW116094   3.750   2.703   5.427  1.3077  1.0984  1.1780
 1544SOL    HW216095   3.721   2.681   5.575  1.3883  1.3705 -0.4819
 1545SOL     OW16096   4.649   2.962   6.208 -0.1213 -0.6009 -0.7221
 1545SOL    HW116097   4.722   2.918   6.165 -1.4448 -1.3160 -2.2826
 1545SOL    HW216098   4.579   2.912   6.165  1.3369 -2.0027 -1.4948
 1546SOL     OW16099   0.266   1.679   0.592  0.4979 -0.2925  0.1786
 1546SOL    HW116100   0.263   1.722   0.677  0.6450 -2.6983  1.4005
 1546SOL    HW216101   0.320   1.603   0.614  1.3518 -0.0102 -0.9166
 1547SOL     OW16102   0.676   4.417   9.994  0.5290  0.2681 -0.0883
 1547SOL    HW116103   0.688   4.483   9.927  1.8858  0.5580  0.4519
 1547SOL    HW216104   0.757   4.419  10.045  0.7579 -0.1355 -0.4414
 1548SOL     OW16105   4.178   0.079   5.390 -0.3566  0.1252  0.0642
 1548SOL    HW116106   4.158   0.095   5.482  0.1087  1.0619  0.0065
 1548SOL    HW216107   4.144   0.159   5.350 -0.1523 -0.6727 -1.7267
 1549SOL     OW16108   0.907   4.219   9.027 -0.2918 -0.2165 -0.2497
 1549SOL    HW116109   0.920   4.298   8.975  0.6371 -1.1627 -1.4888
 1549SOL    HW216110   0.815   4.230   9.050 -0.2586 -1.1518  0.3297
 1550SOL     OW16111   3.281   2.747   9.288 -0.4510 -0.0453 -0.0614
 1550SOL    HW116112   3.269   2.769   9.196  0.6068  0.1658 -0.1497
 1550SOL    HW216113   3.310   2.829   9.327 -0.3682 -0.5780  1.0069
 1551SOL     OW16114   3.515   0.125   7.130 -0.3480 -0.0319  0.1637
 1551SOL    HW116115   3.580   0.060   7.157 -0.9235 -0.6446  0.0710
 1551SOL    HW216116   3.570   0.177   7.071  1.3239 -1.3998  0.5250
 1552SOL     OW16117   0.980   1.950  16.823 -0.5030 -0.6341  0.4216
 1552SOL    HW116118   0.922   2.000  16.765  1.3305  0.4490 -0.4487
 1552SOL    HW216119   1.054   1.939  16.763 -4.1190 -1.8597 -3.9156
 1553SOL     OW16120   2.212   0.015   2.776  0.1547  0.9228 -0.1606
 1553SOL    HW116121   2.275   0.058   2.717 -0.9729  1.3104 -1.0841
 1553SOL    HW216122   2.269   0.007   2.853  1.5234  3.8051 -0.8459
 1554SOL     OW16123   3.528   2.186   4.292 -0.0116  0.2788 -0.1159
 1554SOL    HW116124   3.572   2.271   4.300  2.1805 -0.8453 -0.2990
 1554SOL    HW216125   3.576   2.152   4.368 -0.8012  1.4528  0.8935
 1555SOL     OW16126   1.900   4.367  14.322 -0.1900 -0.5768 -0.4944
 1555SOL    HW116127   1.809   4.339  14.335 -0.7091  0.2081 -2.5336
 1555SOL    HW216128   1.932   4.407  14.403  1.0484  1.4629 -1.9995
 1556SOL     OW16129   2.767   3.903  13.623  0.1630 -0.4933 -0.5313
 1556SOL    HW116130   2.739   3.877  13.710  1.4466  1.1269  0.3692
 1556SOL    HW216131   2.825   3.974  13.652 -1.1980 -0.0404  1.0702
 1557SOL     OW16132   2.250   4.045   5.405  1.0191 -0.3346  0.1835
 1557SOL    HW116133   2.238   3.966   5.457  1.1298 -0.7491 -0.4277
 1557SOL    HW216134   2.215   4.015   5.321  0.7975  2.5433 -0.7668
 1558SOL     OW16135   0.816   0.442   4.210  0.0690 -0.6741 -0.4969
 1558SOL    HW116136   0.836   0.526   4.169  0.5665 -0.9201 -0.7558
 1558SOL    HW216137   0.871   0.434   4.287  0.1517 -0.9632 -0.5845
 1559SOL     OW16138   4.646   2.669  11.451  0.1695 -0.4965 -0.0027
 1559SOL    HW116139   4.634   2.744  11.509 -0.1301 -0.6657  0.1591
 1559SOL    HW216140   4.690   2.623  11.523 -1.4960 -1.5225  0.3676
 1560SOL     OW16141   3.576   0.466   2.817  0.2924  0.0383 -0.5049
 1560SOL    HW116142   3.614   0.452   2.904  0.8652  0.0416 -0.7487
 1560SOL    HW216143   3.495   0.504   2.851 -0.2496 -0.3866 -1.3405
 1561SOL     OW16144   2.315   3.756  10.057  0.3735 -0.6677  0.2278
 1561SOL    HW116145   2.273   3.672  10.038  0.8053 -0.3997 -1.9395
 1561SOL    HW216146   2.237   3.809  10.078 -0.2019 -1.7646  0.8406
 1562SOL     OW16147   0.280   1.339   9.429 -0.1730  0.1185  0.2471
 1562SOL    HW116148   0.231   1.257   9.427  1.0694 -0.5866 -1.0859
 1562SOL    HW216149   0.265   1.398   9.355 -0.3789 -0.7336 -0.3849
 1563SOL     OW16150   1.694   1.494   5.621 -0.0687 -0.2078  0.8538
 1563SOL    HW116151   1.775   1.456   5.586 -1.8202 -0.1773 -3.2411
 1563SOL    HW216152   1.674   1.534   5.536 -1.7927 -0.7441  1.0165
 1564SOL     OW16153   1.861   3.011   1.871  0.2463  0.1209  0.2784
 1564SOL    HW116154   1.922   3.056   1.929  1.2733 -1.7796  0.6477
 1564SOL    HW216155   1.906   2.926   1.873 -1.2617 -0.7365 -1.5006
 1565SOL     OW16156   2.333   3.635   5.550 -0.0412 -0.1354 -0.0509
 1565SOL    HW116157   2.349   3.702   5.617  1.5543 -0.4256 -0.1521
 1565SOL    HW216158   2.276   3.575   5.597 -0.0107 -0.5792 -0.5851
 1566SOL     OW16159   2.592   3.007   2.314 -0.1530  0.1791  0.7149
 1566SOL    HW116160   2.544   3.078   2.357  0.2411  0.6253  0.4145
 1566SOL    HW216161   2.682   3.038   2.311  0.1821 -0.7417  1.5262
 1567SOL     OW16162   2.807   0.714   4.581  0.1339  0.5028  0.8291
 1567SOL    HW116163   2.764   0.750   4.659  1.1768  2.6291  0.4172
 1567SOL    HW216164   2.832   0.794   4.534 -0.1952  0.6117  0.8414
 1568SOL     OW16165   0.319   1.068   8.748  0.0919  0.0654 -0.5754
 1568SOL    HW116166   0.386   1.002   8.767 -0.2588  0.2234  1.2033
 1568SOL    HW216167   0.261   1.064   8.824 -0.3639 -0.8898 -0.9825
 1569SOL     OW16168   4.568   4.281   6.604 -0.5288  0.2395  0.4989
 1569SOL    HW116169   4.483   4.317   6.578 -0.7326 -1.3957 -1.1549
 1569SOL    HW216170   4.593   4.318   6.689  2.5998  0.0509 -0.3557
 1570SOL     OW16171   4.320   2.730   8.037  0.2762  0.3958  0.0955
 1570SOL    HW116172   4.397   2.673   8.031 -0.6718 -0.7698 -1.0695
 1570SOL    HW216173   4.353   2.812   8.074  1.0286 -0.9306  2.3852
 1571SOL     OW16174   2.859   3.139   3.168  0.0509  0.3697 -0.2243
 1571SOL    HW116175   2.870   3.072   3.100  1.7451 -0.7836  1.2078
 1571SOL    HW216176   2.939   3.134   3.219  0.8765 -1.4836 -1.6815
 1572SOL     OW16177   2.182   2.017   8.895  0.3797  0.0955  0.0922
 1572SOL    HW116178   2.131   2.072   8.955  3.0493 -1.1968  3.5646
 1572SOL    HW216179   2.182   1.935   8.944  1.3230 -0.9446 -1.6590
 1573SOL     OW16180   1.206   4.455   7.079 -0.2965 -0.2904  0.4954
 1573SOL    HW116181   1.190   4.546   7.102  0.7759  0.1806 -0.6192
 1573SOL    HW216182   1.265   4.474   7.006  2.3115 -1.4942  2.2631
 1574SOL     OW16183   0.980   4.076   9.643 -0.0886 -0.7548 -0.1164
 1574SOL    HW116184   0.984   4.168   9.618  0.1101 -0.6953  0.1272
 1574SOL    HW216185   0.942   4.080   9.731 -1.0680  0.0281 -0.5697
 1575SOL     OW16186   3.236   3.661  14.766 -0.8026 -0.6594  0.8186
 1575SOL    HW116187   3.278   3.738  14.727  0.4065 -2.0078 -0.5321
 1575SOL    HW216188   3.146   3.656  14.734 -0.3738  0.6630 -0.5882
 1576SOL     OW16189   3.008   1.107   6.634 -0.2434 -0.0118  0.4800
 1576SOL    HW116190   3.089   1.157   6.633 -0.3575  0.1730  0.4740
 1576SOL    HW216191   3.040   1.021   6.606 -1.4334 -0.1120 -0.6278
 1577SOL     OW16192   1.765   0.283   7.041  0.0229 -0.0906 -0.1505
 1577SOL    HW116193   1.749   0.256   7.131  0.9420 -2.4432 -0.6978
 1577SOL    HW216194   1.713   0.363   7.032 -0.9077 -0.4972  1.6641
 1578SOL     OW16195   1.609   0.024  11.872 -1.0048  0.2455  0.5296
 1578SOL    HW116196   1.547   4.686  11.909 -1.2052  0.7611  1.0572
 1578SOL    HW216197   1.559   0.065  11.801 -1.0046 -0.0894  0.3355
 1579SOL     OW16198   1.729   2.667   6.504  0.6489 -0.2931 -0.5331
 1579SOL    HW116199   1.796   2.656   6.572 -0.6866 -0.7460  0.7135
 1579SOL    HW216200   1.659   2.605   6.526 -0.1526  0.7047 -0.2434
 1580SOL     OW16201   0.468   3.360  12.934  0.1904  0.0725  0.1659
 1580SOL    HW116202   0.383   3.356  12.978 -0.3961  1.7882 -0.7992
 1580SOL    HW216203   0.529   3.366  13.008  0.1994  1.0069  0.0747
 1581SOL     OW16204   3.209   1.110   3.312 -0.0892  0.1816  0.0716
 1581SOL    HW116205   3.188   1.059   3.234 -0.9475 -1.1639  1.1835
 1581SOL    HW216206   3.180   1.044   3.375  1.2643  0.2383  0.7672
 1582SOL     OW16207   2.570   2.425   4.236 -0.5311 -0.1421  0.1145
 1582SOL    HW116208   2.549   2.514   4.210  2.9294 -0.6144 -4.3763
 1582SOL    HW216209   2.652   2.417   4.188  0.5977 -0.6665  2.1263
 1583SOL     OW16210   1.326   1.835   3.804  0.4052 -0.4624  0.5571
 1583SOL    HW116211   1.247   1.835   3.750  0.9766 -0.3860 -0.2696
 1583SOL    HW216212   1.397   1.841   3.741  0.4898 -2.5650  0.4337
 1584SOL     OW16213   3.870   2.566   9.239  0.3398 -0.5713  0.1631
 1584SOL    HW116214   3.803   2.555   9.306 -1.4077  0.4808 -1.4378
 1584SOL    HW216215   3.822   2.631   9.188 -0.5358 -0.8445  0.6387
 1585SOL     OW16216   3.164   2.370   4.765  0.4122  0.2955 -0.2917
 1585SOL    HW116217   3.230   2.356   4.833  0.9216  2.2379 -0.3906
 1585SOL    HW216218   3.211   2.366   4.682  0.3531  0.5377 -0.3373
 1586SOL     OW16219   4.555   0.284   4.096  0.2531 -0.4208  0.0989
 1586SOL    HW116220   4.625   0.340   4.061 -0.1181  1.6923  2.7266
 1586SOL    HW216221   4.483   0.337   4.060 -0.1208 -1.1933 -0.2900
 1587SOL     OW16222   3.139   0.565  11.146 -0.0876  0.4326 -0.3111
 1587SOL    HW116223   3.095   0.646  11.172 -1.0445 -0.2837  0.3104
 1587SOL    HW216224   3.144   0.566  11.051  1.8413 -0.0251 -0.2066
 1588SOL     OW16225   1.692   4.710   6.334  0.4633  0.0768 -0.2414
 1588SOL    HW116226   1.770   0.038   6.353  0.9485 -1.1689  1.1020
 1588SOL    HW216227   1.741   4.629   6.320 -0.2374 -0.6321  1.4892
 1589SOL     OW16228   3.141   3.876  13.086  0.3695 -0.1136 -0.7949
 1589SOL    HW116229   3.161   3.919  13.168  0.7761  1.0590 -1.5124
 1589SOL    HW216230   3.101   3.791  13.106 -1.4203  1.0098  0.3352
 1590SOL     OW16231   4.534   4.129   6.302  0.0288 -0.3265  0.3696
 1590SOL    HW116232   4.450   4.122   6.258 -0.1043 -0.3646  0.6306
 1590SOL    HW216233   4.548   4.224   6.307  1.3763 -0.4822 -0.3843
 1591SOL     OW16234   1.441   2.713   6.710  0.1868  0.3203 -0.5596
 1591SOL    HW116235   1.464   2.732   6.801 -1.6626  3.9830 -0.8630
 1591SOL    HW216236   1.429   2.619   6.696 -2.8504  0.3517  1.7370
 1592SOL     OW16237   0.844   1.029   7.204  0.2338  0.6156  0.1547
 1592SOL    HW116238   0.901   0.955   7.225 -0.0138 -0.4340 -2.8651
 1592SOL    HW216239   0.815   1.053   7.292  0.9621  1.4054  0.1806
 1593SOL     OW16240   1.718   0.448   6.665  0.2112  0.2691  0.0574
 1593SOL    HW116241   1.756   0.526   6.625  1.2000  0.3336  1.1194
 1593SOL    HW216242   1.775   0.439   6.742  2.3604 -0.6286 -1.6371
 1594SOL     OW16243   1.683   2.148  14.933  0.7224 -0.2010  0.1091
 1594SOL    HW116244   1.645   2.207  14.868 -0.8103 -2.0180 -0.6423
 1594SOL    HW216245   1.660   2.065  14.891  1.2483 -0.7349  0.8806
 1595SOL     OW16246   4.602   4.528   6.758  0.1681  0.0002  0.1312
 1595SOL    HW116247   4.625   4.609   6.803 -1.7056  1.1603 -1.0559
 1595SOL    HW216248   4.639   4.548   6.672 -1.4622  0.7446 -0.3884
 1596SOL     OW16249   4.021   0.245  13.661 -0.1865 -0.1440  0.1809
 1596SOL    HW116250   4.091   0.257  13.597  0.3418 -2.0513  0.4167
 1596SOL    HW216251   4.014   0.336  13.692 -3.1373  0.0690 -1.0630
 1597SOL     OW16252   3.360   1.881   8.758 -0.2750 -0.0872 -0.1211
 1597SOL    HW116253   3.308   1.808   8.724  3.0447 -1.0510 -3.1308
 1597SOL    HW216254   3.316   1.881   8.843 -1.5000 -3.7417 -0.7409
 1598SOL     OW16255   2.615   0.743   3.860 -0.0614 -0.2623  0.8109
 1598SOL    HW116256   2.599   0.786   3.944 -0.6564 -0.8823  1.0188
 1598SOL    HW216257   2.683   0.679   3.876 -0.0613  0.0762  2.1203
 1599SOL     OW16258   0.032   0.309   3.740  0.2810 -0.6098  0.4942
 1599SOL    HW116259   0.076   0.303   3.825 -0.2618 -0.9238  0.7570
 1599SOL    HW216260   4.694   0.236   3.732  0.9233 -1.0285 -0.6163
 1600SOL     OW16261   2.357   1.573   1.589 -0.5092 -0.4413 -0.3019
 1600SOL    HW116262   2.372   1.665   1.608 -3.1925 -0.5083  2.1270
 1600SOL    HW216263   2.264   1.576   1.567 -0.1710  3.1288 -1.2776
 1601SOL     OW16264   0.488   1.100   4.250  0.5968 -0.1744  0.0634
 1601SOL    HW116265   0.445   1.119   4.334  2.3963 -1.2699  1.2207
 1601SOL    HW216266   0.543   1.177   4.232  0.2527  0.4700  1.7930
 1602SOL     OW16267   1.301   2.248   1.999 -0.0281  0.8700 -0.4117
 1602SOL    HW116268   1.236   2.188   2.035 -0.0755  1.4604  0.5116
 1602SOL    HW216269   1.375   2.188   2.007 -1.7939 -1.2869 -0.4922
 1603SOL     OW16270   0.270   0.888   6.055 -0.0467 -0.2419 -0.5017
 1603SOL    HW116271   0.310   0.802   6.066 -0.3702 -0.1924  0.9706
 1603SOL    HW216272   0.254   0.901   5.961 -1.8177  3.7564  0.3383
 1604SOL     OW16273   2.543   2.392   5.449  0.6356  0.3489  0.8914
 1604SOL    HW116274   2.525   2.359   5.360  2.2918 -0.3788  0.8273
 1604SOL    HW216275   2.638   2.401   5.457  0.3047  1.3904  3.5040
 1605SOL     OW16276   1.818   0.650  15.027  0.4245 -0.6144  0.1353
 1605SOL    HW116277   1.767   0.723  15.063  4.2843  0.8948  2.5788
 1605SOL    HW216278   1.886   0.705  14.988  0.5370 -0.5058  0.4879
 1606SOL     OW16279   4.265   1.958   2.101 -0.3415  0.0484 -0.4924
 1606SOL    HW116280   4.239   1.885   2.157 -1.8595  0.6621 -0.4153
 1606SOL    HW216281   4.298   1.916   2.021 -0.1927 -0.2277 -0.2897
 1607SOL     OW16282   1.551   2.031   1.510  0.1684  0.2662  0.0129
 1607SOL    HW116283   1.549   1.957   1.449 -0.2213 -0.3741  0.8049
 1607SOL    HW216284   1.586   2.101   1.455  3.1770 -1.1572  0.0753
 1608SOL     OW16285   4.059   4.069  13.301 -0.0628 -0.1099  0.4028
 1608SOL    HW116286   4.030   3.998  13.358 -1.7865  0.9354  0.8086
 1608SOL    HW216287   4.068   4.136  13.369 -0.0147  1.3084 -1.0054
 1609SOL     OW16288   4.445   1.221   4.478 -0.7448  0.8105 -0.1306
 1609SOL    HW116289   4.456   1.291   4.542 -0.1629  2.2211 -1.7787
 1609SOL    HW216290   4.385   1.254   4.412 -0.3167  1.4476 -0.1957
 1610SOL     OW16291   1.100   1.660   8.017  0.0769  0.2658  0.4525
 1610SOL    HW116292   1.089   1.666   7.922  0.7160 -3.0480  0.1543
 1610SOL    HW216293   1.161   1.587   8.026 -0.2291 -0.1935 -1.2016
 1611SOL     OW16294   1.041   3.866  13.690 -0.3511  0.8360 -0.5939
 1611SOL    HW116295   0.996   3.781  13.691 -0.0763  0.7173  1.1034
 1611SOL    HW216296   1.097   3.861  13.767  0.8003 -1.0660 -1.5624
 1612SOL     OW16297   4.656   1.878   3.253 -0.2581  0.1546  0.2764
 1612SOL    HW116298   4.704   1.796   3.253 -1.2632 -0.4342  3.1252
 1612SOL    HW216299   4.663   1.911   3.343 -0.4753 -2.1842  1.1601
 1613SOL     OW16300   1.330   1.065   2.220  0.2599 -0.0864  0.6810
 1613SOL    HW116301   1.348   1.041   2.129  1.0396  0.3293  0.7251
 1613SOL    HW216302   1.308   0.981   2.260 -0.5644 -0.8020 -1.2507
 1614SOL     OW16303   3.420   3.597   7.693  0.6317 -0.2313  0.0107
 1614SOL    HW116304   3.373   3.515   7.678 -2.1671  1.0378  1.9195
 1614SOL    HW216305   3.431   3.601   7.788 -1.6328 -0.0732  0.2649
 1615SOL     OW16306   2.870   2.174  11.536  0.1392 -0.1621 -0.4465
 1615SOL    HW116307   2.883   2.079  11.534 -2.3003 -0.5045  0.6017
 1615SOL    HW216308   2.959   2.207  11.550  0.9149 -1.2383 -2.7689
 1616SOL     OW16309   3.210   2.726  13.941 -0.8317  0.0754  0.0850
 1616SOL    HW116310   3.212   2.794  13.874  0.4736 -0.4097 -0.3708
 1616SOL    HW216311   3.303   2.705  13.933 -1.1638 -2.0217  1.6349
 1617SOL     OW16312   1.720   3.028   3.128  0.4367  0.5753  0.0898
 1617SOL    HW116313   1.647   3.060   3.182  0.5685  0.8454  0.1091
 1617SOL    HW216314   1.701   3.066   3.042  2.0037 -2.2053 -1.4897
 1618SOL     OW16315   3.559   3.044   2.201 -0.9117  0.4028  0.3813
 1618SOL    HW116316   3.588   3.016   2.115 -0.2893  1.7573  0.1402
 1618SOL    HW216317   3.643   3.044   2.247  0.7432  0.1843 -2.6564
 1619SOL     OW16318   2.138   1.474   8.819  0.1780  0.2616 -0.0563
 1619SOL    HW116319   2.133   1.416   8.895 -1.4956  0.5097  0.0208
 1619SOL    HW216320   2.211   1.430   8.774 -1.4312  0.4412 -2.8323
 1620SOL     OW16321   2.156   2.112   1.679 -0.0581  0.3539 -0.6052
 1620SOL    HW116322   2.205   2.190   1.653 -0.1356  0.2420 -1.0972
 1620SOL    HW216323   2.178   2.107   1.772  1.2061  2.4375 -0.7938
 1621SOL     OW16324   0.214   0.925  12.390  0.1314  0.7754 -0.6324
 1621SOL    HW116325   0.208   0.939  12.485  0.6798  0.0348 -0.4856
 1621SOL    HW216326   0.226   0.830  12.389  2.8317  1.1102 -0.4081
 1622SOL     OW16327   3.963   3.687   7.323 -0.3762 -0.6792  0.0308
 1622SOL    HW116328   4.005   3.646   7.247  0.2937  1.0328 -0.5203
 1622SOL    HW216329   3.923   3.606   7.355 -2.5638  0.5506  0.4109
 1623SOL     OW16330   2.024   0.993   4.213  0.0987  0.4879  0.9492
 1623SOL    HW116331   1.996   1.000   4.121 -1.7835 -2.4042  1.3263
 1623SOL    HW216332   2.114   0.963   4.197  0.5267  2.6981 -0.9792
 1624SOL     OW16333   1.676   3.262   7.736 -0.0614 -0.0835 -0.4390
 1624SOL    HW116334   1.630   3.332   7.783  1.5824 -0.8314  2.2496
 1624SOL    HW216335   1.719   3.214   7.806  0.8416  0.5119 -0.5792
 1625SOL     OW16336   2.349   4.437   4.789 -0.4509 -0.3492 -0.3253
 1625SOL    HW116337   2.383   4.358   4.831  1.5971  0.8922  0.2961
 1625SOL    HW216338   2.410   4.505   4.817 -2.2104  1.4942 -0.9631
 1626SOL     OW16339   3.074   3.437   9.172 -0.1815  0.0255  0.1451
 1626SOL    HW116340   2.999   3.418   9.116  1.0089 -0.6257 -1.1958
 1626SOL    HW216341   3.017   3.461   9.245  1.2702  0.6406  1.0909
 1627SOL     OW16342   2.758   1.982  17.267  0.7718  0.2497  0.2971
 1627SOL    HW116343   2.705   1.919  17.316 -0.6241  1.1881 -0.0033
 1627SOL    HW216344   2.734   1.968  17.175  1.2936 -1.1964  0.3897
 1628SOL     OW16345   3.150   3.301   2.772 -0.3838 -0.0155  0.4155
 1628SOL    HW116346   3.140   3.206   2.763 -0.8556  0.0529  0.2131
 1628SOL    HW216347   3.065   3.338   2.750 -0.7977 -1.1887  0.0790
 1629SOL     OW16348   2.123   1.758   1.843 -0.6184 -0.2596  0.1433
 1629SOL    HW116349   2.082   1.830   1.891  1.3550  1.7742 -1.2289
 1629SOL    HW216350   2.153   1.694   1.907 -0.0767 -2.7480 -2.6482
 1630SOL     OW16351   2.447   0.403   8.236  0.1061  0.5979  0.9024
 1630SOL    HW116352   2.507   0.442   8.172 -0.6764 -0.8888 -0.7557
 1630SOL    HW216353   2.507   0.413   8.310  0.5972 -0.1154  0.6003
 1631SOL     OW16354   2.515   0.669   7.062 -0.1997  0.2341 -0.6039
 1631SOL    HW116355   2.429   0.698   7.030 -1.2101 -0.9943  0.9763
 1631SOL    HW216356   2.543   0.751   7.103 -0.5210 -0.0759  0.2347
 1632SOL     OW16357   3.201   4.126  11.619 -0.0293 -0.1878 -0.2495
 1632SOL    HW116358   3.221   4.216  11.646 -2.4297 -0.0533  1.0511
 1632SOL    HW216359   3.236   4.079  11.695 -1.6623  1.2268  1.3887
 1633SOL     OW16360   0.328   0.686   7.693 -0.6858  0.5739  0.3587
 1633SOL    HW116361   0.293   0.647   7.773  0.9652 -2.1558 -0.2521
 1633SOL    HW216362   0.420   0.704   7.708  0.1049 -2.5916 -0.6721
 1634SOL     OW16363   4.634   3.887   1.579 -0.2895 -0.3991  0.4190
 1634SOL    HW116364   4.595   3.855   1.498  2.1023 -0.0149 -0.8773
 1634SOL    HW216365   4.715   3.836   1.579 -1.1231 -1.6903 -0.0483
 1635SOL     OW16366   2.630   1.851   5.948 -1.1325 -0.4923 -0.1248
 1635SOL    HW116367   2.642   1.883   5.858 -1.5896  0.4932  0.1771
 1635SOL    HW216368   2.567   1.914   5.982 -2.6306 -2.2156  0.3025
 1636SOL     OW16369   0.679   0.573  11.105 -0.4597  0.3653  0.2078
 1636SOL    HW116370   0.771   0.576  11.129 -0.3471 -1.7668 -0.0318
 1636SOL    HW216371   0.640   0.522  11.176  0.0271 -2.0421 -1.2803
 1637SOL     OW16372   3.922   1.831   2.869  0.5762  0.1480 -0.2899
 1637SOL    HW116373   3.941   1.749   2.916 -1.9453  0.1359  0.7337
 1637SOL    HW216374   3.866   1.886   2.924  0.1801 -1.2283  0.6789
 1638SOL     OW16375   0.540   1.830  12.720 -0.7579 -0.1367  0.2506
 1638SOL    HW116376   0.476   1.835  12.791 -0.6185  1.4763  0.2537
 1638SOL    HW216377   0.603   1.897  12.747  0.7517 -0.8369 -1.5132
 1639SOL     OW16378   3.385   2.006   4.801 -0.4114 -0.0318  0.5155
 1639SOL    HW116379   3.394   1.942   4.731  0.5838  0.2785  0.3575
 1639SOL    HW216380   3.463   2.060   4.791 -0.7153  0.1346 -0.8882
 1640SOL     OW16381   2.962   1.006  17.169  0.3737  0.0393  0.1534
 1640SOL    HW116382   2.887   1.060  17.144 -1.0639 -1.7710  0.6156
 1640SOL    HW216383   2.919   0.929  17.133  1.0571  0.8658 -2.4252
 1641SOL     OW16384   1.279   3.443   7.955 -0.4092 -0.2991 -0.7178
 1641SOL    HW116385   1.274   3.368   8.014  1.2365 -1.6140 -2.2525
 1641SOL    HW216386   1.231   3.505   8.010 -1.0126 -0.5199 -1.0048
 1642SOL     OW16387   4.076   3.350  12.926  0.0761 -0.6841 -0.2667
 1642SOL    HW116388   4.124   3.418  12.878 -1.9423  0.7398 -0.3008
 1642SOL    HW216389   4.121   3.267  12.912  1.4541  0.0547 -0.2052
 1643SOL     OW16390   4.684   3.790  16.120  0.0686  0.3187  0.2022
 1643SOL    HW116391   4.649   3.831  16.041 -0.8795 -1.0576 -0.0879
 1643SOL    HW216392   4.617   3.815  16.183 -1.2039  0.7763 -1.3351
 1644SOL     OW16393   4.315   0.437  17.536 -0.0511 -0.0033 -0.2834
 1644SOL    HW116394   4.280   0.507  17.591  0.1134 -1.0316  1.1094
 1644SOL    HW216395   4.229   0.409  17.504  0.0990  0.3069 -0.9538
 1645SOL     OW16396   0.262   3.917   8.188  0.0180  0.4914  0.1449
 1645SOL    HW116397   0.325   3.887   8.123  0.8436  2.8140 -0.1112
 1645SOL    HW216398   0.312   3.985   8.234  0.1542 -0.5019  1.4680
 1646SOL     OW16399   3.796   0.558   0.709  0.6717 -0.0916  0.2142
 1646SOL    HW116400   3.852   0.623   0.666  0.5246 -0.6074 -0.7677
 1646SOL    HW216401   3.712   0.590   0.677  0.5524  0.8607  1.4659
 1647SOL     OW16402   2.356   3.061   3.125  0.2041 -0.0851  0.1421
 1647SOL    HW116403   2.379   3.147   3.159  0.2233 -0.2535  0.5629
 1647SOL    HW216404   2.431   3.010   3.155  0.2189  0.1681  0.5306
 1648SOL     OW16405   4.444   4.666   0.254 -0.2886 -0.3913 -0.5151
 1648SOL    HW116406   4.519   4.636   0.203  0.8179 -1.2075  1.5867
 1648SOL    HW216407   4.482   0.021   0.292  0.0828 -1.0758  0.5488
 1649SOL     OW16408   2.483   1.046   5.996 -0.0729 -0.3330 -0.1150
 1649SOL    HW116409   2.450   1.083   6.077  2.3654 -1.7048  1.5144
 1649SOL    HW216410   2.428   0.968   5.992 -3.7286  2.2778  0.0077
 1650SOL     OW16411   0.461   3.727   4.100 -0.2353 -0.3759  0.0097
 1650SOL    HW116412   0.378   3.771   4.117 -0.9241 -1.6088 -0.2270
 1650SOL    HW216413   0.486   3.701   4.189 -1.3598 -3.5909 -0.6361
 1651SOL     OW16414   0.984   0.962   4.570  0.1961  0.3376 -0.0670
 1651SOL    HW116415   0.960   1.043   4.616 -2.4372 -1.2262  1.3348
 1651SOL    HW216416   0.921   0.903   4.612  0.4872  1.3463  1.7598
 1652SOL     OW16417   4.375   0.353   5.973  0.3362 -0.7911  0.4081
 1652SOL    HW116418   4.424   0.390   6.046 -0.1196  2.7529 -1.0638
 1652SOL    HW216419   4.413   0.266   5.963  2.4175  0.2730 -1.0008
 1653SOL     OW16420   2.493   4.382  15.167  0.2822 -0.1591 -0.0415
 1653SOL    HW116421   2.405   4.415  15.152  0.4227 -0.2195 -1.0106
 1653SOL    HW216422   2.493   4.389  15.263 -0.5510 -1.8315  0.0858
 1654SOL     OW16423   3.153   0.103   4.827  0.2952 -0.2225 -0.1529
 1654SOL    HW116424   3.185   0.023   4.870 -1.6260  0.2967  2.2707
 1654SOL    HW216425   3.209   0.160   4.880  0.1551  0.9069 -1.2387
 1655SOL     OW16426   0.774   3.897   3.296 -0.0546 -0.0131  0.2574
 1655SOL    HW116427   0.835   3.885   3.224 -1.4126  2.2944 -1.2847
 1655SOL    HW216428   0.824   3.854   3.365  2.0136  0.0982 -1.1848
 1656SOL     OW16429   4.130   0.284   1.782 -0.0345  0.1245  0.2767
 1656SOL    HW116430   4.198   0.259   1.845  1.8975  2.3529 -0.9226
 1656SOL    HW216431   4.167   0.253   1.699  1.5590 -1.8010  1.6889
 1657SOL     OW16432   2.380   1.443   6.529  0.1159  0.2433 -0.1978
 1657SOL    HW116433   2.447   1.389   6.571 -1.2897 -0.9671  0.5007
 1657SOL    HW216434   2.440   1.490   6.472 -2.3937  2.4340 -1.0010
 1658SOL     OW16435   1.182   2.197   0.538  0.0327  0.1959 -0.0436
 1658SOL    HW116436   1.215   2.161   0.456 -0.5781 -1.5815  0.4970
 1658SOL    HW216437   1.247   2.262   0.564 -1.8372  1.9460  0.2839
 1659SOL     OW16438   4.470   1.182   4.909 -0.0707 -0.9033 -0.3525
 1659SOL    HW116439   4.440   1.115   4.847  1.4164 -0.3419 -1.6491
 1659SOL    HW216440   4.544   1.143   4.956  1.8571  1.8008 -1.1586
 1660SOL     OW16441   0.691   3.847   5.131  0.0580  0.0589  0.3018
 1660SOL    HW116442   0.662   3.766   5.089 -2.5579  1.6685 -0.9827
 1660SOL    HW216443   0.683   3.911   5.060  1.7000  0.2843  0.3031
 1661SOL     OW16444   4.366   4.213  13.608  0.0123 -0.1119 -0.2338
 1661SOL    HW116445   4.337   4.265  13.683 -0.8868 -0.7474 -0.1487
 1661SOL    HW216446   4.404   4.282  13.555  0.3972  1.3748  1.9942
 1662SOL     OW16447   0.693   3.171  13.154  0.7892  0.6867  0.2528
 1662SOL    HW116448   0.646   3.088  13.164  0.6439  0.8290  0.7604
 1662SOL    HW216449   0.623   3.229  13.185 -0.5524 -1.6572  1.6051
 1663SOL     OW16450   0.186   3.177   5.608 -0.4546  0.3924 -0.5350
 1663SOL    HW116451   0.280   3.160   5.617 -0.3098  0.5581 -1.7958
 1663SOL    HW216452   0.148   3.097   5.572 -1.4432  0.2681  0.7467
 1664SOL     OW16453   4.293   1.468   5.672 -0.4817 -0.5049  0.5702
 1664SOL    HW116454   4.301   1.379   5.636 -1.0160 -0.3230  0.0159
 1664SOL    HW216455   4.385   1.491   5.681 -0.2682 -1.2907  0.4487
 1665SOL     OW16456   1.033   1.760   4.102 -0.0107  0.3700  0.0184
 1665SOL    HW116457   0.980   1.820   4.154  0.9317  0.5623  0.7408
 1665SOL    HW216458   1.110   1.809   4.071 -0.5139  1.0466 -0.1612
 1666SOL     OW16459   2.112   4.317   2.903 -0.4422 -0.4382  0.4390
 1666SOL    HW116460   2.064   4.356   2.976 -2.1224  1.6323 -1.7384
 1666SOL    HW216461   2.183   4.283   2.957 -0.3219 -2.2102 -0.8337
 1667SOL     OW16462   3.938   2.380   5.168  0.2906  0.2684 -0.0547
 1667SOL    HW116463   3.909   2.464   5.132  0.1163  0.3029  0.1665
 1667SOL    HW216464   3.932   2.323   5.091 -1.1728 -0.1070  0.3388
 1668SOL     OW16465   3.990   0.279   6.962  0.8805  0.5229  0.1046
 1668SOL    HW116466   4.036   0.207   7.005  0.7334  0.1929 -0.2886
 1668SOL    HW216467   4.054   0.346   6.987  0.2383  1.8553 -1.8215
 1669SOL     OW16468   4.160   0.957   5.891 -0.1130  0.2674  0.3527
 1669SOL    HW116469   4.173   1.052   5.898  0.2114  0.3507 -1.3564
 1669SOL    HW216470   4.253   0.937   5.901  0.1237  1.7321  1.0984
 1670SOL     OW16471   3.492   3.785  17.214  0.2611 -0.3483  0.8656
 1670SOL    HW116472   3.497   3.840  17.136 -1.6236 -1.2181  0.1380
 1670SOL    HW216473   3.556   3.714  17.202  0.6845  0.2267 -0.2685
 1671SOL     OW16474   4.603   0.893   1.877 -0.5559 -0.0006  0.3028
 1671SOL    HW116475   4.694   0.886   1.848 -0.5834 -0.8912  0.4388
 1671SOL    HW216476   4.608   0.977   1.921 -0.6286 -0.4475  1.1618
 1672SOL     OW16477   2.926   0.818   6.970  0.3010  0.6080 -0.4746
 1672SOL    HW116478   2.929   0.774   7.055  0.6208 -0.6473 -1.1412
 1672SOL    HW216479   2.971   0.758   6.911  0.1193 -0.5299  0.5456
 1673SOL     OW16480   4.591   3.563   6.744 -0.3222  0.3490  0.7344
 1673SOL    HW116481   4.586   3.655   6.769 -0.5164  1.2073 -2.3914
 1673SOL    HW216482   4.499   3.537   6.748  0.0478 -1.3352 -1.3640
 1674SOL     OW16483   3.264   1.867   4.470 -0.3942  0.1699  0.2134
 1674SOL    HW116484   3.323   1.846   4.543 -0.2729  0.3624  0.1712
 1674SOL    HW216485   3.228   1.780   4.454 -1.8078  0.0045  4.3399
 1675SOL     OW16486   4.087   1.570   2.416 -0.5554 -0.4389  0.1174
 1675SOL    HW116487   4.119   1.654   2.384 -1.5392  1.2007  3.4146
 1675SOL    HW216488   4.150   1.506   2.385  0.2201  0.7385 -0.7450
 1676SOL     OW16489   2.335   3.222   3.382  0.2159  0.2645  0.5840
 1676SOL    HW116490   2.425   3.251   3.396  0.1170  0.8297  0.0024
 1676SOL    HW216491   2.303   3.284   3.317 -0.2834  0.1717  0.7389
 1677SOL     OW16492   0.769   3.677  13.190 -0.2741  0.3707 -0.1257
 1677SOL    HW116493   0.861   3.705  13.192 -0.6572  1.6793 -0.8537
 1677SOL    HW216494   0.740   3.660  13.280 -0.4977 -0.2640 -0.3241
 1678SOL     OW16495   1.623   4.092   8.695  0.1079  0.1539  0.1923
 1678SOL    HW116496   1.701   4.096   8.640 -0.3099  0.3824 -0.3818
 1678SOL    HW216497   1.631   4.163   8.758 -0.9192  1.4772 -1.1799
 1679SOL     OW16498   1.206   4.591   4.212  0.2604  0.2384 -0.0559
 1679SOL    HW116499   1.111   4.580   4.209  0.2302  0.5609 -0.3846
 1679SOL    HW216500   1.242   4.527   4.273  0.5419  0.7253  0.2889
 1680SOL     OW16501   4.449   1.914  10.999 -0.0739 -0.5171 -0.0838
 1680SOL    HW116502   4.446   1.842  10.937 -1.0869  0.7754 -1.5390
 1680SOL    HW216503   4.544   1.917  11.011 -0.0905  1.1359 -0.3537
 1681SOL     OW16504   3.716   4.235   9.700  0.4403  0.4803  0.1502
 1681SOL    HW116505   3.669   4.238   9.784  1.0432  1.4387  0.4575
 1681SOL    HW216506   3.728   4.330   9.690  1.6542  0.0859 -2.0506
 1682SOL     OW16507   2.705   2.725   3.024  0.3796  0.5401 -0.2597
 1682SOL    HW116508   2.659   2.809   3.015 -2.3491 -1.0406 -1.0665
 1682SOL    HW216509   2.639   2.664   2.991 -1.1022  0.8301  2.0835
 1683SOL     OW16510   0.811   3.656   8.548 -0.0422 -0.1212  0.2895
 1683SOL    HW116511   0.812   3.708   8.629  1.8151  0.5163 -0.1396
 1683SOL    HW216512   0.891   3.603   8.549 -0.7953 -1.2195  2.5058
 1684SOL     OW16513   1.695   0.030  15.309 -0.3453 -0.4129 -0.2774
 1684SOL    HW116514   1.662   4.721  15.225 -2.8333  0.2310  0.4566
 1684SOL    HW216515   1.676   0.124  15.312  0.1743 -0.4210  3.1615
 1685SOL     OW16516   1.902   1.421  14.750 -0.1985  0.5171 -0.4670
 1685SOL    HW116517   1.957   1.395  14.824  1.6120  1.0855 -1.6369
 1685SOL    HW216518   1.853   1.340  14.735 -0.5062  0.4692  0.7663
 1686SOL     OW16519   0.575   0.827   0.234 -0.6283  0.0484  0.0115
 1686SOL    HW116520   0.601   0.896   0.295 -0.3048  0.2715 -0.3849
 1686SOL    HW216521   0.561   0.761   0.302  2.4893 -1.2060 -0.5691
 1687SOL     OW16522   3.125   3.774   6.277 -0.1772 -0.0061  0.2057
 1687SOL    HW116523   3.190   3.825   6.229  1.1236  0.1437  2.1273
 1687SOL    HW216524   3.108   3.829   6.353 -0.2080 -3.3711  2.6322
 1688SOL     OW16525   1.671   1.923   9.489 -0.4048 -0.6617  0.2934
 1688SOL    HW116526   1.720   1.873   9.424 -0.4023 -1.3659  0.8350
 1688SOL    HW216527   1.629   1.991   9.437 -1.3748 -1.4616  0.0314
 1689SOL     OW16528   3.516   2.679   3.067 -0.7643  0.2309 -0.1839
 1689SOL    HW116529   3.429   2.659   3.032 -1.2859 -1.5888  2.1736
 1689SOL    HW216530   3.558   2.736   3.003  0.1187  1.2301  1.2960
 1690SOL     OW16531   3.382   0.148   8.546  0.4114 -0.1000  0.0219
 1690SOL    HW116532   3.290   0.132   8.522 -0.0936  2.7189  0.1110
 1690SOL    HW216533   3.411   0.064   8.583 -0.1112  0.2884  1.3074
 1691SOL     OW16534   3.774   3.739   8.973  0.1617 -0.0374  0.4690
 1691SOL    HW116535   3.851   3.693   9.007  0.7511  1.4159  1.1145
 1691SOL    HW216536   3.709   3.685   9.016  0.4170 -1.8176 -1.3864
 1692SOL     OW16537   3.937   3.368   4.065 -0.1059 -0.2716  0.3331
 1692SOL    HW116538   3.880   3.330   3.998  1.8285  0.8994 -2.0078
 1692SOL    HW216539   3.916   3.317   4.143  1.1876  0.9610  1.4744
 1693SOL     OW16540   0.377   2.937   6.427  0.2498 -0.1262 -0.1934
 1693SOL    HW116541   0.470   2.912   6.421  0.3185 -0.0213  0.4372
 1693SOL    HW216542   0.345   2.889   6.351 -1.5362  0.4753  0.1938
 1694SOL     OW16543   0.353   2.075   5.917 -0.0213  0.5312  0.2143
 1694SOL    HW116544   0.358   2.163   5.955  2.4301  0.5988 -0.2633
 1694SOL    HW216545   0.445   2.050   5.918 -0.2267 -0.2856 -1.5483
 1695SOL     OW16546   3.560   0.324   5.446 -0.0165 -0.3786 -0.1070
 1695SOL    HW116547   3.488   0.265   5.422 -0.5614 -0.1136  0.9062
 1695SOL    HW216548   3.613   0.305   5.368  0.1410  2.4143 -0.6897
 1696SOL     OW16549   0.372   2.653   4.779 -0.4157 -0.1984 -0.0493
 1696SOL    HW116550   0.452   2.682   4.823 -1.1912  1.9125 -0.0337
 1696SOL    HW216551   0.383   2.685   4.689 -0.6384  2.5917  0.9115
 1697SOL     OW16552   0.099   0.833   8.428 -0.4380 -0.3030  0.5088
 1697SOL    HW116553   0.067   0.814   8.340  0.5156  1.3373 -0.2002
 1697SOL    HW216554   0.071   0.924   8.433  1.3291  0.0151  5.2416
 1698SOL     OW16555   3.043   3.656   1.557 -0.5045 -0.3301 -0.6250
 1698SOL    HW116556   2.974   3.719   1.577  1.3510  0.6780  2.6869
 1698SOL    HW216557   3.001   3.575   1.584 -2.4615  1.2045  0.8313
 1699SOL     OW16558   2.273   3.406   0.986 -0.2513 -0.5889  0.0824
 1699SOL    HW116559   2.220   3.340   0.942 -4.0908  1.5637  1.5547
 1699SOL    HW216560   2.355   3.365   1.015  0.2666  0.8746  0.6760
 1700SOL     OW16561   0.210   0.033   4.110  0.2795  0.2572  0.5268
 1700SOL    HW116562   0.291   0.055   4.063  1.5030  0.1800  2.5991
 1700SOL    HW216563   0.186   4.682   4.054 -1.5889 -0.8781  2.8295
 1701SOL     OW16564   2.701   3.860  16.892  0.5212  0.9525 -0.0258
 1701SOL    HW116565   2.670   3.781  16.937  0.9014  1.5853  1.3524
 1701SOL    HW216566   2.652   3.924  16.944  0.8644  0.8952  0.3710
 1702SOL     OW16567   1.998   0.387   5.393  0.0426  0.3645  0.7931
 1702SOL    HW116568   1.944   0.350   5.323  1.1094 -0.5916  0.4742
 1702SOL    HW216569   2.083   0.343   5.396 -0.6701 -1.1361 -1.0232
 1703SOL     OW16570   0.240   0.675  12.507 -0.0295 -0.3255  0.2819
 1703SOL    HW116571   0.169   0.623  12.544 -1.3990  2.5407  1.6376
 1703SOL    HW216572   0.306   0.669  12.576  0.7163  2.3694 -0.1865
 1704SOL     OW16573   4.398   4.450   6.906 -0.1507 -0.1379  0.2873
 1704SOL    HW116574   4.468   4.476   6.845 -0.2367 -0.9471 -0.1621
 1704SOL    HW216575   4.340   4.526   6.913 -1.5581 -1.2170  0.3074
 1705SOL     OW16576   3.185   2.082   5.915  0.1419 -0.0541 -0.1536
 1705SOL    HW116577   3.268   2.034   5.916  1.3799  2.0717 -1.5236
 1705SOL    HW216578   3.134   2.022   5.862 -0.8898 -0.3158  1.1251
 1706SOL     OW16579   4.627   0.494   2.645  0.1439  0.0983  0.0771
 1706SOL    HW116580   4.615   0.440   2.723  0.3796 -1.1484 -0.7566
 1706SOL    HW216581   4.722   0.482   2.634  0.1187 -2.8473  3.0696
 1707SOL     OW16582   4.562   4.007   2.965  0.5147  0.4480  0.0164
 1707SOL    HW116583   4.518   4.068   3.024 -3.0717 -1.6748 -0.3947
 1707SOL    HW216584   4.531   3.922   2.997  1.6162  0.2030  0.4078
 1708SOL     OW16585   0.256   3.601   9.080  0.5442  0.5882  0.3796
 1708SOL    HW116586   0.164   3.604   9.107  0.2316  2.5836 -0.8893
 1708SOL    HW216587   0.243   3.543   9.004  3.4811 -0.2288  0.4798
 1709SOL     OW16588   2.803   0.453   8.915  0.1449  0.1853 -0.1165
 1709SOL    HW116589   2.770   0.367   8.888 -1.2865  0.9048 -0.6743
 1709SOL    HW216590   2.794   0.449   9.010  2.6269 -0.2519  0.0961
 1710SOL     OW16591   1.205   2.750   1.664  0.3427 -0.1979 -0.6605
 1710SOL    HW116592   1.130   2.772   1.720  0.5920  0.4755 -0.5891
 1710SOL    HW216593   1.149   2.715   1.595  1.7723  0.0433 -1.9446
 1711SOL     OW16594   3.484   1.984   5.851 -0.0564  0.1643 -0.1497
 1711SOL    HW116595   3.524   2.065   5.819  0.0019  0.0547 -0.3575
 1711SOL    HW216596   3.520   1.986   5.940 -0.1340  0.2285 -0.1196
 1712SOL     OW16597   1.617   4.557   3.337  0.5185  0.2091  0.0931
 1712SOL    HW116598   1.601   4.622   3.269  0.7130  1.3772  1.1501
 1712SOL    HW216599   1.710   4.571   3.353  0.1026  1.4885  1.4023
 1713SOL     OW16600   1.500   1.541   3.000 -0.1655 -0.2761  0.7055
 1713SOL    HW116601   1.589   1.549   2.966 -0.4391 -4.4436 -0.8937
 1713SOL    HW216602   1.496   1.446   3.003 -0.8342 -0.2671  0.1652
 1714SOL     OW16603   4.476   1.878   4.312 -0.0331  0.3453  0.5163
 1714SOL    HW116604   4.543   1.858   4.378 -0.7628  1.6824  1.6730
 1714SOL    HW216605   4.438   1.793   4.291  3.0383 -0.5062 -1.5207
 1715SOL     OW16606   1.028   0.994   5.756  0.0092 -0.1751  0.6285
 1715SOL    HW116607   0.960   0.989   5.689  0.5053 -1.1988  0.2073
 1715SOL    HW216608   0.983   1.046   5.823 -1.2501  0.4668 -0.7241
 1716SOL     OW16609   2.369   4.150   2.280  0.1928  0.0853  0.4701
 1716SOL    HW116610   2.326   4.174   2.362 -0.6526  0.5167 -0.0911
 1716SOL    HW216611   2.445   4.107   2.317 -0.6000 -0.6680  1.2209
 1717SOL     OW16612   0.711   0.378   5.955  0.2829 -0.6719 -0.2801
 1717SOL    HW116613   0.684   0.442   5.888  0.4751  0.2661  0.5288
 1717SOL    HW216614   0.752   0.439   6.017 -0.7819  0.9038 -1.1134
 1718SOL     OW16615   4.151   1.257   8.243 -0.3150  0.2784  0.2775
 1718SOL    HW116616   4.065   1.267   8.282 -1.7538 -0.0815 -2.8058
 1718SOL    HW216617   4.203   1.333   8.268 -0.9168  1.5884 -2.4324
 1719SOL     OW16618   3.538   0.495   4.397  0.2606  0.1273 -0.4059
 1719SOL    HW116619   3.604   0.431   4.372 -1.0897 -1.5974  0.4264
 1719SOL    HW216620   3.463   0.436   4.401  0.6093 -0.1264  2.3533
 1720SOL     OW16621   0.386   1.382   2.993  0.1486  0.3497  0.3977
 1720SOL    HW116622   0.415   1.350   2.908 -1.3795  0.8320 -0.2889
 1720SOL    HW216623   0.433   1.465   3.005  2.8993 -1.2333  0.5266
 1721SOL     OW16624   3.959   2.648   7.299 -0.3191 -0.2193  0.5378
 1721SOL    HW116625   4.039   2.682   7.257  0.0317  0.9358  2.1346
 1721SOL    HW216626   3.967   2.678   7.390  1.4392  0.5401  0.1548
 1722SOL     OW16627   0.191   3.396   5.075  0.5548  0.3208 -0.0492
 1722SOL    HW116628   0.189   3.446   5.158  1.8663  0.9793 -0.4087
 1722SOL    HW216629   0.098   3.389   5.057  0.6115 -1.2667  0.2468
 1723SOL     OW16630   0.593   0.962   6.240  0.7632 -0.0120  0.1741
 1723SOL    HW116631   0.524   0.909   6.199 -0.4231  0.4769  1.5650
 1723SOL    HW216632   0.578   0.955   6.334  0.5127 -0.1942  0.1224
 1724SOL     OW16633   0.607   4.533  15.470 -0.0981 -0.2387 -0.3044
 1724SOL    HW116634   0.596   4.439  15.488 -0.8459 -0.3848 -1.5254
 1724SOL    HW216635   0.542   4.571  15.529 -1.1396  0.2343 -1.7440
 1725SOL     OW16636   3.959   4.149   8.751  0.1455  0.2665  0.5608
 1725SOL    HW116637   3.903   4.074   8.771  0.8645 -0.3858  0.1273
 1725SOL    HW216638   3.895   4.215   8.722  0.1044 -0.6252 -1.3742
 1726SOL     OW16639   1.659   2.659   4.496 -0.1008 -0.1691  0.4472
 1726SOL    HW116640   1.708   2.577   4.499  0.8403  0.3680 -0.4034
 1726SOL    HW216641   1.724   2.712   4.451  0.8628 -0.9764  0.8729
 1727SOL     OW16642   3.716   3.698   9.564  0.2291 -0.1454  0.6781
 1727SOL    HW116643   3.627   3.716   9.594  0.8703  1.8014  1.4274
 1727SOL    HW216644   3.705   3.623   9.506  0.8248 -0.1203  0.5315
 1728SOL     OW16645   0.562   1.014   7.173 -0.0272  0.1306 -0.0404
 1728SOL    HW116646   0.569   1.106   7.146  1.1871  0.2868  0.7988
 1728SOL    HW216647   0.654   0.990   7.166 -0.7024 -2.6471  0.7137
 1729SOL     OW16648   2.210   1.447   7.494 -0.3329  0.3449  0.1952
 1729SOL    HW116649   2.148   1.513   7.524 -0.1243  0.7582 -0.2821
 1729SOL    HW216650   2.274   1.439   7.565 -1.6389 -0.1839  1.3095
 1730SOL     OW16651   2.784   1.464   1.690  0.1527  0.3451 -0.0508
 1730SOL    HW116652   2.837   1.393   1.653 -1.1555 -1.0561  0.7449
 1730SOL    HW216653   2.840   1.538   1.666 -1.9893  1.4654 -1.5624
 1731SOL     OW16654   1.309   4.193   4.702 -0.2833 -0.0286 -0.5288
 1731SOL    HW116655   1.281   4.190   4.611 -0.3422  1.2078 -0.5528
 1731SOL    HW216656   1.276   4.108   4.732  2.3519 -1.1655 -0.8289
 1732SOL     OW16657   1.807   2.601   9.222  0.1079  0.7289 -0.0986
 1732SOL    HW116658   1.890   2.588   9.268  0.3599  1.3542 -0.3808
 1732SOL    HW216659   1.752   2.556   9.287 -2.5238  1.6708 -1.6596
 1733SOL     OW16660   4.495   4.222   9.469 -0.0173  0.2521  0.1086
 1733SOL    HW116661   4.456   4.141   9.500 -0.9454  0.1860 -1.2180
 1733SOL    HW216662   4.583   4.192   9.447 -0.7618 -1.4118 -0.5541
 1734SOL     OW16663   4.682   2.958  17.647  0.1247  0.6462  0.1019
 1734SOL    HW116664   4.672   2.929  17.556 -0.0813  1.1054 -0.0240
 1734SOL    HW216665   0.047   2.925  17.656 -0.6717 -0.2094  4.4073
 1735SOL     OW16666   3.719   2.329   6.757 -0.1214 -0.4867  0.3692
 1735SOL    HW116667   3.736   2.420   6.782  1.2260 -0.3442 -0.9976
 1735SOL    HW216668   3.668   2.339   6.676  0.6510 -0.9054 -0.1738
 1736SOL     OW16669   3.164   0.419   3.009 -0.0062  0.3632  0.5438
 1736SOL    HW116670   3.148   0.414   3.104 -3.2772 -0.0120 -0.0385
 1736SOL    HW216671   3.166   0.325   2.991  0.3340  0.4136  0.3275
 1737SOL     OW16672   4.211   2.761   7.341  0.2209 -0.5839  0.7367
 1737SOL    HW116673   4.225   2.835   7.400  2.0578 -0.1742 -0.2213
 1737SOL    HW216674   4.290   2.772   7.288 -0.9004  1.1672 -0.6032
 1738SOL     OW16675   2.084   1.599  11.586 -0.4905  0.1292 -0.0969
 1738SOL    HW116676   2.150   1.543  11.626 -0.4702 -0.7918 -1.4612
 1738SOL    HW216677   2.123   1.598  11.499  4.1087 -0.2457  1.9712
 1739SOL     OW16678   4.713   3.965   5.875 -0.3699  0.3141 -0.0776
 1739SOL    HW116679   4.662   4.026   5.928  1.5727 -0.1200  2.3210
 1739SOL    HW216680   0.068   3.936   5.921 -1.1893  1.0247  1.7831
 1740SOL     OW16681   1.219   2.687  16.078 -0.1549 -0.1928  0.0810
 1740SOL    HW116682   1.298   2.634  16.079  0.7034  1.0765 -0.6239
 1740SOL    HW216683   1.208   2.680  16.173 -0.0517  0.2044  0.1202
 1741SOL     OW16684   3.577   2.803  17.196  0.1210 -0.2592  0.6589
 1741SOL    HW116685   3.625   2.765  17.270 -0.1532 -1.3210  0.2899
 1741SOL    HW216686   3.653   2.850  17.161 -0.0034  0.5060  1.4008
 1742SOL     OW16687   4.716   1.023   4.320  0.1640  0.0908  0.2870
 1742SOL    HW116688   4.693   1.114   4.298  1.8260  0.6727  0.9705
 1742SOL    HW216689   4.703   0.990   4.231  0.0027  1.8390 -0.3372
 1743SOL     OW16690   3.675   1.940   4.960  0.5320 -0.1439 -0.0700
 1743SOL    HW116691   3.666   1.997   4.884  1.9478  0.2538  0.0510
 1743SOL    HW216692   3.705   2.003   5.026  1.0755 -0.8343  0.3484
 1744SOL     OW16693   0.398   2.673   6.897 -0.0260 -0.3607  0.1820
 1744SOL    HW116694   0.462   2.741   6.873 -0.8406  0.3909  0.1159
 1744SOL    HW216695   0.359   2.648   6.813 -0.2096  1.4990 -0.2951
 1745SOL     OW16696   1.073   3.097   7.511  0.5522 -0.0779 -0.3758
 1745SOL    HW116697   1.135   3.169   7.510 -0.5179  0.8133 -1.6758
 1745SOL    HW216698   1.128   3.019   7.511  1.0906  0.3076 -0.7760
 1746SOL     OW16699   3.932   4.427   8.160  0.7698  0.1870 -0.3370
 1746SOL    HW116700   3.850   4.422   8.112  0.4250 -1.5481  0.4142
 1746SOL    HW216701   3.984   4.401   8.084  0.5537  0.4267 -0.5666
 1747SOL     OW16702   0.918   2.296   8.320 -0.4496  0.0193  0.2272
 1747SOL    HW116703   0.871   2.213   8.315 -0.6481  0.1274  0.3087
 1747SOL    HW216704   0.974   2.279   8.245  0.2640  1.4511  0.4274
 1748SOL     OW16705   2.953   0.704   8.640 -0.1962 -0.3918 -0.1801
 1748SOL    HW116706   3.031   0.693   8.694  0.5853  2.5571 -0.7239
 1748SOL    HW216707   2.965   0.638   8.572 -2.6516  0.0433 -1.0631
 1749SOL     OW16708   1.417   4.023   8.142 -0.1078  0.0026 -0.4903
 1749SOL    HW116709   1.472   3.968   8.086  0.0144  0.5385 -0.8994
 1749SOL    HW216710   1.361   4.068   8.080 -0.2404  0.4693 -0.0287
 1750SOL     OW16711   3.636   4.435   0.316 -0.2414  0.7180 -0.3794
 1750SOL    HW116712   3.681   4.453   0.234  2.6646 -2.1665  0.5691
 1750SOL    HW216713   3.663   4.343   0.322 -1.2580  0.5408  1.4310
 1751SOL     OW16714   2.744   0.001   1.630  0.0843  0.1884  0.3539
 1751SOL    HW116715   2.821   4.688   1.673  0.1849  1.0402  0.9181
 1751SOL    HW216716   2.710   0.061   1.696 -1.4841 -0.0827 -0.2143
 1752SOL     OW16717   0.769   2.727   4.465 -0.4884 -0.2784 -0.5276
 1752SOL    HW116718   0.694   2.669   4.475 -0.8445  0.4566  1.0359
 1752SOL    HW216719   0.753   2.763   4.378  2.3129 -2.8912 -2.1245
 1753SOL     OW16720   4.684   2.362   2.839  1.0532 -0.2395 -0.0487
 1753SOL    HW116721   0.026   2.394   2.900  0.6918 -0.3691  0.4067
 1753SOL    HW216722   4.672   2.274   2.874 -0.0233 -0.3154 -0.5963
 1754SOL     OW16723   0.007   3.339  10.042  0.2729 -0.0225  0.1276
 1754SOL    HW116724   4.653   3.346   9.987  1.9898  0.6971 -2.1884
 1754SOL    HW216725   0.046   3.415  10.001  0.9304 -0.7078 -0.5182
 1755SOL     OW16726   4.225   4.099   2.443  0.3277  0.3875  0.0715
 1755SOL    HW116727   4.196   4.187   2.468 -2.4999 -0.4811 -0.1637
 1755SOL    HW216728   4.320   4.109   2.442  0.1859  1.5082 -1.3636
 1756SOL     OW16729   3.051   3.605   7.724 -0.0059 -0.1338  0.4937
 1756SOL    HW116730   3.046   3.568   7.812 -2.8207 -0.5047  0.1718
 1756SOL    HW216731   2.968   3.651   7.718  0.1686  0.1702  0.4318
 1757SOL     OW16732   2.097   1.481   8.551 -0.3279  0.9248  0.2052
 1757SOL    HW116733   2.096   1.572   8.521 -0.4778  0.6415 -0.6518
 1757SOL    HW216734   2.093   1.501   8.645 -0.9480 -2.1259  0.8511
 1758SOL     OW16735   0.736   3.326   4.021 -0.4739  0.1821 -0.0187
 1758SOL    HW116736   0.689   3.409   4.023 -1.7572 -0.5385  0.1754
 1758SOL    HW216737   0.819   3.355   3.983 -1.3729  1.1155 -1.2430
 1759SOL     OW16738   4.722   4.245  17.669 -0.0779 -0.6146 -0.3733
 1759SOL    HW116739   0.092   4.252  17.688 -0.0569  0.5518 -0.8908
 1759SOL    HW216740   4.683   4.268   0.057 -1.0013 -3.9458  0.1234
 1760SOL     OW16741   1.872   0.424   8.956 -0.2679 -0.2268  0.4889
 1760SOL    HW116742   1.851   0.510   8.920  1.1921 -0.1063 -0.0740
 1760SOL    HW216743   1.936   0.456   9.019 -0.7592 -1.6796  1.7234
 1761SOL     OW16744   4.553   1.698   9.489 -0.2318  0.1546  0.7305
 1761SOL    HW116745   4.475   1.650   9.461  1.6090 -1.8847 -0.8179
 1761SOL    HW216746   4.519   1.786   9.473 -1.8299 -0.7742 -0.9342
 1762SOL     OW16747   0.384   1.489   7.694  0.1931  0.5862  0.3578
 1762SOL    HW116748   0.456   1.429   7.673 -1.0787 -0.4224 -1.0963
 1762SOL    HW216749   0.364   1.455   7.781 -2.0204 -0.3026 -0.4808
 1763SOL     OW16750   1.089   0.914  14.213  0.3204  0.4343 -0.5494
 1763SOL    HW116751   1.169   0.925  14.264  0.1925  0.1441 -0.2882
 1763SOL    HW216752   1.048   0.996  14.242  0.5292  1.2549 -2.5728
 1764SOL     OW16753   1.793   2.306  17.679  0.2939 -0.1384 -0.9830
 1764SOL    HW116754   1.850   2.321   0.058  0.1280 -2.0471 -0.4756
 1764SOL    HW216755   1.807   2.213  17.661  1.0588  0.4391 -3.3965
 1765SOL     OW16756   2.833   2.626   7.422  0.0928  0.4103  0.2092
 1765SOL    HW116757   2.914   2.650   7.376 -0.0225  0.4673  0.0371
 1765SOL    HW216758   2.826   2.686   7.497 -0.0886 -0.2795  0.7452
 1766SOL     OW16759   2.570   3.096   6.852  0.1149 -0.1979 -0.1359
 1766SOL    HW116760   2.624   3.048   6.790 -0.4526  0.4245 -1.1202
 1766SOL    HW216761   2.616   3.180   6.844 -0.7709  0.1698 -1.5474
 1767SOL     OW16762   1.402   4.120   3.533 -0.1205  0.1952 -0.2716
 1767SOL    HW116763   1.322   4.087   3.492 -0.8762  1.6352  0.0342
 1767SOL    HW216764   1.367   4.200   3.573  0.2345  0.4835 -0.5333
 1768SOL     OW16765   3.522   2.483   3.318 -0.1977  0.1745 -0.2362
 1768SOL    HW116766   3.492   2.510   3.231  1.0765  2.7788  0.1126
 1768SOL    HW216767   3.613   2.455   3.305 -0.6621 -0.3177 -2.3418
 1769SOL     OW16768   2.848   3.725  15.813 -0.4287 -0.3556 -0.0786
 1769SOL    HW116769   2.804   3.642  15.833 -1.2452 -0.1318 -0.9775
 1769SOL    HW216770   2.802   3.789  15.868 -1.6114  0.2648 -1.8004
 1770SOL     OW16771   4.701   4.720   2.310 -0.6386 -0.3613 -0.8255
 1770SOL    HW116772   4.719   0.026   2.221  0.4247  1.6398  0.0575
 1770SOL    HW216773   4.616   4.679   2.293 -1.4133 -0.5975  3.6690
 1771SOL     OW16774   2.187   4.186  10.066  0.1681 -0.6742  0.1103
 1771SOL    HW116775   2.198   4.095  10.093  1.5846 -0.9434 -1.3943
 1771SOL    HW216776   2.272   4.222  10.089 -1.3724  1.7001  2.1224
 1772SOL     OW16777   4.306   3.995   9.450 -0.1256  0.5030  0.0808
 1772SOL    HW116778   4.324   3.942   9.527 -1.7596 -0.0640  0.0585
 1772SOL    HW216779   4.241   4.061   9.473 -0.3506  1.5164 -3.4159
 1773SOL     OW16780   4.102   1.463   8.064  0.0644  0.1076 -0.1970
 1773SOL    HW116781   4.083   1.463   8.157  1.7715  0.6318  0.1541
 1773SOL    HW216782   4.071   1.550   8.039 -1.6691 -0.5301 -0.2687
 1774SOL     OW16783   2.640   2.080   6.425  0.1009 -0.4442 -0.5410
 1774SOL    HW116784   2.731   2.106   6.437  0.8501 -1.0944 -4.6866
 1774SOL    HW216785   2.604   2.060   6.511  1.8351  0.6515  0.4303
 1775SOL     OW16786   2.948   3.594   0.712 -0.7410 -0.0511  0.5899
 1775SOL    HW116787   2.915   3.520   0.661 -2.9895  1.4743 -0.1968
 1775SOL    HW216788   3.039   3.566   0.712 -0.4238  0.9875 -0.2517
 1776SOL     OW16789   2.007   4.443   3.131  0.3646 -0.1238 -0.6774
 1776SOL    HW116790   1.992   4.537   3.138 -0.2195 -0.2284 -0.4793
 1776SOL    HW216791   1.958   4.413   3.208 -0.1148  0.1618 -0.8724
 1777SOL     OW16792   4.479   2.459   8.607  0.4254 -0.6951  0.2181
 1777SOL    HW116793   4.410   2.441   8.671 -0.4528 -0.4715 -0.6632
 1777SOL    HW216794   4.429   2.507   8.541 -1.0196 -0.4664  1.4767
 1778SOL     OW16795   0.396   4.215   5.918  0.0368 -0.5379 -0.1213
 1778SOL    HW116796   0.473   4.169   5.952 -0.4812 -0.0921  1.6678
 1778SOL    HW216797   0.427   4.305   5.910  0.7024 -0.8293 -0.7058
 1779SOL     OW16798   1.784   3.566  17.672 -0.4603  0.3279 -0.5334
 1779SOL    HW116799   1.730   3.487  17.674 -0.9659  0.7337  3.0557
 1779SOL    HW216800   1.872   3.528  17.667 -0.1517  0.8500  0.8553
 1780SOL     OW16801   4.461   0.652  12.307  0.3941  0.0679 -0.0082
 1780SOL    HW116802   4.555   0.666  12.319  0.5815  0.3987 -1.9194
 1780SOL    HW216803   4.449   0.560  12.332  1.0753  0.0315  0.1857
 1781SOL     OW16804   0.066   3.602  17.045 -0.0156 -0.3304  0.5532
 1781SOL    HW116805   0.107   3.515  17.043 -1.4013 -0.9999  1.4421
 1781SOL    HW216806   0.058   3.621  16.952 -2.4017  2.5135  1.3352
 1782SOL     OW16807   3.341   4.413   9.319 -0.9320 -0.7035 -0.3065
 1782SOL    HW116808   3.263   4.400   9.265 -1.0559  1.1264 -0.5721
 1782SOL    HW216809   3.360   4.507   9.321  2.4687 -1.3422 -2.5772
 1783SOL     OW16810   2.573   1.102  16.257 -0.3671  0.2761  0.3232
 1783SOL    HW116811   2.623   1.141  16.186 -0.6839  0.0458 -0.0224
 1783SOL    HW216812   2.562   1.011  16.233 -1.8557  0.2212  1.1903
 1784SOL     OW16813   0.027   0.344   5.168 -0.1612  0.7031 -0.0958
 1784SOL    HW116814   0.048   0.342   5.075  1.0350 -0.4826  0.1996
 1784SOL    HW216815   4.655   0.348   5.164 -0.2004 -1.0889 -1.2084
 1785SOL     OW16816   4.520   4.515  15.309 -0.4682 -0.1986 -0.1123
 1785SOL    HW116817   4.430   4.549  15.314 -0.8559 -1.3029  0.3294
 1785SOL    HW216818   4.562   4.562  15.236  1.2273  1.8666  2.2028
 1786SOL     OW16819   3.089   0.626   7.179  0.2171  0.2731  0.0951
 1786SOL    HW116820   3.095   0.722   7.172  1.1381  0.1580 -0.5245
 1786SOL    HW216821   3.175   0.609   7.142 -0.4920 -2.1118 -0.4559
 1787SOL     OW16822   3.179   4.491   4.238 -0.1603 -0.2885  0.4021
 1787SOL    HW116823   3.232   4.565   4.206  0.2030  0.6021  3.0739
 1787SOL    HW216824   3.146   4.517   4.324 -1.8124  1.1558 -0.6651
 1788SOL     OW16825   3.153   2.649   2.158  0.4546 -0.1842  0.0978
 1788SOL    HW116826   3.227   2.640   2.098  0.7694  2.4479  0.1186
 1788SOL    HW216827   3.095   2.702   2.104 -0.5709 -2.1876 -0.7989
 1789SOL     OW16828   0.668   0.997  17.516 -0.1142  0.3841  0.5864
 1789SOL    HW116829   0.632   1.019  17.602 -0.7488 -0.1808  0.4621
 1789SOL    HW216830   0.715   0.915  17.534 -2.6935 -1.1808  0.0973
 1790SOL     OW16831   2.996   3.622  14.644  0.0129  0.0934 -0.6999
 1790SOL    HW116832   2.975   3.551  14.583 -1.9902  0.7839 -0.7873
 1790SOL    HW216833   2.920   3.676  14.626  0.0137  0.5718  0.7529
 1791SOL     OW16834   2.876   0.557  14.046 -0.0959  0.4834 -0.4653
 1791SOL    HW116835   2.805   0.608  14.086  1.1356 -0.0622  2.3577
 1791SOL    HW216836   2.886   0.508  14.128 -0.5492 -1.2759 -1.4627
 1792SOL     OW16837   1.043   1.828   4.398 -0.2766  0.6128  0.5890
 1792SOL    HW116838   1.114   1.884   4.367 -1.1865  2.7271  2.3017
 1792SOL    HW216839   0.988   1.897   4.436  1.4234  3.3612 -1.9333
 1793SOL     OW16840   3.284   3.941   8.223 -0.0769  0.5639 -0.2716
 1793SOL    HW116841   3.290   3.852   8.256  2.8696  0.8700  0.0272
 1793SOL    HW216842   3.190   3.946   8.205 -0.0979  0.2448 -0.2450
 1794SOL     OW16843   1.589   1.352   0.910  0.2396  0.2005  0.3219
 1794SOL    HW116844   1.665   1.398   0.946  0.4907 -0.2819  0.4107
 1794SOL    HW216845   1.515   1.410   0.929 -0.6749 -0.6161 -0.7673
 1795SOL     OW16846   0.057   3.560   4.237 -0.2978  0.3805  0.0646
 1795SOL    HW116847   0.142   3.515   4.236 -0.5683 -0.1607  4.4036
 1795SOL    HW216848   0.037   3.566   4.143 -0.3654 -0.3606  0.0294
 1796SOL     OW16849   1.799   4.253   4.555  0.2408 -0.1062 -0.0174
 1796SOL    HW116850   1.818   4.214   4.640 -0.5933  2.6121  1.4101
 1796SOL    HW216851   1.813   4.185   4.490  0.2243 -1.2007  1.1364
 1797SOL     OW16852   2.975   1.401  14.558  0.1650  0.4292  0.7179
 1797SOL    HW116853   3.010   1.335  14.618  1.0570 -1.4334 -1.8192
 1797SOL    HW216854   2.902   1.347  14.528  0.8742  0.1383 -0.4937
 1798SOL     OW16855   3.772   4.383   0.755  0.0736  0.5399  0.7637
 1798SOL    HW116856   3.812   4.325   0.691 -0.2395  0.8523  0.2831
 1798SOL    HW216857   3.787   4.469   0.715 -0.7193  0.0033 -0.6490
 1799SOL     OW16858   2.837   3.371   4.292  0.4160  0.0487 -0.6009
 1799SOL    HW116859   2.926   3.355   4.262 -0.0180 -3.2277 -0.1152
 1799SOL    HW216860   2.785   3.389   4.213  0.6054  0.6001 -0.6036
 1800SOL     OW16861   3.275   1.791   6.887 -0.0952 -0.7210  0.3307
 1800SOL    HW116862   3.219   1.763   6.814  1.2745 -2.0762 -0.1907
 1800SOL    HW216863   3.331   1.847   6.833 -4.2727  1.5366 -1.7091
 1801SOL     OW16864   3.409   4.421  14.716 -0.6985  0.1883  0.0155
 1801SOL    HW116865   3.320   4.398  14.687 -0.3573 -1.6707  0.4585
 1801SOL    HW216866   3.465   4.400  14.642 -0.3387  1.1859 -0.0006
 1802SOL     OW16867   3.604   3.757   1.461  0.2026  0.1275  0.8091
 1802SOL    HW116868   3.516   3.720   1.450 -0.2047  0.7591  2.0326
 1802SOL    HW216869   3.651   3.686   1.417  1.8753 -0.0098  2.8528
 1803SOL     OW16870   1.663   3.676   7.182 -0.2297  0.2219  0.5489
 1803SOL    HW116871   1.616   3.615   7.125 -2.2359  0.3419  2.0624
 1803SOL    HW216872   1.600   3.748   7.188  0.9824  1.4132 -0.9993
 1804SOL     OW16873   2.587   3.674   5.130  0.3092  0.1350  0.6214
 1804SOL    HW116874   2.603   3.595   5.077  0.2257 -0.3507  1.3142
 1804SOL    HW216875   2.608   3.639   5.216  0.2628  0.6746  0.8477
 1805SOL     OW16876   4.101   0.673  12.903 -0.1280  0.1595  0.7848
 1805SOL    HW116877   4.125   0.603  12.965 -1.2814 -1.3740 -0.4942
 1805SOL    HW216878   4.154   0.746  12.934  0.3573  0.5297 -0.9303
 1806SOL     OW16879   3.349   0.550   0.618  0.0799  0.3066 -0.1613
 1806SOL    HW116880   3.306   0.480   0.668  2.4957 -0.9012  0.2054
 1806SOL    HW216881   3.367   0.612   0.688 -0.9589 -1.9443  2.1028
 1807SOL     OW16882   0.703   4.263   1.621  0.1397 -0.3230 -0.0665
 1807SOL    HW116883   0.633   4.294   1.678  0.1435  0.6602 -0.5950
 1807SOL    HW216884   0.672   4.174   1.606  1.0349 -0.7334  0.4909
 1808SOL     OW16885   4.036   2.229   5.340  0.0384 -0.0860  0.4351
 1808SOL    HW116886   4.094   2.283   5.394 -0.8260  1.6070 -0.3178
 1808SOL    HW216887   3.992   2.293   5.284  1.6001  0.0449 -0.6222
 1809SOL     OW16888   2.014   1.084   8.777  0.3438  0.2335  0.2708
 1809SOL    HW116889   2.034   1.081   8.683  0.3436 -0.8262  0.3026
 1809SOL    HW216890   2.095   1.117   8.815 -0.1242  0.0101  1.4673
 1810SOL     OW16891   0.669   4.375   9.083 -0.2037  0.0540 -0.2719
 1810SOL    HW116892   0.672   4.375   9.178  0.2721 -0.0673 -0.2874
 1810SOL    HW216893   0.611   4.447   9.058 -1.5499 -0.3060  1.8124
 1811SOL     OW16894   3.013   1.424  11.566 -0.2762  0.3857  0.7163
 1811SOL    HW116895   2.923   1.456  11.577 -0.6352 -0.4733  0.2798
 1811SOL    HW216896   3.036   1.384  11.649 -0.1631 -0.4807  0.2664
 1812SOL     OW16897   2.997   0.942   4.928  0.3713 -0.3252  0.7368
 1812SOL    HW116898   2.991   0.902   4.841 -0.8246  1.3166  0.0742
 1812SOL    HW216899   3.090   0.959   4.936  0.6800 -1.2098 -0.8936
 1813SOL     OW16900   2.858   2.701  17.224  0.1989 -0.3186 -0.2564
 1813SOL    HW116901   2.840   2.608  17.237 -1.1339 -0.1825 -1.1468
 1813SOL    HW216902   2.953   2.692  17.226  0.2305  0.5297  1.7879
 1814SOL     OW16903   4.214   3.816   1.908 -0.0851  0.4433 -0.5172
 1814SOL    HW116904   4.126   3.824   1.870 -0.3261  0.0069 -0.0388
 1814SOL    HW216905   4.262   3.805   1.825  0.0645 -2.3128 -0.0619
 1815SOL     OW16906   0.586   0.762   2.072 -0.1590 -0.0461  0.4141
 1815SOL    HW116907   0.536   0.689   2.108  0.7557 -0.2666  1.2159
 1815SOL    HW216908   0.546   0.768   1.985 -0.9447  3.4824  1.0374
 1816SOL     OW16909   0.381   3.326   7.671  0.5405  0.4138  0.4418
 1816SOL    HW116910   0.468   3.309   7.634 -0.0131  1.7705 -1.5164
 1816SOL    HW216911   0.319   3.306   7.601  2.1942 -0.2596 -0.8364
 1817SOL     OW16912   1.936   3.597   4.207  0.3395 -0.3341 -0.2663
 1817SOL    HW116913   1.874   3.551   4.264 -1.7081  0.8433 -1.5526
 1817SOL    HW216914   1.877   3.621   4.135 -0.4639 -0.2466  0.4273
 1818SOL     OW16915   0.986   2.231   2.334  0.3587  0.3021 -0.1046
 1818SOL    HW116916   0.958   2.159   2.391 -1.4847  2.1122  1.2898
 1818SOL    HW216917   1.015   2.295   2.399 -4.3168 -0.5593  2.8134
 1819SOL     OW16918   1.649   1.346  11.101  0.1342  0.3773 -0.5757
 1819SOL    HW116919   1.706   1.423  11.103  1.3714 -0.5892  1.3754
 1819SOL    HW216920   1.619   1.345  11.010 -1.5947  1.5406 -0.0337
 1820SOL     OW16921   4.556   1.637   8.310  0.2649 -0.6858  0.0310
 1820SOL    HW116922   4.495   1.668   8.377 -0.9377 -2.0618 -0.4191
 1820SOL    HW216923   4.515   1.562   8.266  1.3964 -0.7181 -0.9818
 1821SOL     OW16924   4.374   0.563   7.009 -0.0109 -0.1932 -0.2960
 1821SOL    HW116925   4.442   0.516   6.961  0.2829  0.3055 -0.3693
 1821SOL    HW216926   4.413   0.594   7.090  1.0125 -0.5258 -0.6637
 1822SOL     OW16927   1.853   2.057  15.161  0.2680  0.1763 -0.8263
 1822SOL    HW116928   1.942   2.046  15.194  0.2379  2.6635  0.0936
 1822SOL    HW216929   1.851   1.989  15.094  1.9936  0.3899 -1.0731
 1823SOL     OW16930   3.117   4.081  13.297 -0.2786  0.0858 -0.2717
 1823SOL    HW116931   3.113   4.042  13.384 -0.5984  0.8301  0.0476
 1823SOL    HW216932   3.209   4.107  13.293 -0.3266  0.3593  0.4236
 1824SOL     OW16933   4.602   1.931   6.257  0.6286  0.1498  0.5144
 1824SOL    HW116934   4.637   1.842   6.268 -1.3250 -0.3046  3.3835
 1824SOL    HW216935   4.620   1.949   6.165  3.4369 -2.1630  0.6161
 1825SOL     OW16936   2.966   3.246  16.117  0.4441  0.0933  0.1070
 1825SOL    HW116937   3.048   3.285  16.147  0.2683  0.8923 -0.4739
 1825SOL    HW216938   2.985   3.225  16.026 -0.3758 -1.1601  0.2198
 1826SOL     OW16939   0.460   2.093   6.222 -0.3273  0.0407  0.0493
 1826SOL    HW116940   0.553   2.103   6.199 -0.8837 -0.5730 -2.4537
 1826SOL    HW216941   0.414   2.171   6.191 -0.6245 -0.4873 -0.8370
 1827SOL     OW16942   1.419   0.236   6.996  0.2571  0.1680 -0.1633
 1827SOL    HW116943   1.506   0.269   7.019  0.4384 -1.1960  1.1351
 1827SOL    HW216944   1.413   0.149   7.035 -1.7367  0.3847 -0.0059
 1828SOL     OW16945   1.127   0.136   8.781  0.4374 -0.0427  0.1014
 1828SOL    HW116946   1.061   0.204   8.787  0.6160 -0.0549  2.1284
 1828SOL    HW216947   1.149   0.139   8.688 -0.0159  1.7776  0.0523
 1829SOL     OW16948   3.873   4.464   6.747  0.2202 -0.6616 -0.3240
 1829SOL    HW116949   3.787   4.504   6.755  0.2729 -0.7898  0.8835
 1829SOL    HW216950   3.917   4.478   6.831 -0.4667  0.6895 -0.2085
 1830SOL     OW16951   2.268   3.423  17.478  0.2849 -0.3177 -0.1205
 1830SOL    HW116952   2.342   3.362  17.478  0.4893 -0.0731 -0.9304
 1830SOL    HW216953   2.297   3.491  17.538  2.3034 -0.6965 -0.6711
 1831SOL     OW16954   3.723   2.543   6.407  0.5778  0.1163  0.2788
 1831SOL    HW116955   3.689   2.623   6.447 -0.5826 -0.7588  1.0399
 1831SOL    HW216956   3.663   2.475   6.438  0.6519 -0.3470 -0.5746
 1832SOL     OW16957   3.214   3.171  15.417 -0.4004  0.3828 -0.3401
 1832SOL    HW116958   3.244   3.122  15.341 -4.1817  0.0628 -1.6422
 1832SOL    HW216959   3.160   3.238  15.375 -2.5084 -3.3486 -3.4961
 1833SOL     OW16960   1.502   1.057   3.289 -0.0940  0.1096 -0.0453
 1833SOL    HW116961   1.565   1.019   3.227 -0.9259  1.3490 -1.6362
 1833SOL    HW216962   1.420   1.042   3.243  0.7353 -0.4388 -1.3451
 1834SOL     OW16963   2.391   0.558  17.108 -0.1380  0.1477 -0.3103
 1834SOL    HW116964   2.415   0.497  17.178  0.2595  0.1352 -0.4597
 1834SOL    HW216965   2.474   0.593  17.078 -0.3348  0.1427 -0.8638
 1835SOL     OW16966   3.583   0.210   1.397  0.5738 -0.9540 -0.1485
 1835SOL    HW116967   3.621   0.296   1.415  0.4562 -0.5990 -1.6549
 1835SOL    HW216968   3.491   0.235   1.394  0.9539  0.4388 -0.0959
 1836SOL     OW16969   1.832   2.573   7.304 -0.2963 -0.3622  0.1422
 1836SOL    HW116970   1.894   2.641   7.332 -0.5848 -0.6039  1.3677
 1836SOL    HW216971   1.754   2.619   7.336 -0.4052  0.5796 -1.4790
 1837SOL     OW16972   4.036   0.644  13.486  0.0107  0.2859  0.1188
 1837SOL    HW116973   3.970   0.601  13.430  0.8991 -0.5328 -0.3042
 1837SOL    HW216974   4.083   0.692  13.418 -0.4780  1.3467  0.5303
 1838SOL     OW16975   0.858   1.645   3.918 -0.2139  0.2164  0.0775
 1838SOL    HW116976   0.787   1.703   3.946  0.2426  0.3327  1.0247
 1838SOL    HW216977   0.929   1.691   3.963  0.4971 -0.7610 -0.0483
 1839SOL     OW16978   0.527   3.462   8.751 -0.3763 -0.0121 -0.3691
 1839SOL    HW116979   0.488   3.543   8.720 -1.4423  0.6434  2.7325
 1839SOL    HW216980   0.448   3.408   8.754  1.6058 -2.6951  3.2409
 1840SOL     OW16981   0.603   3.561   7.514 -0.0102 -0.1737 -0.0776
 1840SOL    HW116982   0.574   3.653   7.514  0.8625  0.0900  2.4666
 1840SOL    HW216983   0.535   3.522   7.460 -0.9772  1.9896 -0.4210
 1841SOL     OW16984   3.549   0.717   5.424  0.0815 -0.2400 -0.2482
 1841SOL    HW116985   3.489   0.643   5.420  0.2620 -0.2128 -3.1726
 1841SOL    HW216986   3.560   0.734   5.518  1.2113 -1.4196 -0.1707
 1842SOL     OW16987   0.171   1.623  13.472 -0.2024 -0.1853  0.1706
 1842SOL    HW116988   0.169   1.537  13.513  1.7721  0.8217  2.4346
 1842SOL    HW216989   0.128   1.672  13.543  0.5052  1.7601 -0.7485
 1843SOL     OW16990   0.644   2.338   7.068 -0.4352  0.0976 -0.0560
 1843SOL    HW116991   0.630   2.246   7.046 -0.0770  0.5897 -2.2688
 1843SOL    HW216992   0.723   2.353   7.015 -0.5752 -2.3718 -0.9616
 1844SOL     OW16993   4.611   0.985   7.185 -0.1936  0.3869 -0.0809
 1844SOL    HW116994   4.674   1.056   7.178  2.3923 -2.0155 -1.3486
 1844SOL    HW216995   4.655   0.942   7.258 -0.3702  1.0487  0.4088
 1845SOL     OW16996   2.689   4.544   2.917 -0.1269  0.2311  0.1962
 1845SOL    HW116997   2.656   4.480   2.980  0.3954 -0.2892 -0.0569
 1845SOL    HW216998   2.715   4.612   2.980  1.1474  0.6569 -0.7814
 1846SOL     OW16999   0.262   1.927   0.815  0.4973  0.4020 -0.1810
 1846SOL    HW117000   0.314   1.984   0.759  0.0659  1.8753  0.9228
 1846SOL    HW217001   0.327   1.919   0.886 -0.9740 -3.7415  0.7128
 1847SOL     OW17002   1.825   3.845   9.260 -0.2464  0.4669  0.2506
 1847SOL    HW117003   1.733   3.852   9.285 -0.6488  0.0297 -1.0956
 1847SOL    HW217004   1.879   3.846   9.340 -1.4110  0.0375  1.0371
 1848SOL     OW17005   1.663   2.644   8.547  0.1208  0.3550 -0.4071
 1848SOL    HW117006   1.598   2.714   8.540 -0.3551 -0.0163  0.3125
 1848SOL    HW217007   1.693   2.649   8.638  0.2158  2.2690 -0.5553
 1849SOL     OW17008   0.684   1.986   7.554 -0.0870  0.0489 -0.3632
 1849SOL    HW117009   0.770   1.951   7.532 -0.3051 -1.0621  0.5483
 1849SOL    HW217010   0.653   1.909   7.601  0.6323 -0.7107 -1.1456
 1850SOL     OW17011   1.474   2.555   5.217  0.3005 -0.4513 -0.1421
 1850SOL    HW117012   1.416   2.620   5.177  1.1762  1.2637  1.3801
 1850SOL    HW217013   1.451   2.568   5.309  0.1454  0.3242 -0.2959
 1851SOL     OW17014   2.241   2.930   6.461 -0.4201 -0.6628  0.3520
 1851SOL    HW117015   2.331   2.899   6.453  0.4909  2.1245  0.0708
 1851SOL    HW217016   2.239   2.980   6.543  0.4683 -0.3348  0.1686
 1852SOL     OW17017   1.081   0.258   6.484 -0.2213  0.1740  0.4713
 1852SOL    HW117018   1.168   0.220   6.495 -0.4336 -0.8723 -1.4406
 1852SOL    HW217019   1.029   0.179   6.471 -3.8937  2.4659  1.2467
 1853SOL     OW17020   3.065   0.323   5.277 -0.8188  0.2325 -0.0942
 1853SOL    HW117021   3.037   0.238   5.242 -0.6384  0.7715 -1.5424
 1853SOL    HW217022   3.094   0.296   5.364  0.9952  2.3864 -0.0268
 1854SOL     OW17023   2.010   0.476   9.478  0.1430  0.0135  0.9873
 1854SOL    HW117024   2.045   0.447   9.563  1.6510 -1.1871 -0.0373
 1854SOL    HW217025   1.948   0.542   9.510 -0.2187  0.4044 -0.5446
 1855SOL     OW17026   1.085   0.599  13.776 -0.2098 -0.6598 -0.2181
 1855SOL    HW117027   1.049   0.678  13.817  1.9372  0.5185 -0.5826
 1855SOL    HW217028   1.121   0.641  13.697  0.5250 -0.5218  0.1916
 1856SOL     OW17029   3.348   0.993   8.115 -0.2663  0.5064  0.8542
 1856SOL    HW117030   3.309   1.066   8.068 -2.7647 -0.7576  0.9515
 1856SOL    HW217031   3.290   0.982   8.190  0.3006 -1.7860  0.9740
 1857SOL     OW17032   3.401   0.586   2.999  0.5015  0.2039  0.6169
 1857SOL    HW117033   3.434   0.594   3.088  0.2805 -0.2109  0.7391
 1857SOL    HW217034   3.327   0.526   3.012  0.9165 -0.3691  0.3274
 1858SOL     OW17035   0.111   2.178   3.926  0.2348 -0.3991  0.2598
 1858SOL    HW117036   0.028   2.214   3.895 -0.6558 -0.7942  2.1818
 1858SOL    HW217037   0.172   2.234   3.878  0.1836 -3.0047 -2.8275
 1859SOL     OW17038   3.879   3.153  11.108 -0.2543  0.8257 -0.1079
 1859SOL    HW117039   3.824   3.222  11.145 -1.0161  0.9547 -1.4899
 1859SOL    HW217040   3.958   3.206  11.098  0.0720  0.4469  0.4321
 1860SOL     OW17041   4.324   1.593   2.050 -0.2420  0.0215  0.7284
 1860SOL    HW117042   4.373   1.538   2.112 -0.2711  0.1927  0.9057
 1860SOL    HW217043   4.238   1.574   2.086 -1.3864  0.4453 -1.8264
 1861SOL     OW17044   3.767   0.203  17.058 -0.1107 -0.2214 -0.4413
 1861SOL    HW117045   3.719   0.283  17.080  0.0557 -0.4847  0.9126
 1861SOL    HW217046   3.697   0.139  17.073  0.1137 -0.6358 -1.1916
 1862SOL     OW17047   1.618   0.432  16.745  0.1102  0.1948 -0.1962
 1862SOL    HW117048   1.617   0.450  16.651  0.0064 -1.3245 -0.4818
 1862SOL    HW217049   1.686   0.497  16.761  0.1475  0.0076  0.4031
 1863SOL     OW17050   1.024   2.096   6.673  0.2466 -0.6810  0.2651
 1863SOL    HW117051   1.055   2.186   6.672 -0.0388 -0.5626  2.9652
 1863SOL    HW217052   1.090   2.056   6.729  1.2209  0.3444 -0.1560
 1864SOL     OW17053   3.434   0.726  10.066  0.8116 -0.2293  0.1696
 1864SOL    HW117054   3.392   0.688   9.989  0.3730 -0.0896  0.3451
 1864SOL    HW217055   3.470   0.809  10.033 -1.0248  0.7502  0.6344
 1865SOL     OW17056   1.230   0.242  13.144 -0.1575  0.5081  0.9405
 1865SOL    HW117057   1.183   0.183  13.203 -0.6514 -0.3723 -0.3449
 1865SOL    HW217058   1.176   0.321  13.141 -0.9943 -0.0984 -0.1085
 1866SOL     OW17059   2.290   2.692   8.459  0.3030  0.0640  0.0470
 1866SOL    HW117060   2.380   2.722   8.459  0.1772  0.4267 -3.4207
 1866SOL    HW217061   2.286   2.628   8.530  0.4119  0.5282  0.4655
 1867SOL     OW17062   2.035   1.022   1.840 -0.5004  0.5864  0.8420
 1867SOL    HW117063   2.072   1.036   1.927  0.8064 -1.4544  0.6027
 1867SOL    HW217064   2.114   1.038   1.789 -1.6246 -2.9500 -1.9746
 1868SOL     OW17065   0.626   0.117   5.991  0.5002  0.0647 -0.4318
 1868SOL    HW117066   0.660   0.205   5.977  1.5936 -0.2031  0.5325
 1868SOL    HW217067   0.534   0.131   5.972 -0.2789 -0.9179  2.5542
 1869SOL     OW17068   3.134   3.961  12.827 -0.6518 -0.8483 -0.6292
 1869SOL    HW117069   3.042   3.980  12.846 -0.2680  1.2906 -0.8628
 1869SOL    HW217070   3.162   3.919  12.908 -0.1212 -2.8498 -1.8368
 1870SOL     OW17071   2.530   4.034   3.858 -0.2928 -0.1505 -0.1431
 1870SOL    HW117072   2.621   4.026   3.829 -0.2544  0.4343 -0.1843
 1870SOL    HW217073   2.534   3.992   3.944 -0.3473  0.4792  0.1657
 1871SOL     OW17074   4.363   1.933   2.581 -0.1167  0.6928  0.0878
 1871SOL    HW117075   4.355   1.947   2.676  2.7499 -1.2501  0.6151
 1871SOL    HW217076   4.432   1.866   2.579  0.0277  0.7145  3.6286
 1872SOL     OW17077   1.105   3.559   4.396 -0.1545 -0.4018 -0.6513
 1872SOL    HW117078   1.106   3.490   4.462 -3.4147 -2.0968 -2.3547
 1872SOL    HW217079   1.058   3.517   4.324  1.0430  1.0409 -2.2787
 1873SOL     OW17080   3.770   0.635  15.419  0.3759  0.0607  0.3243
 1873SOL    HW117081   3.697   0.687  15.384 -0.2940 -1.2157 -0.1630
 1873SOL    HW217082   3.746   0.646  15.511  1.0082  1.6483  0.3077
 1874SOL     OW17083   3.348   2.339   2.934  0.1579 -0.2968  0.0011
 1874SOL    HW117084   3.351   2.290   2.852  0.5860 -0.9106  0.3861
 1874SOL    HW217085   3.397   2.278   2.989  0.3439  0.3714  0.5755
 1875SOL     OW17086   0.337   2.458   8.716 -0.3902 -0.5356  0.0620
 1875SOL    HW117087   0.247   2.484   8.736 -0.2964 -0.5530  0.5052
 1875SOL    HW217088   0.332   2.490   8.626  0.6783  1.2914  0.6507
 1876SOL     OW17089   4.152   0.515  14.211 -0.4903  0.1430  0.3908
 1876SOL    HW117090   4.229   0.521  14.268 -0.5517  1.1787  0.3686
 1876SOL    HW217091   4.199   0.499  14.128  2.3332  2.3717  1.5678
 1877SOL     OW17092   2.173   4.589   7.788  0.5889  1.0798  0.6242
 1877SOL    HW117093   2.090   4.637   7.787 -1.1256 -1.8241  0.4000
 1877SOL    HW217094   2.168   4.562   7.696  0.5048  0.0491  0.9235
 1878SOL     OW17095   1.231   2.744   3.489  0.0123  0.0569 -0.0824
 1878SOL    HW117096   1.250   2.782   3.403  1.9357  0.3369  0.4628
 1878SOL    HW217097   1.301   2.775   3.546  0.6171 -2.7754  0.7046
 1879SOL     OW17098   2.621   3.403   4.714  0.0781  0.4144 -0.1622
 1879SOL    HW117099   2.652   3.320   4.679 -0.1454  0.9077 -1.5202
 1879SOL    HW217100   2.690   3.458   4.677  0.1990  0.5201  0.2193
 1880SOL     OW17101   2.524   3.716  10.913  0.0360 -0.6103  0.2128
 1880SOL    HW117102   2.469   3.788  10.882  1.7216  0.5968 -0.0109
 1880SOL    HW217103   2.464   3.642  10.922 -1.2396  0.8175  3.1325
 1881SOL     OW17104   2.741   1.997  15.160  0.3186 -0.2904  0.2108
 1881SOL    HW117105   2.714   2.070  15.105 -0.0363 -0.1923  0.5212
 1881SOL    HW217106   2.828   2.027  15.186 -0.1921  0.8085  0.6573
 1882SOL     OW17107   1.547   3.941   7.243 -0.0519 -0.0079 -0.0084
 1882SOL    HW117108   1.491   3.923   7.319  2.6714 -0.4358  1.8899
 1882SOL    HW217109   1.622   3.984   7.285  1.3859 -2.2882 -0.2248
 1883SOL     OW17110   2.280   3.576  16.047 -0.0877 -0.0285  0.3299
 1883SOL    HW117111   2.358   3.609  16.092 -1.4995 -0.2134  2.9018
 1883SOL    HW217112   2.216   3.643  16.072  0.9929  1.3627 -0.6432
 1884SOL     OW17113   4.241   1.373  12.493  0.5876 -0.0517 -0.3321
 1884SOL    HW117114   4.315   1.433  12.481 -0.8766  1.0041 -3.9533
 1884SOL    HW217115   4.240   1.349  12.586 -0.5356  2.7574  0.3804
 1885SOL     OW17116   3.724   1.420   2.501 -0.0475  0.7549  0.4101
 1885SOL    HW117117   3.692   1.372   2.577 -0.3188 -0.5316 -0.5299
 1885SOL    HW217118   3.670   1.386   2.430  0.6701 -3.1656  1.7806
 1886SOL     OW17119   3.121   0.661   3.709 -0.1541 -0.5805  0.3719
 1886SOL    HW117120   3.161   0.639   3.625 -1.6409  1.5974 -0.9236
 1886SOL    HW217121   3.044   0.606   3.694 -0.4530  0.0059 -0.2341
 1887SOL     OW17122   0.173   1.965  16.523 -0.1613  0.1684 -0.2306
 1887SOL    HW117123   0.096   1.959  16.579  0.0088  0.7335  0.0655
 1887SOL    HW217124   0.223   1.889  16.553 -0.8665 -0.3298 -0.3124
 1888SOL     OW17125   1.089   1.540   1.416 -0.1988 -0.1310 -0.4120
 1888SOL    HW117126   1.143   1.611   1.449  0.5410 -0.2864 -1.3100
 1888SOL    HW217127   1.028   1.588   1.360 -1.6629  0.3440  1.5899
 1889SOL     OW17128   1.479   2.315   5.692 -0.0560 -0.3772 -0.1856
 1889SOL    HW117129   1.521   2.295   5.608 -1.2309 -1.9838 -0.3933
 1889SOL    HW217130   1.397   2.267   5.684  0.6721 -1.9298  1.6746
 1890SOL     OW17131   4.663   3.477  10.329  0.2721 -0.1505 -0.4404
 1890SOL    HW117132   4.666   3.529  10.249  0.7077 -1.7020 -1.4315
 1890SOL    HW217133   4.590   3.421  10.305  1.0204 -1.8901  1.3964
 1891SOL     OW17134   3.879   2.366   6.260  0.4968 -0.6356 -0.1184
 1891SOL    HW117135   3.833   2.420   6.324 -0.6128 -0.1195 -1.3442
 1891SOL    HW217136   3.910   2.296   6.317  1.3092 -2.0724 -2.3350
 1892SOL     OW17137   2.993   2.181   3.215  0.4416 -0.4553  0.0099
 1892SOL    HW117138   2.979   2.087   3.211  2.3283 -0.8482  2.2779
 1892SOL    HW217139   2.960   2.210   3.130 -0.7711 -0.2038  0.5764
 1893SOL     OW17140   0.775   2.803   5.139  0.2105  0.9227  1.0011
 1893SOL    HW117141   0.751   2.757   5.220  2.4166 -0.0339  1.1162
 1893SOL    HW217142   0.870   2.804   5.138  0.1881  0.0276 -1.3898
 1894SOL     OW17143   3.569   0.883   7.208 -0.2420  0.2585 -0.0698
 1894SOL    HW117144   3.505   0.905   7.276  1.4588  2.1394  0.8915
 1894SOL    HW217145   3.614   0.967   7.201  0.9018 -0.4258 -0.9521
 1895SOL     OW17146   1.632   1.297  13.208 -0.2961 -0.8467 -0.0230
 1895SOL    HW117147   1.571   1.226  13.189 -2.5196  0.5304  2.0376
 1895SOL    HW217148   1.566   1.363  13.225  1.2420  0.2368  1.7341
 1896SOL     OW17149   3.501   1.121   8.537  0.3832  0.3989 -0.2196
 1896SOL    HW117150   3.496   1.185   8.466 -0.5563 -0.1264 -0.6327
 1896SOL    HW217151   3.422   1.141   8.588  0.1010 -1.8377  0.2362
 1897SOL     OW17152   4.052   0.430   2.523  0.3225  0.1682 -0.3527
 1897SOL    HW117153   4.042   0.408   2.616  0.7201 -1.7604 -0.7600
 1897SOL    HW217154   3.979   0.487   2.502 -0.3455 -1.1270 -1.4826
 1898SOL     OW17155   3.768   2.882   9.859  0.0581  0.2452  0.2387
 1898SOL    HW117156   3.792   2.795   9.892 -0.8247 -0.5871 -1.2881
 1898SOL    HW217157   3.680   2.893   9.895  1.0352  2.1611  1.9808
 1899SOL     OW17158   3.185   3.005   5.636 -0.0208  0.4876 -0.2986
 1899SOL    HW117159   3.218   2.918   5.658 -3.5541 -0.8388 -0.1495
 1899SOL    HW217160   3.246   3.028   5.566 -0.2124  1.1664 -0.2381
 1900SOL     OW17161   2.859   3.114   4.195 -0.6512  0.3294 -0.9040
 1900SOL    HW117162   2.785   3.157   4.238 -1.1922  0.0324 -1.5299
 1900SOL    HW217163   2.887   3.184   4.136 -1.5549  1.3466 -0.1406
 1901SOL     OW17164   3.372   2.971  17.306 -0.0370 -0.0001 -0.0777
 1901SOL    HW117165   3.398   2.897  17.252  0.9309  1.0610 -1.0644
 1901SOL    HW217166   3.295   3.008  17.263  0.5913  1.4607  0.0438
 1902SOL     OW17167   4.211   0.440   7.387  0.1380  0.4163 -0.0594
 1902SOL    HW117168   4.305   0.422   7.395  0.1993  0.8045  0.0836
 1902SOL    HW217169   4.173   0.399   7.465  0.8899 -1.0855 -0.4673
 1903SOL     OW17170   4.087   1.232   7.461  0.1809 -0.2307  0.2659
 1903SOL    HW117171   4.083   1.194   7.549 -0.0359 -0.5507  0.1170
 1903SOL    HW217172   4.171   1.277   7.461  1.2125 -2.1531 -0.7058
 1904SOL     OW17173   3.672   4.573   7.589  0.0417 -0.0601  0.2362
 1904SOL    HW117174   3.610   4.627   7.540  0.7768  0.9444  0.4159
 1904SOL    HW217175   3.754   4.624   7.587  0.6103 -1.0338 -1.6150
 1905SOL     OW17176   1.668   4.480  16.520 -0.0838  0.1804 -0.1254
 1905SOL    HW117177   1.751   4.478  16.473 -0.7054 -0.5697 -1.1708
 1905SOL    HW217178   1.621   4.555  16.484  0.9924  0.3820 -1.1172
 1906SOL     OW17179   1.371   1.254   0.421  0.2112 -0.2105  0.7049
 1906SOL    HW117180   1.335   1.193   0.486  0.2159  1.0528  1.9032
 1906SOL    HW217181   1.377   1.341   0.463  1.9899  0.2784 -0.5368
 1907SOL     OW17182   3.559   4.602   9.948  0.0260 -0.0023 -0.5824
 1907SOL    HW117183   3.597   4.672  10.001 -1.5342  0.9167 -0.6650
 1907SOL    HW217184   3.551   4.539  10.019  1.5004  0.5330  0.0652
 1908SOL     OW17185   3.203   0.960   5.478  0.0058  0.4815 -0.4664
 1908SOL    HW117186   3.149   1.036   5.502 -0.1818 -0.7271  2.8540
 1908SOL    HW217187   3.187   0.903   5.553 -2.4282 -0.2475 -1.5338
 1909SOL     OW17188   3.027   3.046   8.856  1.1250  0.1184 -0.1614
 1909SOL    HW117189   3.011   3.006   8.771 -0.2748  0.2853  0.0166
 1909SOL    HW217190   2.940   3.085   8.870 -0.2581 -3.4911  1.4667
 1910SOL     OW17191   1.998   4.401  12.252  0.6433 -0.3881 -0.5062
 1910SOL    HW117192   2.000   4.493  12.226 -1.6607  0.3202  1.7835
 1910SOL    HW217193   2.011   4.415  12.346 -1.0922 -2.3170  0.0072
 1911SOL     OW17194   3.188   3.009   9.264  0.2291 -0.4557  0.1725
 1911SOL    HW117195   3.112   3.057   9.296 -0.0791 -0.7317 -0.1460
 1911SOL    HW217196   3.204   3.046   9.177 -1.4570  0.5096  0.2700
 1912SOL     OW17197   0.843   2.741   0.974  0.1653 -0.4060  0.3453
 1912SOL    HW117198   0.906   2.688   1.023  0.8895 -2.0797 -2.3923
 1912SOL    HW217199   0.881   2.828   0.972  0.4693 -0.5813 -2.5495
 1913SOL     OW17200   3.325   2.195   1.953  0.2715  0.1908  0.5872
 1913SOL    HW117201   3.349   2.123   1.895 -1.8442 -0.3049  0.3268
 1913SOL    HW217202   3.326   2.153   2.039 -0.3206  2.0897  1.5399
 1914SOL     OW17203   0.349   0.146   0.364  0.0785 -0.2539 -0.6823
 1914SOL    HW117204   0.326   0.215   0.426 -1.7972 -3.0221  1.7148
 1914SOL    HW217205   0.400   0.087   0.420 -2.1359 -0.3263  1.2384
 1915SOL     OW17206   2.846   3.256   2.166 -0.0442 -0.2032 -0.1004
 1915SOL    HW117207   2.812   3.207   2.242 -1.1561 -0.3947 -0.7262
 1915SOL    HW217208   2.913   3.305   2.214  0.2068 -0.3824 -0.2667
 1916SOL     OW17209   3.483   2.018  16.302 -0.2462 -0.5093  0.3037
 1916SOL    HW117210   3.497   1.977  16.387  0.1244  2.9845  1.9206
 1916SOL    HW217211   3.555   2.080  16.303 -1.2882  0.7561 -1.3492
 1917SOL     OW17212   3.831   1.031  13.645 -0.4676  0.0147  0.2413
 1917SOL    HW117213   3.793   1.112  13.680  0.4049  0.5868 -0.1445
 1917SOL    HW217214   3.757   0.974  13.624  0.7331 -0.0173 -3.8719
 1918SOL     OW17215   1.937   1.192  11.036 -0.1150  0.1437 -0.6760
 1918SOL    HW117216   2.016   1.236  11.005  0.9532 -0.1205  1.6672
 1918SOL    HW217217   1.898   1.272  11.072 -1.0442  0.2282 -1.8490
 1919SOL     OW17218   1.712   3.364  12.530 -0.0213  0.2968 -0.1433
 1919SOL    HW117219   1.618   3.381  12.537 -0.0627  0.5898 -1.5074
 1919SOL    HW217220   1.737   3.388  12.620  1.7732 -0.8927 -0.3206
 1920SOL     OW17221   4.556   4.152  11.582 -0.8160  0.4708 -0.2706
 1920SOL    HW117222   4.567   4.208  11.659 -2.0092 -0.7219  0.7516
 1920SOL    HW217223   4.533   4.075  11.633  0.7720  1.9638  2.6847
 1921SOL     OW17224   4.202   1.224   5.901 -0.0179  0.1101 -0.5195
 1921SOL    HW117225   4.247   1.288   5.956 -0.6053 -0.4042  0.5420
 1921SOL    HW217226   4.138   1.280   5.858 -2.5697 -0.2903  2.7426
 1922SOL     OW17227   3.277   4.572  15.868 -0.2509 -0.4784  0.5739
 1922SOL    HW117228   3.184   4.578  15.892  0.2281  2.6038  1.6777
 1922SOL    HW217229   3.314   4.583  15.956  1.5357 -1.8655 -0.0176
 1923SOL     OW17230   0.711   1.703   1.947 -0.4855  0.5226 -0.1448
 1923SOL    HW117231   0.779   1.687   1.882  0.8556 -0.8834  1.5859
 1923SOL    HW217232   0.655   1.766   1.902 -0.3722  0.2892 -0.6068
 1924SOL     OW17233   4.233   4.139   7.474 -0.0297  0.0996  0.3439
 1924SOL    HW117234   4.232   4.150   7.569 -0.0195 -0.8719  0.4590
 1924SOL    HW217235   4.189   4.054   7.467  0.2699 -0.0618  0.4316
 1925SOL     OW17236   0.592   1.843   7.245  0.2202 -0.0461 -0.5222
 1925SOL    HW117237   0.599   1.752   7.275 -3.8370 -0.0489  0.5105
 1925SOL    HW217238   0.506   1.868   7.279 -0.1465 -2.0544  0.0485
 1926SOL     OW17239   4.335   1.561   9.392 -0.0960 -0.0159  0.5712
 1926SOL    HW117240   4.287   1.533   9.314 -0.4245 -0.0627  0.7907
 1926SOL    HW217241   4.335   1.476   9.435 -0.1194 -0.2150  0.1747
 1927SOL     OW17242   2.309   3.123  15.904  0.0268  0.2258 -0.2611
 1927SOL    HW117243   2.264   3.065  15.842  2.6895  0.8513 -2.8112
 1927SOL    HW217244   2.266   3.208  15.892  2.1531  1.3542  0.1466
 1928SOL     OW17245   2.852   0.403   3.344 -0.0402 -0.0358  0.0523
 1928SOL    HW117246   2.925   0.341   3.344  0.2668  0.3058  2.8646
 1928SOL    HW217247   2.877   0.454   3.267 -1.0204  0.3519 -0.0126
 1929SOL     OW17248   2.688   2.984   5.207  0.0282 -0.2872  0.3944
 1929SOL    HW117249   2.606   3.000   5.254  1.5959  2.4862  2.1605
 1929SOL    HW217250   2.719   2.896   5.228  0.1427  0.0236  1.5529
 1930SOL     OW17251   3.882   4.095  15.067  0.1606  0.3396 -0.0193
 1930SOL    HW117252   3.815   4.140  15.118  0.6709  0.1577  0.8220
 1930SOL    HW217253   3.834   4.108  14.985 -2.6570  1.9600  1.8980
 1931SOL     OW17254   1.559   1.064   1.046 -0.2157  0.0175 -0.3295
 1931SOL    HW117255   1.623   1.113   1.097  1.4973 -2.0924 -0.4395
 1931SOL    HW217256   1.540   1.130   0.980 -2.4828 -0.0143  0.2725
 1932SOL     OW17257   3.631   0.395   1.023 -0.2068 -0.4973  0.4823
 1932SOL    HW117258   3.686   0.373   0.947 -2.2668 -3.8973 -0.0030
 1932SOL    HW217259   3.691   0.420   1.093 -1.4843  1.0570  1.0169
 1933SOL     OW17260   1.097   2.558   3.302 -0.2136 -0.1022  0.2418
 1933SOL    HW117261   1.008   2.555   3.335  0.0541  1.1084  1.0842
 1933SOL    HW217262   1.145   2.628   3.347  0.9303  0.2385 -1.4719
 1934SOL     OW17263   2.682   4.485   8.354 -0.3055  0.4048 -0.5288
 1934SOL    HW117264   2.698   4.574   8.386 -0.0455  0.2382 -0.1930
 1934SOL    HW217265   2.736   4.480   8.276 -1.9747  1.2831 -1.7326
 1935SOL     OW17266   3.454   4.083   9.518 -0.4557 -0.6908  0.5825
 1935SOL    HW117267   3.382   4.102   9.459 -0.5668 -0.6530  0.7313
 1935SOL    HW217268   3.499   4.016   9.466 -0.9682 -0.8113  0.3020
 1936SOL     OW17269   2.944   0.559  11.924  0.0561 -0.3976 -0.1623
 1936SOL    HW117270   2.997   0.628  11.963 -1.3046  1.2585 -1.2421
 1936SOL    HW217271   2.864   0.611  11.923  1.2763  1.5182  1.5110
 1937SOL     OW17272   1.123   0.206  13.922 -0.5576 -0.3237 -0.3631
 1937SOL    HW117273   1.158   0.157  13.997 -3.3265 -0.8519  0.5876
 1937SOL    HW217274   1.037   0.222  13.960 -0.1387  2.4712 -0.6239
 1938SOL     OW17275   0.774   1.740   4.366 -0.4249  0.2363 -0.0484
 1938SOL    HW117276   0.868   1.760   4.364  0.1362 -2.5929 -2.5951
 1938SOL    HW217277   0.774   1.690   4.447 -0.2067  0.4493  0.0866
 1939SOL     OW17278   3.361   2.065  14.136 -0.3665  0.0057 -0.1776
 1939SOL    HW117279   3.395   2.067  14.047 -0.6887  1.1711 -0.2819
 1939SOL    HW217280   3.311   1.984  14.128  0.3495 -0.2282 -2.1603
 1940SOL     OW17281   2.132   4.375  16.184  0.1698 -0.1125 -0.2223
 1940SOL    HW117282   2.076   4.318  16.131 -1.5063  2.9129 -1.7503
 1940SOL    HW217283   2.207   4.381  16.124 -1.6326 -0.1381 -2.4986
 1941SOL     OW17284   3.848   4.470  15.234 -0.4646 -0.0946  0.5671
 1941SOL    HW117285   3.783   4.405  15.262 -1.0392 -0.6383 -2.0464
 1941SOL    HW217286   3.806   4.555  15.219 -0.7398 -0.7638 -2.4826
 1942SOL     OW17287   2.957   2.125   3.660 -0.0275 -0.6893 -0.2490
 1942SOL    HW117288   2.909   2.191   3.609  1.5391  1.0496  0.5231
 1942SOL    HW217289   3.037   2.132   3.608  0.1348 -2.6615 -0.2458
 1943SOL     OW17290   1.290   4.156  12.280 -0.2326 -0.2573 -0.1469
 1943SOL    HW117291   1.324   4.214  12.348  0.2681 -0.8123  0.0819
 1943SOL    HW217292   1.228   4.112  12.339  0.2406 -1.6054 -0.6389
 1944SOL     OW17293   2.342   4.121   1.564 -0.9818 -0.6521 -0.6224
 1944SOL    HW117294   2.275   4.139   1.499  0.0147 -1.1432 -1.7736
 1944SOL    HW217295   2.390   4.204   1.559 -0.4875 -0.9791 -1.3446
 1945SOL     OW17296   2.171   0.904  10.881 -0.2295  0.0232  0.6096
 1945SOL    HW117297   2.100   0.873  10.937  0.3346 -0.0775  1.2605
 1945SOL    HW217298   2.130   0.891  10.796  0.3948  0.8543  0.1778
 1946SOL     OW17299   2.874   1.216   9.640 -0.4573 -0.2960 -0.0274
 1946SOL    HW117300   2.819   1.188   9.714  0.1484 -1.5731 -0.0506
 1946SOL    HW217301   2.823   1.182   9.567 -2.9785 -0.0329  1.6267
 1947SOL     OW17302   1.237   4.105  10.894  0.1647 -0.0370  0.1087
 1947SOL    HW117303   1.150   4.068  10.912  0.6787 -1.4885 -0.4180
 1947SOL    HW217304   1.225   4.196  10.864 -0.2437 -0.2288 -0.3071
 1948SOL     OW17305   1.532   4.226   0.684 -0.4386 -0.0361 -0.4060
 1948SOL    HW117306   1.587   4.256   0.612 -0.1301  0.1292 -0.1076
 1948SOL    HW217307   1.481   4.152   0.650 -0.0011 -1.3248  1.7090
 1949SOL     OW17308   1.403   0.103   5.040  0.0386 -0.3522 -0.2690
 1949SOL    HW117309   1.367   0.017   5.059 -0.5971 -0.0886 -0.2692
 1949SOL    HW217310   1.315   0.140   5.039  0.4712  0.6757 -0.2474
 1950SOL     OW17311   2.840   3.422   0.511 -0.2203 -0.1246 -0.0811
 1950SOL    HW117312   2.783   3.346   0.499 -1.4198  0.7972 -0.1119
 1950SOL    HW217313   2.897   3.413   0.435  0.2096  1.0711  0.1011
 1951SOL     OW17314   3.544   4.205   4.871 -0.3104 -0.1088  0.0969
 1951SOL    HW117315   3.596   4.278   4.837  1.2560 -1.1226  0.3049
 1951SOL    HW217316   3.598   4.178   4.945  0.9672  1.5726 -0.2301
 1952SOL     OW17317   3.822   4.609   0.622  0.1772  0.2524  0.3223
 1952SOL    HW117318   3.911   4.574   0.613  0.1161  0.4183 -0.8962
 1952SOL    HW217319   3.787   4.597   0.534  0.5132  2.3610 -0.0805
 1953SOL     OW17320   2.241   1.960   5.106  0.0613  0.5756  0.1392
 1953SOL    HW117321   2.232   1.894   5.037 -0.3639 -0.6395  1.3607
 1953SOL    HW217322   2.149   1.988   5.102 -0.4723 -1.3012 -0.5482
 1954SOL     OW17323   2.765   2.489   6.544  0.7778  0.0303  1.1412
 1954SOL    HW117324   2.751   2.473   6.451 -0.1465  1.7800  0.9684
 1954SOL    HW217325   2.682   2.451   6.571  0.2122 -1.1143 -2.3708
 1955SOL     OW17326   1.842   2.837   4.346 -0.0177  0.0073  0.3330
 1955SOL    HW117327   1.906   2.866   4.282  1.5257  2.0465  2.8386
 1955SOL    HW217328   1.768   2.894   4.326 -0.2331 -0.4879 -0.2860
 1956SOL     OW17329   4.658   3.162   9.454  0.4339 -0.0829  0.0886
 1956SOL    HW117330   4.619   3.082   9.419  1.2673  0.2608 -1.6514
 1956SOL    HW217331   4.712   3.132   9.527  0.2010  3.7496  1.8538
 1957SOL     OW17332   0.118   0.366   8.416 -0.4032 -0.0970 -0.2183
 1957SOL    HW117333   0.058   0.292   8.422 -0.4780 -0.0463 -0.3402
 1957SOL    HW217334   0.166   0.367   8.498 -1.3649 -1.5615  0.3612
 1958SOL     OW17335   1.064   2.266   8.069 -0.6687 -0.2861  0.0604
 1958SOL    HW117336   1.076   2.276   7.974  2.3121  0.2062  0.5170
 1958SOL    HW217337   1.043   2.173   8.081  0.5274 -0.5245  0.2733
 1959SOL     OW17338   2.751   3.428   0.096  0.7878  0.1817 -0.2146
 1959SOL    HW117339   2.842   3.398   0.102  1.0149  0.3238 -2.8244
 1959SOL    HW217340   2.713   3.355   0.144  0.6937  2.1860  2.7691
 1960SOL     OW17341   1.404   1.383   7.010  0.0061  0.1272 -0.5916
 1960SOL    HW117342   1.335   1.330   6.969  0.7446 -1.5629  0.3371
 1960SOL    HW217343   1.471   1.323   6.977 -0.3571 -0.7069  0.1713
 1961SOL     OW17344   4.528   1.348   4.708 -0.4418  0.5265 -0.3577
 1961SOL    HW117345   4.481   1.304   4.778 -1.1572  0.3102 -0.9697
 1961SOL    HW217346   4.601   1.389   4.755  0.4400  0.2836 -1.4945
 1962SOL     OW17347   1.328   2.861   8.377 -0.0386 -0.0415  0.1475
 1962SOL    HW117348   1.237   2.866   8.405 -0.6916  0.6252 -2.0991
 1962SOL    HW217349   1.367   2.838   8.461  0.1575 -2.0316 -0.4867
 1963SOL     OW17350   4.144   1.100   9.758  0.1034 -0.9158  0.1208
 1963SOL    HW117351   4.158   1.011   9.791  0.0884 -1.2465 -0.7610
 1963SOL    HW217352   4.195   1.148   9.822  0.0353  0.6880 -1.0254
 1964SOL     OW17353   2.358   1.090   6.247 -0.2611  0.1360 -0.2554
 1964SOL    HW117354   2.305   1.011   6.264  2.6339 -2.0119 -1.2103
 1964SOL    HW217355   2.422   1.082   6.318 -0.4579  2.4452  0.1705
 1965SOL     OW17356   1.025   1.380  12.844  0.9476  0.4900  0.3386
 1965SOL    HW117357   0.962   1.393  12.774 -0.2498 -1.9925  0.9843
 1965SOL    HW217358   1.097   1.440  12.821  1.9665  0.2679  2.9069
 1966SOL     OW17359   3.368   3.043   2.921  0.6052 -0.0730  0.1124
 1966SOL    HW117360   3.433   3.087   2.977  1.4353 -2.7204  1.2116
 1966SOL    HW217361   3.427   2.970   2.903  2.4031  1.7917 -1.6858
 1967SOL     OW17362   1.059   4.078   3.427  0.1912  0.2675  0.0694
 1967SOL    HW117363   1.004   4.005   3.457  0.2209  0.4415  0.5370
 1967SOL    HW217364   1.005   4.090   3.349  1.0296 -0.5991 -0.6404
 1968SOL     OW17365   0.456   0.033   9.946  0.6797 -0.0356  0.3701
 1968SOL    HW117366   0.413   0.030  10.031 -1.4360  4.1934 -0.5605
 1968SOL    HW217367   0.410   0.105   9.902  0.2882  0.5036  1.6634
 1969SOL     OW17368   4.646   1.278   0.991  1.3820 -0.5979 -0.6989
 1969SOL    HW117369   4.613   1.188   0.986  1.6603 -0.8142  1.4743
 1969SOL    HW217370   4.562   1.321   1.009  1.8139  1.4475 -3.4204
 1970SOL     OW17371   1.499   1.581   1.297  0.3095 -0.4979  0.6851
 1970SOL    HW117372   1.445   1.503   1.310 -0.7656  0.8677  4.5031
 1970SOL    HW217373   1.468   1.605   1.210  1.7068 -0.2418  0.2728
 1971SOL     OW17374   3.702   4.127   8.471 -0.3410  0.0333 -0.3854
 1971SOL    HW117375   3.765   4.058   8.449  0.6986 -0.3348  3.7552
 1971SOL    HW217376   3.622   4.075   8.461 -0.5114 -0.1877  2.1089
 1972SOL     OW17377   2.116   0.902   5.841 -0.1997  0.1938  0.1289
 1972SOL    HW117378   2.038   0.863   5.879  0.8641 -1.9704  0.0789
 1972SOL    HW217379   2.187   0.862   5.891  0.3627  3.2015  1.7424
 1973SOL     OW17380   1.750   4.351   5.509  0.1777 -0.3721 -0.0037
 1973SOL    HW117381   1.710   4.437   5.521  1.2086  0.1594 -0.4066
 1973SOL    HW217382   1.679   4.300   5.469  1.0342 -3.1319  1.9801
 1974SOL     OW17383   2.236   1.917   3.188 -0.2737  0.2916  0.0425
 1974SOL    HW117384   2.184   1.974   3.132  0.3483  2.4265  1.6401
 1974SOL    HW217385   2.186   1.923   3.270  1.3366 -1.1428  1.1446
 1975SOL     OW17386   0.517   4.157  17.658 -0.0978  0.1579  0.0005
 1975SOL    HW117387   0.433   4.201  17.650 -0.5084 -0.9120 -1.5641
 1975SOL    HW217388   0.555   4.166   0.049  3.0599 -0.9327 -1.2406
 1976SOL     OW17389   1.523   1.129  14.160 -0.5258 -0.3107 -0.1453
 1976SOL    HW117390   1.598   1.114  14.217 -0.6825  1.4827  0.5501
 1976SOL    HW217391   1.560   1.077  14.089  1.7098 -0.3974  1.0788
 1977SOL     OW17392   0.149   3.807   0.759  0.3846  0.0881 -0.0352
 1977SOL    HW117393   0.242   3.826   0.745 -0.1519  1.1389 -2.1701
 1977SOL    HW217394   0.135   3.772   0.671 -0.8102  2.3725 -0.7535
 1978SOL     OW17395   3.601   3.912  10.654  0.3172 -0.1730 -0.0044
 1978SOL    HW117396   3.535   3.843  10.644  0.1810 -0.2341  1.2128
 1978SOL    HW217397   3.671   3.868  10.703 -0.6753 -1.5247  0.2093
 1979SOL     OW17398   0.755   2.094   3.234 -0.5153  0.4521  0.3269
 1979SOL    HW117399   0.815   2.098   3.160  0.1856 -1.0722  0.8304
 1979SOL    HW217400   0.822   2.095   3.301  0.4048 -0.6870 -0.5820
 1980SOL     OW17401   2.655   0.692   2.893 -0.2259 -0.1935 -0.3627
 1980SOL    HW117402   2.590   0.699   2.823  1.4935 -2.7486 -2.2124
 1980SOL    HW217403   2.591   0.693   2.964  0.7876  2.4095  0.5112
 1981SOL     OW17404   2.720   4.495  16.584  0.9350  0.4883  0.3316
 1981SOL    HW117405   2.793   4.548  16.615  0.0357  0.3028  2.8187
 1981SOL    HW217406   2.689   4.451  16.664  0.6207  0.4522  0.1896
 1982SOL     OW17407   4.513   1.753  11.259 -0.0368 -0.0614  0.4941
 1982SOL    HW117408   4.567   1.795  11.193 -1.0763 -0.2400 -0.4576
 1982SOL    HW217409   4.545   1.665  11.238 -0.9068 -0.8027  2.2976
 1983SOL     OW17410   0.337   0.947   3.591 -0.1581  0.1622  0.2746
 1983SOL    HW117411   0.362   1.023   3.539  1.2296 -1.6079 -1.6805
 1983SOL    HW217412   0.369   0.884   3.526 -0.9729  1.2495 -1.1635
 1984SOL     OW17413   0.934   1.805   3.042 -0.4181  0.9621  0.5023
 1984SOL    HW117414   1.002   1.742   3.065  0.2638  2.9023  3.7655
 1984SOL    HW217415   0.987   1.883   3.026  2.5642 -0.8364  1.4771
 1985SOL     OW17416   4.544   2.683  14.765 -1.1655 -0.1333  0.1942
 1985SOL    HW117417   4.635   2.653  14.755 -1.2710  0.2106 -1.7545
 1985SOL    HW217418   4.505   2.605  14.806  1.6609 -1.0225  1.1973
 1986SOL     OW17419   1.426   1.713  10.021 -0.2204  0.1888 -0.3657
 1986SOL    HW117420   1.388   1.730   9.935  1.7503 -1.5935 -1.6073
 1986SOL    HW217421   1.434   1.617  10.027 -1.9777  0.0468 -0.2907
 1987SOL     OW17422   2.148   4.620  17.583  0.3001  0.3727 -0.6733
 1987SOL    HW117423   2.139   4.690  17.518  1.5045  2.3607  1.2696
 1987SOL    HW217424   2.134   4.665  17.667 -1.3813 -0.5104 -0.4761
 1988SOL     OW17425   3.504   3.984  13.050 -0.0181  0.4141  0.4306
 1988SOL    HW117426   3.423   4.029  13.025 -0.0505  0.6819  1.0127
 1988SOL    HW217427   3.491   3.894  13.019 -0.9231  0.7786 -0.2586
 1989SOL     OW17428   1.404   2.725   2.434  0.0879 -0.1923 -0.3921
 1989SOL    HW117429   1.426   2.816   2.454  0.0099  0.1589 -1.8781
 1989SOL    HW217430   1.489   2.693   2.404  0.3295  0.5248 -0.4690
 1990SOL     OW17431   4.264   1.245   4.271  0.6632  0.2588 -0.0932
 1990SOL    HW117432   4.235   1.333   4.248  0.3329 -0.1423 -1.2039
 1990SOL    HW217433   4.179   1.200   4.266  0.3781  0.5259  2.1798
 1991SOL     OW17434   2.068   2.528   5.383  0.5956 -0.0414 -0.3651
 1991SOL    HW117435   1.992   2.555   5.331  0.2100  0.7360  0.5919
 1991SOL    HW217436   2.136   2.538   5.317  0.1927 -1.0165 -0.9151
 1992SOL     OW17437   1.800   1.075  15.181  0.2204 -0.5549  0.3162
 1992SOL    HW117438   1.856   1.062  15.104  0.6842  0.2095  0.5254
 1992SOL    HW217439   1.746   0.996  15.185  1.9943 -1.6393  2.8973
 1993SOL     OW17440   2.025   3.070   4.440  0.2705  0.0857  0.1591
 1993SOL    HW117441   1.946   3.087   4.491  1.6780  0.1443  2.3235
 1993SOL    HW217442   2.084   3.024   4.500  0.4118  0.2223  0.1268
 1994SOL     OW17443   1.270   4.646   5.621  0.5098  0.4914  0.1533
 1994SOL    HW117444   1.205   4.716   5.625 -1.3639 -1.2574 -0.0366
 1994SOL    HW217445   1.298   4.633   5.712  1.9391  1.5851 -0.1211
 1995SOL     OW17446   3.292   2.041  15.210 -0.3080 -0.9432 -0.0548
 1995SOL    HW117447   3.304   2.125  15.254  0.7794  0.4260 -2.9284
 1995SOL    HW217448   3.333   2.058  15.125  2.0119 -1.0246  1.0591
 1996SOL     OW17449   3.178   4.514  15.488  0.3521  0.0566  0.3102
 1996SOL    HW117450   3.223   4.471  15.416  2.8054  3.4839 -0.1617
 1996SOL    HW217451   3.257   4.505  15.541 -1.4796 -1.6479  2.7261
 1997SOL     OW17452   0.854   4.560  13.364 -0.3968 -0.0117  0.3707
 1997SOL    HW117453   0.837   4.466  13.355  0.4453 -0.2637  1.3767
 1997SOL    HW217454   0.947   4.564  13.388 -0.3062 -1.3402  0.2364
 1998SOL     OW17455   1.225   0.869   0.948 -0.2754  0.4813  0.0799
 1998SOL    HW117456   1.285   0.892   1.019 -0.8321 -3.1581  1.7299
 1998SOL    HW217457   1.164   0.812   0.995 -0.3228 -0.6649 -1.3618
 1999SOL     OW17458   4.004   2.869   4.630  0.1820  0.2196  0.5713
 1999SOL    HW117459   4.077   2.815   4.599 -0.9233  0.4495 -2.3764
 1999SOL    HW217460   4.040   2.946   4.675 -0.6152 -0.3370  2.1712
 2000SOL     OW17461   0.101   2.465   9.816 -0.2161 -0.3907  0.5753
 2000SOL    HW117462   0.042   2.512   9.875 -0.3934  2.5232 -1.9385
 2000SOL    HW217463   0.075   2.378   9.847  0.0612 -0.0346  1.8013
 2001SOL     OW17464   3.993   2.122   2.469 -0.0171 -0.3250  0.3567
 2001SOL    HW117465   3.994   2.088   2.379  0.0146 -0.7480  0.5185
 2001SOL    HW217466   3.970   2.044   2.519 -1.9977 -0.7924 -1.3053
 2002SOL     OW17467   3.559   1.374   7.418 -0.1011 -0.2071 -0.0475
 2002SOL    HW117468   3.654   1.379   7.430 -0.2523  1.5423  0.3837
 2002SOL    HW217469   3.542   1.422   7.337 -2.4702  1.4159  1.4207
 2003SOL     OW17470   1.895   1.161   4.391  1.0151 -0.6452 -1.2529
 2003SOL    HW117471   1.924   1.085   4.342 -1.2563 -2.0035 -0.4954
 2003SOL    HW217472   1.802   1.165   4.368  0.2813 -0.7525  1.7490
 2004SOL     OW17473   0.348   1.703  13.288 -0.1578  0.0212 -0.5053
 2004SOL    HW117474   0.289   1.666  13.354  2.0096 -0.7454  0.9984
 2004SOL    HW217475   0.285   1.746  13.231  0.1661 -2.2787 -2.6222
 2005SOL     OW17476   2.606   1.169   4.919  0.0746 -0.3266 -0.1427
 2005SOL    HW117477   2.621   1.254   4.960 -2.0146  0.0640 -0.1925
 2005SOL    HW217478   2.586   1.203   4.832  1.1346  1.9173  0.5032
 2006SOL     OW17479   1.810   0.671   1.678 -0.8379 -1.2418  0.3578
 2006SOL    HW117480   1.768   0.748   1.640  0.8540  0.7785  2.5285
 2006SOL    HW217481   1.904   0.689   1.680 -1.2192  0.8227 -0.2804
 2007SOL     OW17482   1.069   2.273   9.457 -0.0673  0.1414  0.5030
 2007SOL    HW117483   1.139   2.338   9.455 -1.0099  1.1951  1.5912
 2007SOL    HW217484   0.999   2.326   9.419  0.3375 -0.6325 -1.2788
 2008SOL     OW17485   2.990   3.372   1.885  0.4264  0.4770  0.0865
 2008SOL    HW117486   2.946   3.287   1.876  0.1035  0.5846  0.6549
 2008SOL    HW217487   2.998   3.379   1.980  0.5326  0.2239  0.0966
 2009SOL     OW17488   0.154   2.782  14.742 -0.2649 -0.3879  0.1119
 2009SOL    HW117489   0.247   2.765  14.727 -0.0726  1.4076 -0.7658
 2009SOL    HW217490   0.119   2.694  14.755  1.5181 -1.6088 -3.3916
 2010SOL     OW17491   3.751   1.560   6.947 -0.4401  0.2527  0.5676
 2010SOL    HW117492   3.659   1.548   6.969  0.0328 -2.9495  0.7239
 2010SOL    HW217493   3.766   1.623   7.017  0.2720  0.6219  0.0891
 2011SOL     OW17494   1.748   4.660   3.703 -0.5513  0.4860 -0.0669
 2011SOL    HW117495   1.762   4.671   3.797 -0.0401 -2.3245  0.1831
 2011SOL    HW217496   1.656   4.635   3.695  0.3133 -2.8482  0.4982
 2012SOL     OW17497   2.749   3.961   1.796  0.1338 -0.2575 -0.4609
 2012SOL    HW117498   2.758   3.920   1.882  1.1084  0.6938 -0.1070
 2012SOL    HW217499   2.668   4.011   1.806  0.9418  0.7017  1.2636
 2013SOL     OW17500   0.476   2.209   8.705  0.3879  0.5766  0.2280
 2013SOL    HW117501   0.429   2.291   8.717  1.2020  0.7585  2.2013
 2013SOL    HW217502   0.520   2.224   8.621  1.7557 -1.4104  0.5803
 2014SOL     OW17503   1.042   1.770  14.947  0.5900 -0.1583 -0.2750
 2014SOL    HW117504   1.073   1.844  14.895  1.0099 -0.5697 -0.6143
 2014SOL    HW217505   1.117   1.712  14.958  0.8265  0.4191  1.1144
 2015SOL     OW17506   3.258   3.518   2.866 -0.2479  0.2915 -0.1806
 2015SOL    HW117507   3.220   3.583   2.808  0.1845  0.1117 -0.6667
 2015SOL    HW217508   3.230   3.433   2.831  0.5579 -0.2394  0.4436
 2016SOL     OW17509   1.988   2.444   3.811  0.5074  0.3168 -0.0052
 2016SOL    HW117510   2.001   2.481   3.724  0.3330 -0.5048 -0.3772
 2016SOL    HW217511   1.980   2.350   3.795  1.6830 -0.0502  1.5794
 2017SOL     OW17512   3.384   0.373   9.337  0.2182 -0.4811 -0.1498
 2017SOL    HW117513   3.387   0.333   9.424 -1.2168 -0.6577 -0.1778
 2017SOL    HW217514   3.423   0.461   9.341  0.4962 -0.5556 -1.2003
 2018SOL     OW17515   3.756   4.439  17.146 -0.1266 -0.3966  0.0498
 2018SOL    HW117516   3.808   4.404  17.074 -0.4426  0.7030 -0.7035
 2018SOL    HW217517   3.671   4.397  17.138 -1.1192  1.6663 -0.2680
 2019SOL     OW17518   2.471   1.231  13.380  0.4234  0.5900 -0.3381
 2019SOL    HW117519   2.429   1.239  13.295  0.0546  2.0344 -0.0263
 2019SOL    HW217520   2.557   1.199  13.354  0.7482 -0.4672  2.0866
 2020SOL     OW17521   1.176   1.117   1.230  0.0815  0.0377  0.2926
 2020SOL    HW117522   1.151   1.143   1.318 -2.6383  1.3190 -0.8482
 2020SOL    HW217523   1.118   1.170   1.175 -1.1484 -0.7421  0.8544
 2021SOL     OW17524   2.633   4.681   2.005 -0.0884 -0.1635  0.5238
 2021SOL    HW117525   2.715   4.716   2.039  0.4218 -1.2177  0.3626
 2021SOL    HW217526   2.626   4.594   2.046  0.7200 -1.1908 -1.5453
 2022SOL     OW17527   3.642   2.112   2.747 -0.1986 -0.6209  0.0551
 2022SOL    HW117528   3.733   2.138   2.757 -0.7688  0.8627  1.5863
 2022SOL    HW217529   3.617   2.174   2.678  0.0673 -1.8937 -1.1790
 2023SOL     OW17530   2.525   0.339  16.243 -0.2095 -0.3400 -0.0408
 2023SOL    HW117531   2.577   0.316  16.166  0.8273 -0.6563  0.7648
 2023SOL    HW217532   2.592   0.329  16.310 -1.4856 -1.5666  1.0521
 2024SOL     OW17533   3.145   0.913   7.117 -0.5021  0.0132  0.0344
 2024SOL    HW117534   3.071   0.926   7.057 -1.7467 -1.5706  1.2206
 2024SOL    HW217535   3.137   0.997   7.162  0.2126 -0.7059  1.4970
 2025SOL     OW17536   3.887   3.685   6.443 -0.0016 -0.5055 -0.4988
 2025SOL    HW117537   3.934   3.733   6.511 -2.1156 -0.6449  1.0455
 2025SOL    HW217538   3.843   3.759   6.402  0.7636  0.1220 -0.1650
 2026SOL     OW17539   0.853   0.165   8.152 -0.0594 -0.3152  0.1221
 2026SOL    HW117540   0.800   0.217   8.214 -0.5158  0.4659 -0.9264
 2026SOL    HW217541   0.866   0.221   8.076  0.8989 -0.0284  0.5008
 2027SOL     OW17542   3.038   1.876   7.467  0.0556  0.1266 -0.3640
 2027SOL    HW117543   3.099   1.906   7.534  2.1137  0.4543 -2.3589
 2027SOL    HW217544   3.008   1.961   7.435  0.0850  0.0017 -0.7273
 2028SOL     OW17545   1.242   2.727   5.165 -0.6514 -0.7486 -0.1014
 2028SOL    HW117546   1.167   2.782   5.141  0.2530  0.2690 -0.5837
 2028SOL    HW217547   1.296   2.792   5.211 -0.6103 -0.0917 -1.0916
 2029SOL     OW17548   1.503   4.661   7.388  0.4461  0.2054 -0.4017
 2029SOL    HW117549   1.570   4.611   7.340  0.4649  0.3616 -0.5384
 2029SOL    HW217550   1.561   0.001   7.431  1.8571 -0.7487 -0.8715
 2030SOL     OW17551   3.780   1.266   1.866 -0.0737 -0.2957  0.3138
 2030SOL    HW117552   3.759   1.178   1.899  0.9720 -0.2896  1.0112
 2030SOL    HW217553   3.874   1.268   1.886  0.0495  0.1099 -0.3023
 2031SOL     OW17554   4.453   4.306  11.399 -0.2607 -0.2860 -0.2087
 2031SOL    HW117555   4.492   4.256  11.471  2.1612  1.4263 -0.3436
 2031SOL    HW217556   4.372   4.255  11.389  0.4138 -1.4101  0.0058
 2032SOL     OW17557   1.429   1.597   2.406 -0.0582 -0.2567  0.0331
 2032SOL    HW117558   1.410   1.531   2.339  0.1721  0.4382 -0.7282
 2032SOL    HW217559   1.494   1.647   2.355 -0.2637  0.0081  0.0317
 2033SOL     OW17560   3.399   4.688  17.388 -0.1819 -0.5736  0.1834
 2033SOL    HW117561   3.345   0.021  17.444  0.3962 -0.5835  0.7530
 2033SOL    HW217562   3.467   4.656  17.448  0.1369 -0.3684 -0.0723
 2034SOL     OW17563   4.108   0.854   3.010 -0.4839  0.3527 -0.2932
 2034SOL    HW117564   4.195   0.893   3.017 -0.3069  0.3556 -2.5898
 2034SOL    HW217565   4.057   0.925   2.971 -0.2089  0.3205 -0.7098
 2035SOL     OW17566   1.020   2.794   5.585 -0.0670  0.3560 -0.2586
 2035SOL    HW117567   1.018   2.803   5.680 -0.9808 -0.1856 -0.2314
 2035SOL    HW217568   1.113   2.805   5.569  0.1018  1.8627  1.7129
 2036SOL     OW17569   2.969   0.591   3.212  0.1547 -0.2210  0.2837
 2036SOL    HW117570   3.062   0.613   3.217 -0.3507  1.9873  0.1682
 2036SOL    HW217571   2.933   0.647   3.142  3.3339  2.0774  0.4899
 2037SOL     OW17572   1.816   1.215   4.979 -0.0757 -0.2035 -0.0140
 2037SOL    HW117573   1.836   1.151   4.910  0.5698 -1.8981  1.7416
 2037SOL    HW217574   1.749   1.267   4.935  1.1492  1.0168 -0.4091
 2038SOL     OW17575   1.184   1.251   1.687 -0.3922 -0.2598  0.2855
 2038SOL    HW117576   1.179   1.336   1.731  4.0046 -0.1834  0.6938
 2038SOL    HW217577   1.118   1.252   1.618 -0.1495  0.2418  0.0558
 2039SOL     OW17578   0.577   3.859   5.800 -0.2236 -0.0956  0.3009
 2039SOL    HW117579   0.575   3.939   5.852  0.5604  0.0181  0.1468
 2039SOL    HW217580   0.670   3.838   5.805 -0.0972  0.1099 -1.0435
 2040SOL     OW17581   3.215   0.434   2.665 -0.5871  0.0547  0.4016
 2040SOL    HW117582   3.288   0.494   2.650 -0.0075 -0.5276  0.9119
 2040SOL    HW217583   3.151   0.493   2.705 -1.3988 -0.8983  0.4830
 2041SOL     OW17584   3.605   4.065  13.922  0.2071 -0.2194 -0.1803
 2041SOL    HW117585   3.670   4.065  13.992  1.2794  1.9304 -1.1664
 2041SOL    HW217586   3.646   4.125  13.859 -0.2108 -1.5774 -1.7500
 2042SOL     OW17587   4.570   4.053   5.628  0.3593  0.1633 -0.0359
 2042SOL    HW117588   4.619   4.045   5.546 -1.6052  0.6211 -1.2696
 2042SOL    HW217589   4.618   4.009   5.698 -2.3912 -2.4635  0.2548
 2043SOL     OW17590   3.107   3.219  12.587  0.0502  0.1415 -0.4060
 2043SOL    HW117591   3.033   3.268  12.554  0.6168  1.0279 -0.3487
 2043SOL    HW217592   3.171   3.267  12.535 -0.7096 -0.1766 -1.6384
 2044SOL     OW17593   1.101   4.552  17.074  0.6456 -0.0628 -0.9206
 2044SOL    HW117594   1.014   4.568  17.037  1.7346  2.2891 -2.4650
 2044SOL    HW217595   1.074   4.535  17.164  0.9849 -1.3041 -1.0536
 2045SOL     OW17596   3.520   3.754   3.400 -0.5020 -0.4644 -0.9850
 2045SOL    HW117597   3.447   3.766   3.460  0.4052 -0.8165  0.1716
 2045SOL    HW217598   3.577   3.827   3.421 -0.4423 -1.0570  0.8932
 2046SOL     OW17599   2.866   3.282  10.993 -0.5699 -0.4115 -0.1883
 2046SOL    HW117600   2.929   3.249  11.057  1.4959  2.1595 -0.9094
 2046SOL    HW217601   2.842   3.362  11.039  1.3806  0.3645 -0.5160
 2047SOL     OW17602   0.051   1.332  13.225 -0.1083  0.2072  0.0050
 2047SOL    HW117603   0.015   1.268  13.164  0.2119  0.8819 -0.8747
 2047SOL    HW217604   0.028   1.300  13.313 -0.0982  1.7326  0.5613
 2048SOL     OW17605   1.149   1.569   6.847  0.2009 -0.4809  0.4883
 2048SOL    HW117606   1.227   1.593   6.798 -1.3080 -0.6442 -2.0167
 2048SOL    HW217607   1.136   1.474   6.840 -2.1189 -0.1144 -0.3318
 2049SOL     OW17608   0.893   4.211   5.109  0.5036  0.2261  0.0314
 2049SOL    HW117609   0.809   4.254   5.127  0.0867  0.5733 -2.7233
 2049SOL    HW217610   0.861   4.132   5.064  1.2124  0.0583 -0.1744
 2050SOL     OW17611   0.175   3.394  16.931  0.8845 -0.0375  0.4761
 2050SOL    HW117612   0.163   3.438  16.847 -1.8925  1.6521  1.7546
 2050SOL    HW217613   0.186   3.306  16.893 -0.7380 -1.4007  3.1763
 2051SOL     OW17614   4.035   0.506  13.737 -0.1260  0.0993 -0.4035
 2051SOL    HW117615   3.948   0.537  13.761  0.8277 -0.2318  3.5652
 2051SOL    HW217616   4.044   0.543  13.649 -3.4271  4.2250  1.0346
 2052SOL     OW17617   1.064   2.811   7.690 -0.0642  0.0403 -0.3284
 2052SOL    HW117618   0.974   2.805   7.658 -0.7050  1.3879  1.2031
 2052SOL    HW217619   1.064   2.896   7.734  1.9664 -0.4195  0.5363
 2053SOL     OW17620   0.216   2.903   1.938  1.0409  0.7840  0.4280
 2053SOL    HW117621   0.251   2.951   1.863 -0.0080  0.2715 -0.3708
 2053SOL    HW217622   0.161   2.833   1.904  0.9974  1.4965 -0.9584
 2054SOL     OW17623   4.676   3.953   4.711  0.5518 -0.5037  0.3255
 2054SOL    HW117624   4.684   4.030   4.654 -0.7062 -1.1391 -0.7085
 2054SOL    HW217625   0.040   3.913   4.703  1.3707  0.9583  2.0981
 2055SOL     OW17626   2.055   1.883   9.181  0.0729  0.6570  0.4695
 2055SOL    HW117627   2.081   1.962   9.229  1.0053  0.8034 -0.2772
 2055SOL    HW217628   1.961   1.901   9.187 -0.1113 -0.4970  1.0600
 2056SOL     OW17629   3.965   3.570  10.838  0.2237 -0.5402  0.0995
 2056SOL    HW117630   4.022   3.618  10.778 -0.9733  1.2197  0.3852
 2056SOL    HW217631   3.964   3.624  10.917 -0.8659 -0.4252  0.0038
 2057SOL     OW17632   3.853   1.098   9.372 -0.3069  0.5274 -0.1602
 2057SOL    HW117633   3.889   1.098   9.283  0.9172 -2.0553  0.3337
 2057SOL    HW217634   3.922   1.142   9.421  1.5611 -2.5794 -0.0207
 2058SOL     OW17635   2.842   4.037   1.178  0.1152 -0.3944  0.1140
 2058SOL    HW117636   2.862   3.966   1.238  0.6958 -0.0281  0.3518
 2058SOL    HW217637   2.764   4.077   1.215  0.8354  0.5463  0.6297
 2059SOL     OW17638   2.305   4.417   3.157 -0.1161  0.4680  0.1696
 2059SOL    HW117639   2.320   4.325   3.181  0.1209 -0.4971 -3.6684
 2059SOL    HW217640   2.217   4.432   3.193  0.3646  0.0992  1.5018
 2060SOL     OW17641   2.285   4.518  12.129  0.1484  0.3791 -0.0771
 2060SOL    HW117642   2.336   4.584  12.083 -1.6512  1.8854  0.0781
 2060SOL    HW217643   2.202   4.562  12.151  1.5604  3.4699 -0.9763
 2061SOL     OW17644   0.755   0.011  10.187  0.0407  0.5975  0.1076
 2061SOL    HW117645   0.701   4.657  10.202  0.5992  0.6252  2.3665
 2061SOL    HW217646   0.704   0.080  10.229  0.2130 -0.4866  2.1304
 2062SOL     OW17647   2.671   3.431  14.041  0.0795  0.0527  0.3104
 2062SOL    HW117648   2.748   3.377  14.055  0.7527  0.8635 -0.2413
 2062SOL    HW217649   2.673   3.423  13.945 -0.5918  1.2304  0.1865
 2063SOL     OW17650   4.668   1.221  12.694 -0.3230 -0.5296 -0.2956
 2063SOL    HW117651   0.020   1.203  12.750  0.4908 -0.2594 -1.3042
 2063SOL    HW217652   4.712   1.272  12.627  0.7592 -4.0162 -2.2315
 2064SOL     OW17653   2.912   0.387  14.273 -0.6518  0.0282  0.1842
 2064SOL    HW117654   2.827   0.409  14.310 -0.5231 -1.5243  1.4276
 2064SOL    HW217655   2.887   0.305  14.230 -1.0250  1.1562 -1.7228
 2065SOL     OW17656   1.347   2.034   6.392  0.1986  0.9777  0.1414
 2065SOL    HW117657   1.364   1.983   6.312  0.8460  2.5969 -0.7511
 2065SOL    HW217658   1.313   2.109   6.343  0.2031 -0.0036 -1.3693
 2066SOL     OW17659   1.440   2.371   6.905  0.4005 -0.2235  0.3318
 2066SOL    HW117660   1.422   2.290   6.954  1.7436 -0.2976  0.7250
 2066SOL    HW217661   1.490   2.423   6.969  0.5918  0.4606 -0.3744
 2067SOL     OW17662   2.063   0.150   6.642 -0.1833 -0.6117  0.2988
 2067SOL    HW117663   1.991   0.090   6.663 -2.5125  1.3785 -2.0964
 2067SOL    HW217664   2.133   0.113   6.696  1.1354 -0.5571 -1.3724
 2068SOL     OW17665   4.398   2.041   2.845 -0.5379  0.2505 -0.2253
 2068SOL    HW117666   4.359   2.008   2.926  0.3588 -2.3063 -0.8399
 2068SOL    HW217667   4.489   2.050   2.870 -0.0682  1.2828 -2.2927
 2069SOL     OW17668   1.205   0.150   7.437  0.4667  0.0450  0.0222
 2069SOL    HW117669   1.190   0.060   7.468 -0.9845  0.8840  1.7258
 2069SOL    HW217670   1.179   0.203   7.512 -2.3790 -0.7830 -0.3881
 2070SOL     OW17671   1.689   2.032   1.767 -0.2182 -0.0523 -0.0503
 2070SOL    HW117672   1.639   2.061   1.691 -0.6795 -0.1172  0.2277
 2070SOL    HW217673   1.772   2.012   1.724 -0.8530 -0.2623 -1.1631
 2071SOL     OW17674   2.154   1.812   0.788  0.6447  0.0553  0.2058
 2071SOL    HW117675   2.112   1.875   0.729 -1.8783  0.0317  1.9690
 2071SOL    HW217676   2.091   1.805   0.859 -0.7093 -1.8955 -1.1704
 2072SOL     OW17677   0.217   1.354  13.550 -0.0350 -0.4100  0.3867
 2072SOL    HW117678   0.137   1.321  13.591 -2.4056  2.2620 -2.1039
 2072SOL    HW217679   0.271   1.276  13.540 -1.1337 -1.0864 -0.2343
 2073SOL     OW17680   1.980   4.115   2.767 -0.0486 -0.0763  0.1145
 2073SOL    HW117681   1.908   4.153   2.818  0.2960  0.5288  0.1581
 2073SOL    HW217682   2.044   4.179   2.798 -1.2420  1.0665  0.2233
 2074SOL     OW17683   4.609   2.406   4.353  0.1297 -0.2022  0.3722
 2074SOL    HW117684   4.619   2.497   4.324 -1.5812 -0.0608  0.2280
 2074SOL    HW217685   4.656   2.359   4.284 -0.4948  0.2773 -0.3757
 2075SOL     OW17686   0.568   2.963   6.041 -0.1277 -0.2011 -0.2814
 2075SOL    HW117687   0.508   3.038   6.045 -0.1563 -0.1207 -2.2323
 2075SOL    HW217688   0.571   2.955   5.946 -0.6925 -0.5353 -0.2748
 2076SOL     OW17689   4.399   3.285  11.796 -0.6062 -0.1544  0.0473
 2076SOL    HW117690   4.459   3.301  11.869 -0.5515  2.6394 -0.6269
 2076SOL    HW217691   4.422   3.361  11.743  1.4133 -1.3401 -0.7601
 2077SOL     OW17692   3.266   3.357  12.439 -0.2996 -0.2503 -0.6818
 2077SOL    HW117693   3.331   3.353  12.368 -0.1409  1.1149 -0.6287
 2077SOL    HW217694   3.258   3.452  12.449  0.9941  0.1215 -3.2868
 2078SOL     OW17695   2.023   0.081  10.670 -0.5243  0.4263  0.2429
 2078SOL    HW117696   1.931   0.097  10.651 -0.2631  0.1498 -1.3089
 2078SOL    HW217697   2.017   0.068  10.764  0.5134  1.7472  0.5026
 2079SOL     OW17698   1.460   0.302   4.843  0.2064 -0.6298  0.0513
 2079SOL    HW117699   1.439   0.251   4.921 -0.7837 -1.1314 -0.5449
 2079SOL    HW217700   1.376   0.327   4.804  0.1348 -2.3322 -0.8653
 2080SOL     OW17701   0.541   1.596   7.364  0.5927  0.1282 -0.1663
 2080SOL    HW117702   0.574   1.607   7.453 -0.8897 -0.8191  0.4960
 2080SOL    HW217703   0.577   1.512   7.338 -1.3609 -0.2250 -1.7486
 2081SOL     OW17704   0.087   3.364   9.757 -0.0999 -0.6583 -0.1755
 2081SOL    HW117705   4.718   3.386   9.761 -0.0083 -0.5567  1.3627
 2081SOL    HW217706   0.121   3.407   9.836  0.9896 -2.5583  0.4008
 2082SOL     OW17707   1.575   0.009   4.231  0.2720 -0.6933 -0.6429
 2082SOL    HW117708   1.575   4.667   4.301 -1.9575  0.1695  0.1667
 2082SOL    HW217709   1.668   0.021   4.215 -0.3330  0.8085 -3.1276
 2083SOL     OW17710   1.977   0.788  11.026 -0.4119  0.7874 -0.0241
 2083SOL    HW117711   1.927   0.709  11.003  0.2783 -0.1351  1.6844
 2083SOL    HW217712   1.910   0.844  11.066 -1.2518 -0.3345  0.1553
 2084SOL     OW17713   4.165   3.045   8.757 -0.1560 -0.0060 -0.1436
 2084SOL    HW117714   4.242   3.026   8.704 -1.1840 -0.1426 -1.5882
 2084SOL    HW217715   4.134   2.960   8.786 -1.2055 -0.1461 -1.6611
 2085SOL     OW17716   1.578   2.553   7.079  0.0304 -1.0728 -0.6171
 2085SOL    HW117717   1.674   2.557   7.078 -0.0956  2.3821  0.6673
 2085SOL    HW217718   1.547   2.642   7.065 -2.3574 -1.6821  0.8887
 2086SOL     OW17719   4.620   4.238  12.025  0.1343  0.4306  0.2256
 2086SOL    HW117720   4.630   4.304  12.093  1.8788  2.7866 -2.2999
 2086SOL    HW217721   4.528   4.212  12.034  0.6648 -1.2813  0.7034
 2087SOL     OW17722   2.331   3.539   2.383 -0.1328  0.8626 -0.3270
 2087SOL    HW117723   2.391   3.583   2.323  1.4006  0.5950  1.0371
 2087SOL    HW217724   2.257   3.600   2.392 -2.4207 -2.0204  0.1908
 2088SOL     OW17725   0.987   1.150  11.206  0.0745  0.2323  0.1346
 2088SOL    HW117726   1.057   1.116  11.150 -0.8153  0.5024 -1.1593
 2088SOL    HW217727   0.926   1.077  11.194 -0.3853  0.5371  0.6675
 2089SOL     OW17728   1.815   0.670   3.429  0.2748  0.1052  0.5673
 2089SOL    HW117729   1.867   0.656   3.508 -0.3708  0.2696  1.0203
 2089SOL    HW217730   1.737   0.704   3.473  0.1906 -0.2185  0.6647
 2090SOL     OW17731   2.339   3.857   8.042  0.2381 -0.3331 -0.0930
 2090SOL    HW117732   2.262   3.807   8.069 -0.0177  0.8511  1.3304
 2090SOL    HW217733   2.338   3.939   8.091  1.2068  0.2862 -1.1102
 2091SOL     OW17734   0.836   3.531  15.161 -0.2805 -0.2001  0.5300
 2091SOL    HW117735   0.766   3.469  15.140  0.8294 -1.0019 -0.7409
 2091SOL    HW217736   0.776   3.598  15.195  0.6083  1.8683 -2.0149
 2092SOL     OW17737   0.680   2.819   1.195 -0.1313  0.1390 -0.6485
 2092SOL    HW117738   0.689   2.770   1.113  1.5061 -1.6705  0.6035
 2092SOL    HW217739   0.585   2.823   1.192 -0.1427 -1.7817 -2.2710
 2093SOL     OW17740   0.310   2.798  12.512  0.0040  0.5148  0.2007
 2093SOL    HW117741   0.358   2.744  12.450  0.4370  2.1382 -0.8402
 2093SOL    HW217742   0.264   2.732  12.566 -0.7569  0.4868 -0.4785
 2094SOL     OW17743   3.363   1.834   3.595 -0.4339 -0.5415 -0.2591
 2094SOL    HW117744   3.414   1.869   3.668  0.3893 -0.0737 -1.0598
 2094SOL    HW217745   3.273   1.860   3.613 -0.7833 -2.5543  0.9537
 2095SOL     OW17746   0.814   2.797  10.506  0.0447 -0.3842  0.4690
 2095SOL    HW117747   0.785   2.843  10.585  0.7081  0.8306  0.0077
 2095SOL    HW217748   0.896   2.844  10.488 -2.6474  3.9129 -0.6183
 2096SOL     OW17749   2.383   2.469   3.844  0.4201 -0.0364 -0.1505
 2096SOL    HW117750   2.315   2.424   3.794  1.3319  0.9731 -2.2914
 2096SOL    HW217751   2.461   2.415   3.835  0.3684 -0.0305 -0.6305
 2097SOL     OW17752   2.535   4.167  10.858  0.5201 -0.4164 -0.1042
 2097SOL    HW117753   2.450   4.127  10.871  1.3013 -2.1139 -0.2385
 2097SOL    HW217754   2.543   4.161  10.763  0.4440 -1.2369 -0.0582
 2098SOL     OW17755   3.699   4.502   9.748 -0.6410  0.3641 -0.7049
 2098SOL    HW117756   3.625   4.498   9.687 -0.7106 -0.6390 -0.5585
 2098SOL    HW217757   3.669   4.555   9.822 -2.1810 -0.9231 -0.4019
 2099SOL     OW17758   3.735   0.904  11.115 -0.1599  0.7866  0.6674
 2099SOL    HW117759   3.806   0.898  11.051 -3.1229  0.4353 -2.5715
 2099SOL    HW217760   3.735   0.811  11.138 -3.0753  0.1894 -1.7792
 2100SOL     OW17761   2.776   3.987   7.092 -0.6488  0.3973  0.3815
 2100SOL    HW117762   2.812   3.924   7.155 -0.8583  0.0225  0.1221
 2100SOL    HW217763   2.819   4.066   7.124  1.2137 -0.7317  0.7082
 2101SOL     OW17764   1.418   0.939   5.815 -0.0889 -0.2406  0.0367
 2101SOL    HW117765   1.474   0.965   5.888 -0.1887  0.3385 -0.0954
 2101SOL    HW217766   1.357   1.013   5.815  0.4526  0.2064  0.3050
 2102SOL     OW17767   2.008   2.681   2.881  0.8706 -1.1184  0.1191
 2102SOL    HW117768   1.979   2.643   2.963 -0.8702  0.0259  0.0445
 2102SOL    HW217769   1.974   2.620   2.815 -0.0258 -0.1454 -0.3179
 2103SOL     OW17770   0.642   0.879   5.686  0.3027 -0.2656  0.9725
 2103SOL    HW117771   0.728   0.891   5.646  0.4003 -2.1287  0.6336
 2103SOL    HW217772   0.666   0.861   5.776  1.5388 -0.4298  0.6150
 2104SOL     OW17773   3.887   4.320   2.144 -0.2078  0.5313 -0.2634
 2104SOL    HW117774   3.855   4.393   2.090 -0.8599 -0.1408 -0.7981
 2104SOL    HW217775   3.899   4.360   2.230 -0.7407 -1.7562  0.8690
 2105SOL     OW17776   1.188   0.743   2.088  0.3936  0.3901 -0.2956
 2105SOL    HW117777   1.196   0.651   2.065  0.2622  0.5970 -1.1542
 2105SOL    HW217778   1.120   0.772   2.027  1.8381  3.7466 -0.3507
 2106SOL     OW17779   4.155   4.538   7.475  0.2662  0.1661  0.6870
 2106SOL    HW117780   4.236   4.556   7.427 -0.7656  0.1130 -1.0656
 2106SOL    HW217781   4.199   4.543   7.560 -0.7464  0.2686  1.2055
 2107SOL     OW17782   1.684   0.848   4.320 -0.5063 -0.7595 -0.4440
 2107SOL    HW117783   1.653   0.938   4.329 -2.4190 -1.5125  0.5946
 2107SOL    HW217784   1.598   0.811   4.340  0.3075 -3.0860 -1.2227
 2108SOL     OW17785   2.240   4.080   8.631  0.5144 -0.0820 -0.2331
 2108SOL    HW117786   2.203   4.010   8.685 -2.2923  2.4886  1.1720
 2108SOL    HW217787   2.309   4.031   8.586 -0.7434 -2.1200  0.0531
 2109SOL     OW17788   1.875   0.056   4.200 -0.1479  0.0878 -0.4763
 2109SOL    HW117789   1.943   4.713   4.205  1.0828  1.4623  0.9428
 2109SOL    HW217790   1.895   0.115   4.272  1.5346  0.7758 -1.5101
 2110SOL     OW17791   2.821   4.150   5.530  0.0913  0.3220 -0.1324
 2110SOL    HW117792   2.892   4.090   5.554 -1.2075 -1.4319 -0.6950
 2110SOL    HW217793   2.814   4.146   5.435  1.5260 -2.1064 -0.1391
 2111SOL     OW17794   1.844   1.075   7.039 -0.2402  0.6195  0.1436
 2111SOL    HW117795   1.755   1.049   7.060 -0.2865  0.6641  0.0065
 2111SOL    HW217796   1.880   0.986   7.036  1.7311  1.4126 -0.2724
 2112SOL     OW17797   2.696   4.042   1.410 -0.3486  0.3262  0.2038
 2112SOL    HW117798   2.697   4.081   1.497  1.3130  1.1667 -0.1817
 2112SOL    HW217799   2.667   3.954   1.434 -2.2825  0.8752 -0.0964
 2113SOL     OW17800   0.837   1.418   3.336 -0.9302  0.4217 -0.1230
 2113SOL    HW117801   0.885   1.335   3.330 -0.0732  0.9023  0.1407
 2113SOL    HW217802   0.759   1.384   3.379  0.8561 -0.7609  2.2458
 2114SOL     OW17803   4.322   3.123  11.104 -0.2517  0.3344 -0.4812
 2114SOL    HW117804   4.313   3.033  11.072  1.3659  0.9433 -2.6759
 2114SOL    HW217805   4.411   3.121  11.138 -0.5916 -0.3785  0.3679
 2115SOL     OW17806   1.348   4.167   6.728  0.2743  0.6895 -0.0038
 2115SOL    HW117807   1.305   4.137   6.808 -0.6679  0.1718 -0.7046
 2115SOL    HW217808   1.436   4.175   6.764  0.5700 -0.0088 -0.5778
 2116SOL     OW17809   1.691   0.845  11.367 -0.1246 -0.6533 -0.1670
 2116SOL    HW117810   1.723   0.757  11.347 -1.3199 -1.3798  1.1186
 2116SOL    HW217811   1.705   0.892  11.285  3.4873  2.4939  2.2682
 2117SOL     OW17812   3.854   2.324   5.684  0.3125 -0.4246  0.0262
 2117SOL    HW117813   3.946   2.329   5.656 -0.6184  2.0026 -2.5855
 2117SOL    HW217814   3.832   2.417   5.690 -0.1140 -0.4367 -1.4093
 2118SOL     OW17815   0.805   2.800  14.487  0.4913  0.0998 -0.3092
 2118SOL    HW117816   0.786   2.782  14.579  0.1634  1.0688 -0.1837
 2118SOL    HW217817   0.731   2.759  14.441  0.6591  1.7974 -2.1118
 2119SOL     OW17818   2.852   3.482   3.260 -0.5504  0.3945 -0.3471
 2119SOL    HW117819   2.916   3.524   3.202  1.3022  3.0106  3.6030
 2119SOL    HW217820   2.774   3.514   3.215  0.3705  1.7317 -0.9861
 2120SOL     OW17821   0.105   3.596   9.578  0.3139  0.0138 -0.0859
 2120SOL    HW117822   0.155   3.520   9.609  0.4210  0.1805  0.1456
 2120SOL    HW217823   0.060   3.553   9.505  1.5272  1.0560 -1.4528
 2121SOL     OW17824   0.891   0.396  13.779 -0.5580 -0.1805  0.2170
 2121SOL    HW117825   0.964   0.458  13.771 -0.3291 -0.6733 -1.4664
 2121SOL    HW217826   0.871   0.397  13.873  1.4388 -0.5232  0.6636
 2122SOL     OW17827   3.630   3.571   3.229  0.0199  0.5153 -0.0057
 2122SOL    HW117828   3.616   3.598   3.138 -0.9915  0.5579  0.1691
 2122SOL    HW217829   3.587   3.639   3.280  1.1050  0.6408  0.7319
 2123SOL     OW17830   2.413   4.518   2.739 -0.5524  0.5359  0.2297
 2123SOL    HW117831   2.405   4.610   2.714  0.1397  0.1512 -1.3966
 2123SOL    HW217832   2.402   4.519   2.834  0.9856  0.2949  0.4131
 2124SOL     OW17833   2.863   0.556  11.622  0.2065  0.2885 -0.9785
 2124SOL    HW117834   2.831   0.608  11.696  0.4031 -0.4261 -0.3969
 2124SOL    HW217835   2.940   0.608  11.600  0.3734 -0.9768 -3.3964
 2125SOL     OW17836   4.547   4.485   7.173 -0.2067 -0.4166  0.3416
 2125SOL    HW117837   4.501   4.457   7.094  0.6780  1.3145 -0.7980
 2125SOL    HW217838   4.564   4.401   7.215 -0.0728 -0.1077  0.9051
 2126SOL     OW17839   2.854   2.191  17.658  0.3972  0.2995  0.2802
 2126SOL    HW117840   2.907   2.144  17.593 -0.5533 -0.9133  0.3725
 2126SOL    HW217841   2.865   2.281  17.629  0.1084 -0.1775 -1.3620
 2127SOL     OW17842   1.922   4.578   8.414  0.2890 -0.4167 -0.2857
 2127SOL    HW117843   1.971   4.595   8.495  0.7723 -0.2571 -0.6084
 2127SOL    HW217844   1.837   4.586   8.457 -0.1948 -2.4830 -0.8856
 2128SOL     OW17845   2.332   2.425   8.275  0.5800 -0.1649 -0.3224
 2128SOL    HW117846   2.244   2.402   8.304  0.0399  0.5554 -1.3548
 2128SOL    HW217847   2.308   2.426   8.182  0.1127 -2.9284 -0.2282
 2129SOL     OW17848   3.083   4.696  17.210 -0.0783  0.1732  0.4059
 2129SOL    HW117849   3.150   4.628  17.194 -1.1145 -0.4587 -1.2212
 2129SOL    HW217850   3.099   0.004  17.299  0.0968  1.0031  0.0801
 2130SOL     OW17851   1.287   1.191   9.066 -0.5078  0.3091 -0.5629
 2130SOL    HW117852   1.193   1.208   9.069 -0.8693 -2.0207  1.2798
 2130SOL    HW217853   1.318   1.276   9.035 -0.0606  0.4715  0.3324
 2131SOL     OW17854   3.101   2.534  15.416 -0.2686  0.8935 -0.0733
 2131SOL    HW117855   3.065   2.571  15.336  0.1465  0.7211 -0.3417
 2131SOL    HW217856   3.192   2.562  15.428  0.9949 -3.6703  1.0624
 2132SOL     OW17857   3.512   4.069   8.777  0.2248 -0.3379 -0.3400
 2132SOL    HW117858   3.481   4.146   8.824  0.9101 -0.0899 -0.2943
 2132SOL    HW217859   3.470   4.084   8.693 -1.9825 -3.4214  0.2099
 2133SOL     OW17860   3.780   0.757   1.296 -0.5375  0.1040 -0.5477
 2133SOL    HW117861   3.726   0.821   1.251  1.8251  2.0418 -0.5896
 2133SOL    HW217862   3.784   0.785   1.387  2.6370  1.3664 -1.0848
 2134SOL     OW17863   2.052   4.170  11.010 -0.0917  0.2555  0.0507
 2134SOL    HW117864   2.071   4.244  10.952  1.4497  0.0478  0.2674
 2134SOL    HW217865   2.095   4.192  11.093  0.4605  0.8891 -0.4011
 2135SOL     OW17866   4.221   4.315   9.827 -0.2865 -0.1466 -0.1438
 2135SOL    HW117867   4.265   4.374   9.888  3.0264 -0.7419 -1.9505
 2135SOL    HW217868   4.208   4.371   9.750  1.9120  1.3721  0.5797
 2136SOL     OW17869   3.662   0.854   6.791  0.5217  0.2580 -0.5937
 2136SOL    HW117870   3.593   0.865   6.725  0.8505  1.2192 -0.7750
 2136SOL    HW217871   3.676   0.945   6.818  0.3010 -0.2300  1.1499
 2137SOL     OW17872   2.801   4.591   5.453 -0.0239 -0.4560 -0.6612
 2137SOL    HW117873   2.803   4.534   5.376 -0.2822  0.1258 -1.1036
 2137SOL    HW217874   2.842   4.525   5.508  2.7165  1.0445 -0.8659
 2138SOL     OW17875   4.152   4.525  15.490 -0.2212  0.3847 -0.1928
 2138SOL    HW117876   4.206   4.446  15.488  0.0640  0.5806 -0.2789
 2138SOL    HW217877   4.198   4.587  15.433 -3.3124  2.1410 -0.7667
 2139SOL     OW17878   1.271   1.133   3.102 -0.1830 -0.3096 -0.5343
 2139SOL    HW117879   1.201   1.148   3.038 -0.1717  0.4723 -0.3657
 2139SOL    HW217880   1.283   1.040   3.084  0.6065 -0.4987  0.9268
 2140SOL     OW17881   1.411   3.311  12.794 -0.5752 -0.0778 -0.0320
 2140SOL    HW117882   1.486   3.253  12.806 -0.5400 -0.4582 -2.1843
 2140SOL    HW217883   1.377   3.290  12.707  1.3631 -1.0200 -0.5485
 2141SOL     OW17884   3.309   4.192   1.758  0.9372 -0.7563  0.5867
 2141SOL    HW117885   3.275   4.261   1.815  0.5847 -1.1327  0.8328
 2141SOL    HW217886   3.302   4.230   1.670  0.3953 -2.1639  0.0328
 2142SOL     OW17887   4.452   2.584  10.612 -0.1935  0.3923  0.1588
 2142SOL    HW117888   4.481   2.629  10.532  1.8430 -1.1149  0.0596
 2142SOL    HW217889   4.484   2.494  10.603  0.2614  0.3320  2.4558
 2143SOL     OW17890   3.465   2.597   2.327  0.0528 -1.0226  0.0244
 2143SOL    HW117891   3.495   2.607   2.236  2.3017 -2.4493  0.6150
 2143SOL    HW217892   3.476   2.685   2.364  0.6707 -1.8497  1.7668
 2144SOL     OW17893   4.628   0.881  12.512  0.1062  0.5731  0.6259
 2144SOL    HW117894   4.603   0.793  12.540  0.4534  0.0515 -0.7205
 2144SOL    HW217895   4.677   0.880  12.430 -1.2439 -2.1932 -0.1635
 2145SOL     OW17896   0.683   0.550   7.893  0.6349  0.5411  0.0465
 2145SOL    HW117897   0.636   0.633   7.883  0.4007  0.4641  0.4874
 2145SOL    HW217898   0.604   0.499   7.914  1.0076  0.7110  1.8095
 2146SOL     OW17899   0.615   3.109   3.701  0.2419 -0.4222 -0.4604
 2146SOL    HW117900   0.699   3.099   3.744 -0.9722  1.1539  2.2794
 2146SOL    HW217901   0.582   3.026   3.738 -3.8129  1.0877 -0.6846
 2147SOL     OW17902   3.036   4.481   3.966 -0.1721 -0.7101 -0.1799
 2147SOL    HW117903   2.962   4.534   3.997  0.7031  0.2781  0.2374
 2147SOL    HW217904   3.061   4.459   4.056 -1.7827 -1.1772  0.1488
 2148SOL     OW17905   1.834   2.119  13.177 -0.1084  0.0265 -0.0970
 2148SOL    HW117906   1.866   2.049  13.120  2.3895  0.8879  0.2296
 2148SOL    HW217907   1.806   2.065  13.251  0.1199  0.9035  0.6221
 2149SOL     OW17908   0.118   1.898   0.379  0.1543 -0.2824 -0.1103
 2149SOL    HW117909   0.083   1.888   0.467 -0.5065  1.4448 -0.1695
 2149SOL    HW217910   0.068   1.967   0.334  0.4014 -0.4272 -0.6056
 2150SOL     OW17911   4.573   3.854   4.100  0.0044 -0.5871 -0.6172
 2150SOL    HW117912   4.575   3.775   4.047 -1.2464 -0.8154 -0.3183
 2150SOL    HW217913   4.551   3.920   4.034  2.1137 -0.6648 -1.3945
 2151SOL     OW17914   2.260   3.242   7.766 -0.1014  0.0698  0.2064
 2151SOL    HW117915   2.346   3.219   7.801 -0.9480 -1.7069  1.1326
 2151SOL    HW217916   2.273   3.323   7.716  0.1412  0.8652  1.5696
 2152SOL     OW17917   4.030   2.611   5.915 -0.0718 -0.2234  0.0322
 2152SOL    HW117918   4.002   2.663   5.991 -1.7450  1.1061 -1.4876
 2152SOL    HW217919   4.055   2.526   5.949 -1.0418 -1.2592 -1.8517
 2153SOL     OW17920   2.812   0.320   1.108  0.4661 -0.0055 -0.0093
 2153SOL    HW117921   2.881   0.385   1.103 -0.1498  0.5864 -0.8583
 2153SOL    HW217922   2.853   0.244   1.067 -0.8390 -1.6175  1.6745
 2154SOL     OW17923   0.793   3.694   1.420 -0.1736  0.3305 -0.4627
 2154SOL    HW117924   0.838   3.771   1.384  0.7951  0.3581  0.7944
 2154SOL    HW217925   0.800   3.719   1.512 -0.8524  2.3124 -0.9470
 2155SOL     OW17926   1.542   0.528   4.474  0.6236  0.3745 -0.2283
 2155SOL    HW117927   1.589   0.521   4.391  1.3196 -1.0219  0.2704
 2155SOL    HW217928   1.610   0.486   4.526  0.3387  1.5075  1.0734
 2156SOL     OW17929   3.734   2.939  16.034 -0.1595 -0.2847 -0.9613
 2156SOL    HW117930   3.687   2.875  16.087 -0.0666 -0.9607 -1.6956
 2156SOL    HW217931   3.664   2.988  15.991  0.9101  0.5589 -1.7556
 2157SOL     OW17932   0.529   2.609  16.175 -0.7819 -0.9154 -0.1406
 2157SOL    HW117933   0.458   2.585  16.234  0.9891 -2.6236  1.3252
 2157SOL    HW217934   0.578   2.528  16.186 -0.1527 -0.5889 -0.5215
 2158SOL     OW17935   0.377   0.682   7.216  0.2765  0.1993  0.5713
 2158SOL    HW117936   0.391   0.595   7.254  0.2880 -1.1216 -2.4096
 2158SOL    HW217937   0.461   0.699   7.173 -0.3729 -0.3496 -0.9228
 2159SOL     OW17938   3.095   0.743  12.057  0.1173 -0.4749 -0.3136
 2159SOL    HW117939   3.093   0.787  12.143  1.1290  1.3095 -1.2048
 2159SOL    HW217940   3.133   0.661  12.088 -0.0787 -0.4050  0.1280
 2160SOL     OW17941   4.296   4.674   0.480 -0.1828  0.1307  0.5459
 2160SOL    HW117942   4.342   4.678   0.396 -1.4462  0.2304 -0.1473
 2160SOL    HW217943   4.358   4.614   0.522  1.6738 -0.1494 -2.5905
 2161SOL     OW17944   1.179   1.187   0.193 -0.0052 -0.1739  0.3110
 2161SOL    HW117945   1.253   1.220   0.243  1.2199  0.7772 -2.1409
 2161SOL    HW217946   1.231   1.168   0.115  0.5981  0.2426  0.6105
 2162SOL     OW17947   3.552   3.343   1.068  0.6926  0.4322 -0.2114
 2162SOL    HW117948   3.554   3.267   1.009 -2.0476  1.0280 -1.0521
 2162SOL    HW217949   3.579   3.309   1.154  1.6953 -1.9300 -1.4571
 2163SOL     OW17950   0.039   1.160  14.671  0.4154 -0.0893 -0.4552
 2163SOL    HW117951   0.020   1.082  14.724  0.9310  0.5093  0.6045
 2163SOL    HW217952   0.134   1.159  14.658  0.2716 -0.1298 -1.4834
 2164SOL     OW17953   2.880   4.155   2.358 -0.1187 -0.3244 -0.2652
 2164SOL    HW117954   2.852   4.156   2.449  0.1423 -0.4241 -0.1831
 2164SOL    HW217955   2.925   4.238   2.348 -0.0860 -0.4305 -1.0516
 2165SOL     OW17956   0.361   1.343   7.934  0.4772 -0.2912 -0.4000
 2165SOL    HW117957   0.303   1.292   7.991  1.0744  0.8575  1.2501
 2165SOL    HW217958   0.414   1.275   7.894  0.5339  0.1263 -1.0279
 2166SOL     OW17959   1.748   0.195  17.119 -0.2595 -0.1287  0.2980
 2166SOL    HW117960   1.803   0.137  17.067 -0.1719 -1.4866  1.9087
 2166SOL    HW217961   1.780   0.180  17.208 -1.0472  3.2327  1.1400
 2167SOL     OW17962   3.525   2.056   9.922  0.0493 -0.3509  0.5393
 2167SOL    HW117963   3.445   2.089   9.881  0.4563 -0.1846 -0.1173
 2167SOL    HW217964   3.581   2.108   9.865 -0.5977  0.5926  0.7670
 2168SOL     OW17965   4.666   4.459   8.494 -0.2623 -0.3963  0.0749
 2168SOL    HW117966   4.575   4.488   8.495  0.6312  2.2610  2.2908
 2168SOL    HW217967   4.711   4.517   8.433 -2.5077  2.1774  0.8766
 2169SOL     OW17968   1.918   2.862   8.064  0.0688  0.0704  0.6115
 2169SOL    HW117969   1.853   2.890   8.128 -0.1575 -0.8999  0.8157
 2169SOL    HW217970   1.920   2.928   7.995  2.3192 -1.6429 -0.9766
 2170SOL     OW17971   2.882   4.701   4.041  0.2145  0.0992  0.3267
 2170SOL    HW117972   2.790   4.701   4.015 -0.1665 -0.7984  1.7169
 2170SOL    HW217973   2.905   0.069   4.022 -1.1108 -0.0258 -1.8510
 2171SOL     OW17974   4.509   3.406   4.624 -0.1750 -0.1463 -0.6186
 2171SOL    HW117975   4.436   3.463   4.600 -0.5625 -0.3052  0.1936
 2171SOL    HW217976   4.583   3.452   4.585 -1.5009  2.2572 -0.2815
 2172SOL     OW17977   3.686   3.554   6.807 -0.3173 -0.4960  0.9058
 2172SOL    HW117978   3.720   3.631   6.853  1.1880 -0.0539 -0.9338
 2172SOL    HW217979   3.732   3.487   6.859 -1.0758 -2.2465 -0.6959
 2173SOL     OW17980   3.862   2.413   2.142 -0.2551  0.5446  0.2563
 2173SOL    HW117981   3.874   2.507   2.156 -2.6009  0.6970  1.1423
 2173SOL    HW217982   3.885   2.380   2.229  2.9270 -1.1694 -1.2285
 2174SOL     OW17983   0.854   1.018   8.100  0.3975  0.1286 -0.1216
 2174SOL    HW117984   0.881   0.988   8.013  1.7214 -0.7650  0.5972
 2174SOL    HW217985   0.931   1.074   8.104  1.0237 -0.7361 -0.1368
 2175SOL     OW17986   3.913   4.337  11.938  0.4338  0.0397  0.0879
 2175SOL    HW117987   3.944   4.426  11.957 -1.3585  0.7326 -0.2529
 2175SOL    HW217988   3.839   4.328  11.997 -0.3443 -1.6137 -1.1551
 2176SOL     OW17989   1.020   3.948   9.377  0.1116  0.1338 -0.5916
 2176SOL    HW117990   0.997   4.040   9.372 -0.8161 -0.0940 -0.5689
 2176SOL    HW217991   0.967   3.923   9.453 -1.6919  1.2845 -1.4835
 2177SOL     OW17992   0.391   4.011  14.885 -0.3296  0.7072 -0.0068
 2177SOL    HW117993   0.405   4.088  14.829  0.5520 -0.4645 -1.4008
 2177SOL    HW217994   0.421   4.050  14.967 -0.6565 -1.8718  1.3250
 2178SOL     OW17995   2.230   2.839  17.131 -0.1457 -0.2896  0.2016
 2178SOL    HW117996   2.172   2.912  17.154  2.9880  2.0961  0.4310
 2178SOL    HW217997   2.169   2.768  17.151 -0.2714 -0.5612 -1.1490
 2179SOL     OW17998   0.041   3.609   1.083  0.2521 -1.0312 -0.0094
 2179SOL    HW117999   4.692   3.551   1.104 -2.2529  1.9561 -0.4033
 2179SOL    HW218000   0.077   3.612   1.172 -1.4175 -0.7816  0.6513
 2180SOL     OW18001   0.738   2.846  15.102 -0.0837 -0.1984  0.0019
 2180SOL    HW118002   0.736   2.933  15.143  3.3739  0.5053 -1.2785
 2180SOL    HW218003   0.684   2.866  15.026  0.8597  3.1941  0.2022
 2181SOL     OW18004   0.519   0.115   8.602 -0.8901  0.3287  0.1736
 2181SOL    HW118005   0.474   0.133   8.519  2.0850  0.4239 -1.4181
 2181SOL    HW218006   0.594   0.174   8.596 -1.0692  0.4148 -1.4055
 2182SOL     OW18007   1.729   2.094   6.838  0.1050  0.4550  0.2990
 2182SOL    HW118008   1.794   2.035   6.877  1.4102  2.2778  0.8610
 2182SOL    HW218009   1.778   2.136   6.767  1.0165  0.3158  0.8381
 2183SOL     OW18010   0.122   4.223   4.265 -0.3062 -0.4724  0.1652
 2183SOL    HW118011   0.091   4.313   4.264 -0.7922 -0.6223  1.5969
 2183SOL    HW218012   0.116   4.193   4.174  2.2733  1.8253 -0.7646
 2184SOL     OW18013   0.292   0.607  12.101  0.0570 -0.5270 -0.3531
 2184SOL    HW118014   0.387   0.602  12.107  0.0188 -1.1370 -0.3054
 2184SOL    HW218015   0.257   0.519  12.089 -1.5815  0.4553 -2.9246
 2185SOL     OW18016   1.882   3.821   4.417  0.3725 -0.3357 -0.0420
 2185SOL    HW118017   1.925   3.753   4.365 -0.3067 -1.7176  1.1756
 2185SOL    HW218018   1.892   3.795   4.509  0.1960  1.6046  0.5245
 2186SOL     OW18019   3.202   1.701   6.041  0.6061  0.3275  0.1352
 2186SOL    HW118020   3.116   1.744   6.050  0.3509 -0.2819  0.6331
 2186SOL    HW218021   3.233   1.735   5.957  0.3987  2.8049  1.0520
 2187SOL     OW18022   0.309   3.986  15.952 -0.3206 -0.0356  0.1038
 2187SOL    HW118023   0.320   4.049  15.880  0.5050 -0.0902  0.1767
 2187SOL    HW218024   0.223   4.015  15.981 -0.5893  2.5539 -3.2354
 2188SOL     OW18025   4.011   0.077  16.676  0.5472 -0.1471 -0.1449
 2188SOL    HW118026   4.011   0.171  16.658 -0.9784 -0.4024 -1.4238
 2188SOL    HW218027   3.988   0.074  16.769  0.4922 -1.3437 -0.1961
 2189SOL     OW18028   1.739   3.084   5.787 -0.1809  0.1472  0.1639
 2189SOL    HW118029   1.791   3.091   5.867 -0.2930  0.5789  0.2013
 2189SOL    HW218030   1.811   3.093   5.724 -0.8066 -1.6614 -0.8029
 2190SOL     OW18031   2.082   0.733   8.143  0.3454  0.6896 -0.2734
 2190SOL    HW118032   2.080   0.823   8.174 -1.3448  0.3504  0.6013
 2190SOL    HW218033   2.025   0.735   8.066 -0.6848  3.0979  0.5571
 2191SOL     OW18034   0.003   2.851   3.639  0.4940 -0.2597 -0.1517
 2191SOL    HW118035   4.638   2.816   3.629  0.6234 -1.1308  1.6376
 2191SOL    HW218036   0.039   2.844   3.551 -0.0120 -1.0786 -0.2947
 2192SOL     OW18037   3.989   4.556   6.972 -0.2538 -0.3307  0.8542
 2192SOL    HW118038   4.071   4.593   6.940 -0.3068  0.2506  1.4006
 2192SOL    HW218039   3.993   4.562   7.068 -0.9199  2.7850  0.6818
 2193SOL     OW18040   4.718   3.690  16.782 -0.0595 -0.2886 -0.6128
 2193SOL    HW118041   4.664   3.744  16.725 -0.6694 -1.8389 -1.5017
 2193SOL    HW218042   0.070   3.671  16.728 -0.2546 -1.0163 -0.6268
 2194SOL     OW18043   2.323   4.374   5.846 -0.2456 -0.0611  0.0762
 2194SOL    HW118044   2.388   4.410   5.786  1.1217 -0.6512  1.2091
 2194SOL    HW218045   2.264   4.448   5.860  1.0600  0.6494  1.8097
 2195SOL     OW18046   4.465   2.285   8.910 -0.5113 -0.3307 -0.4631
 2195SOL    HW118047   4.401   2.345   8.871  0.0968  0.7982  0.2811
 2195SOL    HW218048   4.491   2.241   8.829  1.3839 -0.0204 -0.0337
 2196SOL     OW18049   3.728   2.272   4.519 -0.2069  0.1588 -0.3992
 2196SOL    HW118050   3.812   2.272   4.473  0.5855  0.2534  1.0549
 2196SOL    HW218051   3.724   2.367   4.525 -2.1672  0.0781 -0.4975
 2197SOL     OW18052   3.619   0.535   2.374 -0.4026  0.1045 -0.7509
 2197SOL    HW118053   3.712   0.516   2.384 -0.1013  2.0448  0.0361
 2197SOL    HW218054   3.596   0.534   2.467 -2.0639 -0.8192 -1.1630
 2198SOL     OW18055   0.285   3.929   6.785 -1.1450  0.2596 -0.4245
 2198SOL    HW118056   0.258   3.858   6.726 -0.7770  2.3641 -3.1260
 2198SOL    HW218057   0.207   3.984   6.799 -0.0105  1.8130 -0.1805
 2199SOL     OW18058   1.412   0.714   0.223 -0.0684  0.6523 -0.1382
 2199SOL    HW118059   1.331   0.748   0.185 -1.4917  0.3804  2.7268
 2199SOL    HW218060   1.427   0.633   0.174  1.8498  1.4435 -0.8560
 2200SOL     OW18061   3.550   3.578  10.061 -0.3785  0.3263  0.2144
 2200SOL    HW118062   3.632   3.625  10.080 -1.3088  1.2579  1.9156
 2200SOL    HW218063   3.570   3.484  10.055 -3.1445 -0.1036 -1.9924
 2201SOL     OW18064   3.655   3.467   4.118 -0.2907 -0.1165 -0.0286
 2201SOL    HW118065   3.682   3.403   4.053  0.3160 -0.4182  0.5223
 2201SOL    HW218066   3.578   3.508   4.077  1.0706 -0.3525 -2.8321
 2202SOL     OW18067   3.873   3.115  16.323  0.2457 -0.2012 -0.6499
 2202SOL    HW118068   3.922   3.075  16.252  0.2976 -0.0482 -0.7008
 2202SOL    HW218069   3.923   3.194  16.342  2.3664 -0.9571 -3.1214
 2203SOL     OW18070   4.157   3.165   0.050  0.0091  0.4725 -0.5412
 2203SOL    HW118071   4.242   3.205   0.034  0.1757 -0.2077 -1.3438
 2203SOL    HW218072   4.126   3.200   0.133  1.8091 -0.6701  0.6000
 2204SOL     OW18073   1.581   4.283   3.222  0.8416 -0.3919  0.4134
 2204SOL    HW118074   1.582   4.359   3.281  2.9556 -0.1874  0.1276
 2204SOL    HW218075   1.572   4.324   3.136  1.7710 -0.4296  0.2978
 2205SOL     OW18076   1.275   1.637  16.356  0.1319 -0.6864  0.2575
 2205SOL    HW118077   1.344   1.700  16.378 -0.5634 -0.0882  0.7295
 2205SOL    HW218078   1.308   1.557  16.396 -1.6904 -0.8832  1.3457
 2206SOL     OW18079   4.037   2.050   3.239 -0.4100  0.4579  0.0299
 2206SOL    HW118080   4.032   2.099   3.321 -0.9962 -0.9501  0.8435
 2206SOL    HW218081   4.091   1.976   3.266 -0.0988  0.5399 -0.3655
 2207SOL     OW18082   0.323   1.330  13.222  0.4129  0.4748  0.4088
 2207SOL    HW118083   0.238   1.375  13.213  1.4016  1.8290 -1.9484
 2207SOL    HW218084   0.320   1.317  13.317 -3.1331 -3.1831 -0.2068
 2208SOL     OW18085   0.255   3.151   9.798  0.0175  0.4502  0.7807
 2208SOL    HW118086   0.221   3.237   9.772 -1.3599 -0.0588  0.9091
 2208SOL    HW218087   0.345   3.180   9.814  0.4713  0.0863 -1.2478
 2209SOL     OW18088   3.502   2.671  14.077 -0.6424 -0.1068  0.0234
 2209SOL    HW118089   3.475   2.733  14.145 -2.0718 -2.9015  1.9939
 2209SOL    HW218090   3.534   2.728  14.007 -0.1085 -1.1859 -0.6096
 2210SOL     OW18091   1.418   3.111  14.850 -0.5228 -0.2919 -0.1933
 2210SOL    HW118092   1.484   3.106  14.780 -1.2374  0.4213 -0.9095
 2210SOL    HW218093   1.459   3.075  14.929  3.2414  0.8987 -1.6092
 2211SOL     OW18094   0.641   2.136   0.319 -0.0662  0.6080  0.1774
 2211SOL    HW118095   0.560   2.086   0.320  0.8438 -0.8325  0.6673
 2211SOL    HW218096   0.699   2.074   0.363 -0.2756  0.0240 -0.3851
 2212SOL     OW18097   0.895   0.452  14.324  0.1074 -0.5444 -0.0509
 2212SOL    HW118098   0.814   0.447  14.374  0.8481 -2.0264  1.0041
 2212SOL    HW218099   0.950   0.521  14.361 -2.9846  2.3473 -0.9592
 2213SOL     OW18100   3.101   1.031   2.483  0.1118  0.3276 -0.5899
 2213SOL    HW118101   3.142   1.116   2.464  0.2025  0.3457 -0.3083
 2213SOL    HW218102   3.172   0.986   2.529 -0.7476  0.5278  0.9119
 2214SOL     OW18103   1.508   0.954  12.626  0.1715 -0.0320  0.0949
 2214SOL    HW118104   1.519   1.028  12.684  1.0571 -0.5388  0.5802
 2214SOL    HW218105   1.526   0.996  12.541  2.1448  1.6092  1.3370
 2215SOL     OW18106   4.059   2.493  10.868 -0.0123 -0.0663  0.0044
 2215SOL    HW118107   4.003   2.553  10.918  0.0950  0.1139 -0.0955
 2215SOL    HW218108   4.028   2.409  10.903 -1.8467  0.9081  0.7619
 2216SOL     OW18109   4.548   1.021   0.673  0.0052 -1.1000 -0.1447
 2216SOL    HW118110   4.633   1.040   0.632 -1.0417 -1.8460 -2.6834
 2216SOL    HW218111   4.568   1.019   0.766 -1.0493  2.1128  0.1522
 2217SOL     OW18112   0.903   4.035  12.779  0.8027  0.1704 -0.1945
 2217SOL    HW118113   0.937   3.963  12.831  0.3479  0.5087  0.5767
 2217SOL    HW218114   0.978   4.066  12.728  0.7703 -1.6202 -1.2995
 2218SOL     OW18115   1.635   3.610   8.178 -0.6686  0.3402  0.4967
 2218SOL    HW118116   1.590   3.534   8.217 -0.9306  1.4290  2.3053
 2218SOL    HW218117   1.705   3.621   8.242  1.1606 -0.6564 -1.3265
 2219SOL     OW18118   2.357   2.357   3.279  0.2821  0.3915 -0.1313
 2219SOL    HW118119   2.337   2.407   3.200 -2.4146 -0.0550  0.2977
 2219SOL    HW218120   2.300   2.281   3.267  1.1271  0.0581 -2.1759
 2220SOL     OW18121   3.974   4.499   9.755  0.2081  0.0723  0.1797
 2220SOL    HW118122   3.885   4.505   9.719 -0.8419 -0.4934  2.6405
 2220SOL    HW218123   4.028   4.478   9.679  0.2371  1.5095 -0.2079
 2221SOL     OW18124   3.284   0.513   8.174  0.0534  0.4091 -0.1780
 2221SOL    HW118125   3.311   0.549   8.090 -1.0297  1.7841  0.0713
 2221SOL    HW218126   3.299   0.585   8.235 -0.2245  0.9765 -0.7866
 2222SOL     OW18127   2.268   0.573   7.635  0.3198 -0.1977 -0.2696
 2222SOL    HW118128   2.258   0.587   7.540 -2.0510 -1.2580 -0.1621
 2222SOL    HW218129   2.190   0.520   7.650 -1.4874  2.4737 -0.2555
 2223SOL     OW18130   2.978   2.265   5.237 -0.3385  0.0010 -0.2722
 2223SOL    HW118131   2.963   2.184   5.189 -0.8623 -0.4089  0.5629
 2223SOL    HW218132   3.070   2.287   5.221  0.1406 -1.5690  0.3289
 2224SOL     OW18133   4.531   3.149   4.475  0.0506  0.3678  0.5649
 2224SOL    HW118134   4.512   3.236   4.511 -0.9552  0.4821 -0.2361
 2224SOL    HW218135   4.442   3.115   4.471  0.3095 -0.5114  2.2376
 2225SOL     OW18136   0.407   3.328   5.833  0.0723 -0.3209  0.2816
 2225SOL    HW118137   0.428   3.364   5.920  2.6287  3.1913 -1.7446
 2225SOL    HW218138   0.368   3.406   5.793 -0.2412 -1.3640 -1.4062
 2226SOL     OW18139   4.022   2.205   3.806  0.1205  0.2526 -0.2154
 2226SOL    HW118140   4.003   2.293   3.839 -4.2988 -0.4017 -1.0234
 2226SOL    HW218141   3.937   2.190   3.765  1.0026 -1.3717 -1.4869
 2227SOL     OW18142   1.220   1.998   4.282  0.2064 -0.1285  0.1794
 2227SOL    HW118143   1.269   1.973   4.204  0.8515 -0.7126  0.7686
 2227SOL    HW218144   1.186   2.083   4.253 -1.9483 -1.0227  0.1117
 2228SOL     OW18145   3.930   1.564   6.269 -0.6094 -0.4061 -0.1312
 2228SOL    HW118146   3.888   1.520   6.342 -3.7375 -0.7810 -2.1268
 2228SOL    HW218147   3.889   1.650   6.277 -1.5645 -0.9214  0.3976
 2229SOL     OW18148   2.100   4.329   3.985  0.1693  0.1063  0.6965
 2229SOL    HW118149   2.055   4.304   3.904 -1.1097 -0.1773  1.4867
 2229SOL    HW218150   2.045   4.286   4.051 -0.2837 -0.3538  0.0260
 2230SOL     OW18151   4.119   1.439   4.560  0.4843  0.2430  0.1313
 2230SOL    HW118152   4.159   1.440   4.474  1.4448 -1.9681  0.5619
 2230SOL    HW218153   4.078   1.524   4.578  0.0915  0.2235 -0.6633
 2231SOL     OW18154   0.153   4.108   3.669 -0.2515  0.0698 -0.5609
 2231SOL    HW118155   0.213   4.111   3.594 -1.3373  0.3005 -1.4165
 2231SOL    HW218156   0.117   4.196   3.665  0.3441  0.2818 -1.3113
 2232SOL     OW18157   1.185   3.240  15.842  0.0606  0.7191 -0.2839
 2232SOL    HW118158   1.139   3.164  15.806 -0.1001 -0.3325  2.1256
 2232SOL    HW218159   1.154   3.306  15.781  1.9406  2.0529  0.1926
 2233SOL     OW18160   2.113   0.230   9.318  0.0293  0.1724  0.1309
 2233SOL    HW118161   2.099   0.322   9.340  0.1213  0.1467  0.2966
 2233SOL    HW218162   2.202   0.222   9.352 -0.4662  1.1444  1.6576
 2234SOL     OW18163   3.261   1.408   3.627 -0.0521 -0.1570  0.1003
 2234SOL    HW118164   3.192   1.343   3.617  2.0137 -2.4647  0.7390
 2234SOL    HW218165   3.217   1.493   3.621 -1.2050 -0.8631 -1.4007
 2235SOL     OW18166   2.112   1.672   6.801  0.5674  0.2150  0.7535
 2235SOL    HW118167   2.051   1.629   6.861  0.2838 -1.1085 -0.4915
 2235SOL    HW218168   2.165   1.725   6.859 -0.7290 -0.0005  2.1361
 2236SOL     OW18169   1.227   2.843   3.215  0.1768 -0.5995 -0.1881
 2236SOL    HW118170   1.161   2.912   3.217 -0.6064 -1.3763  0.7911
 2236SOL    HW218171   1.189   2.802   3.137  0.0703 -0.5053 -0.1862
 2237SOL     OW18172   0.847   1.433  11.206  0.2371  1.4449 -0.9110
 2237SOL    HW118173   0.764   1.425  11.253  1.2832 -0.4002  0.6304
 2237SOL    HW218174   0.861   1.338  11.201  1.4106  1.6810 -2.0996
 2238SOL     OW18175   2.714   2.752   6.509 -0.1977  0.5241 -0.1349
 2238SOL    HW118176   2.808   2.760   6.490  0.4806 -1.4115  2.4190
 2238SOL    HW218177   2.718   2.659   6.529 -0.4522  0.0129 -2.4968
 2239SOL     OW18178   3.800   0.814   2.485 -0.2643 -0.3523  0.2833
 2239SOL    HW118179   3.830   0.849   2.569 -0.7365  1.5725 -0.3316
 2239SOL    HW218180   3.713   0.778   2.505 -1.4519  2.6860  0.7713
 2240SOL     OW18181   1.455   3.197   4.776  0.3523  0.5641  0.0364
 2240SOL    HW118182   1.480   3.105   4.781  0.1033  0.4620 -0.5704
 2240SOL    HW218183   1.383   3.198   4.839 -1.4415 -0.2570 -1.9831
 2241SOL     OW18184   3.858   0.117  11.724 -0.0308  0.2835 -0.2596
 2241SOL    HW118185   3.834   0.053  11.657 -0.7280  1.0673 -0.7695
 2241SOL    HW218186   3.812   0.073  11.795  1.0416  0.3719  0.4954
 2242SOL     OW18187   0.743   1.055   8.420  0.0357  0.2756 -0.1048
 2242SOL    HW118188   0.773   1.120   8.356 -1.1480 -0.4610 -1.4079
 2242SOL    HW218189   0.832   1.050   8.455  0.5805 -1.0687 -1.7000
 2243SOL     OW18190   1.714   4.641   4.691  0.2196 -0.3033 -0.5021
 2243SOL    HW118191   1.634   4.689   4.712  0.5222  0.3284 -0.7954
 2243SOL    HW218192   1.685   4.601   4.609 -1.5535 -1.0608  0.4856
 2244SOL     OW18193   0.632   2.518  10.678  0.4429  0.1341 -0.0468
 2244SOL    HW118194   0.622   2.434  10.724 -3.0210  0.3921 -0.2920
 2244SOL    HW218195   0.674   2.574  10.743  1.6580 -0.2643 -0.4880
 2245SOL     OW18196   3.409   4.332   5.647 -0.2841  0.6650  0.5024
 2245SOL    HW118197   3.343   4.276   5.688 -0.7614  0.3753 -0.6497
 2245SOL    HW218198   3.478   4.329   5.713 -0.0345  0.6020  0.2395
 2246SOL     OW18199   1.803   2.162   5.213  0.0892  0.4042  0.6797
 2246SOL    HW118200   1.793   2.129   5.302 -1.0595 -0.5490  0.2082
 2246SOL    HW218201   1.731   2.224   5.203 -1.8709 -1.7326  1.2759
 2247SOL     OW18202   2.270   4.591  15.152  0.1908 -0.2404 -0.6002
 2247SOL    HW118203   2.191   4.620  15.198  0.9778 -1.0237  1.2185
 2247SOL    HW218204   2.280   4.669  15.097 -1.2423  0.5927  0.3298
 2248SOL     OW18205   2.736   3.711   8.363  0.7918 -0.0425  0.1007
 2248SOL    HW118206   2.727   3.656   8.440 -0.5390 -1.0277 -0.7617
 2248SOL    HW218207   2.784   3.783   8.403  0.9829  1.4514 -2.8202
 2249SOL     OW18208   4.018   4.688   3.947  0.1281  0.2371 -0.5202
 2249SOL    HW118209   3.939   0.015   3.964  1.6684  1.4655  3.0659
 2249SOL    HW218210   4.065   4.688   4.030 -2.8391  1.3666  1.1592
 2250SOL     OW18211   3.092   1.121  11.482  0.4261  0.0515  0.4802
 2250SOL    HW118212   3.093   1.216  11.492  1.1970  0.1935 -1.0396
 2250SOL    HW218213   3.003   1.098  11.507  1.3080 -0.7100  2.9280
 2251SOL     OW18214   0.447   2.032   6.635  0.1116  0.1007 -0.3367
 2251SOL    HW118215   0.396   2.097   6.683 -1.0683 -0.1394 -1.2788
 2251SOL    HW218216   0.429   1.947   6.674 -1.7413 -0.3553 -2.1863
 2252SOL     OW18217   2.633   3.039   3.781 -0.3589  0.2852 -0.2249
 2252SOL    HW118218   2.700   3.043   3.713 -0.9041  0.8191 -0.7275
 2252SOL    HW218219   2.676   2.999   3.857 -1.8949 -0.6106  0.1691
 2253SOL     OW18220   2.801   4.206   1.675  0.4249  0.5958 -0.0511
 2253SOL    HW118221   2.869   4.227   1.611 -0.1100  2.1235 -0.1250
 2253SOL    HW218222   2.838   4.125   1.709 -0.0298 -0.4744 -2.1806
 2254SOL     OW18223   2.624   2.060   5.711 -0.2680  0.2851 -0.4462
 2254SOL    HW118224   2.687   2.118   5.754 -2.5640  1.3677  1.4878
 2254SOL    HW218225   2.552   2.124   5.703  1.2493  1.9101 -1.0351
 2255SOL     OW18226   4.094   2.661   3.894 -0.5977  0.6969  0.7948
 2255SOL    HW118227   4.016   2.615   3.863 -0.9521 -0.6809  3.7144
 2255SOL    HW218228   4.118   2.714   3.818  1.1188 -0.3083  0.6496
 2256SOL     OW18229   2.482   3.365  15.712 -0.4230 -0.2807  0.3253
 2256SOL    HW118230   2.387   3.362  15.722 -0.6612  0.1585 -1.7920
 2256SOL    HW218231   2.502   3.455  15.739  0.2652 -0.0170 -1.0488
 2257SOL     OW18232   0.754   2.191   7.705 -0.0101 -0.0179  0.4949
 2257SOL    HW118233   0.681   2.240   7.668  1.7939  1.4861 -1.0716
 2257SOL    HW218234   0.747   2.103   7.668 -3.3929  0.7818 -0.7204
 2258SOL     OW18235   2.363   0.701   8.180 -0.3180 -0.1453  0.5379
 2258SOL    HW118236   2.271   0.714   8.156 -0.2133  0.3112  0.3904
 2258SOL    HW218237   2.366   0.607   8.202  0.8277 -0.1024  0.5374
 2259SOL     OW18238   0.125   0.991   4.625 -0.4686  0.4010 -0.1294
 2259SOL    HW118239   0.122   1.074   4.673 -1.3559  0.9914 -1.1900
 2259SOL    HW218240   0.148   0.925   4.690 -1.9889  1.3157  1.3371
 2260SOL     OW18241   3.658   0.544   5.883  0.0783  0.0362 -0.3183
 2260SOL    HW118242   3.685   0.601   5.811 -1.1958  2.1077  0.8373
 2260SOL    HW218243   3.653   0.609   5.953 -1.5527 -1.0121  0.5385
 2261SOL     OW18244   2.102   3.906  13.302 -0.3576  0.3585  0.3116
 2261SOL    HW118245   2.179   3.961  13.321  0.6249 -0.5099 -1.1741
 2261SOL    HW218246   2.104   3.825  13.352  2.6606  0.8264  0.9640
 2262SOL     OW18247   3.819   4.711  13.470 -0.3628 -0.0027 -0.1348
 2262SOL    HW118248   3.875   4.680  13.541  0.2128  0.8833 -0.2001
 2262SOL    HW218249   3.873   4.721  13.392  1.4148 -0.6750  1.0144
 2263SOL     OW18250   1.137   1.054   4.342  0.4136  0.1374  0.0460
 2263SOL    HW118251   1.136   0.967   4.302  0.4092  1.4807 -2.9528
 2263SOL    HW218252   1.079   1.036   4.415  1.0997 -2.1008  0.0186
 2264SOL     OW18253   3.653   2.469   0.574  0.1581 -0.1085  0.3603
 2264SOL    HW118254   3.656   2.374   0.559 -0.4270 -0.3143  1.5391
 2264SOL    HW218255   3.676   2.470   0.667 -2.2685  0.8165  0.9543
 2265SOL     OW18256   3.988   0.792   6.033 -0.1398 -0.3656 -0.3056
 2265SOL    HW118257   4.032   0.708   6.047  1.7910  0.2903 -2.4185
 2265SOL    HW218258   4.042   0.836   5.968  1.4657 -1.2496  0.4261
 2266SOL     OW18259   1.341   4.376   3.926  0.0061  0.4348  0.6909
 2266SOL    HW118260   1.376   4.312   3.989  0.5838  1.2820  1.2267
 2266SOL    HW218261   1.406   4.351   3.860  1.6281  2.0584  1.6701
 2267SOL     OW18262   1.562   3.847   9.393 -0.1137  0.4417 -0.1246
 2267SOL    HW118263   1.577   3.753   9.384 -0.8960  0.2081  0.9331
 2267SOL    HW218264   1.476   3.860   9.353  0.5089  2.8408 -0.6345
 2268SOL     OW18265   3.572   4.011   7.397  0.2025 -0.0260 -0.1292
 2268SOL    HW118266   3.524   3.952   7.454 -1.0793 -0.2053 -1.4063
 2268SOL    HW218267   3.639   3.951   7.363  1.0222  1.1314 -0.5743
 2269SOL     OW18268   1.621   3.424   2.192  0.0814  0.7443 -0.0256
 2269SOL    HW118269   1.574   3.408   2.110  1.6490 -1.6823 -0.4662
 2269SOL    HW218270   1.711   3.401   2.166 -0.4155  0.5871 -1.6211
 2270SOL     OW18271   2.595   3.564   5.409 -0.1009  0.6507 -0.3842
 2270SOL    HW118272   2.513   3.570   5.458  0.4061  1.6015  0.3348
 2270SOL    HW218273   2.606   3.474   5.377  0.9565  0.5904  0.1472
 2271SOL     OW18274   2.431   0.160  11.409  0.2840 -0.0910  0.0126
 2271SOL    HW118275   2.399   0.095  11.471 -0.3658  0.5029  0.2927
 2271SOL    HW218276   2.344   0.172  11.373 -0.5450  0.9892  2.3655
 2272SOL     OW18277   3.699   3.778   1.934  0.5695 -1.0827 -0.2455
 2272SOL    HW118278   3.644   3.739   1.867 -1.0911 -1.0017  1.0728
 2272SOL    HW218279   3.636   3.849   1.949  1.3092 -0.0202 -2.2005
 2273SOL     OW18280   4.677   3.381   0.774  0.2229  0.2879  0.2972
 2273SOL    HW118281   0.001   3.302   0.800  1.1649  1.2200  1.4057
 2273SOL    HW218282   4.626   3.383   0.855 -2.4099 -3.4354 -1.2704
 2274SOL     OW18283   3.941   3.504   6.251  1.2568 -0.0765 -0.0471
 2274SOL    HW118284   3.914   3.575   6.309 -0.1053  1.4015 -2.4594
 2274SOL    HW218285   4.033   3.491   6.272  1.7463 -0.3697 -2.3728
 2275SOL     OW18286   3.952   1.493   5.295 -0.6756  0.3636 -0.6649
 2275SOL    HW118287   4.041   1.471   5.319 -0.8502 -1.5266 -1.7737
 2275SOL    HW218288   3.914   1.441   5.365  0.8457  1.3871  0.9010
 2276SOL     OW18289   2.943   4.437   5.609 -0.1904 -0.0553  0.6228
 2276SOL    HW118290   2.980   4.354   5.580  1.1497  0.6470  0.3161
 2276SOL    HW218291   3.013   4.496   5.638  0.2077 -0.3607  0.2619
 2277SOL     OW18292   1.447   0.298  14.343  0.8174 -0.0408  0.1218
 2277SOL    HW118293   1.374   0.339  14.390  1.2787 -0.8462  1.5526
 2277SOL    HW218294   1.431   0.206  14.367 -1.2545  0.4281  0.5525
 2278SOL     OW18295   3.042   0.484   2.146  0.7603  0.3236 -0.0086
 2278SOL    HW118296   3.088   0.406   2.114 -0.2721  0.7988 -2.7033
 2278SOL    HW218297   2.977   0.486   2.075  2.6724 -3.8617 -1.8900
 2279SOL     OW18298   3.180   1.950   7.679  0.3662  0.5092 -0.4820
 2279SOL    HW118299   3.157   2.023   7.737  0.5190 -0.2156  0.4855
 2279SOL    HW218300   3.253   1.994   7.635  0.6619 -2.3340 -2.8247
 2280SOL     OW18301   3.160   4.461   6.327 -0.4971 -0.0596  0.0480
 2280SOL    HW118302   3.104   4.515   6.270 -2.8605 -0.1582  2.3135
 2280SOL    HW218303   3.190   4.395   6.265  2.8378 -1.0623  2.8073
 2281SOL     OW18304   2.746   1.943   3.595 -0.0049  0.1473 -0.0691
 2281SOL    HW118305   2.816   1.998   3.630 -2.3922  2.1680  1.4995
 2281SOL    HW218306   2.708   2.001   3.530  0.5736 -2.6476 -2.9268
 2282SOL     OW18307   1.553   4.713   6.701 -0.2172  0.0651 -0.1716
 2282SOL    HW118308   1.633   0.019   6.744  0.1264 -1.1137  0.0029
 2282SOL    HW218309   1.516   0.075   6.678  2.8273  1.5786  0.5287
 2283SOL     OW18310   1.123   4.147   8.553  0.2040 -0.3475 -0.1791
 2283SOL    HW118311   1.134   4.073   8.494 -3.0247 -0.3335 -0.7955
 2283SOL    HW218312   1.191   4.125   8.616 -1.2955  0.1375  1.6017
 2284SOL     OW18313   3.495   0.540   8.805 -0.3689 -0.1363  0.0641
 2284SOL    HW118314   3.516   0.542   8.711 -0.5059  1.2876  0.0639
 2284SOL    HW218315   3.575   0.522   8.854 -0.8703 -1.5203  0.3996
 2285SOL     OW18316   2.441   2.193   4.110 -0.7377 -0.5111  0.1940
 2285SOL    HW118317   2.498   2.257   4.152  0.2619 -1.2104 -0.0959
 2285SOL    HW218318   2.415   2.132   4.179 -0.8452  0.8334  1.3418
 2286SOL     OW18319   2.788   0.145   1.393  1.0769 -0.9522 -0.1577
 2286SOL    HW118320   2.765   0.077   1.329 -2.5609  0.4724 -0.3900
 2286SOL    HW218321   2.759   0.099   1.472 -0.1974 -1.1873 -0.7513
 2287SOL     OW18322   3.175   2.463  16.320 -0.1173 -0.3712  0.0582
 2287SOL    HW118323   3.230   2.394  16.356 -2.7046 -2.6110 -0.2414
 2287SOL    HW218324   3.195   2.441  16.229 -0.8129  1.8008 -0.6094
 2288SOL     OW18325   3.173   2.002  10.279  0.2193 -0.3701  0.1147
 2288SOL    HW118326   3.125   1.965  10.352  0.3390  0.0843  0.4255
 2288SOL    HW218327   3.140   1.948  10.207 -1.4301  0.3549  0.3362
 2289SOL     OW18328   2.064   3.031   7.337  0.5485 -0.1159  0.0494
 2289SOL    HW118329   2.145   3.045   7.386  0.1788 -1.3892  1.0042
 2289SOL    HW218330   2.062   3.112   7.284 -0.3148 -1.3227 -1.7598
 2290SOL     OW18331   3.427   4.663  14.403  0.1421 -0.4811  0.0481
 2290SOL    HW118332   3.381   4.668  14.487  1.3828  0.5181  0.6653
 2290SOL    HW218333   3.511   4.705  14.423  0.0981 -0.1232 -0.5551
 2291SOL     OW18334   1.990   3.765   7.709 -0.0278 -0.2156  0.2321
 2291SOL    HW118335   1.962   3.675   7.696 -2.5292  0.9968 -2.6323
 2291SOL    HW218336   2.083   3.754   7.731 -0.1257  0.1080  0.8125
 2292SOL     OW18337   2.315   3.495   7.672  0.4548 -0.1372 -0.4486
 2292SOL    HW118338   2.396   3.529   7.710 -0.3352  1.1302  0.1168
 2292SOL    HW218339   2.257   3.571   7.665 -1.4528 -1.5326  0.4340
 2293SOL     OW18340   1.682   1.367   1.392 -0.0817 -0.0645 -0.2390
 2293SOL    HW118341   1.623   1.350   1.465 -0.6288 -1.7734 -1.0749
 2293SOL    HW218342   1.649   1.454   1.368  0.2236  0.4563  1.2446
 2294SOL     OW18343   4.253   3.996  17.222 -0.1999 -0.3664  0.3284
 2294SOL    HW118344   4.263   3.911  17.179  1.2058  0.4733 -1.0087
 2294SOL    HW218345   4.222   3.984  17.312  2.4329 -0.7277  1.1772
 2295SOL     OW18346   3.959   0.521   6.643  0.3906 -0.3408  0.8178
 2295SOL    HW118347   3.919   0.608   6.643  1.4543  0.1358  0.7057
 2295SOL    HW218348   4.052   0.536   6.656  0.3159  0.4668  0.4090
 2296SOL     OW18349   0.082   2.949   9.101 -0.1526 -0.2160 -0.1501
 2296SOL    HW118350   0.026   2.885   9.145 -0.7041  0.0384 -0.4713
 2296SOL    HW218351   0.110   3.003   9.175 -0.1774 -1.8754  1.0658
 2297SOL     OW18352   0.952   1.634   7.490 -0.0194  0.1257  0.2267
 2297SOL    HW118353   0.915   1.627   7.402  0.1774  0.5684  0.1090
 2297SOL    HW218354   1.044   1.635   7.465  0.2811 -0.5567  1.3092
 2298SOL     OW18355   0.106   1.943  11.841  0.5016  0.3455  0.1446
 2298SOL    HW118356   0.054   1.911  11.768 -0.6131  0.6407  0.8135
 2298SOL    HW218357   0.045   1.966  11.911 -0.1882  1.1651 -0.7230
 2299SOL     OW18358   3.558   2.892   6.083  0.1779 -0.3768  0.0809
 2299SOL    HW118359   3.623   2.889   6.152  0.0745 -0.6583  0.1637
 2299SOL    HW218360   3.554   2.986   6.064 -0.1519 -0.3652  0.1977
 2300SOL     OW18361   4.327   4.112   6.111  0.3096 -0.1170  0.1631
 2300SOL    HW118362   4.267   4.039   6.098  0.9494 -0.4424 -1.0030
 2300SOL    HW218363   4.269   4.185   6.088 -0.0836  0.0638  1.7227
 2301SOL     OW18364   2.722   0.425   3.847 -0.4846 -0.2880 -0.4948
 2301SOL    HW118365   2.646   0.367   3.849 -0.5778 -0.2173 -2.1758
 2301SOL    HW218366   2.703   0.484   3.920 -2.0768 -0.4856 -0.7511
 2302SOL     OW18367   0.933   1.279   5.075  0.1351  0.1116 -0.4703
 2302SOL    HW118368   0.851   1.329   5.066  0.3951  1.3693  4.3565
 2302SOL    HW218369   0.904   1.187   5.074 -1.4242  0.5719  2.9592
 2303SOL     OW18370   1.481   4.313  15.356  0.0227  0.2568  0.6106
 2303SOL    HW118371   1.571   4.330  15.385  0.9690 -0.5281 -1.9080
 2303SOL    HW218372   1.486   4.243  15.292 -1.6953  1.3557 -0.7255
 2304SOL     OW18373   0.188   0.513  11.805 -0.2999 -0.0798  0.2429
 2304SOL    HW118374   0.283   0.521  11.819 -0.4002  0.3429  0.6955
 2304SOL    HW218375   0.159   0.481  11.891 -1.3059  2.7766  0.9593
 2305SOL     OW18376   0.577   0.668   1.034  0.2845 -0.2681  0.2134
 2305SOL    HW118377   0.662   0.660   0.991 -0.8463  0.6878 -2.1703
 2305SOL    HW218378   0.555   0.756   1.004 -0.2407 -0.3788  0.2697
 2306SOL     OW18379   2.822   3.609   8.086  0.3434 -0.4510  0.6307
 2306SOL    HW118380   2.858   3.522   8.066  1.9389  0.1843  0.7663
 2306SOL    HW218381   2.787   3.598   8.174 -0.2475 -0.0609  0.4386
 2307SOL     OW18382   3.470   3.345   3.238 -0.2870  0.5302  0.6466
 2307SOL    HW118383   3.477   3.339   3.333  4.0808  1.1584  0.3532
 2307SOL    HW218384   3.539   3.407   3.215 -1.6084  2.2204  1.1748
 2308SOL     OW18385   1.965   4.084   9.893  0.0366 -0.3398  0.4953
 2308SOL    HW118386   1.940   4.148   9.826  0.7691  1.9559  2.4303
 2308SOL    HW218387   2.043   4.127   9.929 -1.3545  0.8658  2.0646
 2309SOL     OW18388   2.944   0.100   2.339 -0.1314  0.2536  0.0926
 2309SOL    HW118389   3.004   0.118   2.412  1.7049 -3.2142 -0.6043
 2309SOL    HW218390   2.861   0.098   2.387 -0.1173  0.0094  0.1049
 2310SOL     OW18391   2.827   1.908  11.450 -0.1863 -0.2293  0.2190
 2310SOL    HW118392   2.755   1.950  11.401 -0.3619  0.6410  1.2381
 2310SOL    HW218393   2.786   1.826  11.478  0.5104 -0.4421  0.5939
 2311SOL     OW18394   1.540   2.944   4.849  0.5246  0.5093  0.2653
 2311SOL    HW118395   1.608   2.891   4.808  0.5270  0.0731  0.8397
 2311SOL    HW218396   1.572   2.958   4.937  0.4482 -0.7266  0.4944
 2312SOL     OW18397   0.685   2.334   8.982  0.5419 -0.1007 -0.5681
 2312SOL    HW118398   0.604   2.380   8.959  1.5713  1.4127 -1.1386
 2312SOL    HW218399   0.678   2.301   9.072  0.3144  0.4132 -0.3971
 2313SOL     OW18400   1.363   1.858   5.239  0.0854 -0.4132 -0.0689
 2313SOL    HW118401   1.282   1.905   5.260  0.6138  0.1647  0.6362
 2313SOL    HW218402   1.379   1.892   5.151  0.1540  2.5175  1.1026
 2314SOL     OW18403   1.799   2.305   4.887  0.6031 -0.7789  0.2901
 2314SOL    HW118404   1.796   2.365   4.813  1.0765  0.9828  1.7143
 2314SOL    HW218405   1.880   2.325   4.934  0.5526 -0.6241  0.3122
 2315SOL     OW18406   4.048   4.488  11.371  0.1147 -0.0976  0.3530
 2315SOL    HW118407   4.080   4.560  11.426  0.2806 -0.7116  1.0682
 2315SOL    HW218408   4.118   4.427  11.395 -1.0394 -1.3650  0.4805
 2316SOL     OW18409   4.482   1.653   7.187 -0.6068  0.6848  0.2860
 2316SOL    HW118410   4.467   1.558   7.180  0.2779  0.5236  0.4614
 2316SOL    HW218411   4.561   1.645   7.240 -0.9015  1.4407  0.8197
 2317SOL     OW18412   1.889   1.777   3.493  0.8786  0.4413 -0.9472
 2317SOL    HW118413   1.809   1.725   3.484 -0.5403  2.4919 -0.1852
 2317SOL    HW218414   1.864   1.862   3.455 -1.0039  0.7601  1.0021
 2318SOL     OW18415   1.563   1.196   3.571 -0.4063  0.1287 -0.5777
 2318SOL    HW118416   1.594   1.153   3.491 -4.2164  0.6921 -2.3482
 2318SOL    HW218417   1.516   1.268   3.528  1.1866  0.2932 -2.0700
 2319SOL     OW18418   3.368   2.865   6.354  0.1490  0.5117 -0.0509
 2319SOL    HW118419   3.299   2.925   6.381 -1.7153 -1.0581 -1.3863
 2319SOL    HW218420   3.413   2.923   6.292  2.6592 -0.8255  0.5101
 2320SOL     OW18421   2.528   0.371   7.580 -0.2454  1.1650 -0.3263
 2320SOL    HW118422   2.614   0.335   7.560 -0.8617 -0.9312  0.7362
 2320SOL    HW218423   2.546   0.464   7.573 -2.0988  1.6670  1.6313
 2321SOL     OW18424   2.967   1.938   5.789 -0.0828 -0.2985  0.1505
 2321SOL    HW118425   2.974   1.888   5.871 -0.2990 -3.1089 -1.5220
 2321SOL    HW218426   2.960   1.867   5.724  0.9064 -0.3188  0.0578
 2322SOL     OW18427   4.680   3.893   3.339 -0.5859  0.3406 -0.1688
 2322SOL    HW118428   4.603   3.950   3.339 -1.4829 -0.8729 -0.3227
 2322SOL    HW218429   0.029   3.945   3.305  0.4944 -0.8744  0.2996
 2323SOL     OW18430   2.447   3.893   1.092  0.0352 -0.2411 -0.0088
 2323SOL    HW118431   2.456   3.940   1.009 -2.6532  2.0779  1.0015
 2323SOL    HW218432   2.456   3.803   1.060  1.6131  0.4540 -1.5010
 2324SOL     OW18433   2.561   4.271  14.930 -0.1057  0.7124  0.1861
 2324SOL    HW118434   2.607   4.353  14.910  0.6165  0.3720  0.4465
 2324SOL    HW218435   2.516   4.285  15.013  1.0884  5.2547  0.0586
 2325SOL     OW18436   1.446   3.401  13.694  0.1631  0.7422 -0.2314
 2325SOL    HW118437   1.502   3.435  13.764 -0.4235  1.3403 -0.0594
 2325SOL    HW218438   1.415   3.325  13.743 -2.4135  1.5421 -0.6344
 2326SOL     OW18439   0.431   1.874   2.479 -0.0919  0.5465 -0.3314
 2326SOL    HW118440   0.508   1.885   2.534 -0.9166 -0.6664  1.0922
 2326SOL    HW218441   0.461   1.880   2.389  0.8986 -1.1934 -0.1018
 2327SOL     OW18442   4.392   4.566   6.255  0.4722 -0.2127  0.3368
 2327SOL    HW118443   4.327   4.511   6.211 -1.0361  0.0829  2.1675
 2327SOL    HW218444   4.346   4.648   6.240 -0.3148 -0.5675  0.7788
 2328SOL     OW18445   0.975   0.343   4.437 -0.0154 -0.3579  0.1726
 2328SOL    HW118446   0.966   0.248   4.440  0.5225 -0.3271  3.5792
 2328SOL    HW218447   1.068   0.366   4.447  0.5591 -2.6414  0.0931
 2329SOL     OW18448   0.717   3.409   9.166  0.4571  0.6025 -0.1173
 2329SOL    HW118449   0.789   3.401   9.104  0.1193  0.9670 -0.5636
 2329SOL    HW218450   0.668   3.332   9.138 -1.7326  2.2722 -0.9326
 2330SOL     OW18451   4.547   1.232   6.072  0.1232  0.4404 -0.2885
 2330SOL    HW118452   4.478   1.298   6.071  0.9249  1.2852  0.4884
 2330SOL    HW218453   4.610   1.281   6.125  0.9793 -0.6278 -0.3260
 2331SOL     OW18454   3.279   4.544   7.493 -0.0624  0.0433  0.0508
 2331SOL    HW118455   3.262   4.571   7.403  0.0134 -1.3894 -0.3924
 2331SOL    HW218456   3.348   4.477   7.487  0.9555  0.8396  3.0158
 2332SOL     OW18457   2.862   1.328   6.098 -0.0169  0.1170  0.4419
 2332SOL    HW118458   2.872   1.239   6.064  0.9306 -0.4326  2.1461
 2332SOL    HW218459   2.891   1.382   6.024  0.2796  1.2237  1.3669
 2333SOL     OW18460   3.276   1.545  10.807  0.6129  0.1556 -0.0337
 2333SOL    HW118461   3.292   1.561  10.900 -0.9294  1.4507  0.0100
 2333SOL    HW218462   3.362   1.528  10.768  1.1408  1.7771  0.4306
 2334SOL     OW18463   0.733   1.949   4.790 -0.0988 -0.4500 -0.2554
 2334SOL    HW118464   0.771   1.946   4.877 -0.5053 -0.3050 -0.0733
 2334SOL    HW218465   0.645   1.983   4.803  0.1397  0.2172 -0.4109
 2335SOL     OW18466   3.612   3.974  11.459 -0.3144  0.8707  0.0914
 2335SOL    HW118467   3.678   3.984  11.390  0.1859  0.3378  0.4909
 2335SOL    HW218468   3.649   4.035  11.523 -0.3594  1.7814 -0.7386
 2336SOL     OW18469   0.393   4.386   6.898  0.1106  0.1242  0.1036
 2336SOL    HW118470   0.342   4.451   6.850 -3.3614 -2.2975  0.5660
 2336SOL    HW218471   0.420   4.341   6.818  0.5049  2.4255 -1.0513
 2337SOL     OW18472   2.597   3.834  14.792 -0.2212  0.2502 -0.2356
 2337SOL    HW118473   2.653   3.876  14.856  1.4447  0.2817 -1.7218
 2337SOL    HW218474   2.656   3.843  14.718 -2.3270  1.2311 -1.8160
 2338SOL     OW18475   0.649   4.097   5.962 -0.0762  0.1850 -0.1632
 2338SOL    HW118476   0.717   4.151   6.003  0.5425  0.2282 -1.2218
 2338SOL    HW218477   0.678   4.116   5.872  0.7260 -0.5987 -0.0670
 2339SOL     OW18478   3.437   4.028  13.615  0.4377 -0.3372  0.5808
 2339SOL    HW118479   3.361   4.052  13.562  0.9113  2.1037  1.0147
 2339SOL    HW218480   3.500   4.086  13.573  0.1862 -0.5629 -0.1040
 2340SOL     OW18481   1.520   3.965  11.570  0.5480 -0.6321 -0.4819
 2340SOL    HW118482   1.445   3.987  11.515 -0.0117  0.0588  0.5460
 2340SOL    HW218483   1.482   3.976  11.657 -0.9152  1.1725 -1.3418
 2341SOL     OW18484   4.096   1.718   4.412  0.5135  0.3500  0.0057
 2341SOL    HW118485   4.087   1.733   4.506 -0.2412  3.6261 -0.5924
 2341SOL    HW218486   4.051   1.795   4.377 -1.2616 -0.9836 -0.6476
 2342SOL     OW18487   3.423   4.149   0.231 -0.2616  0.3272 -1.0196
 2342SOL    HW118488   3.470   4.069   0.208 -1.1146 -0.9034  1.6113
 2342SOL    HW218489   3.448   4.212   0.163  3.3705 -1.0423 -0.9518
 2343SOL     OW18490   0.819   0.436  15.314  0.0525 -0.4419  0.0883
 2343SOL    HW118491   0.900   0.386  15.324 -0.0124 -0.6105 -0.2165
 2343SOL    HW218492   0.858   0.513  15.273  2.5131 -1.4781  0.5344
 2344SOL     OW18493   2.066   1.329   9.679  0.2605  0.4050 -0.2368
 2344SOL    HW118494   2.126   1.298   9.747  0.9478  0.3619 -0.8601
 2344SOL    HW218495   2.020   1.395   9.730 -1.2300  0.1004 -1.1962
 2345SOL     OW18496   3.603   3.637   5.419  0.3586 -0.3639  0.2760
 2345SOL    HW118497   3.628   3.615   5.330 -0.4797 -2.3043  0.5296
 2345SOL    HW218498   3.630   3.558   5.465 -1.0454 -0.0611  1.6114
 2346SOL     OW18499   1.195   4.389   6.684  0.4930  0.3138 -0.4750
 2346SOL    HW118500   1.244   4.441   6.748  0.2862 -0.9089  0.6685
 2346SOL    HW218501   1.240   4.305   6.695  2.0041  0.9224 -2.0423
 2347SOL     OW18502   0.526   3.901  10.032  0.0493 -0.3147 -0.1746
 2347SOL    HW118503   0.438   3.884   9.997  0.4620 -0.2131 -1.2830
 2347SOL    HW218504   0.531   3.859  10.117 -1.1326 -1.1901 -0.5245
 2348SOL     OW18505   1.048   1.820  11.111  0.4081  0.0514  0.6278
 2348SOL    HW118506   1.109   1.895  11.107 -0.9485  1.1224  0.1050
 2348SOL    HW218507   1.030   1.820  11.205 -0.7664  0.8417  0.4018
 2349SOL     OW18508   0.287   1.147   4.434 -0.0629 -0.4055  0.0386
 2349SOL    HW118509   0.200   1.111   4.414 -0.2116 -2.2101  4.0305
 2349SOL    HW218510   0.318   1.103   4.513  1.2308  0.9533  0.2926
 2350SOL     OW18511   0.112   0.938   6.742 -0.3516 -0.0483 -0.6366
 2350SOL    HW118512   0.083   0.999   6.675 -1.1952  1.3661  1.0041
 2350SOL    HW218513   0.155   0.997   6.805 -2.4259 -0.0166  0.7575
 2351SOL     OW18514   0.978   1.187   3.633  0.0878 -0.1038  0.2989
 2351SOL    HW118515   0.942   1.274   3.653 -1.1711 -0.6849  0.5791
 2351SOL    HW218516   0.970   1.194   3.538 -0.3333 -2.1273  0.1910
 2352SOL     OW18517   4.097   3.198   3.067 -0.2567 -0.0404  0.2532
 2352SOL    HW118518   4.022   3.147   3.037 -0.7665  0.7294  0.2394
 2352SOL    HW218519   4.167   3.133   3.075  1.3162  1.4244 -1.3891
 2353SOL     OW18520   1.199   1.785   1.497  0.2600  0.2649  0.2178
 2353SOL    HW118521   1.117   1.827   1.522  0.0002  0.2930 -0.7004
 2353SOL    HW218522   1.260   1.851   1.530  2.3581 -1.2317 -0.7014
 2354SOL     OW18523   3.771   1.094   6.908 -0.3253 -0.7069 -0.4059
 2354SOL    HW118524   3.736   1.118   6.994  0.2533 -2.4661  0.3276
 2354SOL    HW218525   3.867   1.096   6.914 -0.3334  2.4453 -1.2788
 2355SOL     OW18526   0.461   2.679  10.540  0.0924 -0.3976  0.1233
 2355SOL    HW118527   0.429   2.633  10.462  1.1063  1.9117 -1.6410
 2355SOL    HW218528   0.520   2.614  10.580 -0.5289 -0.4358  0.9847
 2356SOL     OW18529   2.024   1.655   7.564  0.3437  0.4825  0.6705
 2356SOL    HW118530   2.074   1.677   7.642 -0.7570 -2.2634  2.1848
 2356SOL    HW218531   1.945   1.617   7.604 -0.8074  1.8627 -0.3132
 2357SOL     OW18532   1.511   0.921   7.946  0.5188 -0.0303 -0.2353
 2357SOL    HW118533   1.528   0.860   8.017 -0.4663 -0.7730 -0.6336
 2357SOL    HW218534   1.492   1.000   7.996  1.2318  0.6011 -0.9682
 2358SOL     OW18535   0.803   3.200  12.004  0.7193  0.0160  0.2009
 2358SOL    HW118536   0.736   3.232  11.943 -0.9666 -1.2663  1.3876
 2358SOL    HW218537   0.840   3.130  11.951 -1.5540 -2.4459  1.9095
 2359SOL     OW18538   0.931   1.303   2.469  0.2327 -0.0156 -0.0962
 2359SOL    HW118539   0.869   1.371   2.442  0.4730  0.5590  0.8232
 2359SOL    HW218540   0.920   1.293   2.563  4.2314  0.7357  0.4455
 2360SOL     OW18541   2.128   4.719   7.104 -0.2961  0.0965 -0.3159
 2360SOL    HW118542   2.046   4.699   7.059 -0.2306 -0.2341 -0.2836
 2360SOL    HW218543   2.132   4.636   7.150 -2.3405  0.2118  0.0704
 2361SOL     OW18544   4.204   1.075  12.115  0.0108  0.5435 -0.0156
 2361SOL    HW118545   4.257   1.132  12.171  1.2409  2.8083 -3.4673
 2361SOL    HW218546   4.263   1.000  12.118  0.4928  0.9267  0.0620
 2362SOL     OW18547   0.129   4.498  15.371  0.2260 -0.4819  0.4369
 2362SOL    HW118548   0.145   4.585  15.333 -0.9622  0.2772  1.6448
 2362SOL    HW218549   0.156   4.513  15.461  0.7394 -0.1097  0.2206
 2363SOL     OW18550   2.897   0.671   0.878  0.2135 -0.0210 -0.0158
 2363SOL    HW118551   2.912   0.765   0.870 -1.6381  0.1989 -0.8165
 2363SOL    HW218552   2.980   0.645   0.919  1.8106  0.5646 -2.8626
 2364SOL     OW18553   0.970   4.228   3.213 -0.0978 -0.5181  0.0649
 2364SOL    HW118554   1.050   4.275   3.190 -0.3277 -0.9106 -1.5228
 2364SOL    HW218555   0.906   4.291   3.243 -1.0431 -0.0297 -2.9630
 2365SOL     OW18556   2.937   3.400  14.102  0.7297 -0.2959 -0.0219
 2365SOL    HW118557   3.018   3.416  14.151  0.7015 -1.2336  0.3344
 2365SOL    HW218558   2.971   3.324  14.056  0.3554  0.2693 -1.2336
 2366SOL     OW18559   2.368   3.488   2.642  0.3785 -0.0667 -0.0917
 2366SOL    HW118560   2.323   3.404   2.634 -0.9044  0.5252  0.8717
 2366SOL    HW218561   2.372   3.516   2.550  1.2303  0.4629  0.1077
 2367SOL     OW18562   2.512   4.714   5.222 -0.5714 -0.0628  0.5713
 2367SOL    HW118563   2.479   0.061   5.167 -0.9844  0.0407  0.9503
 2367SOL    HW218564   2.600   4.690   5.192 -1.3065 -1.4045 -0.5205
 2368SOL     OW18565   3.342   2.501   6.008 -0.1084  0.1792 -0.5044
 2368SOL    HW118566   3.290   2.489   5.929 -0.5473 -2.5509  0.1667
 2368SOL    HW218567   3.279   2.546   6.065 -1.2508 -1.9579 -0.0381
 2369SOL     OW18568   0.293   3.189   4.450  0.7920  0.4048  0.4160
 2369SOL    HW118569   0.232   3.219   4.517  0.7421  3.6989 -1.1186
 2369SOL    HW218570   0.361   3.135   4.491  0.5068 -0.1308  0.1856
 2370SOL     OW18571   4.090   3.192   4.465  0.5394 -0.6227 -0.5741
 2370SOL    HW118572   4.063   3.272   4.509 -1.5204 -2.1543  0.9896
 2370SOL    HW218573   4.153   3.231   4.405 -0.9212  0.2592 -1.5429
 2371SOL     OW18574   0.534   2.793  15.982  0.2518  0.2723 -0.1874
 2371SOL    HW118575   0.543   2.725  16.049 -1.9101  0.5968  0.4258
 2371SOL    HW218576   0.452   2.836  16.008  0.2584 -0.6177  1.2899
 2372SOL     OW18577   1.201   4.507   7.922  0.1202 -0.7223  0.2943
 2372SOL    HW118578   1.286   4.476   7.954 -0.0416 -1.2246  0.2351
 2372SOL    HW218579   1.147   4.438   7.960 -3.2596  1.6037 -0.3108
 2373SOL     OW18580   2.336   0.527   1.499  0.2830 -0.0662  0.0569
 2373SOL    HW118581   2.373   0.538   1.587  1.0144 -0.4672 -0.2017
 2373SOL    HW218582   2.406   0.465   1.478  1.2328  0.3540  1.9527
 2374SOL     OW18583   4.326   2.756  12.853 -0.2425 -0.4555 -0.4050
 2374SOL    HW118584   4.274   2.794  12.924 -0.3440 -3.5156  1.1885
 2374SOL    HW218585   4.268   2.682  12.834 -0.5601 -0.1842 -0.4968
 2375SOL     OW18586   0.672   0.018   7.935 -0.1929 -0.3784  0.1278
 2375SOL    HW118587   0.596   0.003   7.992 -0.5393 -0.2719 -0.3013
 2375SOL    HW218588   0.728   0.059   8.001 -0.6045 -1.8271  1.3772
 2376SOL     OW18589   1.413   4.559   6.899  0.1741 -0.0477  0.1765
 2376SOL    HW118590   1.465   4.590   6.825 -1.4164 -0.2653 -1.0376
 2376SOL    HW218591   1.439   4.627   6.961 -1.2433  0.4034  0.2814
 2377SOL     OW18592   3.859   0.615   4.890 -0.5913 -0.6447 -0.0140
 2377SOL    HW118593   3.802   0.601   4.814  0.4233 -1.1057 -0.6976
 2377SOL    HW218594   3.817   0.696   4.918  1.2000 -0.1197  1.1378
 2378SOL     OW18595   1.960   3.210   3.247 -0.2434  0.2306  0.1186
 2378SOL    HW118596   1.907   3.149   3.195  0.2428  1.1652 -1.4722
 2378SOL    HW218597   2.022   3.149   3.287 -1.5827  0.1011  1.9474
 2379SOL     OW18598   4.587   2.474   5.368 -0.6923 -0.3665  0.4411
 2379SOL    HW118599   4.566   2.382   5.350 -1.5151 -0.0326 -0.3302
 2379SOL    HW218600   4.658   2.493   5.306 -0.9256  0.4879  0.4487
 2380SOL     OW18601   2.094   3.814  16.106 -0.0344 -0.0138 -0.1965
 2380SOL    HW118602   2.147   3.827  16.185  0.2157  1.7130 -0.6603
 2380SOL    HW218603   2.015   3.859  16.137  0.5221  1.4189 -0.8692
 2381SOL     OW18604   2.194   0.498  10.007  0.2654  0.3094  0.1630
 2381SOL    HW118605   2.210   0.414  10.051 -0.5885  0.3368  0.5164
 2381SOL    HW218606   2.135   0.545  10.065 -0.0867 -0.8646  0.7643
 2382SOL     OW18607   3.998   3.017  16.078  0.1260 -0.5775  0.4505
 2382SOL    HW118608   4.052   2.955  16.127 -0.8875 -1.8365 -0.0127
 2382SOL    HW218609   3.910   2.978  16.074 -1.5008  3.2529 -0.2589
 2383SOL     OW18610   3.782   0.986   7.919 -0.6914  0.3769  0.0279
 2383SOL    HW118611   3.821   1.069   7.946 -0.1701  0.8034 -2.0218
 2383SOL    HW218612   3.857   0.927   7.913  1.3433  3.1406 -1.4191
 2384SOL     OW18613   4.225   2.484   2.728  0.5687  0.4000 -0.6241
 2384SOL    HW118614   4.224   2.414   2.663  2.7680 -1.1762  1.0062
 2384SOL    HW218615   4.178   2.552   2.680  1.5015  0.8176 -0.9468
 2385SOL     OW18616   3.467   0.885   7.856  0.2360  0.0797 -1.0273
 2385SOL    HW118617   3.437   0.909   7.944  1.6687 -3.1941  0.3542
 2385SOL    HW218618   3.387   0.870   7.805 -0.5524 -1.4310  0.6497
 2386SOL     OW18619   1.870   0.866   2.599  0.5164  0.4780  0.5285
 2386SOL    HW118620   1.818   0.938   2.563  1.8814  0.7596 -0.8914
 2386SOL    HW218621   1.847   0.800   2.533  3.7785  0.8027 -0.9207
 2387SOL     OW18622   0.726   0.642   2.547  0.5191  0.2164  0.0163
 2387SOL    HW118623   0.761   0.562   2.507  1.5736  0.2081  0.9592
 2387SOL    HW218624   0.803   0.682   2.588 -0.0223 -0.5635  1.8039
 2388SOL     OW18625   4.696   1.559   2.457 -0.3641  0.4993 -0.2104
 2388SOL    HW118626   0.049   1.612   2.436 -1.2285  1.8394  0.0086
 2388SOL    HW218627   4.704   1.498   2.384 -0.4277 -1.1634  1.1499
 2389SOL     OW18628   3.832   2.920   7.040 -0.1657  0.2660  0.2409
 2389SOL    HW118629   3.784   2.974   6.977  1.3468  0.8775 -0.4093
 2389SOL    HW218630   3.768   2.855   7.068  2.7769 -1.4496  2.9978
 2390SOL     OW18631   0.636   2.294   5.998 -0.5362 -0.0946  0.3207
 2390SOL    HW118632   0.678   2.224   6.047  1.1443  1.1997  0.7454
 2390SOL    HW218633   0.625   2.353   6.073 -2.0359  1.8147 -1.3874
 2391SOL     OW18634   0.178   2.188   4.705 -0.3860  0.2137  0.5010
 2391SOL    HW118635   0.151   2.249   4.635  1.1913 -0.2846 -0.5416
 2391SOL    HW218636   0.225   2.247   4.764 -0.2195  0.3187  0.2686
 2392SOL     OW18637   1.782   3.822   6.527 -0.0705 -0.2132 -0.0128
 2392SOL    HW118638   1.779   3.790   6.617  1.8157  0.0818  0.1556
 2392SOL    HW218639   1.711   3.776   6.483  0.0064 -0.7126  0.3815
 2393SOL     OW18640   4.634   3.745  11.879  0.2539  0.0209  0.5372
 2393SOL    HW118641   4.702   3.729  11.814  0.5169 -0.4495  0.9303
 2393SOL    HW218642   4.673   3.689  11.946 -1.8315 -3.0056 -0.7591
 2394SOL     OW18643   3.483   3.810   2.796  0.3773  0.5687  0.3640
 2394SOL    HW118644   3.430   3.815   2.717 -1.4533 -0.6442  1.4974
 2394SOL    HW218645   3.565   3.851   2.771 -0.1502  1.1561 -0.3786
 2395SOL     OW18646   3.364   3.596   2.100 -1.3277 -0.7644  0.5180
 2395SOL    HW118647   3.410   3.524   2.058  0.0419 -1.0975  2.5889
 2395SOL    HW218648   3.342   3.644   2.020 -0.4289 -2.1647 -0.5666
 2396SOL     OW18649   0.482   4.290   3.741 -0.0668  0.0727 -0.6833
 2396SOL    HW118650   0.477   4.202   3.777 -2.4876  0.6645  0.4788
 2396SOL    HW218651   0.511   4.275   3.651  0.8516  1.2847 -0.5904
 2397SOL     OW18652   2.171   0.679   8.721  0.4638 -0.2084  0.0278
 2397SOL    HW118653   2.083   0.644   8.729  0.3833 -0.2223 -0.9263
 2397SOL    HW218654   2.162   0.682   8.625 -1.5560  2.8193  0.3199
 2398SOL     OW18655   1.080   1.569  16.178 -0.3671  0.1667 -0.2752
 2398SOL    HW118656   1.114   1.625  16.248 -1.3888 -1.7294  1.7488
 2398SOL    HW218657   1.164   1.567  16.131  0.2015  1.7456  0.6643
 2399SOL     OW18658   3.851   0.339   6.450 -0.2109  0.1471 -0.2399
 2399SOL    HW118659   3.878   0.375   6.535 -1.9577  3.0736 -0.9044
 2399SOL    HW218660   3.766   0.299   6.465  1.3259 -2.6065  1.0373
 2400SOL     OW18661   3.099   1.884   3.723  0.2772  0.3838  0.0935
 2400SOL    HW118662   3.036   1.956   3.729  0.4665  0.4583  1.2340
 2400SOL    HW218663   3.110   1.850   3.812 -2.4829  0.9767  0.6563
 2401SOL     OW18664   2.734   0.249   0.281 -0.0779  0.0813  0.3981
 2401SOL    HW118665   2.797   0.268   0.351 -1.5992 -1.3487  2.1383
 2401SOL    HW218666   2.755   0.157   0.269 -1.3429 -0.1261 -0.2115
 2402SOL     OW18667   0.856   2.478   6.280  0.1079 -0.2289  0.2382
 2402SOL    HW118668   0.892   2.540   6.217 -1.6824  0.0129 -0.5408
 2402SOL    HW218669   0.911   2.400   6.266 -0.7785 -0.7203 -0.4912
 2403SOL     OW18670   4.130   1.650  12.315 -0.1210  0.2256  0.2235
 2403SOL    HW118671   4.079   1.569  12.322 -1.2610  0.8870 -0.4533
 2403SOL    HW218672   4.077   1.686  12.244 -0.5385 -1.6714 -0.4310
 2404SOL     OW18673   3.083   2.427   5.575  0.0381 -0.0097  0.4250
 2404SOL    HW118674   3.126   2.439   5.490  0.1166  1.2330  0.6439
 2404SOL    HW218675   3.158   2.400   5.628  0.4674  0.2069 -0.0741
 2405SOL     OW18676   1.219   4.631   7.559 -0.3323 -0.3171  0.0934
 2405SOL    HW118677   1.247   4.555   7.508 -0.9304 -0.1450 -0.4953
 2405SOL    HW218678   1.300   4.633   7.609  1.2233  1.3506 -2.4310
 2406SOL     OW18679   0.989   0.161  16.179  0.0595 -0.2058  0.6583
 2406SOL    HW118680   1.047   0.232  16.151  0.0113 -0.6240 -0.4699
 2406SOL    HW218681   0.938   0.157  16.099 -2.7132  2.1310  2.3056
 2407SOL     OW18682   2.210   0.509   4.100  0.9633 -0.2354  0.1700
 2407SOL    HW118683   2.222   0.515   4.005 -1.5443 -1.4850 -0.2171
 2407SOL    HW218684   2.198   0.414   4.109  1.5204 -0.2705  0.5551
 2408SOL     OW18685   1.480   2.553   7.925 -0.1248  0.2238  0.7545
 2408SOL    HW118686   1.392   2.587   7.906  0.4771  1.5872  0.3898
 2408SOL    HW218687   1.517   2.631   7.966  0.3021  1.6472 -2.3489
 2409SOL     OW18688   1.870   2.378  13.208 -0.1869  0.0680  0.1208
 2409SOL    HW118689   1.839   2.289  13.225 -0.2667 -0.0821 -0.7794
 2409SOL    HW218690   1.909   2.382  13.295  0.3167 -2.1303 -0.0040
 2410SOL     OW18691   3.296   4.055  14.910 -0.0640  0.1079 -0.1845
 2410SOL    HW118692   3.303   4.005  14.829 -2.4333 -2.2417  1.0654
 2410SOL    HW218693   3.248   3.993  14.964  0.3806  0.4320  0.5820
 2411SOL     OW18694   3.615   2.749   4.922  0.2194 -0.0266  0.5500
 2411SOL    HW118695   3.529   2.749   4.880 -0.4081  1.2792  1.8398
 2411SOL    HW218696   3.668   2.783   4.850 -0.9878 -0.7958 -0.6771
 2412SOL     OW18697   2.324   0.672   1.220 -0.0150  0.1871 -0.3164
 2412SOL    HW118698   2.359   0.613   1.153 -2.6870 -0.5904 -1.0570
 2412SOL    HW218699   2.322   0.613   1.295  0.9130 -0.6154 -0.9332
 2413SOL     OW18700   3.832   0.801   8.138  0.4894  0.2280  0.0711
 2413SOL    HW118701   3.776   0.735   8.099  1.8179 -0.8687  0.0253
 2413SOL    HW218702   3.777   0.877   8.120 -0.9522 -0.9920 -0.6321
 2414SOL     OW18703   3.962   0.059   3.236  0.3912  0.3007  0.5220
 2414SOL    HW118704   3.927   0.147   3.220 -1.1802 -0.6306 -1.1459
 2414SOL    HW218705   4.038   0.051   3.178 -1.1375 -0.3690 -1.3810
 2415SOL     OW18706   1.838   3.505  17.147  0.2251 -0.2017  0.1066
 2415SOL    HW118707   1.896   3.529  17.218  0.9157  0.6308 -0.7378
 2415SOL    HW218708   1.850   3.584  17.094 -1.0401  0.9834  1.6053
 2416SOL     OW18709   4.704   0.564  17.068  0.2321 -0.1240 -0.1016
 2416SOL    HW118710   4.718   0.549  17.162 -0.4014 -1.2366 -0.1883
 2416SOL    HW218711   0.020   0.486  17.029 -2.0572 -1.5173  0.3697
 2417SOL     OW18712   0.829   3.294   2.522  0.4736 -1.2996  0.3425
 2417SOL    HW118713   0.752   3.248   2.555  1.0165 -1.9115  0.7706
 2417SOL    HW218714   0.855   3.234   2.452 -0.8072 -3.0340  1.3633
 2418SOL     OW18715   2.480   0.529   4.286  0.8113 -0.8287  0.1814
 2418SOL    HW118716   2.392   0.507   4.256  0.6667  2.4816 -1.8747
 2418SOL    HW218717   2.535   0.521   4.208  0.4570 -0.2713 -0.1254
 2419SOL     OW18718   0.089   3.435   0.331 -0.3988  0.3492  0.2179
 2419SOL    HW118719   0.086   3.490   0.253  0.0261 -1.0549 -0.7690
 2419SOL    HW218720   0.002   3.451   0.368 -1.2015  1.3182 -2.0866
 2420SOL     OW18721   3.151   1.782  11.716  0.7185  1.1073  0.4345
 2420SOL    HW118722   3.078   1.807  11.773 -1.0749 -0.7281 -1.0797
 2420SOL    HW218723   3.202   1.727  11.776  0.7246  0.0021 -0.6102
 2421SOL     OW18724   4.483   0.676   2.143 -0.7471  0.5482 -0.0004
 2421SOL    HW118725   4.493   0.611   2.072  2.1293  0.6699  0.3168
 2421SOL    HW218726   4.564   0.661   2.191  0.2432  1.7394 -1.3057
 2422SOL     OW18727   3.225   4.368  13.360  0.4105 -0.3901  0.4667
 2422SOL    HW118728   3.316   4.394  13.349  0.2994 -1.1073 -2.1810
 2422SOL    HW218729   3.245   4.290  13.411  3.2228 -1.0186 -1.6076
 2423SOL     OW18730   3.052   1.164  14.726  0.4803 -0.4822  0.0819
 2423SOL    HW118731   2.981   1.148  14.788  0.4391 -0.1764  0.1107
 2423SOL    HW218732   3.130   1.174  14.780  0.6976  0.1968 -0.3601
 2424SOL     OW18733   2.774   4.545   6.375 -0.5789 -0.0707  0.1857
 2424SOL    HW118734   2.851   4.587   6.338  0.0153 -1.0860  0.2825
 2424SOL    HW218735   2.756   4.488   6.300 -0.5438 -1.1259  0.9882
 2425SOL     OW18736   1.164   1.246   4.117  0.0291 -0.3252 -0.4875
 2425SOL    HW118737   1.146   1.159   4.082  2.9402 -1.0081 -0.2951
 2425SOL    HW218738   1.131   1.233   4.205  0.9217 -2.9376 -0.5541
 2426SOL     OW18739   1.886   2.520   6.694 -0.1766  0.1475 -0.0845
 2426SOL    HW118740   1.973   2.558   6.701  0.6114 -1.5674 -0.5071
 2426SOL    HW218741   1.879   2.495   6.786 -0.6135 -1.4361 -0.5430
 2427SOL     OW18742   2.274   3.235   2.659 -0.1442  0.2095 -0.1228
 2427SOL    HW118743   2.190   3.232   2.704 -0.4969  4.2146 -0.5134
 2427SOL    HW218744   2.303   3.144   2.655  0.2482  0.3754 -1.2732
 2428SOL     OW18745   3.902   4.224   2.657  0.4480  0.5229 -0.0424
 2428SOL    HW118746   3.868   4.150   2.706  0.4341  0.2155 -0.5194
 2428SOL    HW218747   3.943   4.175   2.586  0.7365 -1.5194  1.5455
 2429SOL     OW18748   0.136   0.417   2.292 -0.1728  0.2008 -0.5850
 2429SOL    HW118749   0.133   0.334   2.244  0.3757  0.7723 -1.5981
 2429SOL    HW218750   0.199   0.397   2.362  0.9233  2.2915 -0.9917
 2430SOL     OW18751   2.118   2.065   7.046  0.0056  0.0210 -0.0312
 2430SOL    HW118752   2.089   2.029   7.130  0.3790  1.8661  0.8918
 2430SOL    HW218753   2.187   2.119   7.086  1.7514 -2.0923 -0.1513
 2431SOL     OW18754   0.727   3.064   3.192  0.2270 -0.3610 -0.6107
 2431SOL    HW118755   0.739   3.158   3.204  0.2974 -0.0843 -2.8585
 2431SOL    HW218756   0.713   3.048   3.098 -0.0569  0.0325 -0.6390
 2432SOL     OW18757   0.823   2.550   4.185 -0.2498  0.1930  0.0620
 2432SOL    HW118758   0.735   2.522   4.158  0.0921  0.0591 -0.9205
 2432SOL    HW218759   0.797   2.627   4.235  0.6959  0.1508  0.6244
 2433SOL     OW18760   2.636   0.816   8.083  0.0580 -0.1041 -0.4320
 2433SOL    HW118761   2.667   0.752   8.147  2.6565  1.0681 -0.5020
 2433SOL    HW218762   2.543   0.800   8.099  0.0445  0.2231 -0.1857
 2434SOL     OW18763   0.206   3.906   7.570 -0.2509  0.0967 -0.4079
 2434SOL    HW118764   0.244   3.821   7.549  4.2600  2.1208 -0.2693
 2434SOL    HW218765   0.157   3.882   7.649  3.1705  1.5603  2.1296
 2435SOL     OW18766   0.541   3.965  16.188 -0.0749 -0.1375 -0.1225
 2435SOL    HW118767   0.622   3.982  16.140 -0.7669  1.5356 -0.6750
 2435SOL    HW218768   0.568   3.904  16.257  0.3525  1.0260  0.7419
 2436SOL     OW18769   0.207   2.655   0.277  0.3624 -0.3219  0.2724
 2436SOL    HW118770   0.298   2.641   0.303  0.2698  1.0990  1.2949
 2436SOL    HW218771   0.180   2.728   0.332  0.0392 -2.3241  2.7483
 2437SOL     OW18772   0.412   2.635   4.281  0.2445 -0.4622  0.0942
 2437SOL    HW118773   0.395   2.723   4.248 -0.1217 -0.2971  0.7141
 2437SOL    HW218774   0.343   2.585   4.237  0.8926 -1.2805  0.0054
 2438SOL     OW18775   0.413   0.329   6.229  0.7102 -0.8435 -0.2490
 2438SOL    HW118776   0.338   0.281   6.263  0.0705  0.4015  0.0670
 2438SOL    HW218777   0.374   0.358   6.147 -2.8675 -2.2270  0.9850
 2439SOL     OW18778   1.905   1.001   0.363 -0.3107 -0.2809  0.4266
 2439SOL    HW118779   1.939   0.919   0.327 -0.1268  0.8281 -1.9372
 2439SOL    HW218780   1.938   0.998   0.453 -1.3260  0.2956  0.8207
 2440SOL     OW18781   4.533   3.149  14.068 -0.4552  0.1620  0.4677
 2440SOL    HW118782   4.547   3.160  13.974 -1.5516 -0.1915  0.2639
 2440SOL    HW218783   4.618   3.116  14.095 -1.5771 -1.9243  1.4033
 2441SOL     OW18784   1.709   0.971   3.111  0.0007 -0.3553 -0.0010
 2441SOL    HW118785   1.780   1.029   3.140  0.2309 -0.4972 -0.2744
 2441SOL    HW218786   1.659   1.033   3.059 -0.1575 -1.0873 -0.7328
 2442SOL     OW18787   2.470   1.681   7.077  0.6294 -0.5244 -0.1564
 2442SOL    HW118788   2.427   1.630   7.146  0.0957  2.1262  1.5030
 2442SOL    HW218789   2.510   1.745   7.137 -0.6335  0.2822 -0.1664
 2443SOL     OW18790   1.805   1.410   8.429  0.2597  0.0665  0.4398
 2443SOL    HW118791   1.875   1.427   8.492 -0.2639 -1.0342  1.3389
 2443SOL    HW218792   1.743   1.382   8.496 -1.1826  2.3930  0.0896
 2444SOL     OW18793   1.871   1.170   6.526 -0.1901  0.4045  0.4120
 2444SOL    HW118794   1.879   1.168   6.621  1.7604 -1.2408  0.2114
 2444SOL    HW218795   1.962   1.159   6.497 -0.2754 -1.5566  0.9162
 2445SOL     OW18796   3.848   3.056  12.869  0.1373  0.3733 -0.3640
 2445SOL    HW118797   3.884   3.054  12.957  0.7937  2.4421 -0.5852
 2445SOL    HW218798   3.758   3.031  12.891 -0.3474  5.2940  3.1641
 2446SOL     OW18799   0.075   3.093   4.636  0.0196  0.3301  0.0451
 2446SOL    HW118800   0.101   3.173   4.681 -1.2217  0.2926  0.8559
 2446SOL    HW218801   0.021   3.136   4.570  0.8766  5.3801  2.5999
 2447SOL     OW18802   3.080   4.438   2.864  0.3252 -0.0869  0.2827
 2447SOL    HW118803   3.113   4.430   2.775  0.6633 -0.7702  0.4693
 2447SOL    HW218804   3.156   4.412   2.916  0.1145 -2.1459 -0.4115
 2448SOL     OW18805   0.913   3.237   1.075  0.2388 -0.2635 -0.3793
 2448SOL    HW118806   0.960   3.290   1.012 -0.4360 -0.6212 -1.1820
 2448SOL    HW218807   0.930   3.146   1.049 -2.1380 -1.4990  2.3759
 2449SOL     OW18808   2.037   1.976   7.709 -0.1865  0.6516 -0.5808
 2449SOL    HW118809   1.994   2.052   7.749  0.8115 -1.0516  3.7054
 2449SOL    HW218810   1.993   1.901   7.749 -0.7214  0.4263 -1.5937
 2450SOL     OW18811   3.202   3.811   9.963  0.3202  0.1283  0.3142
 2450SOL    HW118812   3.214   3.722   9.930 -2.5920  0.4968 -1.7033
 2450SOL    HW218813   3.291   3.834   9.989  0.7342  0.0716 -1.0553
 2451SOL     OW18814   2.812   0.479   6.309  0.4046  0.1204  0.2206
 2451SOL    HW118815   2.792   0.417   6.239  1.2791  0.2150 -0.1172
 2451SOL    HW218816   2.905   0.497   6.296 -0.1377  2.0047 -1.0035
 2452SOL     OW18817   2.312   2.443   2.308  0.0264 -0.4467  0.4373
 2452SOL    HW118818   2.256   2.493   2.248 -0.3698 -2.6089 -0.9989
 2452SOL    HW218819   2.270   2.357   2.306 -2.2625  0.6771 -0.0870
 2453SOL     OW18820   1.545   3.306   2.419 -0.1524 -0.1825 -0.0132
 2453SOL    HW118821   1.542   3.356   2.337 -0.3202 -0.6670 -0.3007
 2453SOL    HW218822   1.639   3.290   2.416  0.0393  0.5065  2.1959
 2454SOL     OW18823   4.648   2.241   8.249 -0.0720 -0.1091 -0.5516
 2454SOL    HW118824   4.694   2.165   8.213 -0.0711  0.1634 -1.1334
 2454SOL    HW218825   4.594   2.267   8.174  2.0228 -0.5379 -2.2170
 2455SOL     OW18826   2.290   1.596   0.653 -0.5694  0.3744  0.0722
 2455SOL    HW118827   2.280   1.658   0.726 -1.6434  0.8306 -0.4774
 2455SOL    HW218828   2.234   1.639   0.589 -2.1923 -1.0333  0.5466
 2456SOL     OW18829   0.714   4.200   7.446 -0.3679  0.1025  0.5577
 2456SOL    HW118830   0.695   4.267   7.512 -0.9158 -0.6198  1.1330
 2456SOL    HW218831   0.765   4.145   7.506  0.7097  0.4105 -0.0686
 2457SOL     OW18832   1.667   3.526  15.266 -0.2893 -0.4702  0.6974
 2457SOL    HW118833   1.628   3.443  15.238  0.5244  0.2349 -2.6308
 2457SOL    HW218834   1.744   3.493  15.313 -1.8131 -3.0806  1.3666
 2458SOL     OW18835   0.082   4.076   2.299 -0.0560  0.2375  0.1049
 2458SOL    HW118836   0.117   4.047   2.384 -0.8571 -1.4397 -0.1307
 2458SOL    HW218837   0.002   4.025   2.289  0.6094 -0.9171  0.5713
 2459SOL     OW18838   3.345   2.262  16.392 -0.2001  0.1841  0.1566
 2459SOL    HW118839   3.419   2.234  16.340 -0.3639 -0.3906  0.2262
 2459SOL    HW218840   3.276   2.197  16.377  1.3094 -1.1992 -0.7897
 2460SOL     OW18841   2.665   2.399   7.949  0.0746 -0.3472 -0.1588
 2460SOL    HW118842   2.696   2.484   7.981  2.0913 -1.5846  1.1860
 2460SOL    HW218843   2.661   2.402   7.854 -1.7983 -0.2495 -0.0800
 2461SOL     OW18844   4.590   3.846   9.444  0.7775 -0.5265 -0.3726
 2461SOL    HW118845   4.575   3.754   9.466 -2.7411 -0.2516 -1.5938
 2461SOL    HW218846   4.534   3.891   9.506  0.1416 -0.7164 -0.8124
 2462SOL     OW18847   0.566   0.614  12.105 -0.7787  0.1797 -0.3969
 2462SOL    HW118848   0.590   0.703  12.081  0.5521 -0.1496 -0.2545
 2462SOL    HW218849   0.601   0.619  12.194  0.4096 -0.9552 -0.8020
 2463SOL     OW18850   0.838   2.149   8.595  0.3241 -0.4546 -0.3214
 2463SOL    HW118851   0.804   2.060   8.585  1.5155 -0.9415 -0.0436
 2463SOL    HW218852   0.873   2.135   8.682 -1.8145 -0.8132  0.4860
 2464SOL     OW18853   2.039   2.893  10.314  0.2911  0.3511 -0.2347
 2464SOL    HW118854   2.003   2.912  10.400  2.6632  1.6907  0.4706
 2464SOL    HW218855   2.128   2.925  10.331  0.7494  0.0958 -2.0944
 2465SOL     OW18856   2.780   3.662   5.836 -0.1965 -0.3270  0.1817
 2465SOL    HW118857   2.793   3.622   5.922  1.1774 -0.5984 -0.1525
 2465SOL    HW218858   2.856   3.632   5.786 -0.1779  0.9130 -0.5387
 2466SOL     OW18859   2.030   0.358   4.802 -0.1635 -0.3638 -0.3377
 2466SOL    HW118860   2.051   0.432   4.860  0.0331  0.6995 -1.7494
 2466SOL    HW218861   1.936   0.369   4.788 -0.3623 -1.2122  0.3293
 2467SOL     OW18862   4.011   2.058   5.145  0.0072  0.0403 -0.7096
 2467SOL    HW118863   4.072   1.985   5.143 -2.3276 -1.9243  0.2579
 2467SOL    HW218864   4.041   2.106   5.222 -1.0657  0.9924 -0.8858
 2468SOL     OW18865   3.957   3.860   1.826 -0.6786 -0.7199  0.0993
 2468SOL    HW118866   3.943   3.935   1.884 -1.7835  0.9052 -2.3166
 2468SOL    HW218867   3.874   3.817   1.844 -0.5171 -0.4306  1.5683
 2469SOL     OW18868   1.763   1.171   8.864  0.1164  0.5651 -0.1506
 2469SOL    HW118869   1.847   1.136   8.833  0.4844  0.7560  0.6374
 2469SOL    HW218870   1.782   1.223   8.942 -0.2796  0.8010 -0.2091
 2470SOL     OW18871   3.535   0.241  17.388  0.4870  0.1131  0.0888
 2470SOL    HW118872   3.479   0.290  17.328  1.7339  0.1071 -1.0657
 2470SOL    HW218873   3.584   0.187  17.326 -1.9687 -0.5582 -1.2535
 2471SOL     OW18874   4.102   3.769   6.898  0.1470 -0.2090  0.2017
 2471SOL    HW118875   4.089   3.676   6.915 -1.6490 -0.4570 -2.5386
 2471SOL    HW218876   4.189   3.788   6.863  0.9651 -2.0544  1.2189
 2472SOL     OW18877   3.011   1.902   4.331  0.2123 -0.0903 -0.7056
 2472SOL    HW118878   3.088   1.914   4.276  0.3936 -0.0037 -0.4329
 2472SOL    HW218879   3.047   1.914   4.419 -0.8998 -1.9538  0.0110
 2473SOL     OW18880   1.539   1.543  15.532  0.1056 -0.0642 -0.4598
 2473SOL    HW118881   1.561   1.481  15.601  0.4839  0.9134  0.2981
 2473SOL    HW218882   1.540   1.620  15.590  1.5124  1.6188 -2.7164
 2474SOL     OW18883   2.568   1.078   7.927 -0.2313 -0.4146 -0.3506
 2474SOL    HW118884   2.613   0.993   7.922  2.3830  0.9836 -0.4541
 2474SOL    HW218885   2.637   1.117   7.979  0.1035 -1.9986  0.3915
 2475SOL     OW18886   2.384   2.023   2.797  0.1779  0.6665  0.4031
 2475SOL    HW118887   2.460   2.081   2.802 -0.3447  1.3704  0.2940
 2475SOL    HW218888   2.356   2.038   2.707  1.2917  2.3560  0.3392
 2476SOL     OW18889   4.194   2.106   7.442 -0.6087  0.2625  0.4706
 2476SOL    HW118890   4.195   2.011   7.431  1.8064  0.2683  0.5935
 2476SOL    HW218891   4.101   2.127   7.449 -0.4313  0.5012  2.0557
 2477SOL     OW18892   3.351   3.643   5.830  0.6406 -0.3567  0.2544
 2477SOL    HW118893   3.343   3.550   5.854  0.7896 -0.4223  0.0468
 2477SOL    HW218894   3.357   3.630   5.735  1.5262  1.9108  0.0077
 2478SOL     OW18895   2.439   1.990   4.302  0.3680  0.2364 -0.4435
 2478SOL    HW118896   2.419   1.969   4.393 -1.1171  0.4428 -0.7200
 2478SOL    HW218897   2.532   2.014   4.308  0.5230 -0.1245 -1.5195
 2479SOL     OW18898   4.392   2.631   5.489  0.3964 -0.5322  0.3768
 2479SOL    HW118899   4.472   2.582   5.470  1.3425  1.0144  0.3924
 2479SOL    HW218900   4.421   2.722   5.493 -0.6273 -0.1738 -0.2040
 2480SOL     OW18901   4.054   2.665   1.980  0.3298  0.0184 -0.1423
 2480SOL    HW118902   4.019   2.631   1.898 -0.2532  2.6077 -0.9658
 2480SOL    HW218903   3.979   2.708   2.022  1.3873  0.1584  1.6007
 2481SOL     OW18904   3.475   2.860  16.810 -0.0310 -0.0294 -0.2719
 2481SOL    HW118905   3.471   2.766  16.790 -1.0985 -0.0902  0.1939
 2481SOL    HW218906   3.561   2.889  16.780 -1.1672  2.0373 -1.4534
 2482SOL     OW18907   0.677   3.639   3.167  0.0051  0.1616  0.8198
 2482SOL    HW118908   0.713   3.615   3.081 -2.1458  0.5231 -0.1907
 2482SOL    HW218909   0.669   3.734   3.171 -0.2418  0.1182  1.3328
 2483SOL     OW18910   2.106   3.179   6.723 -0.1076 -0.9584 -0.6988
 2483SOL    HW118911   2.161   3.122   6.671  1.4241  0.9710 -1.1897
 2483SOL    HW218912   2.177   3.236   6.752 -1.5369  1.4653 -1.9882
 2484SOL     OW18913   1.564   2.855   6.401 -0.0939  0.2046 -0.1340
 2484SOL    HW118914   1.632   2.806   6.448  1.2436  0.4520 -1.7818
 2484SOL    HW218915   1.619   2.914   6.348 -2.8944  1.5864 -1.4707
 2485SOL     OW18916   0.707   2.479   6.772  0.1254  0.2310  0.0606
 2485SOL    HW118917   0.739   2.547   6.712 -0.6393 -0.8011 -1.5107
 2485SOL    HW218918   0.716   2.531   6.852 -0.1006 -0.6035  0.6244
 2486SOL     OW18919   1.950   1.092   2.879 -0.5920 -0.0640  0.8092
 2486SOL    HW118920   1.929   1.123   2.791  0.0499  2.1442  1.4373
 2486SOL    HW218921   1.978   1.175   2.918 -0.6506 -0.6475  2.0675
 2487SOL     OW18922   2.055   2.189   4.109  0.4126  0.9006 -0.0898
 2487SOL    HW118923   2.002   2.125   4.061  0.5724 -0.9792  2.1925
 2487SOL    HW218924   2.110   2.228   4.042  1.5811  1.3559  1.1322
 2488SOL     OW18925   4.681   3.222   1.990  0.5024 -0.2851  0.2077
 2488SOL    HW118926   4.665   3.146   1.934  1.0994  1.0967 -1.8637
 2488SOL    HW218927   4.643   3.187   2.070  1.2768 -0.6419  0.4157
 2489SOL     OW18928   3.063   2.848  17.463  0.3676 -0.3631  0.1382
 2489SOL    HW118929   3.032   2.798  17.388 -2.1733 -1.8640  2.1566
 2489SOL    HW218930   3.072   2.931  17.416 -2.3821 -0.1730 -0.0339
 2490SOL     OW18931   2.910   1.914   8.805 -0.4169  0.7182  0.1775
 2490SOL    HW118932   2.838   1.973   8.785  1.0661  2.3106 -0.4921
 2490SOL    HW218933   2.925   1.934   8.898  2.4906  0.0836 -0.1440
 2491SOL     OW18934   0.679   0.944   9.172  0.4531 -0.1784 -0.0790
 2491SOL    HW118935   0.652   0.992   9.095 -1.2674 -1.0495 -0.0133
 2491SOL    HW218936   0.774   0.948   9.159  0.4352  0.7786  0.1505
 2492SOL     OW18937   3.070   1.235   8.404  0.0971 -0.3823 -0.0878
 2492SOL    HW118938   3.012   1.159   8.398 -0.0857 -0.2430 -0.1165
 2492SOL    HW218939   3.061   1.245   8.499 -0.1028  0.3204 -0.1754
 2493SOL     OW18940   3.791   0.044   7.934 -0.1570 -0.0294  0.0866
 2493SOL    HW118941   3.715   0.020   7.881  0.1555 -0.2145 -0.2726
 2493SOL    HW218942   3.754   0.074   8.017  0.9160 -0.2548  0.6436
 2494SOL     OW18943   3.433   1.142   7.512 -0.1530  0.1997 -0.1087
 2494SOL    HW118944   3.481   1.119   7.591 -1.0368 -0.2102  0.3062
 2494SOL    HW218945   3.472   1.228   7.495 -0.4461  0.5003  0.7270
 2495SOL     OW18946   2.253   2.933   4.267  0.3808  0.1799  0.4905
 2495SOL    HW118947   2.167   2.974   4.277  0.5532  0.5860  0.3164
 2495SOL    HW218948   2.268   2.892   4.352 -0.3951 -1.1171  0.0002
 2496SOL     OW18949   2.381   2.594   2.022  0.3981  0.6223  0.5178
 2496SOL    HW118950   2.394   2.671   2.077 -1.8631  0.9423  0.6298
 2496SOL    HW218951   2.288   2.575   2.034 -0.3606  2.8674 -1.8422
 2497SOL     OW18952   3.469   1.659   2.416  0.1253  0.6116 -0.4802
 2497SOL    HW118953   3.532   1.602   2.372  0.2000 -0.1730  0.6220
 2497SOL    HW218954   3.481   1.627   2.506  1.9189  0.9030 -0.6141
 2498SOL     OW18955   2.385   0.243   4.151  0.3402 -0.2617 -0.0074
 2498SOL    HW118956   2.445   0.273   4.082  0.6996 -1.1855 -0.0939
 2498SOL    HW218957   2.307   0.210   4.108 -0.4328  2.3294 -0.5841
 2499SOL     OW18958   0.289   3.079   6.894 -0.0832 -0.1732  0.0374
 2499SOL    HW118959   0.319   3.167   6.916 -0.6033 -0.4775  1.9300
 2499SOL    HW218960   0.197   3.096   6.872 -0.0778 -1.7883 -1.2376
 2500SOL     OW18961   3.833   0.779   4.111  0.4802 -0.0766 -0.5786
 2500SOL    HW118962   3.797   0.750   4.195  0.8032 -0.2544 -0.5031
 2500SOL    HW218963   3.913   0.816   4.150  0.5819  1.4427 -2.2306
 2501SOL     OW18964   4.247   0.629  14.869  0.7326  0.0646  0.0836
 2501SOL    HW118965   4.325   0.637  14.814  0.8476 -1.4003  0.0465
 2501SOL    HW218966   4.204   0.715  14.864  0.5526 -0.1089 -1.3800
 2502SOL     OW18967   0.020   1.675   6.294  0.0897  0.4166  0.2850
 2502SOL    HW118968   0.096   1.640   6.248 -2.1032  0.4750 -3.4248
 2502SOL    HW218969   0.046   1.685   6.385 -1.5649  2.1944  0.5641
 2503SOL     OW18970   0.814   3.800   1.667 -0.3772  0.1648  0.0487
 2503SOL    HW118971   0.811   3.887   1.707 -0.6504  0.3738 -0.4247
 2503SOL    HW218972   0.812   3.746   1.745  0.0848  0.6743  0.4154
 2504SOL     OW18973   2.167   4.627   6.311 -0.1339 -0.1439  0.0636
 2504SOL    HW118974   2.260   4.611   6.327  0.4729  0.7087 -2.6164
 2504SOL    HW218975   2.121   4.554   6.352 -0.6731  0.1251 -0.0521
 2505SOL     OW18976   2.200   1.763   3.819  0.2517  0.1736  0.3537
 2505SOL    HW118977   2.257   1.836   3.796 -0.1946  0.3254 -0.2704
 2505SOL    HW218978   2.138   1.815   3.870 -2.0194 -1.2328 -0.9403
 2506SOL     OW18979   4.233   4.100   6.674 -0.3335 -0.5108 -0.1912
 2506SOL    HW118980   4.222   4.080   6.581 -0.5251 -1.0542 -0.0501
 2506SOL    HW218981   4.155   4.153   6.689 -1.5104 -1.2318 -3.7977
 2507SOL     OW18982   4.281   2.270  17.231  0.1112  0.0706 -0.0741
 2507SOL    HW118983   4.248   2.354  17.265  1.2850  1.2296 -1.8649
 2507SOL    HW218984   4.235   2.260  17.148 -0.7569 -1.0933  0.5391
 2508SOL     OW18985   4.080   3.327   0.708 -0.1023 -0.3798  0.0283
 2508SOL    HW118986   4.006   3.375   0.745  1.0645 -0.3427  2.3466
 2508SOL    HW218987   4.033   3.317   0.626 -0.0116  0.7656 -0.1639
 2509SOL     OW18988   2.824   1.052  15.085  0.0204 -0.3532 -0.2298
 2509SOL    HW118989   2.863   1.139  15.078  2.0042 -1.2630 -0.5318
 2509SOL    HW218990   2.897   0.994  15.064  1.1194  0.4329  1.3994
 2510SOL     OW18991   2.027   3.979   2.240  0.2815 -0.1002  0.0123
 2510SOL    HW118992   2.080   4.037   2.185 -0.3553  1.1640  0.7232
 2510SOL    HW218993   2.043   3.908   2.179  0.7087  0.7186 -0.8273
 2511SOL     OW18994   2.261   1.641  14.951  0.9567 -0.4281 -0.0915
 2511SOL    HW118995   2.183   1.595  14.983 -1.3015  3.1473 -0.5064
 2511SOL    HW218996   2.252   1.727  14.992 -0.7069 -0.9159  0.5698
 2512SOL     OW18997   4.447   4.433  10.910 -0.3780 -0.1853  0.3619
 2512SOL    HW118998   4.353   4.438  10.894 -0.3380  2.2744  0.9555
 2512SOL    HW218999   4.487   4.434  10.823 -1.3003  2.2525 -0.0269
 2513SOL     OW19000   4.593   4.367   0.333  0.3317 -0.1239 -0.0068
 2513SOL    HW119001   4.648   4.440   0.305 -0.6020  0.4726 -0.3136
 2513SOL    HW219002   4.625   4.289   0.287  1.2297  0.5787 -0.5633
 2514SOL     OW19003   4.658   0.145   9.398  0.0750 -0.2862  0.0330
 2514SOL    HW119004   4.667   0.136   9.303  2.2635  1.0557  0.1176
 2514SOL    HW219005   4.722   0.214   9.417 -0.4523  0.6483 -1.5854
 2515SOL     OW19006   4.292   2.297   4.658 -0.2170  0.0840  0.3927
 2515SOL    HW119007   4.208   2.337   4.681  0.3067  1.7550 -0.5538
 2515SOL    HW219008   4.286   2.273   4.566  0.4112  1.2318  0.0475
 2516SOL     OW19009   3.165   1.757  13.167 -0.2009  0.4506  0.0873
 2516SOL    HW119010   3.123   1.824  13.221 -0.2959 -0.4245  1.1150
 2516SOL    HW219011   3.258   1.771  13.187  0.1078 -2.2383  0.5282
 2517SOL     OW19012   1.912   2.702  11.473 -0.2132 -0.5433  0.0011
 2517SOL    HW119013   1.884   2.724  11.384 -1.2992 -2.1426 -0.0634
 2517SOL    HW219014   1.937   2.609  11.471 -1.6919 -0.9592  0.2048
 2518SOL     OW19015   2.028   2.978   2.829 -0.1946 -0.7375  0.3435
 2518SOL    HW119016   2.124   2.978   2.834 -0.1713  0.0671 -0.0568
 2518SOL    HW219017   2.006   2.885   2.834  0.1271 -0.8972 -1.2773
 2519SOL     OW19018   1.527   1.228   1.787 -0.1204  0.1528 -0.1836
 2519SOL    HW119019   1.526   1.257   1.696  3.0213  1.6130  0.2495
 2519SOL    HW219020   1.445   1.180   1.792 -0.4210  0.5472 -1.2399
 2520SOL     OW19021   3.216   3.175   2.485 -0.3347 -0.0403 -0.2250
 2520SOL    HW119022   3.215   3.124   2.404 -2.9093  0.2370 -0.3658
 2520SOL    HW219023   3.187   3.103   2.540 -1.1809  1.1038  0.8198
 2521SOL     OW19024   0.663   1.937  13.165 -0.2584  0.3245 -1.0667
 2521SOL    HW119025   0.668   1.862  13.106  0.1780  0.2358 -0.9187
 2521SOL    HW219026   0.713   1.908  13.241 -1.0440 -0.5208 -0.8684
 2522SOL     OW19027   3.618   0.150   2.785 -0.3916 -0.7566  0.3163
 2522SOL    HW119028   3.573   0.234   2.794 -1.0495 -1.0542 -0.1942
 2522SOL    HW219029   3.552   0.106   2.731 -2.1993  0.1367  1.7715
 2523SOL     OW19030   0.834   4.028   8.805  0.2634 -0.4455  0.1363
 2523SOL    HW119031   0.856   3.937   8.824 -1.3352 -0.8463  0.0614
 2523SOL    HW219032   0.884   4.076   8.871  0.9681 -0.4941 -0.3609
 2524SOL     OW19033   4.483   0.421   6.217  0.2268  0.1368  0.0352
 2524SOL    HW119034   4.412   0.404   6.279 -0.9005  0.5220 -1.1529
 2524SOL    HW219035   4.555   0.431   6.279 -0.0504 -0.1756  0.4072
 2525SOL     OW19036   4.198   3.909   4.064  0.0018  0.0015  0.0484
 2525SOL    HW119037   4.141   3.947   3.998 -1.6205 -1.7006  0.4843
 2525SOL    HW219038   4.140   3.833   4.069 -0.4211  0.3290  0.1096
 2526SOL     OW19039   1.682   4.442   4.885 -0.2122 -0.1920  0.2559
 2526SOL    HW119040   1.715   4.493   4.812 -1.3987 -0.2139 -0.2969
 2526SOL    HW219041   1.650   4.514   4.939  2.6017  1.4907 -0.3518
 2527SOL     OW19042   1.747   2.465   1.997 -0.7481 -0.3529 -0.6663
 2527SOL    HW119043   1.655   2.449   2.018 -0.8264 -0.8799 -1.3718
 2527SOL    HW219044   1.761   2.406   1.923  1.7110  1.1412 -1.3957
 2528SOL     OW19045   2.118   2.383  16.031  0.1974 -0.0906 -0.7113
 2528SOL    HW119046   2.045   2.439  16.055  0.9106  0.3091  0.5319
 2528SOL    HW219047   2.188   2.448  16.018  1.5152 -1.3613 -0.0578
 2529SOL     OW19048   3.087   1.611  14.670 -0.3298 -0.0032 -0.4148
 2529SOL    HW119049   3.046   1.535  14.628 -1.7863  1.5649 -1.8342
 2529SOL    HW219050   3.144   1.647  14.602  0.9348 -0.8557  0.1901
 2530SOL     OW19051   3.691   4.617   1.689  0.0798  0.0808  0.0065
 2530SOL    HW119052   3.625   4.682   1.715 -2.7271 -2.9390  0.4308
 2530SOL    HW219053   3.685   4.635   1.596  0.6775  1.2512  0.1962
 2531SOL     OW19054   1.903   0.962  10.039 -0.4623 -0.1846 -0.6473
 2531SOL    HW119055   1.983   0.918  10.011 -0.7203 -1.1298  0.1126
 2531SOL    HW219056   1.892   0.923  10.125 -1.5204 -1.9998 -1.6020
 2532SOL     OW19057   2.488   4.196   1.250 -0.8408 -0.3613 -0.1919
 2532SOL    HW119058   2.409   4.142   1.256  0.0124 -1.5547  0.2755
 2532SOL    HW219059   2.547   4.139   1.299 -1.4535  1.6265  2.9160
 2533SOL     OW19060   0.632   2.873  16.291 -0.4518  0.0313  0.0554
 2533SOL    HW119061   0.613   2.967  16.290  0.7325  0.2584 -0.3252
 2533SOL    HW219062   0.547   2.832  16.274 -0.4676 -0.1178  0.4971
 2534SOL     OW19063   3.850   2.491   2.891  0.1212  0.2301 -0.0540
 2534SOL    HW119064   3.919   2.544   2.931  2.0789 -2.1563 -0.2643
 2534SOL    HW219065   3.804   2.550   2.833  0.3233 -0.8634 -1.3272
 2535SOL     OW19066   3.553   3.015   6.791  0.2691 -0.2784 -0.3145
 2535SOL    HW119067   3.609   3.040   6.717  0.4526  0.5950  0.1132
 2535SOL    HW219068   3.599   3.052   6.867  0.0840 -0.2254 -0.2279
 2536SOL     OW19069   2.270   4.421   0.004 -0.1861  0.6289  0.0387
 2536SOL    HW119070   2.216   4.489  17.659 -0.2993  0.3394 -0.2920
 2536SOL    HW219071   2.201   4.374   0.051 -0.9940  0.4613 -1.3265
 2537SOL     OW19072   4.197   2.311   2.519 -0.1361  0.3257  0.4551
 2537SOL    HW119073   4.151   2.234   2.485  1.0750 -0.4715  0.5903
 2537SOL    HW219074   4.285   2.287   2.490 -0.3248 -2.2377  1.9615
 2538SOL     OW19075   2.756   2.843   2.007 -0.3253 -0.7664  0.1764
 2538SOL    HW119076   2.666   2.849   2.040 -0.9329 -3.0866 -1.0292
 2538SOL    HW219077   2.736   2.839   1.913  0.4076 -2.7431  0.0945
 2539SOL     OW19078   2.664   1.380   4.072  0.1547 -0.5020 -0.2572
 2539SOL    HW119079   2.581   1.422   4.095  0.3078 -0.4072  0.1400
 2539SOL    HW219080   2.674   1.409   3.982 -1.1386  0.6290 -0.0453
 2540SOL     OW19081   4.680   4.135   1.027  0.1790 -0.5129 -0.4837
 2540SOL    HW119082   4.683   4.056   1.081 -0.5389 -0.0161  0.2926
 2540SOL    HW219083   0.038   4.129   0.979 -1.5347 -2.3940 -3.1633
 2541SOL     OW19084   4.681   2.397   5.810  0.2812  0.3211  0.0426
 2541SOL    HW119085   4.714   2.310   5.833  1.8647  0.8939 -0.0540
 2541SOL    HW219086   0.008   2.401   5.729  0.4951  0.7225  0.2018
 2542SOL     OW19087   1.288   0.081  12.663  0.2039 -0.0930  0.1401
 2542SOL    HW119088   1.279   0.166  12.619 -0.0098  0.1089  0.5785
 2542SOL    HW219089   1.196   0.054  12.670 -0.1562  0.9786 -0.4281
 2543SOL     OW19090   2.910   4.396   1.855  0.2453 -0.5659 -0.0689
 2543SOL    HW119091   2.942   4.322   1.907  0.5368 -1.2429 -1.2382
 2543SOL    HW219092   2.849   4.361   1.790 -0.4594 -0.4895  0.5357
 2544SOL     OW19093   3.441   3.632   7.959 -0.5559 -0.1914  0.2187
 2544SOL    HW119094   3.354   3.670   7.954 -1.3578 -1.8951  1.4436
 2544SOL    HW219095   3.502   3.700   7.988  0.8452 -0.7828 -1.2888
 2545SOL     OW19096   3.283   2.868  10.598 -0.0531 -0.4439 -0.0102
 2545SOL    HW119097   3.353   2.802  10.599  0.2180 -0.1476  0.3919
 2545SOL    HW219098   3.201   2.827  10.570 -0.4126 -0.2106  0.6859
 2546SOL     OW19099   3.131   0.358   7.370 -0.1993 -0.1827  0.0908
 2546SOL    HW119100   3.217   0.388   7.400 -1.0649  0.7382  1.6650
 2546SOL    HW219101   3.084   0.442   7.376 -0.2420  0.0009 -2.8330
 2547SOL     OW19102   4.582   3.139  12.012  0.1942 -0.1296  0.5927
 2547SOL    HW119103   4.498   3.102  12.038 -0.0747  1.2048  1.6015
 2547SOL    HW219104   4.624   3.147  12.097 -1.1974  1.0693  1.1656
 2548SOL     OW19105   4.137   3.946   6.066 -0.0537 -0.7109  0.0829
 2548SOL    HW119106   4.174   3.879   6.009 -1.3532 -0.6875 -0.7865
 2548SOL    HW219107   4.107   3.903   6.146  0.5635  0.3647  0.8856
 2549SOL     OW19108   0.919   0.190   3.564 -0.1832  0.1381 -0.4836
 2549SOL    HW119109   0.992   0.213   3.621 -1.8086  0.4371  1.4819
 2549SOL    HW219110   0.886   0.279   3.555  1.2974  1.1439  3.9966
 2550SOL     OW19111   3.217   1.315   0.607  0.4521  0.2906 -0.1495
 2550SOL    HW119112   3.123   1.330   0.615  0.5668  1.3803 -0.7810
 2550SOL    HW219113   3.226   1.280   0.695  0.1545 -1.2330 -0.7133
 2551SOL     OW19114   2.825   4.374   6.864 -0.1636  0.3371  0.1779
 2551SOL    HW119115   2.844   4.382   6.771  2.0326 -0.0513  0.6024
 2551SOL    HW219116   2.733   4.346   6.859  0.3997 -1.0757 -1.9725
 2552SOL     OW19117   2.559   1.366  11.446 -0.0243  0.1714  0.6145
 2552SOL    HW119118   2.640   1.316  11.437  0.2239  0.9944 -1.7794
 2552SOL    HW219119   2.537   1.381  11.354  0.2101  2.3807  0.9076
 2553SOL     OW19120   0.986   2.391   6.687 -0.1275 -0.0853 -0.7509
 2553SOL    HW119121   1.015   2.401   6.597  1.4226  2.6802  0.0726
 2553SOL    HW219122   0.979   2.482   6.716 -2.0826 -0.6099  0.4988
 2554SOL     OW19123   3.230   4.085   5.618 -0.3649  0.6226  0.4592
 2554SOL    HW119124   3.149   4.124   5.585  0.2069  1.5901  0.1898
 2554SOL    HW219125   3.232   3.999   5.577  2.0122  0.7986  0.1754
 2555SOL     OW19126   1.145   0.954  13.134 -0.2935 -0.1920 -0.3176
 2555SOL    HW119127   1.217   0.959  13.071  0.1100  0.1817  0.1695
 2555SOL    HW219128   1.185   0.905  13.206  0.1185 -0.0075 -0.4227
 2556SOL     OW19129   2.247   1.275  11.507 -0.2424  0.2904 -0.4272
 2556SOL    HW119130   2.178   1.223  11.548 -1.1696  1.6470 -0.2770
 2556SOL    HW219131   2.255   1.229  11.423 -0.3210 -1.3970  0.4951
 2557SOL     OW19132   0.867   3.535   6.595  0.4241  0.2715  0.0009
 2557SOL    HW119133   0.896   3.545   6.686  1.7169  0.1354 -0.3974
 2557SOL    HW219134   0.800   3.470   6.617  0.6819  0.2984  0.8649
 2558SOL     OW19135   4.126   2.835  10.554 -0.3620 -0.2246 -0.1144
 2558SOL    HW119136   4.051   2.806  10.607  0.9772 -1.1225  1.2746
 2558SOL    HW219137   4.151   2.895  10.624  0.2227  0.9597 -1.3383
 2559SOL     OW19138   4.235   3.443  13.533  0.0495 -0.0477 -0.5211
 2559SOL    HW119139   4.229   3.372  13.470  1.9362 -1.3097  0.7218
 2559SOL    HW219140   4.328   3.466  13.524  0.7287 -2.1567  1.1452
 2560SOL     OW19141   1.981   4.192   4.193  0.6261  0.2724  0.3747
 2560SOL    HW119142   2.044   4.125   4.167  0.5857  0.2848  0.2439
 2560SOL    HW219143   1.921   4.140   4.247 -1.2323  1.5730 -0.4424
 2561SOL     OW19144   0.083   2.096  13.301  0.1956 -0.8228  0.6440
 2561SOL    HW119145   0.125   2.172  13.262 -0.5001  0.1685  1.8208
 2561SOL    HW219146   0.089   2.140  13.386 -1.9912 -0.8285  0.8087
 2562SOL     OW19147   0.061   1.863  14.149  0.2935  0.0453 -0.4205
 2562SOL    HW119148   4.692   1.839  14.147  0.2071  0.0823  2.6857
 2562SOL    HW219149   0.113   1.792  14.187  0.4367  0.2370 -0.2626
 2563SOL     OW19150   1.554   0.750   3.067  0.2087  0.5863  0.0255
 2563SOL    HW119151   1.611   0.827   3.073  0.9174  0.3003 -3.1686
 2563SOL    HW219152   1.584   0.705   2.988  2.2435 -0.0463  1.1352
 2564SOL     OW19153   0.242   2.002   4.093 -0.1590  0.4188  0.1315
 2564SOL    HW119154   0.203   2.047   4.018  0.5512  1.4660  0.3857
 2564SOL    HW219155   0.243   2.074   4.156 -1.9075  0.6692 -0.1245
 2565SOL     OW19156   4.068   4.590  15.143 -0.1290  0.0169 -0.0303
 2565SOL    HW119157   4.010   4.518  15.168  1.9261 -1.7256 -0.2428
 2565SOL    HW219158   4.131   4.586  15.216  1.6466 -1.9865 -1.6506
 2566SOL     OW19159   0.821   4.668  15.391 -0.3477 -0.0650  0.3959
 2566SOL    HW119160   0.754   4.608  15.423 -0.3978 -1.1794 -1.8339
 2566SOL    HW219161   0.898   4.629  15.434 -0.6878  1.2787  2.2289
 2567SOL     OW19162   1.094   3.379   4.606  0.0306  0.2712  0.2006
 2567SOL    HW119163   1.094   3.288   4.579  2.1723  0.5306 -0.6958
 2567SOL    HW219164   1.021   3.387   4.668 -0.6324  1.2705 -0.7094
 2568SOL     OW19165   4.084   4.530   0.596 -0.1444 -0.4023  0.3380
 2568SOL    HW119166   4.155   4.594   0.595 -0.7783  0.3079  0.4589
 2568SOL    HW219167   4.107   4.491   0.511  1.2904  0.2812  0.4202
 2569SOL     OW19168   0.414   1.120  12.336  0.3037  0.6457  0.5270
 2569SOL    HW119169   0.495   1.070  12.324 -0.6236 -0.7921  0.2924
 2569SOL    HW219170   0.358   1.044  12.322  0.8441  0.3660 -0.1840
 2570SOL     OW19171   1.093   1.974  14.790  0.6667  0.1257  0.3020
 2570SOL    HW119172   1.037   1.936  14.722  2.1072  1.5355 -1.6399
 2570SOL    HW219173   1.180   1.973  14.752  0.7884 -1.6854  0.6294
 2571SOL     OW19174   1.680   1.689   6.416 -0.2717 -0.1871  0.7568
 2571SOL    HW119175   1.683   1.595   6.435 -0.5014 -0.3596 -0.0890
 2571SOL    HW219176   1.653   1.726   6.500  0.1477 -4.6589  2.8902
 2572SOL     OW19177   3.794   0.542  11.752  0.2842  0.0101 -0.2327
 2572SOL    HW119178   3.796   0.597  11.674 -1.1933 -0.2387 -0.4421
 2572SOL    HW219179   3.808   0.462  11.703 -2.4928  1.1506 -2.8754
 2573SOL     OW19180   3.051   1.542  15.987 -0.1150 -0.3422  0.1123
 2573SOL    HW119181   3.081   1.554  16.077  2.0782  0.4395 -0.7239
 2573SOL    HW219182   2.956   1.544  15.999 -0.2176 -1.0049 -0.5618
 2574SOL     OW19183   0.074   3.817   4.397 -0.0389  0.1702 -0.8124
 2574SOL    HW119184   0.063   3.762   4.320 -0.3043 -0.4341 -0.3335
 2574SOL    HW219185   0.040   3.899   4.362 -2.8785 -0.0381  1.5287
 2575SOL     OW19186   2.032   2.954  10.983  0.1908 -0.1168  0.6066
 2575SOL    HW119187   2.026   3.045  10.954 -2.2407  0.7037  3.5555
 2575SOL    HW219188   2.019   2.906  10.902  0.5006  0.4214  0.2334
 2576SOL     OW19189   2.706   1.007   1.980 -0.5818 -0.1611  0.0954
 2576SOL    HW119190   2.758   1.047   2.049 -0.1161 -0.6853  0.0500
 2576SOL    HW219191   2.691   1.078   1.918 -3.5265 -0.9765 -0.1385
 2577SOL     OW19192   2.915   4.662   0.426  0.0697  0.6804 -0.0573
 2577SOL    HW119193   2.951   4.689   0.510  1.5513 -0.8678 -0.1998
 2577SOL    HW219194   3.001   4.648   0.385 -0.6415 -1.1540 -0.9257
 2578SOL     OW19195   0.068   4.468   3.113 -0.4993  0.1222  0.1433
 2578SOL    HW119196   0.007   4.512   3.171 -1.2751 -0.6199 -0.1132
 2578SOL    HW219197   0.118   4.430   3.185  0.8452  0.7796 -0.4369
 2579SOL     OW19198   1.101   1.829   3.661 -0.0333  0.4977  0.8189
 2579SOL    HW119199   1.094   1.767   3.589  0.1895 -0.8448  1.9373
 2579SOL    HW219200   1.006   1.840   3.666 -0.2806 -1.5478  0.3998
 2580SOL     OW19201   1.587   1.725   6.177 -0.0045  0.2754  0.1015
 2580SOL    HW119202   1.608   1.711   6.269 -0.5066  0.9605  0.3254
 2580SOL    HW219203   1.666   1.768   6.144  0.5440 -1.4429 -0.8064
 2581SOL     OW19204   1.426   1.735   4.793 -0.6364 -0.0528 -0.1880
 2581SOL    HW119205   1.490   1.664   4.790 -1.1920 -0.4508 -2.4656
 2581SOL    HW219206   1.400   1.731   4.885  0.1665  2.6268  0.1689
 2582SOL     OW19207   2.366   3.644  17.637  0.5690  0.0578  0.2393
 2582SOL    HW119208   2.459   3.637  17.612  0.3775 -0.1143 -0.4177
 2582SOL    HW219209   2.372   3.649   0.036  3.9757  1.6930 -0.0570
 2583SOL     OW19210   1.742   0.432   0.866  0.9194  0.0662 -0.2226
 2583SOL    HW119211   1.796   0.477   0.931  0.1728 -0.2098  0.5772
 2583SOL    HW219212   1.670   0.404   0.923  0.7226 -0.3067 -0.6576
 2584SOL     OW19213   4.086   1.453   3.192 -0.4636 -0.3555 -0.2344
 2584SOL    HW119214   4.073   1.456   3.097  2.3258 -3.2013 -0.7150
 2584SOL    HW219215   4.181   1.461   3.197 -0.6632  1.2568  0.8393
 2585SOL     OW19216   1.068   4.129   3.685 -0.2650 -0.3863  0.5214
 2585SOL    HW119217   1.102   4.051   3.728  0.2150 -1.0072 -0.9594
 2585SOL    HW219218   1.089   4.122   3.592  1.6476  0.3670  0.8982
 2586SOL     OW19219   2.670   0.031  11.968 -0.0692 -0.0344  0.1130
 2586SOL    HW119220   2.759   0.001  11.990  0.3437 -0.3153 -1.9862
 2586SOL    HW219221   2.663   0.008  11.876  0.0336  0.5560 -0.0446
 2587SOL     OW19222   2.713   0.664   9.316  0.0568 -0.1285  0.6216
 2587SOL    HW119223   2.704   0.708   9.400  3.3053 -0.0687  0.9139
 2587SOL    HW219224   2.712   0.735   9.252 -5.0917 -1.2430 -0.5968
 2588SOL     OW19225   4.234   4.250   4.484 -0.1708  0.4150  0.0313
 2588SOL    HW119226   4.184   4.243   4.565  2.2246 -1.7059  1.3325
 2588SOL    HW219227   4.254   4.343   4.491  0.3800  0.2527  0.6365
 2589SOL     OW19228   1.627   0.991   6.007 -0.1327 -0.1861 -0.0930
 2589SOL    HW119229   1.671   1.073   6.030 -0.2973  0.0467 -0.5882
 2589SOL    HW219230   1.696   0.945   5.958  0.8630  1.1201  0.0748
 2590SOL     OW19231   1.430   1.486  15.254 -0.3600  0.0013 -0.1705
 2590SOL    HW119232   1.433   1.401  15.211 -0.1078  0.0994 -0.3484
 2590SOL    HW219233   1.492   1.479  15.326  1.6702 -0.2026 -1.9389
 2591SOL     OW19234   3.398   0.625  11.244  0.2322  0.3210 -0.1119
 2591SOL    HW119235   3.429   0.538  11.272 -1.6689 -0.7296 -1.2437
 2591SOL    HW219236   3.310   0.597  11.217  1.0670 -0.9751 -1.4888
 2592SOL     OW19237   1.507   0.868   5.333  0.7379  0.3000  0.1947
 2592SOL    HW119238   1.527   0.940   5.393 -0.3825  0.7944 -0.0412
 2592SOL    HW219239   1.465   0.802   5.388  1.2460  1.3223  1.8125
 2593SOL     OW19240   4.633   2.576   7.450 -0.2144  0.4256 -0.0559
 2593SOL    HW119241   4.570   2.565   7.521  0.4784 -1.5324  0.2546
 2593SOL    HW219242   4.689   2.649   7.476  0.6687 -1.1111  2.3170
 2594SOL     OW19243   3.854   1.139  12.361  0.7912 -0.1051  0.4613
 2594SOL    HW119244   3.871   1.050  12.393 -1.4194  0.9374  4.5140
 2594SOL    HW219245   3.865   1.121  12.268  0.5173 -1.7770  0.7499
 2595SOL     OW19246   0.501   3.678   2.511  0.1499  0.2641 -0.2427
 2595SOL    HW119247   0.452   3.605   2.549  0.6738 -0.1597 -0.3882
 2595SOL    HW219248   0.426   3.737   2.514  0.3487  0.4691  0.7725
 2596SOL     OW19249   2.238   4.428   5.506  0.2261  0.0119  0.5988
 2596SOL    HW119250   2.174   4.359   5.492 -0.1275  0.4167  0.2196
 2596SOL    HW219251   2.321   4.382   5.492  0.3798  1.2662 -2.5835
 2597SOL     OW19252   4.514   0.825   4.881 -0.8066 -0.4282 -0.3923
 2597SOL    HW119253   4.462   0.890   4.833 -1.5359  0.5255  1.7029
 2597SOL    HW219254   4.579   0.882   4.921 -0.2975  0.2006 -2.0942
 2598SOL     OW19255   1.525   4.446   1.700 -0.1929 -0.3250  0.4033
 2598SOL    HW119256   1.617   4.429   1.684 -0.1381  1.1973 -0.9202
 2598SOL    HW219257   1.478   4.382   1.647  1.7036 -0.2090 -1.4242
 2599SOL     OW19258   1.910   4.544   2.126 -0.2513 -1.0495  0.2435
 2599SOL    HW119259   1.826   4.514   2.091 -0.8702  0.9592  0.0480
 2599SOL    HW219260   1.934   4.465   2.175  2.2185 -0.3309  0.2037
 2600SOL     OW19261   0.608   0.412   2.647 -0.4999 -0.1006 -0.5803
 2600SOL    HW119262   0.632   0.500   2.618  0.4276 -0.6486 -1.5001
 2600SOL    HW219263   0.630   0.362   2.568  0.9129 -0.8688  0.3003
 2601SOL     OW19264   3.600   3.244   1.711 -0.1467 -0.8851 -0.2772
 2601SOL    HW119265   3.578   3.156   1.680 -0.5750 -0.5183 -1.0052
 2601SOL    HW219266   3.560   3.294   1.641  2.3447  0.9042 -0.4179
 2602SOL     OW19267   1.382   0.415   2.806  0.4275  0.4115  0.8584
 2602SOL    HW119268   1.441   0.424   2.881  0.5036 -2.3342  1.1391
 2602SOL    HW219269   1.366   0.321   2.807 -1.2462  0.7138  2.1671
 2603SOL     OW19270   0.578   0.294   3.247  0.1113  0.1786 -0.5987
 2603SOL    HW119271   0.529   0.277   3.328  1.6805  0.4121  0.4036
 2603SOL    HW219272   0.652   0.234   3.254 -0.7202 -0.7654  0.1490
 2604SOL     OW19273   4.136   4.697   5.987 -0.8440  0.6399  0.6165
 2604SOL    HW119274   4.091   0.012   5.912 -0.4661  0.3840  0.2556
 2604SOL    HW219275   4.097   4.610   5.991  3.0870 -1.0743  1.3111
 2605SOL     OW19276   0.196   2.253   2.397 -0.1351 -0.0587  0.2936
 2605SOL    HW119277   0.206   2.281   2.489 -0.2912  1.0320 -0.0229
 2605SOL    HW219278   0.268   2.297   2.353  1.4098 -1.2055  1.6628
 2606SOL     OW19279   3.642   3.368   5.510  0.6421  0.2196  0.4935
 2606SOL    HW119280   3.594   3.291   5.479 -0.0621  1.2039 -0.8411
 2606SOL    HW219281   3.721   3.348   5.459  1.2811  0.2294  1.4879
 2607SOL     OW19282   2.506   1.404   1.783  0.5462  0.4078  0.4717
 2607SOL    HW119283   2.570   1.440   1.720  0.3275  1.6466  0.9585
 2607SOL    HW219284   2.428   1.443   1.743 -0.4492 -0.5292  1.5376
 2608SOL     OW19285   1.945   3.969   7.494 -0.7378  0.4174  0.0279
 2608SOL    HW119286   1.928   3.877   7.514  2.6237 -0.2325 -0.0894
 2608SOL    HW219287   2.040   3.963   7.508 -1.1071 -0.8892  2.0162
 2609SOL     OW19288   0.667   3.677   9.452  0.3486 -0.7999 -0.6075
 2609SOL    HW119289   0.736   3.674   9.386 -0.6816  1.3934 -1.7799
 2609SOL    HW219290   0.707   3.631   9.525  1.5458  1.5104  0.1982
 2610SOL     OW19291   0.905   3.775   9.722 -0.0556 -0.7010  0.2361
 2610SOL    HW119292   0.850   3.698   9.735 -0.5600 -0.3059  0.4332
 2610SOL    HW219293   0.831   3.836   9.724  1.4642  1.2337 -2.7078
 2611SOL     OW19294   3.777   0.625  13.637 -0.1358  0.4719  0.4749
 2611SOL    HW119295   3.848   0.661  13.585  2.2317 -1.1634  2.6049
 2611SOL    HW219296   3.698   0.678  13.624 -0.2741  0.3114  0.6509
 2612SOL     OW19297   3.223   2.658   8.491 -0.1825  0.3769 -0.0005
 2612SOL    HW119298   3.182   2.576   8.462 -0.6670  0.8606 -0.6855
 2612SOL    HW219299   3.207   2.644   8.585  0.2192 -0.4267 -0.0503
 2613SOL     OW19300   0.951   0.545   8.416  0.0464  0.4652  0.2110
 2613SOL    HW119301   1.027   0.519   8.468 -1.2113 -1.7387  0.9466
 2613SOL    HW219302   0.996   0.556   8.332  2.1477  4.6788  1.8774
 2614SOL     OW19303   0.935   0.990   9.078 -0.1150  0.0212  0.3426
 2614SOL    HW119304   0.944   1.085   9.077 -2.2443  0.2100 -1.1917
 2614SOL    HW219305   1.003   0.964   9.140  0.4647  1.0454  0.1367
 2615SOL     OW19306   4.246   2.866   1.990 -0.0882  0.2581  0.0251
 2615SOL    HW119307   4.162   2.821   1.985  0.6008 -1.0713  0.3937
 2615SOL    HW219308   4.278   2.840   1.903 -0.3832 -2.3275  0.6868
 2616SOL     OW19309   2.982   4.162  17.497 -0.5877 -0.1836  0.1246
 2616SOL    HW119310   2.913   4.229  17.497 -0.9476 -0.5453  0.9083
 2616SOL    HW219311   2.939   4.081  17.469  3.4215 -1.7835 -1.3650
 2617SOL     OW19312   4.316   0.653   5.389  0.8804  0.4649 -0.6068
 2617SOL    HW119313   4.223   0.675   5.400  0.9053  0.8049 -1.0959
 2617SOL    HW219314   4.346   0.696   5.309  2.2596 -1.3664 -1.0639
 2618SOL     OW19315   2.031   3.444  17.623  0.2871 -0.0524 -0.0774
 2618SOL    HW119316   2.061   3.409   0.011  0.8502  0.5638 -0.0173
 2618SOL    HW219317   2.100   3.409  17.567 -1.4586 -1.8635 -1.0535
 2619SOL     OW19318   0.830   4.703   3.931 -0.4600  0.3019 -0.0174
 2619SOL    HW119319   0.833   4.610   3.909 -1.5469  0.5431 -1.1780
 2619SOL    HW219320   0.771   0.016   3.865  0.4187  2.7202  0.5264
 2620SOL     OW19321   3.326   0.348   8.876 -0.2441  0.1728  0.3841
 2620SOL    HW119322   3.296   0.314   8.792  0.1402 -1.3475  0.8646
 2620SOL    HW219323   3.393   0.412   8.854  0.9815 -1.3860 -0.3522
 2621SOL     OW19324   0.853   3.452   8.940  0.2779  0.3028  0.6022
 2621SOL    HW119325   0.912   3.385   8.907 -0.2624  0.4660 -0.6841
 2621SOL    HW219326   0.911   3.527   8.959 -0.3476  0.7903  0.6022
 2622SOL     OW19327   4.297   3.788   2.562 -0.4215 -0.8369 -0.0718
 2622SOL    HW119328   4.298   3.866   2.506 -1.1862  0.3079  1.4948
 2622SOL    HW219329   4.206   3.756   2.559 -0.6986 -0.0600  0.0644
 2623SOL     OW19330   1.972   2.800   2.353  0.0048 -0.3586  0.0835
 2623SOL    HW119331   1.933   2.875   2.399 -1.8207 -1.3136  0.0777
 2623SOL    HW219332   2.016   2.763   2.430  1.5277  2.5725  0.6242
 2624SOL     OW19333   1.942   2.496   1.701  0.3835 -0.4412 -0.5298
 2624SOL    HW119334   1.957   2.419   1.755  1.3243 -0.9086 -1.4618
 2624SOL    HW219335   1.847   2.499   1.690 -0.0010 -2.8206  2.1595
 2625SOL     OW19336   1.334   4.295  12.883 -0.3862 -0.0811 -0.4144
 2625SOL    HW119337   1.309   4.365  12.822  1.1725 -0.2786 -1.2767
 2625SOL    HW219338   1.252   4.244  12.880 -2.0001  2.4659  0.6958
 2626SOL     OW19339   0.000   2.222   4.198 -0.2531 -0.1956  0.4007
 2626SOL    HW119340   4.716   2.130   4.221 -0.2086 -0.7686 -1.9086
 2626SOL    HW219341   0.009   2.214   4.103  0.8856 -1.7513  0.6492
 2627SOL     OW19342   3.203   3.963   4.287 -0.1130  0.4942 -0.2516
 2627SOL    HW119343   3.219   4.054   4.261  0.9882  0.2865 -0.2964
 2627SOL    HW219344   3.269   3.960   4.356 -0.4665  0.5732  0.0916
 2628SOL     OW19345   1.575   3.559  16.177  0.0224 -0.1673 -0.1093
 2628SOL    HW119346   1.556   3.482  16.232 -0.1635  1.4181  2.0709
 2628SOL    HW219347   1.542   3.634  16.226 -0.1631  0.9966 -2.0326
 2629SOL     OW19348   3.051   2.182   9.909 -0.0601  0.4917  0.1801
 2629SOL    HW119349   3.055   2.219   9.997 -2.0126  3.0319 -0.8152
 2629SOL    HW219350   3.010   2.102   9.940  3.5070 -1.2178  0.5447
 2630SOL     OW19351   0.752   2.582  15.119 -0.3257  0.0146 -0.2950
 2630SOL    HW119352   0.770   2.665  15.074 -1.2360  1.1625  1.4642
 2630SOL    HW219353   0.829   2.582  15.175 -2.4679 -0.2018  2.6660
 2631SOL     OW19354   3.744   2.470   4.198 -0.1658 -0.0621 -0.0571
 2631SOL    HW119355   3.835   2.492   4.179  0.2294 -1.0447  0.6918
 2631SOL    HW219356   3.744   2.384   4.158  1.8147 -0.5148  0.9048
 2632SOL     OW19357   1.885   2.687   8.423 -0.0817  0.3969  0.3396
 2632SOL    HW119358   1.798   2.662   8.455 -0.4611 -0.0447 -1.0362
 2632SOL    HW219359   1.899   2.639   8.341 -1.2670  1.8945 -0.7520
 2633SOL     OW19360   3.385   1.043   4.556  0.3318 -0.0287  0.1334
 2633SOL    HW119361   3.333   0.992   4.619  1.0543 -2.0849 -0.9489
 2633SOL    HW219362   3.380   1.127   4.603  3.2936  1.1988 -1.7855
 2634SOL     OW19363   2.622   3.442  16.149 -0.3722 -0.0355  0.3283
 2634SOL    HW119364   2.611   3.351  16.122 -0.2405  0.7874 -2.5019
 2634SOL    HW219365   2.629   3.420  16.242 -0.7785 -1.4352  0.0215
 2635SOL     OW19366   3.597   1.140  17.136 -0.5020 -0.2625 -0.1752
 2635SOL    HW119367   3.624   1.141  17.044  1.9646  0.4893  0.5451
 2635SOL    HW219368   3.676   1.160  17.185  0.3288  0.3261 -1.7433
 2636SOL     OW19369   2.483   1.819   5.638 -0.9107  0.0162  0.0014
 2636SOL    HW119370   2.519   1.907   5.648  2.1656 -1.3078  0.5015
 2636SOL    HW219371   2.439   1.834   5.554 -2.1822  2.7956  1.1720
 2637SOL     OW19372   0.071   1.826   2.195  0.3664  0.4570 -0.1083
 2637SOL    HW119373   0.137   1.797   2.258 -0.0779  1.8576  0.9865
 2637SOL    HW219374   4.713   1.826   2.244  0.3194  0.7420 -0.1878
 2638SOL     OW19375   0.162   3.830  15.204 -0.2710  0.1608 -0.7192
 2638SOL    HW119376   0.085   3.887  15.194 -0.3943  0.2625  0.7365
 2638SOL    HW219377   0.147   3.807  15.296  1.0981 -1.1667 -0.8350
 2639SOL     OW19378   1.744   2.811   3.717  1.1552  0.4526  0.1329
 2639SOL    HW119379   1.839   2.816   3.705  1.0978  1.7848  0.2052
 2639SOL    HW219380   1.742   2.766   3.801 -1.7664  2.9565  1.4302
 2640SOL     OW19381   1.149   4.166  16.249  0.1435  0.1301 -0.1533
 2640SOL    HW119382   1.189   4.175  16.336 -0.8576 -0.7797  0.3984
 2640SOL    HW219383   1.223   4.182  16.190  0.0187  1.4691  0.0420
 2641SOL     OW19384   0.641   2.525   2.215 -0.0954 -0.0477 -0.1067
 2641SOL    HW119385   0.730   2.505   2.187 -0.8405  0.3420 -2.8159
 2641SOL    HW219386   0.634   2.536   2.309 -1.9858  2.2514 -0.5059
 2642SOL     OW19387   3.963   2.593   1.260  0.4134  0.4602 -0.1016
 2642SOL    HW119388   3.982   2.668   1.317 -2.9509 -0.3315  2.0307
 2642SOL    HW219389   3.879   2.567   1.297 -0.1562  2.1211 -0.2430
 2643SOL     OW19390   4.054   3.653   2.569 -0.1976  0.2731 -0.1606
 2643SOL    HW119391   4.118   3.595   2.527 -0.1356 -0.7039  1.3096
 2643SOL    HW219392   3.968   3.613   2.557 -0.7666  0.9273  1.6834
 2644SOL     OW19393   2.142   3.327   2.266  0.3237  0.3483  0.0883
 2644SOL    HW119394   2.180   3.388   2.330 -1.4548 -0.3761  1.8623
 2644SOL    HW219395   2.185   3.251   2.305 -0.5869 -0.5549 -0.6720
 2645SOL     OW19396   4.525   4.289   9.781  0.0342  0.2817  0.1985
 2645SOL    HW119397   4.440   4.257   9.813  0.2208 -1.1045 -0.6999
 2645SOL    HW219398   4.539   4.244   9.698  0.6160  0.6220  0.1139
 2646SOL     OW19399   1.775   0.119   5.640  0.4900  0.0524  0.0177
 2646SOL    HW119400   1.731   0.195   5.604 -0.6166 -0.2825  0.6547
 2646SOL    HW219401   1.818   0.156   5.718 -1.3415  0.1388  0.9922
 2647SOL     OW19402   3.305   4.416   6.786 -0.2148 -0.4636 -0.3288
 2647SOL    HW119403   3.274   4.456   6.705  1.2890  1.8109  0.2200
 2647SOL    HW219404   3.353   4.339   6.756 -2.0897 -0.6484 -2.8640
 2648SOL     OW19405   3.433   4.565   0.786  0.3319 -0.3042 -0.1794
 2648SOL    HW119406   3.340   4.571   0.807 -0.1539 -1.0532 -2.1466
 2648SOL    HW219407   3.461   4.652   0.756 -0.8749 -0.6512 -2.2990
 2649SOL     OW19408   3.822   0.278   3.114 -0.2045  0.0680 -0.2108
 2649SOL    HW119409   3.897   0.294   3.057  0.0175 -0.2487 -0.0080
 2649SOL    HW219410   3.767   0.357   3.114  0.7319  0.7281  3.1145
 2650SOL     OW19411   1.550   3.187   5.607 -0.2658 -0.4652 -0.5218
 2650SOL    HW119412   1.584   3.127   5.673 -1.1484 -0.0454  0.3124
 2650SOL    HW219413   1.597   3.268   5.629 -3.2033  0.4038  2.4818
 2651SOL     OW19414   2.318   3.318   4.238  0.0744 -0.0515 -0.6297
 2651SOL    HW119415   2.224   3.303   4.239 -0.0378  0.8228  1.2548
 2651SOL    HW219416   2.339   3.251   4.173  1.7767 -0.5513  0.4546
 2652SOL     OW19417   0.857   0.011   2.381  0.5351 -0.0830  0.0212
 2652SOL    HW119418   0.838   0.018   2.474 -1.5616 -0.9884 -0.3236
 2652SOL    HW219419   0.790   4.668   2.363  2.0337 -2.3345  2.9115
 2653SOL     OW19420   0.288   4.074   7.156  0.5830  0.0527 -0.2255
 2653SOL    HW119421   0.363   4.084   7.214 -0.2241 -0.7889  0.9605
 2653SOL    HW219422   0.320   4.014   7.090  1.9105 -0.0740  0.5394
 2654SOL     OW19423   4.476   3.968  11.734 -0.0874  0.1969  0.1400
 2654SOL    HW119424   4.387   3.971  11.769 -0.3979  1.5643 -0.7790
 2654SOL    HW219425   4.524   3.901  11.784  0.7306  0.9374  0.3503
 2655SOL     OW19426   1.737   1.868   4.857  0.0462  0.7460 -0.1189
 2655SOL    HW119427   1.653   1.896   4.894 -0.6583  1.2351 -2.0745
 2655SOL    HW219428   1.794   1.850   4.931 -0.6878 -1.7016 -0.1481
 2656SOL     OW19429   0.862   0.985   5.534 -0.2919 -0.0192 -0.2523
 2656SOL    HW119430   0.883   1.078   5.527 -0.2744  0.1312  1.6778
 2656SOL    HW219431   0.870   0.957   5.443  2.1929 -0.7282  0.1773
 2657SOL     OW19432   1.152   0.190   4.951 -0.6630 -0.4167  0.1432
 2657SOL    HW119433   1.094   0.264   4.964  0.6224  0.2963  1.7947
 2657SOL    HW219434   1.148   0.189   4.855 -1.0399 -1.0090  0.1616
 2658SOL     OW19435   4.563   4.493   4.640 -0.4620  0.4699 -0.3132
 2658SOL    HW119436   4.556   4.582   4.677 -0.3125  0.8373 -1.1705
 2658SOL    HW219437   4.473   4.488   4.607 -1.2988  0.1395  2.0338
 2659SOL     OW19438   4.394   3.953   7.939 -0.1864  0.3225 -0.3176
 2659SOL    HW119439   4.488   3.938   7.934 -0.4935 -0.5941 -2.9005
 2659SOL    HW219440   4.359   3.887   7.879 -3.0698  0.5399  1.0731
 2660SOL     OW19441   1.942   4.483   4.488 -0.6225  0.1215  0.0507
 2660SOL    HW119442   1.878   4.503   4.420  0.2371 -1.6287 -1.2770
 2660SOL    HW219443   1.900   4.408   4.531  0.9109 -1.1593 -0.7027
 2661SOL     OW19444   1.621   2.547   4.163 -0.2818 -0.4086  0.7542
 2661SOL    HW119445   1.654   2.458   4.154  1.9958  0.3854  1.1775
 2661SOL    HW219446   1.596   2.545   4.256  2.0613  0.6775  1.3947
 2662SOL     OW19447   0.511   1.258   2.375  0.3409  0.0477 -0.2422
 2662SOL    HW119448   0.511   1.264   2.279 -2.1063 -1.6033 -0.3620
 2662SOL    HW219449   0.427   1.303   2.382 -0.6652 -1.7139 -0.9531
 2663SOL     OW19450   4.301   1.373   7.461  0.4017 -0.2287 -0.1869
 2663SOL    HW119451   4.379   1.362   7.408  0.9051  1.6274  0.1539
 2663SOL    HW219452   4.329   1.437   7.527 -1.2507  0.3074  0.0134
 2664SOL     OW19453   2.395   2.252   5.618  0.4797  0.0707  0.5033
 2664SOL    HW119454   2.306   2.277   5.591  1.3743 -0.4401 -2.8976
 2664SOL    HW219455   2.445   2.314   5.564  1.3514 -2.1482 -1.1896
 2665SOL     OW19456   0.625   2.014  15.517  0.1587 -0.9888 -0.5070
 2665SOL    HW119457   0.597   2.104  15.503 -1.5742 -1.4020  0.2204
 2665SOL    HW219458   0.696   2.005  15.580 -1.2807 -1.2156  1.0979
 2666SOL     OW19459   4.277   3.725  17.129  0.1160 -0.5299  0.3556
 2666SOL    HW119460   4.226   3.646  17.113 -0.1931 -0.5306  1.3824
 2666SOL    HW219461   4.357   3.721  17.076 -0.7440  2.2850 -1.1740
 2667SOL     OW19462   0.983   3.478   3.163 -0.5592 -0.4565  0.3494
 2667SOL    HW119463   0.999   3.558   3.113 -0.5195  0.0490  1.1602
 2667SOL    HW219464   0.958   3.421   3.091 -2.1739  2.7134 -1.6081
 2668SOL     OW19465   3.187   0.448  12.202  0.4091  0.2511  0.3926
 2668SOL    HW119466   3.272   0.462  12.161  0.5475  1.7703  1.2002
 2668SOL    HW219467   3.134   0.400  12.138 -1.3198  1.6841  0.7491
 2669SOL     OW19468   0.535   1.186   8.561 -0.7922  0.5825 -0.2206
 2669SOL    HW119469   0.463   1.179   8.624  1.2286  2.9996  2.3215
 2669SOL    HW219470   0.615   1.173   8.612 -0.7306  1.4993 -0.0931
 2670SOL     OW19471   2.241   0.801   1.477  0.0218 -0.8162 -0.0504
 2670SOL    HW119472   2.265   0.710   1.493 -0.7978 -1.4197 -2.1598
 2670SOL    HW219473   2.250   0.808   1.382 -0.9876 -0.6049 -0.1347
 2671SOL     OW19474   4.440   0.455  17.281 -0.4167  0.4388  0.0108
 2671SOL    HW119475   4.405   0.434  17.367 -0.1926  0.1046  0.0185
 2671SOL    HW219476   4.533   0.445  17.302 -1.1394 -1.8622  2.0847
 2672SOL     OW19477   4.383   3.602   7.185  0.0809 -0.2990  0.2580
 2672SOL    HW119478   4.393   3.565   7.273 -0.8587  0.7049  0.7980
 2672SOL    HW219479   4.475   3.613   7.160 -0.0782 -0.1475 -0.2545
 2673SOL     OW19480   2.531   1.781   8.826 -0.2533  0.1143 -0.2024
 2673SOL    HW119481   2.481   1.806   8.748 -0.2665  0.8933  0.0586
 2673SOL    HW219482   2.467   1.732   8.877 -0.8348  1.1745  0.1017
 2674SOL     OW19483   1.551   1.541  16.156  0.2022 -0.5798 -0.2963
 2674SOL    HW119484   1.592   1.597  16.222 -0.9168 -1.7264  1.3739
 2674SOL    HW219485   1.630   1.489  16.136  1.6134  2.1051 -1.6554
 2675SOL     OW19486   3.740   2.465   0.317  0.0438 -0.5858  0.3205
 2675SOL    HW119487   3.701   2.379   0.299  1.7053 -0.5699 -3.4221
 2675SOL    HW219488   3.711   2.482   0.406 -0.8360 -0.7219  0.0611
 2676SOL     OW19489   3.289   4.142  12.982 -0.0801 -0.3167 -0.2967
 2676SOL    HW119490   3.304   4.215  12.923  1.1974  1.0045  1.6844
 2676SOL    HW219491   3.215   4.094  12.943 -1.0366  1.6654 -0.8855
 2677SOL     OW19492   4.552   3.192   2.972 -0.2887 -0.6203 -0.1299
 2677SOL    HW119493   4.584   3.152   2.891  1.1721  0.6641 -0.1837
 2677SOL    HW219494   4.541   3.284   2.948 -3.2760 -0.0910  3.1523
 2678SOL     OW19495   1.476   0.854  11.511  0.1446  0.6473  0.0730
 2678SOL    HW119496   1.507   0.942  11.531 -0.3473  0.6500  0.8039
 2678SOL    HW219497   1.548   0.831  11.451  1.6879  1.0373  1.7779
 2679SOL     OW19498   4.303   3.019   4.490  0.4557 -0.2215  0.0782
 2679SOL    HW119499   4.280   2.930   4.465 -1.4597 -0.2874  2.0615
 2679SOL    HW219500   4.230   3.069   4.454  1.7814 -1.4612 -4.2856
 2680SOL     OW19501   1.709   1.592   4.865 -0.2666 -0.2920  0.2782
 2680SOL    HW119502   1.682   1.586   4.773  0.5186  1.6295 -0.0859
 2680SOL    HW219503   1.737   1.682   4.880 -2.5918  0.7657 -1.5970
 2681SOL     OW19504   2.090   3.336   1.297 -0.6136  0.1342 -0.0897
 2681SOL    HW119505   2.182   3.311   1.297  0.1524  2.9108  0.6554
 2681SOL    HW219506   2.066   3.318   1.388  0.7605 -0.7657  0.0955
 2682SOL     OW19507   0.968   3.259   1.377  0.0363  0.6813  0.4100
 2682SOL    HW119508   0.914   3.302   1.311 -0.0482  0.0770  0.0824
 2682SOL    HW219509   0.963   3.167   1.350  1.0210  0.0921  2.1919
 2683SOL     OW19510   0.293   2.490   1.915 -0.1531 -1.1735  0.0392
 2683SOL    HW119511   0.369   2.540   1.943  0.0920 -1.5878  0.1103
 2683SOL    HW219512   0.237   2.468   1.990 -1.5461 -0.0610 -0.6763
 2684SOL     OW19513   1.412   0.576   7.924  0.3713  0.2433  0.0645
 2684SOL    HW119514   1.483   0.627   7.884  0.5454 -0.5018 -0.5831
 2684SOL    HW219515   1.466   0.497   7.926  0.4366  0.2448 -1.7873
 2685SOL     OW19516   1.953   4.370  11.333 -0.4445  0.2004 -0.1533
 2685SOL    HW119517   1.934   4.277  11.335 -0.3984  0.1766 -0.9353
 2685SOL    HW219518   1.904   4.403  11.408  0.0728 -0.8759  0.6628
 2686SOL     OW19519   4.233   1.733   7.170  0.1516 -0.4791 -0.1888
 2686SOL    HW119520   4.266   1.792   7.102 -2.1110  1.6636  0.5614
 2686SOL    HW219521   4.317   1.699   7.201  0.8661  2.4125  1.0603
 2687SOL     OW19522   2.600   2.807   4.928 -0.6198 -0.2195  0.3116
 2687SOL    HW119523   2.683   2.822   4.973 -1.0398 -0.5316  1.1926
 2687SOL    HW219524   2.545   2.863   4.983 -0.1307  0.9382 -0.3747
 2688SOL     OW19525   0.726   0.163  15.256  0.0624  0.4665  0.0939
 2688SOL    HW119526   0.766   0.094  15.310  0.3250 -1.0816 -2.0848
 2688SOL    HW219527   0.735   0.244  15.306 -1.0504  1.1987 -0.9015
 2689SOL     OW19528   0.067   4.512   4.810 -0.4377 -0.7790 -0.3561
 2689SOL    HW119529   0.137   4.522   4.746  1.3951  1.7906  2.0767
 2689SOL    HW219530   4.717   4.492   4.752 -1.5720 -0.0292  0.8214
 2690SOL     OW19531   1.176   3.765   6.094 -0.5805  0.4646 -0.4720
 2690SOL    HW119532   1.176   3.826   6.168 -0.9774 -1.2420  0.9253
 2690SOL    HW219533   1.182   3.834   6.027 -1.9819 -0.0583 -1.1290
 2691SOL     OW19534   0.508   3.526  10.643 -0.1421 -0.3513 -0.8800
 2691SOL    HW119535   0.580   3.587  10.627 -0.1469  0.2298  1.3150
 2691SOL    HW219536   0.429   3.565  10.606  0.9028  0.7314 -1.9737
 2692SOL     OW19537   2.656   1.657   9.919 -0.1143  0.2028 -0.4469
 2692SOL    HW119538   2.734   1.625   9.874  0.1599 -2.0228  1.6286
 2692SOL    HW219539   2.623   1.728   9.863  0.2480 -1.1786 -2.4355
 2693SOL     OW19540   3.773   1.627   6.626 -0.2854 -0.1308 -0.1076
 2693SOL    HW119541   3.787   1.593   6.715 -0.2159  1.9658  0.6919
 2693SOL    HW219542   3.807   1.715   6.643  1.7124 -0.4085 -2.7626
 2694SOL     OW19543   2.486   1.765   6.182 -0.4205  0.1272  0.2337
 2694SOL    HW119544   2.412   1.806   6.227 -1.1378 -1.8321  0.8715
 2694SOL    HW219545   2.512   1.714   6.259 -1.7279  0.7866  1.1192
 2695SOL     OW19546   3.979   0.717   1.551 -0.0196 -0.6616  0.0737
 2695SOL    HW119547   4.007   0.769   1.626  0.6753 -0.6501 -0.2006
 2695SOL    HW219548   4.062   0.692   1.512 -0.9042 -0.6496 -1.8292
 2696SOL     OW19549   0.450   0.337   5.812  0.0737  0.3572  0.0553
 2696SOL    HW119550   0.391   0.338   5.737  1.1263  1.5514 -0.7730
 2696SOL    HW219551   0.523   0.394   5.787  1.3214 -0.8577  0.9570
 2697SOL     OW19552   0.230   3.758  16.040 -0.1711 -0.0389 -0.0653
 2697SOL    HW119553   0.150   3.808  16.055 -0.2074  0.1919 -1.0451
 2697SOL    HW219554   0.291   3.828  16.019 -0.9740  0.7871  0.3792
 2698SOL     OW19555   1.704   3.793  13.024  0.0825  0.0494  0.2128
 2698SOL    HW119556   1.626   3.835  13.061 -0.2546  0.3202 -0.7869
 2698SOL    HW219557   1.744   3.875  12.997 -0.0307 -0.2944 -1.0257
 2699SOL     OW19558   4.634   4.613   8.923 -0.7300 -0.0521 -0.6040
 2699SOL    HW119559   4.574   4.561   8.977 -0.4026 -0.5662 -0.7346
 2699SOL    HW219560   4.672   4.544   8.869 -0.9007 -0.5199 -0.1335
 2700SOL     OW19561   4.600   0.060   3.698  0.7641 -0.0960  0.0700
 2700SOL    HW119562   4.594   0.048   3.793  2.1572  2.1295  0.4182
 2700SOL    HW219563   4.509   0.057   3.670  1.2601 -0.5457 -1.4706
 2701SOL     OW19564   2.551   3.313   1.542 -0.1609 -0.0341  0.2414
 2701SOL    HW119565   2.587   3.314   1.453  0.5222  0.4578  0.5170
 2701SOL    HW219566   2.564   3.404   1.570 -2.1795  0.4905 -0.5243
 2702SOL     OW19567   3.767   3.610  14.192  0.3530 -0.0381 -0.2723
 2702SOL    HW119568   3.698   3.579  14.133  2.4991 -0.3787 -2.5645
 2702SOL    HW219569   3.738   3.701  14.198 -2.5978 -1.1188  1.9870
 2703SOL     OW19570   4.173   2.019   3.968  0.0211 -0.4164  0.0123
 2703SOL    HW119571   4.200   2.071   4.044  1.3466 -0.0687 -0.7106
 2703SOL    HW219572   4.125   2.081   3.914  0.9821  1.4211  1.2377
 2704SOL     OW19573   4.004   3.323   6.012 -0.7168 -0.5681  0.4312
 2704SOL    HW119574   4.001   3.329   6.107 -0.7146  0.6773  0.3443
 2704SOL    HW219575   4.095   3.307   5.984 -0.0337  0.6486  1.9871
 2705SOL     OW19576   2.185   2.148   6.393 -0.1853  0.3076  0.3251
 2705SOL    HW119577   2.104   2.117   6.433 -2.1596 -0.2695 -4.0127
 2705SOL    HW219578   2.222   2.222   6.441 -1.8075  0.2691  1.6252
 2706SOL     OW19579   0.067   3.936   9.943 -0.3488  0.1118  0.4681
 2706SOL    HW119580   0.114   4.017   9.961  1.1725 -0.6518 -0.0648
 2706SOL    HW219581   0.031   3.928  10.032  0.4029 -1.4375  0.6318
 2707SOL     OW19582   0.795   4.322  13.245  0.1192 -0.0111 -0.3683
 2707SOL    HW119583   0.818   4.232  13.268 -1.4348 -0.2244  0.3727
 2707SOL    HW219584   0.702   4.301  13.258  0.1492  0.5260  0.7016
 2708SOL     OW19585   0.840   2.103  11.692  0.2414 -0.0316 -0.1180
 2708SOL    HW119586   0.933   2.092  11.671 -0.0627 -2.3119 -0.2598
 2708SOL    HW219587   0.823   2.031  11.752  2.3568 -0.9883 -0.6629
 2709SOL     OW19588   3.824   4.539   8.803  0.4530  0.1087  0.0790
 2709SOL    HW119589   3.810   4.453   8.762  0.6728  1.0742 -2.0486
 2709SOL    HW219590   3.747   4.554   8.858 -0.6274 -0.0664 -1.3834
 2710SOL     OW19591   2.602   2.579   6.889 -0.1225  0.9426  0.4813
 2710SOL    HW119592   2.676   2.521   6.871 -2.0757 -1.5453  0.3615
 2710SOL    HW219593   2.532   2.515   6.872 -0.2133  1.2231 -0.2119
 2711SOL     OW19594   3.511   1.412   4.087  0.3159 -0.3513  0.3232
 2711SOL    HW119595   3.542   1.339   4.034  3.9938  1.3708  0.0585
 2711SOL    HW219596   3.477   1.373   4.168 -1.6631  0.3304 -0.1832
 2712SOL     OW19597   0.505   4.165   9.515 -0.3492  0.2086 -0.1584
 2712SOL    HW119598   0.519   4.071   9.502 -1.1697 -0.3411  3.0219
 2712SOL    HW219599   0.519   4.170   9.610  0.1719  2.7805 -0.3635
 2713SOL     OW19600   0.825   0.138   7.744 -0.4801 -0.5473  0.0967
 2713SOL    HW119601   0.902   0.087   7.768 -0.2108 -0.7355 -1.1788
 2713SOL    HW219602   0.758   0.073   7.768 -0.4617 -0.8746 -0.7542
 2714SOL     OW19603   1.443   2.373   2.984  0.0112 -0.2431 -0.5537
 2714SOL    HW119604   1.520   2.322   2.960 -0.1301  0.1070 -1.7410
 2714SOL    HW219605   1.405   2.314   3.049 -2.2864  1.9544  0.0959
 2715SOL     OW19606   1.605   3.504   1.643 -0.4116  0.7041 -0.4862
 2715SOL    HW119607   1.537   3.552   1.690 -0.1957  1.1639 -0.6472
 2715SOL    HW219608   1.556   3.438   1.594 -2.2648  1.6408  0.1284
 2716SOL     OW19609   4.267   1.341  11.954 -0.0632  0.5104 -0.0398
 2716SOL    HW119610   4.240   1.304  11.870  1.1839 -1.9242  0.6466
 2716SOL    HW219611   4.336   1.282  11.982 -2.7683 -3.2824 -1.3297
 2717SOL     OW19612   1.576   1.802   2.275  0.3423  0.6329 -0.0171
 2717SOL    HW119613   1.480   1.807   2.273  0.4135  1.9792 -0.0434
 2717SOL    HW219614   1.584   1.743   2.201  1.6929  1.4767 -0.5356
 2718SOL     OW19615   3.331   0.022  10.797  0.2561  0.0867 -0.2218
 2718SOL    HW119616   3.348   0.115  10.816  0.0659  0.2771 -0.9857
 2718SOL    HW219617   3.377   4.701  10.868 -0.1093 -2.7905 -1.8014
 2719SOL     OW19618   1.179   3.583   7.146  0.1628  0.3563  0.0542
 2719SOL    HW119619   1.124   3.585   7.225  1.3589 -0.6318  0.9194
 2719SOL    HW219620   1.139   3.511   7.097  2.7800 -0.6066 -0.6761
 2720SOL     OW19621   0.385   3.598  11.923  0.0485  0.2031 -0.0239
 2720SOL    HW119622   0.467   3.599  11.972 -1.2095 -0.2556  2.1002
 2720SOL    HW219623   0.411   3.639  11.841  0.8253  1.2533  0.7566
 2721SOL     OW19624   1.180   2.776   6.039  0.6428 -0.1605  0.3826
 2721SOL    HW119625   1.236   2.810   5.968 -0.1633  1.8172  0.7125
 2721SOL    HW219626   1.248   2.760   6.104  3.4540  4.2624 -1.3896
 2722SOL     OW19627   1.861   0.786   6.900  0.2691  0.6136 -0.0864
 2722SOL    HW119628   1.779   0.799   6.948  0.6909 -0.1141  0.8250
 2722SOL    HW219629   1.832   0.758   6.813 -0.7631 -3.1803  1.4845
 2723SOL     OW19630   0.392   1.904   5.273 -0.0049 -0.0630  0.2938
 2723SOL    HW119631   0.455   1.836   5.248 -0.1420 -0.1032  0.0552
 2723SOL    HW219632   0.325   1.906   5.204  0.1090 -0.8266  0.1620
 2724SOL     OW19633   1.244   2.301  15.978  0.0136  0.5298 -0.0447
 2724SOL    HW119634   1.289   2.366  15.924 -0.8352  1.1451 -0.0092
 2724SOL    HW219635   1.156   2.330  15.957 -0.1125 -0.2834 -0.6687
 2725SOL     OW19636   0.416   1.762   3.601  0.3130  0.4982 -0.0370
 2725SOL    HW119637   0.460   1.713   3.670 -0.6565  1.0584  0.9723
 2725SOL    HW219638   0.386   1.831   3.661  0.5763  0.2478  0.3817
 2726SOL     OW19639   1.318   1.461   8.977  0.2115  0.1029  0.1168
 2726SOL    HW119640   1.373   1.535   9.000 -0.9705  0.7794  0.8250
 2726SOL    HW219641   1.248   1.457   9.043  0.4122 -0.6283  0.2827
 2727SOL     OW19642   4.170   3.474   4.138 -0.0983 -0.2889  0.5181
 2727SOL    HW119643   4.101   3.417   4.103 -0.3741  1.5803 -1.9944
 2727SOL    HW219644   4.163   3.545   4.074 -1.3484 -1.0893 -0.2428
 2728SOL     OW19645   2.645   1.487   9.120  0.5601  0.1251 -0.1091
 2728SOL    HW119646   2.563   1.530   9.095  0.5191  0.6408  0.9422
 2728SOL    HW219647   2.707   1.558   9.103  1.7148 -0.9277 -0.3068
 2729SOL     OW19648   3.611   4.475   6.757  0.1685  0.5706  0.2213
 2729SOL    HW119649   3.646   4.392   6.723  0.1715  0.8673 -0.4993
 2729SOL    HW219650   3.544   4.483   6.689 -1.3199 -1.4388  1.4669
 2730SOL     OW19651   3.431   3.851   4.032 -0.0048  0.0284 -0.0106
 2730SOL    HW119652   3.493   3.796   3.984  1.8190  2.4729 -0.4791
 2730SOL    HW219653   3.490   3.881   4.100 -1.1153  0.2032  0.8738
 2731SOL     OW19654   1.863   3.233   7.469  0.1692 -0.2950  0.4653
 2731SOL    HW119655   1.925   3.164   7.445  2.1547  1.8444 -0.6244
 2731SOL    HW219656   1.872   3.226   7.564 -0.2626  2.6865  0.7326
 2732SOL     OW19657   3.622   0.822  15.894  0.3718  0.0245 -0.3274
 2732SOL    HW119658   3.590   0.777  15.815  0.7629 -0.1267 -0.3999
 2732SOL    HW219659   3.705   0.858  15.860  0.6978 -0.3396  0.0929
 2733SOL     OW19660   0.665   3.178   6.375 -0.2643  0.3990  0.2892
 2733SOL    HW119661   0.737   3.233   6.345 -1.2532  1.4930 -0.0788
 2733SOL    HW219662   0.706   3.148   6.456  0.7020 -1.2653 -0.8088
 2734SOL     OW19663   4.269   1.025   8.304  0.4232 -0.2952 -0.4588
 2734SOL    HW119664   4.221   1.103   8.278  0.5376  0.4325  1.4704
 2734SOL    HW219665   4.245   1.029   8.397 -0.1817 -0.3160 -0.6183
 2735SOL     OW19666   3.067   0.537   8.885  0.0432  0.1579 -0.5652
 2735SOL    HW119667   3.110   0.458   8.917  0.5330  0.1032 -1.3474
 2735SOL    HW219668   2.979   0.500   8.879 -0.7353  2.3489 -3.0433
 2736SOL     OW19669   0.912   1.854   7.836  0.0750 -0.0193 -0.0965
 2736SOL    HW119670   0.898   1.895   7.751 -1.8185  1.2874  0.8327
 2736SOL    HW219671   1.005   1.832   7.832  0.2319  0.5177  0.4914
 2737SOL     OW19672   0.148   3.809   9.399 -0.1640 -0.1019 -0.0749
 2737SOL    HW119673   0.055   3.832   9.400 -0.0554  0.3754 -1.4235
 2737SOL    HW219674   0.147   3.728   9.450 -1.5927  1.3130  2.1419
 2738SOL     OW19675   4.448   3.531   4.867  0.5452 -0.5161 -0.3038
 2738SOL    HW119676   4.470   3.465   4.801 -0.3430 -0.8909 -0.2219
 2738SOL    HW219677   4.368   3.566   4.828 -0.5575 -1.9803  0.6610
 2739SOL     OW19678   0.540   0.655   3.000  0.1272  0.7584 -0.5352
 2739SOL    HW119679   0.633   0.666   3.022  0.2807 -1.1213 -0.2275
 2739SOL    HW219680   0.529   0.566   2.966  1.9616  0.4289 -0.2767
 2740SOL     OW19681   1.329   2.875   9.495  0.2223  0.4691 -0.1845
 2740SOL    HW119682   1.286   2.896   9.578  0.9264  1.1294  0.0181
 2740SOL    HW219683   1.394   2.808   9.518  1.4309  1.4897 -0.6039
 2741SOL     OW19684   0.291   2.566   7.722  0.1159 -0.5844  0.3459
 2741SOL    HW119685   0.333   2.641   7.764 -0.6492  0.8124 -1.3327
 2741SOL    HW219686   0.221   2.544   7.783  0.1013  0.4098  0.6921
 2742SOL     OW19687   2.395   3.886   7.567  0.0780  0.1901 -0.2718
 2742SOL    HW119688   2.379   3.978   7.590 -1.9963  0.0472 -1.1937
 2742SOL    HW219689   2.490   3.890   7.552 -0.0401 -1.0117 -1.2998
 2743SOL     OW19690   2.719   1.528  15.787  0.2601  0.1110  0.3044
 2743SOL    HW119691   2.704   1.551  15.696  0.1097 -0.3675  0.2066
 2743SOL    HW219692   2.655   1.576  15.839 -0.6862 -2.0680  1.1912
 2744SOL     OW19693   4.238   4.333   2.097 -0.2558 -0.2799  0.1640
 2744SOL    HW119694   4.306   4.266   2.094  0.5633  0.4478  1.9950
 2744SOL    HW219695   4.274   4.417   2.066  0.1613 -1.3670 -2.2879
 2745SOL     OW19696   4.228   2.560   5.276 -0.1788 -0.0277  0.3534
 2745SOL    HW119697   4.254   2.469   5.288  2.1071  0.7048  1.0189
 2745SOL    HW219698   4.231   2.596   5.365 -0.8485 -0.3146  0.4912
 2746SOL     OW19699   2.426   0.278   6.718  0.3577 -0.6980  0.3371
 2746SOL    HW119700   2.453   0.323   6.798  1.7423  1.7903 -1.5091
 2746SOL    HW219701   2.345   0.238   6.747 -0.7232  2.2224  1.3691
 2747SOL     OW19702   0.502   3.444  13.206  0.3548 -0.0091 -0.3944
 2747SOL    HW119703   0.463   3.415  13.288  0.1944  0.1630 -0.4097
 2747SOL    HW219704   0.590   3.464  13.239 -0.1487  0.8944  0.4240
 2748SOL     OW19705   2.454   0.072   2.648  0.4897 -0.3596  0.2056
 2748SOL    HW119706   2.541   0.054   2.684  0.1463 -1.0616  0.6731
 2748SOL    HW219707   2.482   0.120   2.570  3.9481 -4.3792 -0.9666
 2749SOL     OW19708   3.069   4.495   0.138  0.7496  0.6182  0.1014
 2749SOL    HW119709   3.103   4.442   0.210 -0.1260 -0.0979 -0.0123
 2749SOL    HW219710   3.099   4.582   0.162  1.5236  0.8274 -1.6299
 2750SOL     OW19711   0.500   1.175   9.555 -0.6202  0.0465  0.1701
 2750SOL    HW119712   0.480   1.247   9.494  0.1807  0.2155  0.1156
 2750SOL    HW219713   0.466   1.216   9.634 -1.3270  1.4814 -0.8646
 2751SOL     OW19714   0.822   0.931  11.172  0.4615 -0.1649 -0.3438
 2751SOL    HW119715   0.823   0.878  11.252 -1.1795 -1.0467 -0.9180
 2751SOL    HW219716   0.731   0.917  11.149  0.5056 -0.8982 -0.0774
 2752SOL     OW19717   2.977   0.916  16.213 -1.0086 -0.1908 -0.1108
 2752SOL    HW119718   2.941   0.993  16.168 -0.9377 -1.2108 -1.9195
 2752SOL    HW219719   3.009   0.954  16.295  1.8956 -1.9672 -0.4178
 2753SOL     OW19720   3.085   3.342   4.203  0.2433 -0.1261  0.1677
 2753SOL    HW119721   3.083   3.312   4.112 -0.9130 -0.0706  0.1710
 2753SOL    HW219722   3.164   3.395   4.207  0.1324  0.0103  0.5510
 2754SOL     OW19723   1.000   3.025   9.540 -0.1731 -0.2213  0.0467
 2754SOL    HW119724   1.054   3.049   9.465 -0.5127 -0.5199 -0.2929
 2754SOL    HW219725   1.071   2.995   9.596  0.6877 -0.6588 -1.2834
 2755SOL     OW19726   0.270   3.643   7.506  0.2270 -0.2466  0.3344
 2755SOL    HW119727   0.185   3.599   7.493 -0.5380  1.4509 -0.3775
 2755SOL    HW219728   0.327   3.610   7.437 -2.2671  1.5230 -2.5363
 2756SOL     OW19729   1.801   2.315  11.978  0.5038  0.1557 -0.8180
 2756SOL    HW119730   1.793   2.384  11.912  2.6721 -0.4303 -1.6940
 2756SOL    HW219731   1.870   2.344  12.038  0.3927 -0.9572 -0.1505
 2757SOL     OW19732   3.727   4.655   3.690  0.0799 -0.4583 -0.2597
 2757SOL    HW119733   3.740   4.650   3.596  0.7358 -1.1653 -0.1312
 2757SOL    HW219734   3.777   4.585   3.731 -0.2083  0.3508  1.4814
 2758SOL     OW19735   3.148   3.959   3.307  0.0012 -0.6396 -0.2916
 2758SOL    HW119736   3.100   3.890   3.261  0.8169 -0.4212 -1.4663
 2758SOL    HW219737   3.110   3.945   3.394  2.6904  0.5295  1.0698
 2759SOL     OW19738   2.120   2.234  12.111  0.6646  0.4354 -0.4350
 2759SOL    HW119739   2.215   2.237  12.124  0.7794  3.4201 -1.8711
 2759SOL    HW219740   2.095   2.325  12.129  2.5891  0.8038  0.3526
 2760SOL     OW19741   3.197   2.946   2.296 -0.0548 -0.0874  0.4705
 2760SOL    HW119742   3.161   2.890   2.227 -1.0120  1.1129 -0.0086
 2760SOL    HW219743   3.230   2.883   2.360  1.3510  0.0446 -0.1324
 2761SOL     OW19744   3.531   3.881   8.434 -0.0345 -0.2113  0.0240
 2761SOL    HW119745   3.517   3.906   8.343 -1.1092 -1.0180 -0.0400
 2761SOL    HW219746   3.457   3.820   8.444  0.6330 -1.0031  0.1591
 2762SOL     OW19747   1.797   2.698   3.172  0.0173 -0.3447  0.1721
 2762SOL    HW119748   1.717   2.737   3.206  0.2379 -0.8434  1.2418
 2762SOL    HW219749   1.772   2.683   3.080 -0.0131  0.5498  0.0337
 2763SOL     OW19750   1.833   4.264   1.374  0.0391  0.2258 -0.2229
 2763SOL    HW119751   1.918   4.229   1.400 -0.4447  0.4013  1.6013
 2763SOL    HW219752   1.832   4.225   1.287 -2.9230  0.8550 -0.4781
 2764SOL     OW19753   0.639   1.347   7.299  0.3165  0.1806 -0.6838
 2764SOL    HW119754   0.727   1.312   7.313 -0.7360 -2.7819 -1.5311
 2764SOL    HW219755   0.616   1.317   7.212  1.2155 -1.1681 -0.4473
 2765SOL     OW19756   1.508   3.326   3.975  0.3421  0.2059  0.2874
 2765SOL    HW119757   1.591   3.319   3.928 -0.0793 -2.2143 -0.0968
 2765SOL    HW219758   1.454   3.343   3.898 -0.3838  0.3034  0.8129
 2766SOL     OW19759   4.020   0.580   3.002  0.4339  0.2904 -0.1362
 2766SOL    HW119760   4.006   0.577   2.907 -0.9567  2.4797 -0.0069
 2766SOL    HW219761   4.072   0.659   3.014 -0.6323  0.8644  0.7556
 2767SOL     OW19762   2.866   1.274  15.847  0.0234 -0.2463  0.4175
 2767SOL    HW119763   2.841   1.365  15.836  5.4370  1.3782  1.4048
 2767SOL    HW219764   2.950   1.264  15.802 -1.0344 -2.2600 -1.1440
 2768SOL     OW19765   3.464   3.051   2.574 -0.4419  0.0594  0.1426
 2768SOL    HW119766   3.435   3.113   2.507 -1.3603  0.3400  0.8024
 2768SOL    HW219767   3.485   3.117   2.641  0.8121  0.5294 -0.7176
 2769SOL     OW19768   3.025   2.812   5.430 -0.1238 -0.1889 -0.4977
 2769SOL    HW119769   3.120   2.815   5.415 -0.1987 -2.3873 -1.4247
 2769SOL    HW219770   3.011   2.906   5.438 -0.1095 -0.0244 -2.3124
 2770SOL     OW19771   2.849   3.244  11.397  0.2567 -0.0335 -0.2992
 2770SOL    HW119772   2.780   3.177  11.399  1.9086 -1.6976  0.2487
 2770SOL    HW219773   2.879   3.246  11.306 -1.6792 -2.9297 -1.0139
 2771SOL     OW19774   4.648   2.380   3.828 -0.4471  0.2313 -0.0658
 2771SOL    HW119775   4.722   2.433   3.798 -0.1523 -0.1005  0.0776
 2771SOL    HW219776   4.580   2.409   3.766  0.0580 -0.5024 -0.9623
 2772SOL     OW19777   2.841   2.151   5.920 -0.4388 -0.1403 -0.2567
 2772SOL    HW119778   2.877   2.065   5.900 -0.9810 -0.3569 -0.2908
 2772SOL    HW219779   2.858   2.210   5.847 -0.5744  0.5261  0.2434
 2773SOL     OW19780   3.646   1.666   6.043  0.7345  0.3072  0.3291
 2773SOL    HW119781   3.599   1.660   6.126 -1.8573  1.6485 -1.0329
 2773SOL    HW219782   3.713   1.601   6.061  1.5827  0.0943 -3.5511
 2774SOL     OW19783   3.694   1.687  10.118  0.1610 -0.3312  0.1602
 2774SOL    HW119784   3.782   1.674  10.155 -0.2557  0.4659  1.4249
 2774SOL    HW219785   3.714   1.757  10.055 -4.9009  1.4051  0.5300
 2775SOL     OW19786   2.134   0.451   1.278 -0.1030 -0.0847 -0.9889
 2775SOL    HW119787   2.196   0.378   1.274  0.6007  0.5761 -2.0133
 2775SOL    HW219788   2.102   0.430   1.366 -1.8599  1.8681 -1.1647
 2776SOL     OW19789   1.476   2.170   5.444 -0.0754 -0.9123 -0.5361
 2776SOL    HW119790   1.381   2.160   5.447 -0.1590  0.1307  0.1072
 2776SOL    HW219791   1.499   2.081   5.416 -0.6384 -0.8467 -1.2098
 2777SOL     OW19792   1.839   3.388  15.035 -0.0173 -0.4486  0.3894
 2777SOL    HW119793   1.840   3.293  15.046  0.0404 -0.5358 -0.3760
 2777SOL    HW219794   1.867   3.397  15.127 -2.2886 -0.5187  1.0718
 2778SOL     OW19795   3.653   2.532   8.419 -0.2085  0.1004  0.4564
 2778SOL    HW119796   3.695   2.447   8.428 -0.2396  0.0035 -0.3212
 2778SOL    HW219797   3.708   2.584   8.479  0.3221  0.8767 -0.7116
 2779SOL     OW19798   4.399   4.536  16.952 -0.2933 -0.1066 -0.4130
 2779SOL    HW119799   4.416   4.628  16.970 -1.0904  0.0140 -0.2530
 2779SOL    HW219800   4.308   4.543  16.982 -0.2499 -1.7203  0.1302
 2780SOL     OW19801   3.222   2.465   5.343 -0.2459  0.3403 -0.1846
 2780SOL    HW119802   3.302   2.432   5.303 -0.0499  0.2396  0.2845
 2780SOL    HW219803   3.242   2.558   5.354  2.2082 -0.2202  0.0288
 2781SOL     OW19804   0.611   1.733   7.655  0.0922  0.1387  0.1999
 2781SOL    HW119805   0.666   1.658   7.676  0.8275  0.0371 -2.0934
 2781SOL    HW219806   0.537   1.714   7.711  0.0167  2.7869  0.9973
 2782SOL     OW19807   2.569   1.560   3.203 -0.0863 -0.1827  0.3534
 2782SOL    HW119808   2.476   1.576   3.189 -0.0220  0.5044  0.6607
 2782SOL    HW219809   2.568   1.515   3.287  0.4917  1.0387  1.0142
 2783SOL     OW19810   1.451   1.715   9.057 -0.1247 -0.3499 -0.2163
 2783SOL    HW119811   1.386   1.762   9.109  1.3809  2.0382 -0.4789
 2783SOL    HW219812   1.525   1.736   9.115  0.4055  1.2879 -1.4909
 2784SOL     OW19813   1.309   2.581   8.267  0.3669 -0.0328  0.1651
 2784SOL    HW119814   1.324   2.674   8.287  0.8604 -0.0562 -0.0981
 2784SOL    HW219815   1.234   2.578   8.207 -2.1035  1.8089  3.1927
 2785SOL     OW19816   3.283   2.291  15.326  0.6021  0.2320  0.9066
 2785SOL    HW119817   3.193   2.309  15.299  0.4304 -0.1528  1.2250
 2785SOL    HW219818   3.301   2.360  15.389  3.3115  0.6715 -0.3259
 2786SOL     OW19819   0.910   3.069   3.716  0.5422  0.1513 -0.0025
 2786SOL    HW119820   0.909   3.111   3.631 -3.4986  1.4088  0.6664
 2786SOL    HW219821   0.955   2.988   3.691  0.2357  0.3349 -1.0982
 2787SOL     OW19822   1.117   0.805  10.086  0.7249  0.0359 -0.0520
 2787SOL    HW119823   1.098   0.810   9.992  0.8417  1.8837  0.0354
 2787SOL    HW219824   1.156   0.718  10.089  1.2697  0.2534 -0.8033
 2788SOL     OW19825   3.901   1.663   8.347  0.2814  0.6029  0.3468
 2788SOL    HW119826   3.913   1.758   8.352  0.2852  0.5744  0.9007
 2788SOL    HW219827   3.891   1.650   8.441 -2.3667 -2.3898 -0.3516
 2789SOL     OW19828   2.642   0.239  11.248  0.0452  0.1861 -0.5134
 2789SOL    HW119829   2.649   0.157  11.198 -1.2732 -0.0622 -0.2829
 2789SOL    HW219830   2.561   0.225  11.297  0.1719  0.5737 -0.1910
 2790SOL     OW19831   4.679   4.402   5.052  0.2167  0.2052  0.1575
 2790SOL    HW119832   4.675   4.309   5.029  1.4123  0.2291 -0.1375
 2790SOL    HW219833   4.698   4.433   4.963  0.7538 -0.9239 -0.1251
 2791SOL     OW19834   1.139   2.896   0.250  0.1883 -0.4452 -0.3058
 2791SOL    HW119835   1.050   2.932   0.248  0.8593  1.2342  1.1103
 2791SOL    HW219836   1.146   2.860   0.162 -0.1304  2.2066 -1.4274
 2792SOL     OW19837   2.987   0.079  12.120 -0.1555 -0.6699 -0.5848
 2792SOL    HW119838   3.068   0.029  12.114 -0.8036 -1.8282  0.3603
 2792SOL    HW219839   3.005   0.149  12.057 -1.3732  0.6039  0.4650
 2793SOL     OW19840   3.705   0.590   8.034  0.6325 -0.1023 -0.1518
 2793SOL    HW119841   3.690   0.519   8.096 -1.6569  0.4580 -0.0515
 2793SOL    HW219842   3.739   0.547   7.956  0.7044  1.3143 -0.9094
 2794SOL     OW19843   2.400   0.905  13.601 -0.2337  0.0412 -0.0456
 2794SOL    HW119844   2.421   0.845  13.673  2.7136  2.2760  0.9967
 2794SOL    HW219845   2.415   0.991  13.642  0.9327  1.2292 -2.9373
 2795SOL     OW19846   0.256   1.133   6.925  0.5720 -0.4562 -0.5956
 2795SOL    HW119847   0.318   1.060   6.917  0.4230 -0.6863  0.4205
 2795SOL    HW219848   0.208   1.106   7.003 -1.0094 -0.6449 -1.6199
 2796SOL     OW19849   1.837   1.545   8.797  1.0464  0.1448 -0.4996
 2796SOL    HW119850   1.931   1.537   8.816  1.2754  1.5417 -1.0583
 2796SOL    HW219851   1.822   1.636   8.822 -0.8028 -0.2532 -0.2076
 2797SOL     OW19852   1.747   0.356   4.789  0.4813 -0.6227 -0.5630
 2797SOL    HW119853   1.728   0.284   4.849 -1.9581  0.6390  0.1470
 2797SOL    HW219854   1.672   0.344   4.730 -0.2396  1.5552 -0.0507
 2798SOL     OW19855   2.293   0.810   0.987 -0.1734 -0.2582 -0.5598
 2798SOL    HW119856   2.295   0.771   1.074 -0.9683  0.9968  0.0280
 2798SOL    HW219857   2.224   0.751   0.956 -2.2316  2.0808 -0.4176
 2799SOL     OW19858   3.951   3.500   8.229 -0.0751  0.2443  0.2680
 2799SOL    HW119859   3.991   3.511   8.142  1.3671  2.0316  1.1471
 2799SOL    HW219860   3.864   3.480   8.195  0.1472 -1.5000  0.7343
 2800SOL     OW19861   3.935   2.778  10.383  0.0987  0.0210  0.3891
 2800SOL    HW119862   4.016   2.812  10.421 -0.6438  1.3769  0.7904
 2800SOL    HW219863   3.938   2.819  10.296 -0.6510  0.3550  0.5212
 2801SOL     OW19864   2.514   1.817   8.257  0.1104  0.5417 -0.3666
 2801SOL    HW119865   2.602   1.794   8.287 -0.4469 -0.7051  0.3078
 2801SOL    HW219866   2.512   1.779   8.169  2.0266 -0.1377 -0.1273
 2802SOL     OW19867   3.185   3.777   5.190  0.2923  0.0794 -0.4487
 2802SOL    HW119868   3.232   3.709   5.239 -0.5380 -0.0908  0.1061
 2802SOL    HW219869   3.132   3.737   5.122 -0.8473  0.0723  0.4366
 2803SOL     OW19870   3.393   1.140  15.743  0.0886 -0.7679 -0.2138
 2803SOL    HW119871   3.374   1.220  15.794  1.3784 -1.9140  2.0622
 2803SOL    HW219872   3.461   1.171  15.683  1.9233 -2.6577  0.8994
 2804SOL     OW19873   4.188   4.415  10.821  0.0229  0.3824  0.2894
 2804SOL    HW119874   4.174   4.506  10.847  0.7060  0.6797 -0.3650
 2804SOL    HW219875   4.161   4.426  10.730 -0.8980  2.2069  0.7861
 2805SOL     OW19876   1.885   3.607   6.072  0.5859 -0.6505 -0.6127
 2805SOL    HW119877   1.867   3.566   6.157 -0.6803  2.1807  0.4679
 2805SOL    HW219878   1.818   3.672   6.054  1.4835  0.8272  1.4774
 2806SOL     OW19879   1.760   0.822   7.218 -0.1144 -0.4761 -0.1742
 2806SOL    HW119880   1.815   0.743   7.211 -0.1673 -0.6084  0.8436
 2806SOL    HW219881   1.751   0.845   7.311 -1.7855  0.6165 -0.6110
 2807SOL     OW19882   0.415   3.328   2.770 -0.6624  0.3101 -0.5794
 2807SOL    HW119883   0.390   3.383   2.696 -0.3490  0.0570 -0.8686
 2807SOL    HW219884   0.418   3.395   2.839 -0.8226 -0.1125 -0.1551
 2808SOL     OW19885   1.386   0.649  13.840  0.0180  0.0541  0.2376
 2808SOL    HW119886   1.375   0.555  13.848 -0.2081  0.1596  1.1898
 2808SOL    HW219887   1.406   0.665  13.748 -2.7992  1.7769 -0.0720
 2809SOL     OW19888   0.096   2.505   7.089 -0.1222  0.1257 -0.3404
 2809SOL    HW119889   0.176   2.454   7.100  0.2551  0.6616 -0.5692
 2809SOL    HW219890   0.098   2.516   6.994  0.5206  2.9357 -0.0087
 2810SOL     OW19891   4.097   0.419   3.207  0.7713 -0.7962  0.0083
 2810SOL    HW119892   4.109   0.492   3.146  1.1162 -0.4207  0.5306
 2810SOL    HW219893   4.008   0.393   3.183 -0.6823  2.3019  2.1023
 2811SOL     OW19894   0.713   1.922   5.107  0.3194  0.3946 -0.3635
 2811SOL    HW119895   0.695   1.902   5.199 -2.3358 -2.3663 -1.4869
 2811SOL    HW219896   0.744   1.841   5.067  1.0901  0.5815 -0.1506
 2812SOL     OW19897   1.378   0.900  10.839  0.1535  0.0105 -0.3588
 2812SOL    HW119898   1.317   0.959  10.794  0.7868  0.7543 -0.2605
 2812SOL    HW219899   1.318   0.840  10.883  0.9035  0.1279  0.8377
 2813SOL     OW19900   3.819   4.606  16.714 -0.6364  0.3502 -0.5409
 2813SOL    HW119901   3.841   4.610  16.807 -1.4634 -2.0097 -0.2380
 2813SOL    HW219902   3.876   4.672  16.676 -0.2195  0.5322  0.4134
 2814SOL     OW19903   2.248   1.954   8.617  0.3280  0.1239 -0.1775
 2814SOL    HW119904   2.206   1.994   8.541  0.5755  0.7395  0.0090
 2814SOL    HW219905   2.216   2.001   8.694  0.7338  0.1664 -0.0351
 2815SOL     OW19906   3.540   0.798  17.153 -0.5121 -0.1491 -0.1016
 2815SOL    HW119907   3.470   0.860  17.175  0.0968  0.0067  1.3805
 2815SOL    HW219908   3.540   0.803  17.057 -1.6825  0.3952 -0.0759
 2816SOL     OW19909   3.009   4.264  13.022  0.3426  0.1498 -0.1725
 2816SOL    HW119910   2.936   4.262  13.084  1.0171  1.2830  0.6634
 2816SOL    HW219911   3.050   4.180  13.046  2.1712  1.2581  0.6291
 2817SOL     OW19912   1.396   1.665   8.402 -0.2716 -0.2263 -0.0761
 2817SOL    HW119913   1.471   1.663   8.461  0.3806 -2.5948 -1.0086
 2817SOL    HW219914   1.438   1.635   8.322 -1.6289 -1.3654 -0.3443
 2818SOL     OW19915   0.888   0.838   1.951 -0.0436  0.0262  0.0740
 2818SOL    HW119916   0.895   0.820   1.857  1.6096 -1.9607  0.5672
 2818SOL    HW219917   0.820   0.903   1.966 -1.8354 -2.3604  2.4419
 2819SOL     OW19918   4.454   1.980   9.471 -0.0369  0.4702  0.2378
 2819SOL    HW119919   4.431   2.048   9.407 -0.6537  0.1318  0.0940
 2819SOL    HW219920   4.466   2.032   9.550 -0.0518  1.8786 -0.6763
 2820SOL     OW19921   0.283   1.596   7.226 -0.5937 -0.3553  0.1125
 2820SOL    HW119922   0.254   1.631   7.310  0.8717  1.2922 -0.0654
 2820SOL    HW219923   0.374   1.597   7.254  0.0179  1.7170 -1.8975
 2821SOL     OW19924   2.261   2.394   6.563  0.5343  0.4812  0.2731
 2821SOL    HW119925   2.244   2.355   6.649  0.0038  0.6300  0.2366
 2821SOL    HW219926   2.356   2.393   6.572  0.6502 -0.3813 -1.0726
 2822SOL     OW19927   4.159   4.382   5.325  0.0648 -0.6115 -0.3599
 2822SOL    HW119928   4.165   4.400   5.232  1.9427 -0.1314 -0.1572
 2822SOL    HW219929   4.224   4.446   5.355 -0.1596 -1.3846  1.8418
 2823SOL     OW19930   0.470   1.121   7.760 -0.3126  0.1817 -0.0907
 2823SOL    HW119931   0.559   1.085   7.767  0.0100  0.6123 -1.9422
 2823SOL    HW219932   0.488   1.182   7.688  2.2444 -0.0501  0.3320
 2824SOL     OW19933   4.184   0.724   7.334  0.0848  0.5790  0.9469
 2824SOL    HW119934   4.181   0.637   7.375  1.3497 -0.2540 -0.7556
 2824SOL    HW219935   4.274   0.754   7.340  0.3428 -0.1893  0.9307
 2825SOL     OW19936   2.166   0.862   4.996  0.2841  0.6359  0.0884
 2825SOL    HW119937   2.117   0.938   5.029  1.5031  2.3182 -1.9571
 2825SOL    HW219938   2.256   0.892   5.005 -0.0707  2.5080 -2.5820
 2826SOL     OW19939   3.151   0.241   4.313 -0.7412 -0.3508 -0.9174
 2826SOL    HW119940   3.208   0.256   4.238 -0.5249  1.0570 -0.4578
 2826SOL    HW219941   3.068   0.225   4.267 -0.9282 -1.6338 -0.1540
 2827SOL     OW19942   0.964   0.818  13.879 -0.6184 -0.1740  0.1908
 2827SOL    HW119943   0.921   0.840  13.796 -1.0404 -2.1580 -0.1120
 2827SOL    HW219944   0.985   0.908  13.903  0.5317  0.1067 -1.8260
 2828SOL     OW19945   1.028   3.501   5.133 -0.3365 -0.3459 -0.1489
 2828SOL    HW119946   1.106   3.455   5.162 -1.0735 -1.1169  0.5913
 2828SOL    HW219947   1.032   3.511   5.038  1.7615 -1.2189 -0.1520
 2829SOL     OW19948   0.122   0.843   5.375  0.0701  0.6284  0.9932
 2829SOL    HW119949   0.096   0.752   5.391 -3.4206  1.5229  0.4211
 2829SOL    HW219950   0.166   0.834   5.290 -0.9320  0.3322  0.5044
 2830SOL     OW19951   4.105   0.792   4.207  0.1920 -0.1474  0.5398
 2830SOL    HW119952   4.112   0.719   4.145 -1.1161 -1.4824  1.9539
 2830SOL    HW219953   4.190   0.833   4.192  0.7103 -0.8338  1.6117
 2831SOL     OW19954   1.377   0.677   5.487  0.3955 -0.0893 -0.1082
 2831SOL    HW119955   1.394   0.671   5.581 -2.4675  0.1153  0.4054
 2831SOL    HW219956   1.303   0.618   5.471 -0.7637  0.7311  2.2896
 2832SOL     OW19957   3.997   2.493   0.336  0.0045 -0.1385 -0.5660
 2832SOL    HW119958   3.907   2.472   0.313 -0.1407 -1.4182  1.1579
 2832SOL    HW219959   4.044   2.438   0.272  1.6073 -0.8695  1.2116
 2833SOL     OW19960   3.189   4.145  13.563 -0.1567 -0.3965  1.1782
 2833SOL    HW119961   3.216   4.196  13.639 -0.1860  0.3183  0.7133
 2833SOL    HW219962   3.099   4.141  13.593 -1.7304  1.4933 -3.2878
 2834SOL     OW19963   0.509   3.548   9.253  0.3500 -0.5219  0.0868
 2834SOL    HW119964   0.576   3.481   9.235  1.3648  0.3043  0.8313
 2834SOL    HW219965   0.545   3.582   9.335  3.0063  1.3958 -1.8849
 2835SOL     OW19966   0.957   3.229   3.511 -0.4780  0.0284  0.3430
 2835SOL    HW119967   1.048   3.229   3.481  0.1898  0.8128  2.3392
 2835SOL    HW219968   0.943   3.319   3.541 -2.2094 -0.7603  1.9133
 2836SOL     OW19969   2.160   1.229   4.915 -0.7247 -0.3840 -0.0394
 2836SOL    HW119970   2.123   1.196   4.997  1.3042 -0.1549  0.9695
 2836SOL    HW219971   2.110   1.184   4.848 -0.3509  0.9325 -1.1981
 2837SOL     OW19972   0.535   2.846   3.797 -0.5216 -0.0191  0.0634
 2837SOL    HW119973   0.629   2.830   3.786 -0.5096 -2.0719  3.1746
 2837SOL    HW219974   0.506   2.810   3.713 -1.0089 -0.4047  0.3946
 2838SOL     OW19975   4.053   4.284   9.296 -0.7990 -0.5535 -0.4554
 2838SOL    HW119976   4.144   4.309   9.280 -1.1229  0.7047 -0.3094
 2838SOL    HW219977   4.028   4.255   9.208  1.5616 -0.8256 -1.0225
 2839SOL     OW19978   3.631   0.629   7.381  0.6589 -0.1062 -0.2217
 2839SOL    HW119979   3.724   0.646   7.364  0.9266 -1.2219  0.1631
 2839SOL    HW219980   3.606   0.721   7.387  2.0084  0.1345  1.6695
 2840SOL     OW19981   4.004   3.489  14.099  0.4239 -0.2219 -0.0685
 2840SOL    HW119982   4.076   3.493  14.162  2.0439  1.0681 -1.9933
 2840SOL    HW219983   3.936   3.541  14.140 -0.5892 -1.7130  0.1283
 2841SOL     OW19984   1.221   4.683   9.102 -0.4169  0.5544 -0.0579
 2841SOL    HW119985   1.304   4.681   9.149 -0.3402  1.1199 -0.1662
 2841SOL    HW219986   1.178   0.035   9.142  1.4798  1.4847  0.2059
 2842SOL     OW19987   2.327   3.706   8.336 -0.0698 -0.5665 -0.3141
 2842SOL    HW119988   2.315   3.614   8.360  1.0128 -0.8179 -0.7218
 2842SOL    HW219989   2.247   3.720   8.285 -1.7575 -0.3065  2.4343
 2843SOL     OW19990   2.877   3.830   7.309 -0.4017  0.2650 -0.3104
 2843SOL    HW119991   2.818   3.825   7.384 -0.6529  0.6228 -0.4877
 2843SOL    HW219992   2.944   3.892   7.339 -0.4740 -0.2848  1.0116
 2844SOL     OW19993   4.512   0.180  16.119  0.0093  0.0780 -0.5626
 2844SOL    HW119994   4.445   0.182  16.188  0.9231  0.5297  0.3145
 2844SOL    HW219995   4.454   0.178  16.043 -1.2872  1.2577  0.4049
 2845SOL     OW19996   1.012   3.238  12.634 -0.3722 -0.1891  0.5868
 2845SOL    HW119997   0.992   3.313  12.689 -0.1019  0.0410  0.3667
 2845SOL    HW219998   0.975   3.269  12.551  0.1150  1.2213  0.9004
 2846SOL     OW19999   4.515   3.106   5.939 -0.4868 -0.5801  0.2022
 2846SOL    HW120000   4.610   3.112   5.943 -0.4731  0.0641 -1.0661
 2846SOL    HW220001   4.493   3.112   5.846 -0.7676 -1.2251  0.2269
 2847SOL     OW20002   0.214   2.389   7.514  0.6075 -0.6498 -0.5147
 2847SOL    HW120003   0.148   2.449   7.481  0.3379 -1.6262 -1.7262
 2847SOL    HW220004   0.248   2.441   7.587 -1.9743 -0.2189  0.3798
 2848SOL     OW20005   1.808   4.504   6.205 -0.5117 -0.0151  0.2776
 2848SOL    HW120006   1.836   4.566   6.138  0.5822 -0.4472  0.3451
 2848SOL    HW220007   1.887   4.470   6.247 -0.6109 -0.1928  0.3226
 2849SOL     OW20008   3.190   2.865   3.653  0.0519  0.4365  0.1206
 2849SOL    HW120009   3.124   2.918   3.697 -0.1362  1.2658 -1.1960
 2849SOL    HW220010   3.242   2.940   3.623  0.4146  1.1039  2.4100
 2850SOL     OW20011   1.037   4.494  17.323  0.0450 -0.8999 -0.1183
 2850SOL    HW120012   1.121   4.462  17.356  0.4651  0.2228 -0.0978
 2850SOL    HW220013   1.015   4.555  17.394  1.2470  0.9129 -1.3026
 2851SOL     OW20014   0.760   1.582  10.576 -0.1028  0.1304  0.5065
 2851SOL    HW120015   0.766   1.613  10.667 -0.2510 -1.1343  0.9477
 2851SOL    HW220016   0.685   1.524  10.587 -1.2834  1.3925 -0.7893
 2852SOL     OW20017   2.638   3.221   0.737 -0.3349 -0.1127  0.0607
 2852SOL    HW120018   2.680   3.139   0.761 -1.0458  0.0020  1.7647
 2852SOL    HW220019   2.650   3.230   0.643  0.6072  1.2779  0.3154
 2853SOL     OW20020   2.764   3.829   2.048  0.8072  0.3257  0.4937
 2853SOL    HW120021   2.817   3.869   2.117  2.1142  0.0948 -0.3805
 2853SOL    HW220022   2.813   3.755   2.014  1.2178  0.5616  0.5757
 2854SOL     OW20023   2.026   1.840   5.527  0.5782  0.0895  0.3100
 2854SOL    HW120024   2.006   1.870   5.616  0.7985 -0.1048  0.4256
 2854SOL    HW220025   2.048   1.750   5.551  1.2484  0.2478  0.2962
 2855SOL     OW20026   1.196   3.350   2.002  0.0360 -0.3299 -0.2987
 2855SOL    HW120027   1.245   3.419   1.958  2.5184 -0.2841  2.5641
 2855SOL    HW220028   1.210   3.268   1.953  0.2928  1.8964 -3.9756
 2856SOL     OW20029   2.324   2.543   2.628  0.2129  0.5092  0.0415
 2856SOL    HW120030   2.313   2.547   2.533  1.8475  1.7044 -0.0946
 2856SOL    HW220031   2.415   2.569   2.640 -0.1717  2.5436 -1.3992
 2857SOL     OW20032   0.865   0.122   7.450  0.1661 -0.7404 -0.2491
 2857SOL    HW120033   0.821   0.093   7.530 -0.7250 -2.3283 -1.3035
 2857SOL    HW220034   0.867   0.216   7.466 -0.6909 -1.0660  1.7162
 2858SOL     OW20035   2.519   4.640   4.820  0.2284 -0.2115  0.4216
 2858SOL    HW120036   2.478   4.714   4.866  1.0504  0.5905 -0.1367
 2858SOL    HW220037   2.585   4.685   4.768  0.9055 -1.3281  0.3158
 2859SOL     OW20038   0.890   2.246   3.658  0.0304  0.3789  0.1430
 2859SOL    HW120039   0.865   2.236   3.567 -2.5768  1.8296  0.7214
 2859SOL    HW220040   0.979   2.211   3.648 -0.0121  0.2068  0.3719
 2860SOL     OW20041   3.582   0.501   7.631  0.1531  0.2798 -0.5574
 2860SOL    HW120042   3.573   0.543   7.546  0.3416  1.4810  0.0128
 2860SOL    HW220043   3.608   0.580   7.679 -0.4114 -0.3801  0.8329
 2861SOL     OW20044   2.004   3.697   5.498 -0.2498  0.0890  0.2459
 2861SOL    HW120045   2.007   3.779   5.448 -1.3385  0.3144  0.5735
 2861SOL    HW220046   2.048   3.718   5.580 -1.4044  1.5731  0.4874
 2862SOL     OW20047   1.108   1.114   2.887  0.4647  0.0775  0.5882
 2862SOL    HW120048   1.054   1.172   2.833 -0.4245 -0.3286  1.0307
 2862SOL    HW220049   1.086   1.033   2.841 -0.4951  0.2167  0.7871
 2863SOL     OW20050   3.348   2.314   7.570  0.0468 -0.2795 -0.5361
 2863SOL    HW120051   3.345   2.228   7.526 -1.1707 -0.4806 -0.0621
 2863SOL    HW220052   3.319   2.295   7.659 -0.9873 -3.9330 -1.6279
 2864SOL     OW20053   1.758   3.857   7.838  0.4759 -0.2864  0.0874
 2864SOL    HW120054   1.832   3.827   7.785  4.0615  2.0246  3.7284
 2864SOL    HW220055   1.791   3.910   7.911 -0.9060  0.4757  0.1548
 2865SOL     OW20056   2.428   3.889   5.167  0.0641  0.4946  0.5430
 2865SOL    HW120057   2.350   3.861   5.214 -1.6127  0.2938 -2.3843
 2865SOL    HW220058   2.484   3.811   5.162 -1.4245 -0.4500 -1.2787
 2866SOL     OW20059   1.632   0.188  14.100 -0.4387  0.0784  0.0564
 2866SOL    HW120060   1.597   0.113  14.149 -2.2386  2.0648  1.8033
 2866SOL    HW220061   1.642   0.153  14.012  0.0788  3.1195 -1.0973
 2867SOL     OW20062   3.926   0.502   7.584  0.0905 -0.3731 -0.1847
 2867SOL    HW120063   3.951   0.567   7.519  2.3573 -1.2568 -0.2153
 2867SOL    HW220064   3.999   0.518   7.644 -1.5896  2.1002  1.1587
 2868SOL     OW20065   4.147   0.938  12.486 -0.3424 -0.0051 -0.3151
 2868SOL    HW120066   4.155   1.020  12.437  0.4478  0.5236  0.7055
 2868SOL    HW220067   4.236   0.905  12.495  0.3899  2.0560  0.0476
 2869SOL     OW20068   1.254   3.944   4.362 -0.3027  0.1375  0.0082
 2869SOL    HW120069   1.260   3.931   4.267  0.7871  1.0775 -0.0509
 2869SOL    HW220070   1.344   3.930   4.393 -0.6507  1.5616  1.6414
 2870SOL     OW20071   0.416   4.461   3.245  0.2156 -0.4751  0.4893
 2870SOL    HW120072   0.346   4.406   3.279  0.3711 -1.3300 -0.5430
 2870SOL    HW220073   0.430   4.431   3.154 -0.3872  0.9142 -0.0516
 2871SOL     OW20074   0.205   4.604   3.670  0.4254  0.4424 -0.1765
 2871SOL    HW120075   0.157   4.602   3.752 -1.3175  1.1375 -1.1633
 2871SOL    HW220076   0.288   4.624   3.714  0.0816 -0.6628  0.9480
 2872SOL     OW20077   3.706   0.197  15.486  0.3784  0.0973 -0.1438
 2872SOL    HW120078   3.778   0.195  15.424 -0.3701  0.6044 -1.0206
 2872SOL    HW220079   3.634   0.161  15.434  1.1829 -2.4316  0.5037
 2873SOL     OW20080   2.614   2.264   6.859 -0.0694  0.2882 -0.1913
 2873SOL    HW120081   2.671   2.294   6.930 -1.1749  1.5019  0.1855
 2873SOL    HW220082   2.638   2.172   6.851 -2.0806 -0.1755 -0.8798
 2874SOL     OW20083   2.429   2.718   3.918 -0.0788 -0.4690 -0.0533
 2874SOL    HW120084   2.413   2.634   3.876  2.0451  0.3143 -2.4540
 2874SOL    HW220085   2.524   2.727   3.930 -0.3331  1.3290  0.6679
 2875SOL     OW20086   3.103   1.722   8.751  0.1148  0.5852  0.0400
 2875SOL    HW120087   3.080   1.739   8.660 -0.4573 -1.1804 -0.1541
 2875SOL    HW220088   3.039   1.777   8.795 -0.5973 -1.4887  1.5980
 2876SOL     OW20089   2.504   4.474   7.442  0.0180 -0.1600  0.2991
 2876SOL    HW120090   2.588   4.469   7.487 -1.0914  1.9368  2.6252
 2876SOL    HW220091   2.470   4.552   7.487  0.0106  0.0290 -0.0363
 2877SOL     OW20092   4.531   2.399   7.845  0.4903  0.0151 -0.3794
 2877SOL    HW120093   4.492   2.446   7.771 -1.9064  0.1099  0.9390
 2877SOL    HW220094   4.485   2.317   7.828 -1.6368  0.9046  1.0675
 2878SOL     OW20095   2.516   3.398   0.406  0.0482  0.1237 -0.2016
 2878SOL    HW120096   2.491   3.349   0.328 -1.7989  1.4415 -0.4278
 2878SOL    HW220097   2.567   3.332   0.453 -0.6544 -0.6126 -0.4770
 2879SOL     OW20098   4.073   2.064  14.086  0.0636 -0.1074 -0.2499
 2879SOL    HW120099   4.049   2.139  14.030  0.5142  0.3363  0.1556
 2879SOL    HW220100   4.029   2.000  14.030 -0.8176 -0.8891  1.3656
 2880SOL     OW20101   4.358   2.988   6.111  0.7813  0.1119  0.0010
 2880SOL    HW120102   4.402   3.049   6.051 -1.1299  1.6542  0.1916
 2880SOL    HW220103   4.385   2.899   6.086  1.7447  0.6411 -0.8419
 2881SOL     OW20104   2.486   1.063   3.033  0.1806  0.2817 -0.4900
 2881SOL    HW120105   2.530   1.050   3.117  1.3990  1.9740 -0.8538
 2881SOL    HW220106   2.463   1.154   3.053  0.6197  0.0648  0.9585
 2882SOL     OW20107   0.460   2.679   2.068  0.2002 -0.6003  0.0297
 2882SOL    HW120108   0.503   2.764   2.084  1.6614 -1.0301 -1.5875
 2882SOL    HW220109   0.524   2.616   2.100  2.3883  1.8468  0.4969
 2883SOL     OW20110   2.278   2.445   4.104  0.1166 -0.3351  0.4151
 2883SOL    HW120111   2.329   2.370   4.133  0.1804 -0.3399  0.2921
 2883SOL    HW220112   2.313   2.452   4.015 -0.4903 -1.6725  0.0622
 2884SOL     OW20113   2.022   2.283   4.367  1.0605  0.1031  0.0872
 2884SOL    HW120114   2.054   2.264   4.279 -0.9829  1.3050 -0.9278
 2884SOL    HW220115   2.011   2.192   4.394  0.1873 -0.4645 -2.2000
 2885SOL     OW20116   3.017   0.387   0.135 -0.8462 -0.5245 -0.4205
 2885SOL    HW120117   3.013   0.483   0.138 -0.2081 -0.3769 -3.8056
 2885SOL    HW220118   2.945   0.364   0.192  1.4484 -1.8576  1.9317
 2886SOL     OW20119   4.592   3.897   2.277  0.4591 -0.0750 -0.1520
 2886SOL    HW120120   4.539   3.934   2.347  1.0625  2.0212 -0.8049
 2886SOL    HW220121   4.515   3.868   2.228  0.2021 -0.6354  0.5871
 2887SOL     OW20122   2.640   3.776  10.665  0.0905  0.3341  0.0596
 2887SOL    HW120123   2.551   3.787  10.632  0.6155  0.8742 -1.1481
 2887SOL    HW220124   2.615   3.769  10.758  1.0145 -0.4334  0.2482
 2888SOL     OW20125   1.297   1.535  15.009  0.0192 -0.5900  0.2958
 2888SOL    HW120126   1.387   1.566  15.000 -0.3181  0.5349  0.6527
 2888SOL    HW220127   1.299   1.538  15.105 -0.3121 -0.3088  0.2942
 2889SOL     OW20128   1.340   0.387  13.883  0.6934 -0.3754 -0.2035
 2889SOL    HW120129   1.253   0.358  13.912  1.1539  0.8780  2.4174
 2889SOL    HW220130   1.340   0.342  13.799  2.7888 -2.2690  0.8247
 2890SOL     OW20131   1.790   3.229  16.224 -0.0633 -0.5933 -0.9366
 2890SOL    HW120132   1.726   3.289  16.263  1.5447 -0.5116  1.5718
 2890SOL    HW220133   1.815   3.180  16.303 -0.4703  1.0792  0.2298
 2891SOL     OW20134   3.898   0.120  16.056  0.2932  0.0799  0.5535
 2891SOL    HW120135   3.903   0.210  16.025 -0.2046 -0.8510 -2.2204
 2891SOL    HW220136   3.916   0.123  16.151  2.2086  0.8117  0.1695
 2892SOL     OW20137   2.834   2.016   7.089  0.0713  0.7912 -0.2531
 2892SOL    HW120138   2.928   2.034   7.099  0.6942 -2.8856  0.5544
 2892SOL    HW220139   2.791   2.095   7.122 -0.9618  0.0027  0.2725
 2893SOL     OW20140   4.001   0.163   3.568 -0.2629  0.0682  0.3644
 2893SOL    HW120141   4.007   0.253   3.537  0.1422  1.0441  3.2616
 2893SOL    HW220142   3.907   0.144   3.575 -0.1840 -0.5842 -0.2833
 2894SOL     OW20143   3.858   0.018   9.063  0.2897 -0.2933 -0.2619
 2894SOL    HW120144   3.783   0.039   9.007  1.0468  1.4790 -0.6115
 2894SOL    HW220145   3.836   4.656   9.099 -0.1866  0.1689  0.5363
 2895SOL     OW20146   3.122   3.806   5.820  0.1737 -0.1455  0.3588
 2895SOL    HW120147   3.189   3.790   5.753 -0.2656 -0.6030  0.0326
 2895SOL    HW220148   3.133   3.718   5.857 -0.0927  0.5064  1.9611
 2896SOL     OW20149   0.511   0.995   2.866  0.2793  0.4709  0.0943
 2896SOL    HW120150   0.585   0.977   2.924  0.1819  3.5582  1.1632
 2896SOL    HW220151   0.548   1.035   2.788 -1.8999  2.7804  0.2517
 2897SOL     OW20152   3.891   2.262   3.462 -0.2953  0.1318 -0.3358
 2897SOL    HW120153   3.844   2.331   3.416 -0.5646 -0.8583 -1.5679
 2897SOL    HW220154   3.818   2.239   3.519  0.6547 -0.4696  0.6364
 2898SOL     OW20155   3.268   0.711   4.993  0.4859  0.0381 -0.0390
 2898SOL    HW120156   3.224   0.740   5.074  0.3327  0.2550 -0.2003
 2898SOL    HW220157   3.253   0.616   4.995 -4.2516  0.7981 -0.1598
 2899SOL     OW20158   2.870   2.569   2.035  0.2516 -0.0103 -0.1457
 2899SOL    HW120159   2.776   2.586   2.026  0.7847  2.2606 -1.4390
 2899SOL    HW220160   2.915   2.642   1.992  1.5720 -1.2116 -0.8132
 2900SOL     OW20161   3.551   3.659   9.158  0.0886  0.2093 -0.1004
 2900SOL    HW120162   3.545   3.743   9.112 -0.1316  1.2253  1.7767
 2900SOL    HW220163   3.462   3.628   9.148  0.4662 -0.2615 -2.0373
 2901SOL     OW20164   2.424   1.671  16.487  0.4772 -0.3118  0.3261
 2901SOL    HW120165   2.378   1.622  16.419  0.7271  0.4931 -0.4189
 2901SOL    HW220166   2.493   1.611  16.514  1.6309 -0.5780 -3.1698
 2902SOL     OW20167   4.535   3.046   3.745  0.8411 -0.3739  0.3030
 2902SOL    HW120168   4.583   2.971   3.711  0.9359 -0.7263  1.2247
 2902SOL    HW220169   4.576   3.109   3.686 -1.5942 -1.3691 -2.4403
 2903SOL     OW20170   3.699   1.754   8.634 -0.4713 -0.3826  0.8486
 2903SOL    HW120171   3.642   1.771   8.709 -1.1695  1.6347 -0.1659
 2903SOL    HW220172   3.634   1.734   8.567  1.4739 -0.3201 -1.0514
 2904SOL     OW20173   4.273   3.382   7.383 -0.4462 -0.2940  0.4209
 2904SOL    HW120174   4.270   3.331   7.464  0.1071 -1.3794 -0.2401
 2904SOL    HW220175   4.178   3.380   7.371 -0.3695  3.4230 -0.7943
 2905SOL     OW20176   3.075   4.449   7.302  0.0008 -0.1538 -0.2108
 2905SOL    HW120177   3.131   4.445   7.380  0.6468  2.1262 -0.5625
 2905SOL    HW220178   3.131   4.403   7.239 -1.2278 -1.0342 -0.6662
 2906SOL     OW20179   1.570   0.560   5.015  0.0781 -0.2050  0.1991
 2906SOL    HW120180   1.526   0.587   5.096  1.0357 -2.0837  1.3634
 2906SOL    HW220181   1.518   0.487   4.982 -0.7543  0.1947  0.6401
 2907SOL     OW20182   3.346   3.169   5.154 -0.0096  0.0800 -0.3759
 2907SOL    HW120183   3.311   3.143   5.069  1.0691 -0.7620 -0.5509
 2907SOL    HW220184   3.361   3.262   5.136  0.5924  0.2930  1.2325
 2908SOL     OW20185   0.447   4.590  15.730 -0.1215 -0.3078  0.4969
 2908SOL    HW120186   0.429   4.683  15.748  1.7005 -0.0652  1.0365
 2908SOL    HW220187   0.470   4.561  15.818 -2.6563  0.1041  1.2961
 2909SOL     OW20188   2.972   0.194   6.381  0.2252  0.0196  0.6915
 2909SOL    HW120189   3.028   0.135   6.433 -0.7797 -0.7137  0.9442
 2909SOL    HW220190   2.884   0.170   6.410 -0.4462  0.6150 -0.8617
 2910SOL     OW20191   0.269   4.293   2.413  0.0585 -0.3160 -0.1590
 2910SOL    HW120192   0.207   4.343   2.465 -1.4707 -0.4943 -1.8022
 2910SOL    HW220193   0.207   4.256   2.349 -1.2354  0.3775  0.7057
 2911SOL     OW20194   2.041   4.369   6.260 -0.4213 -0.5363  0.0386
 2911SOL    HW120195   2.112   4.308   6.279  2.4735  2.1074 -2.2755
 2911SOL    HW220196   1.988   4.308   6.209 -2.2082 -0.6676  2.0544
 2912SOL     OW20197   0.854   2.279   0.226  0.4365 -0.1133  0.1121
 2912SOL    HW120198   0.848   2.375   0.228  2.9554  0.0287  0.6982
 2912SOL    HW220199   0.761   2.257   0.230  0.2707  0.3643 -0.8893
 2913SOL     OW20200   1.163   3.478  13.544 -0.0420  0.3965 -0.2456
 2913SOL    HW120201   1.188   3.422  13.471  0.1200  1.9826 -1.3948
 2913SOL    HW220202   1.236   3.464  13.605  0.7928  0.1308 -1.3025
 2914SOL     OW20203   1.237   3.513  10.169  0.5570  0.1823  0.4755
 2914SOL    HW120204   1.217   3.523  10.076  1.6463 -1.4481  0.0730
 2914SOL    HW220205   1.241   3.418  10.178  0.4028  0.2313  1.0725
 2915SOL     OW20206   0.962   0.663   7.884 -0.1950  0.2696 -0.4897
 2915SOL    HW120207   0.999   0.617   7.809  0.7291  0.2815 -0.0465
 2915SOL    HW220208   0.871   0.636   7.885  0.3223 -1.4087  2.5432
 2916SOL     OW20209   3.394   0.144   5.147 -0.0541  0.3824  1.0489
 2916SOL    HW120210   3.451   0.218   5.162  1.3510 -0.9532  2.2947
 2916SOL    HW220211   3.388   0.119   5.239  1.9543 -1.3540  0.7022
 2917SOL     OW20212   2.472   1.458   3.613  0.3033 -0.2758 -0.2322
 2917SOL    HW120213   2.382   1.475   3.641  0.8047  0.2180  1.1180
 2917SOL    HW220214   2.502   1.549   3.617 -2.5283  0.7043 -1.7674
 2918SOL     OW20215   4.300   2.617  10.864  0.5470  0.3202 -0.2145
 2918SOL    HW120216   4.212   2.580  10.856 -0.3399  2.7729 -1.9182
 2918SOL    HW220217   4.345   2.594  10.783  0.6196 -0.3165  0.0078
 2919SOL     OW20218   4.522   4.123   7.078  0.2343  0.4684  0.9275
 2919SOL    HW120219   4.463   4.153   7.009  2.7574  1.9865 -0.5935
 2919SOL    HW220220   4.472   4.046   7.104 -0.6633  0.7149 -0.0972
 2920SOL     OW20221   2.417   1.494  12.422  0.0024  0.4273 -0.7822
 2920SOL    HW120222   2.457   1.427  12.478 -3.9085  0.4678  2.0093
 2920SOL    HW220223   2.325   1.501  12.447 -0.5112 -0.2768 -2.4441
 2921SOL     OW20224   4.204   1.891   5.232  0.0642  0.0825 -0.0677
 2921SOL    HW120225   4.154   1.828   5.283  2.0914 -0.4337  1.2725
 2921SOL    HW220226   4.255   1.946   5.292 -0.8589  1.3431 -0.4295
 2922SOL     OW20227   2.629   2.325   3.337 -0.4879  0.5699 -0.4394
 2922SOL    HW120228   2.540   2.333   3.303 -1.2584 -1.2270  1.1030
 2922SOL    HW220229   2.663   2.414   3.330  0.4782  0.2402  0.1187
 2923SOL     OW20230   2.506   3.863   1.988 -0.1919 -0.1166 -0.3812
 2923SOL    HW120231   2.591   3.870   2.031  0.5265  0.9375 -1.9560
 2923SOL    HW220232   2.503   3.940   1.930  1.0965  1.1834  1.2585
 2924SOL     OW20233   4.486   1.682   5.469 -0.0266 -0.4802 -0.0871
 2924SOL    HW120234   4.531   1.622   5.528  1.1132  0.0759 -0.4015
 2924SOL    HW220235   4.427   1.716   5.536  2.1321  3.5368 -0.2290
 2925SOL     OW20236   0.344   2.893   4.219 -0.1130  0.0699  0.0550
 2925SOL    HW120237   0.378   2.905   4.130  1.7265  0.3634  0.7992
 2925SOL    HW220238   0.251   2.894   4.195  0.3314 -1.2369 -1.7477
 2926SOL     OW20239   4.545   1.487   9.049 -0.3410  0.0971  0.7725
 2926SOL    HW120240   4.586   1.461   9.132  0.2040  0.2439  0.5502
 2926SOL    HW220241   4.596   1.566   9.029  0.1232 -0.4198 -0.0613
 2927SOL     OW20242   0.856   3.525   8.106 -0.5094 -0.6721 -0.3062
 2927SOL    HW120243   0.849   3.490   8.195  1.2754  1.3076  0.6213
 2927SOL    HW220244   0.945   3.494   8.091  0.0635 -0.1413  2.0088
 2928SOL     OW20245   0.502   2.137   2.849  0.5441  0.2841 -0.0923
 2928SOL    HW120246   0.562   2.148   2.923 -1.2051  0.6224  1.2632
 2928SOL    HW220247   0.419   2.157   2.892 -0.3859 -0.9887 -1.3153
 2929SOL     OW20248   4.538   2.826   2.924  0.7118 -0.0108 -0.1059
 2929SOL    HW120249   4.617   2.810   2.977  0.9157  0.1971 -0.3432
 2929SOL    HW220250   4.518   2.733   2.915 -2.3982  0.9339 -2.6706
 2930SOL     OW20251   2.424   2.856   3.659  0.3042 -0.8025 -0.3274
 2930SOL    HW120252   2.497   2.902   3.700 -1.8697  1.1851  1.2988
 2930SOL    HW220253   2.350   2.916   3.653 -0.8462 -2.2802 -1.0385
 2931SOL     OW20254   3.321   2.093  14.425  0.6024 -0.2748  0.0681
 2931SOL    HW120255   3.381   2.166  14.442 -0.7991  1.1452 -1.0403
 2931SOL    HW220256   3.331   2.081  14.330  3.4863  0.8591  0.2251
 2932SOL     OW20257   2.257   1.778   4.198 -0.2154  0.0565  0.2650
 2932SOL    HW120258   2.298   1.863   4.212  1.6582 -0.8178  0.0787
 2932SOL    HW220259   2.199   1.797   4.124 -0.5974  0.3960  0.6532
 2933SOL     OW20260   3.333   4.416   2.186 -0.4760 -0.7840 -0.1038
 2933SOL    HW120261   3.322   4.466   2.267  1.3290  0.2744 -0.4955
 2933SOL    HW220262   3.414   4.367   2.200 -0.4833 -1.2491 -1.6647
 2934SOL     OW20263   3.872   3.277  13.837 -0.0134  0.6441  0.4718
 2934SOL    HW120264   3.909   3.353  13.881  2.8190 -1.0110  0.9201
 2934SOL    HW220265   3.843   3.230  13.915 -1.8526 -0.1539 -0.6783
 2935SOL     OW20266   2.384   3.627   6.122 -0.1277 -0.1024  0.0764
 2935SOL    HW120267   2.451   3.624   6.053  1.6328  0.0486  1.7841
 2935SOL    HW220268   2.335   3.703   6.090  0.5697 -0.0496 -0.8782
 2936SOL     OW20269   3.115   4.340   8.134  0.2392 -0.0704  0.5224
 2936SOL    HW120270   3.092   4.252   8.103 -1.8501  1.4519 -2.1532
 2936SOL    HW220271   3.170   4.367   8.062  1.1065  0.1973  1.2881
 2937SOL     OW20272   1.268   0.425   5.419 -0.2269  0.8144 -0.7031
 2937SOL    HW120273   1.300   0.336   5.434  1.2926  1.3346 -0.7954
 2937SOL    HW220274   1.206   0.432   5.491  0.4445  0.6021 -0.1051
 2938SOL     OW20275   0.871   4.284   6.822  0.3743  0.2114 -0.3334
 2938SOL    HW120276   0.813   4.283   6.898 -0.1663 -0.9063 -0.7738
 2938SOL    HW220277   0.950   4.253   6.866 -0.0898  0.7143  0.8406
 2939SOL     OW20278   2.788   1.819   7.523 -0.1874  0.4555 -0.3013
 2939SOL    HW120279   2.869   1.771   7.507 -1.8454 -2.8022  0.9788
 2939SOL    HW220280   2.809   1.911   7.507  1.2192  0.4312  1.5031
 2940SOL     OW20281   3.357   2.819   4.846  0.0391 -0.0463  0.1749
 2940SOL    HW120282   3.288   2.821   4.780 -1.5625 -1.3038  1.7992
 2940SOL    HW220283   3.389   2.909   4.854 -0.0371 -0.1069  1.1647
 2941SOL     OW20284   1.366   1.727   0.719  0.5236  0.3951 -0.0021
 2941SOL    HW120285   1.336   1.804   0.670  0.5341 -0.6425 -1.6646
 2941SOL    HW220286   1.326   1.652   0.675  0.7293  0.1365  0.2537
 2942SOL     OW20287   0.956   4.417  10.457  0.2640 -0.0481  0.2264
 2942SOL    HW120288   0.903   4.374  10.524  1.0732 -1.2423  0.1086
 2942SOL    HW220289   0.964   4.346  10.393 -0.2316  1.3853 -1.4174
 2943SOL     OW20290   1.656   4.234  12.491  0.2598  0.3687 -0.2769
 2943SOL    HW120291   1.605   4.191  12.422  0.3605 -0.3134  0.0779
 2943SOL    HW220292   1.736   4.187  12.465 -1.2682 -1.3972 -1.8102
 2944SOL     OW20293   4.625   4.207  16.926 -0.9140  0.0635  0.2568
 2944SOL    HW120294   4.704   4.253  16.897 -0.7342 -1.2156 -1.3055
 2944SOL    HW220295   4.584   4.180  16.844  0.8052 -0.7864 -0.3256
 2945SOL     OW20296   0.883   1.616  11.005 -0.0537 -0.0588 -0.0463
 2945SOL    HW120297   0.955   1.663  11.048  0.2059  1.2787 -1.9348
 2945SOL    HW220298   0.852   1.555  11.072  1.4325 -0.3702  0.3644
 2946SOL     OW20299   1.086   4.339   3.860  0.0172  0.3011  0.1037
 2946SOL    HW120300   1.107   4.267   3.800 -1.4824 -0.6989  0.7852
 2946SOL    HW220301   1.174   4.364   3.887 -0.4483 -0.7323  2.5037
 2947SOL     OW20302   0.384   2.983   0.310  0.1283 -0.0972 -0.1597
 2947SOL    HW120303   0.319   3.050   0.288 -0.2295  0.7812  3.6404
 2947SOL    HW220304   0.328   2.945   0.377  1.0967  0.9456  1.2413
 2948SOL     OW20305   2.338   2.634  11.667  0.0759 -0.1065  0.0630
 2948SOL    HW120306   2.245   2.651  11.660 -0.1868 -1.7349 -0.3472
 2948SOL    HW220307   2.367   2.719  11.702  1.7536 -1.1581  1.2389
 2949SOL     OW20308   1.197   1.531   1.752 -0.2538  0.2802 -0.0427
 2949SOL    HW120309   1.238   1.565   1.672 -0.7501 -0.7169 -0.7101
 2949SOL    HW220310   1.140   1.605   1.771 -0.2545 -0.0070  1.1026
 2950SOL     OW20311   1.444   2.714   4.677  0.2477  0.1877  0.0707
 2950SOL    HW120312   1.379   2.696   4.609  1.9582 -1.6637 -1.0904
 2950SOL    HW220313   1.521   2.721   4.621  0.0883  2.9366  0.2085
 2951SOL     OW20314   1.956   1.595  10.832 -0.2647  0.0732  0.1127
 2951SOL    HW120315   1.974   1.625  10.743 -0.6468  0.7449  0.2626
 2951SOL    HW220316   1.974   1.501  10.832  1.6888  0.4412 -0.2695
 2952SOL     OW20317   2.499   4.572   0.434 -0.4723  0.1289  0.0953
 2952SOL    HW120318   2.522   4.523   0.355  0.5611  0.7745 -0.0102
 2952SOL    HW220319   2.519   4.498   0.491  2.9352 -0.0015 -1.2859
 2953SOL     OW20320   0.779   3.337   3.273  0.5393 -0.5969 -0.0549
 2953SOL    HW120321   0.871   3.352   3.295  0.9756  0.6038 -2.7397
 2953SOL    HW220322   0.767   3.411   3.213  0.9600  0.8475  1.6327
 2954SOL     OW20323   0.175   1.541  11.923  0.1480 -0.4188 -0.2151
 2954SOL    HW120324   0.238   1.499  11.865  0.7544 -1.0304  0.8744
 2954SOL    HW220325   0.111   1.569  11.859 -1.5086  0.2699  1.7294
 2955SOL     OW20326   3.762   2.506  11.212  0.0364 -0.0332 -0.0936
 2955SOL    HW120327   3.837   2.476  11.263  0.3208 -0.6596 -0.8959
 2955SOL    HW220328   3.795   2.567  11.146 -2.1355  1.3177  0.0719
 2956SOL     OW20329   1.548   4.416  13.496 -0.3155  0.2824 -0.1109
 2956SOL    HW120330   1.523   4.359  13.424 -1.5974  1.3810 -0.5365
 2956SOL    HW220331   1.585   4.357  13.561 -1.3597 -0.9161 -0.6059
 2957SOL     OW20332   1.917   0.865   4.843 -0.0429  0.1967 -0.0580
 2957SOL    HW120333   1.999   0.847   4.891 -1.9181  0.8280  3.3884
 2957SOL    HW220334   1.944   0.909   4.763 -3.1424  0.5445 -0.8747
 2958SOL     OW20335   3.119   3.906   0.608  0.2436 -0.2067 -0.4826
 2958SOL    HW120336   3.048   3.895   0.544  0.4984 -1.5036 -0.5365
 2958SOL    HW220337   3.192   3.924   0.549 -1.2749  1.3426 -1.9122
 2959SOL     OW20338   3.894   3.690   4.867 -0.2694  0.5349  0.3092
 2959SOL    HW120339   3.858   3.714   4.782 -0.6907 -0.8429  0.1039
 2959SOL    HW220340   3.970   3.749   4.866  0.1882 -0.0973 -4.2999
 2960SOL     OW20341   0.737   3.847   2.531 -0.0777 -0.3086 -0.5734
 2960SOL    HW120342   0.682   3.925   2.532 -0.1762 -0.3936  1.7363
 2960SOL    HW220343   0.664   3.790   2.506  0.1817 -1.5762  1.5560
 2961SOL     OW20344   1.364   1.241   5.112  0.6442 -0.3125  0.7313
 2961SOL    HW120345   1.422   1.242   5.189  0.4168  0.5710  0.8951
 2961SOL    HW220346   1.339   1.149   5.121  1.2162 -0.5386 -0.0460
 2962SOL     OW20347   2.355   2.250   9.280 -0.0189  0.0408  0.2773
 2962SOL    HW120348   2.424   2.207   9.230  1.7993  1.2001  1.8344
 2962SOL    HW220349   2.287   2.182   9.291  1.8788 -1.6247  1.7057
 2963SOL     OW20350   4.623   3.900   8.571 -0.4706  0.1482 -0.0617
 2963SOL    HW120351   4.597   3.976   8.520  0.7627 -0.3435 -1.4523
 2963SOL    HW220352   4.640   3.942   8.655  0.8096 -1.5381  0.5268
 2964SOL     OW20353   4.456   1.282   3.806  0.4755  0.3042 -0.4460
 2964SOL    HW120354   4.421   1.241   3.885 -2.9709 -0.4108 -2.3580
 2964SOL    HW220355   4.450   1.375   3.830  1.2709  0.1173  0.5011
 2965SOL     OW20356   4.220   2.286   4.141 -0.0709  0.0005 -0.2484
 2965SOL    HW120357   4.286   2.292   4.071  1.1700  1.4771  1.0597
 2965SOL    HW220358   4.270   2.294   4.222  0.8282  0.3311 -0.8334
 2966SOL     OW20359   2.027   0.398   8.367  0.0073  0.4521 -0.6404
 2966SOL    HW120360   2.008   0.406   8.461 -1.1502 -0.1260 -0.8407
 2966SOL    HW220361   1.957   0.451   8.330 -0.6175 -0.3167 -0.5401
 2967SOL     OW20362   4.107   3.382  10.502  0.0308  0.0612 -0.5194
 2967SOL    HW120363   4.090   3.401  10.410 -0.8292 -1.7039 -0.7255
 2967SOL    HW220364   4.049   3.309  10.521  1.7089 -0.4622  2.5439
 2968SOL     OW20365   0.692   0.667   3.665 -0.5756  0.0120 -0.1432
 2968SOL    HW120366   0.644   0.719   3.600 -1.8079 -1.4109 -0.3928
 2968SOL    HW220367   0.671   0.723   3.740 -1.3403 -0.5764  0.0820
 2969SOL     OW20368   1.065   1.759   2.779  0.2374 -0.0437 -0.1321
 2969SOL    HW120369   1.106   1.696   2.719  2.3547  2.1587 -0.9949
 2969SOL    HW220370   1.117   1.766   2.859 -0.9427 -1.8502  0.7869
 2970SOL     OW20371   3.719   4.182   6.951 -0.2834  0.4744  0.0400
 2970SOL    HW120372   3.769   4.173   7.031 -2.6844 -1.6365  1.3057
 2970SOL    HW220373   3.660   4.254   6.974 -2.8075 -0.6644 -2.7187
 2971SOL     OW20374   2.258   1.930   8.183  0.4209  0.5642  0.1144
 2971SOL    HW120375   2.309   1.986   8.124 -0.5808  1.9696  0.5727
 2971SOL    HW220376   2.326   1.891   8.238  0.8911 -0.2323 -1.0517
 2972SOL     OW20377   4.120   2.594   5.033  0.1109  0.0781 -0.1396
 2972SOL    HW120378   4.100   2.682   5.065 -0.7713 -0.7489  1.5541
 2972SOL    HW220379   4.144   2.557   5.118 -1.4385  1.4490  0.8902
 2973SOL     OW20380   2.597   0.282   3.334  0.3239 -0.3932 -0.2809
 2973SOL    HW120381   2.614   0.374   3.313  0.2884 -0.0260  1.2882
 2973SOL    HW220382   2.688   0.261   3.355 -0.1910 -2.4058 -0.1054
 2974SOL     OW20383   3.909   0.728   3.709 -0.5563 -0.1681 -0.1470
 2974SOL    HW120384   3.893   0.812   3.665 -0.9389  0.4103  1.0780
 2974SOL    HW220385   3.991   0.753   3.753 -0.8169  1.2236 -0.4497
 2975SOL     OW20386   3.096   4.691  11.106 -0.2613  0.5940 -0.5647
 2975SOL    HW120387   3.131   0.053  11.082  1.9338 -0.3399 -0.7102
 2975SOL    HW220388   3.170   4.640  11.073  1.2622  2.6712 -0.3650
 2976SOL     OW20389   0.512   0.148  17.172 -0.3015 -0.2381 -0.0315
 2976SOL    HW120390   0.577   0.084  17.203 -1.2925 -0.5158  1.4604
 2976SOL    HW220391   0.441   0.086  17.155 -0.1820 -0.5544  0.6079
 2977SOL     OW20392   0.132   1.066   0.985  0.1055  0.7046 -0.4457
 2977SOL    HW120393   0.160   1.060   0.894  0.9310  1.2922 -0.2365
 2977SOL    HW220394   0.217   1.086   1.025 -0.5125 -0.1648  1.3003
 2978SOL     OW20395   4.067   3.600  16.804 -0.1463  0.4115  0.9810
 2978SOL    HW120396   4.100   3.567  16.888 -0.7071  0.4325  1.2119
 2978SOL    HW220397   4.038   3.690  16.823  1.0877  1.4162 -1.8630
 2979SOL     OW20398   3.956   3.070   7.266  0.0683  0.1567  0.0492
 2979SOL    HW120399   3.916   3.041   7.348  1.0617  0.6901  0.7331
 2979SOL    HW220400   3.913   3.007   7.209 -1.3661  1.0904  0.0963
 2980SOL     OW20401   1.180   2.387   5.171  0.2081 -0.5346  0.1969
 2980SOL    HW120402   1.201   2.479   5.188  0.6851 -0.5975 -0.0569
 2980SOL    HW220403   1.091   2.395   5.136  0.9976 -1.8318 -2.1097
 2981SOL     OW20404   2.344   0.077   5.827 -0.3957 -0.3821  0.3964
 2981SOL    HW120405   2.410   0.016   5.794  0.4776  0.1892  1.0902
 2981SOL    HW220406   2.270   0.068   5.767 -0.1237  0.8211 -0.1055
 2982SOL     OW20407   1.848   2.570   5.213  0.1333  0.1832 -0.1212
 2982SOL    HW120408   1.891   2.599   5.133 -1.0597 -2.2297 -1.6179
 2982SOL    HW220409   1.773   2.521   5.181  1.0691 -1.0908 -0.3383
 2983SOL     OW20410   3.150   1.251   9.690  0.6230 -0.7283 -0.1709
 2983SOL    HW120411   3.063   1.221   9.665  1.7371 -2.8391 -1.5282
 2983SOL    HW220412   3.168   1.325   9.632 -1.5413  0.1003  0.2084
 2984SOL     OW20413   2.954   0.246   3.824 -0.0387  0.5496  0.0689
 2984SOL    HW120414   3.016   0.312   3.792  2.1115 -0.9986  1.0390
 2984SOL    HW220415   2.873   0.297   3.824 -2.1593 -2.7933  1.4312
 2985SOL     OW20416   3.416   2.675  14.536  0.2783 -0.1175  0.2581
 2985SOL    HW120417   3.479   2.709  14.472 -0.8897  0.5267 -0.5442
 2985SOL    HW220418   3.339   2.728  14.513  0.8767  0.7545  0.2598
 2986SOL     OW20419   1.391   1.219  11.461  0.3579  0.2064 -0.0714
 2986SOL    HW120420   1.441   1.160  11.518 -0.4914 -0.4266  0.0113
 2986SOL    HW220421   1.308   1.173  11.446  1.4938 -1.9647  0.3195
 2987SOL     OW20422   2.945   3.292   6.020  0.2728 -0.6410 -0.6990
 2987SOL    HW120423   2.878   3.245   5.970 -1.0798  1.7799 -1.1827
 2987SOL    HW220424   3.000   3.326   5.950  0.2177  0.6021 -0.1425
 2988SOL     OW20425   3.140   0.818   6.632 -0.9107 -0.1234 -0.4056
 2988SOL    HW120426   3.215   0.806   6.690 -0.6570 -0.4941 -0.8101
 2988SOL    HW220427   3.074   0.767   6.680  0.5890 -1.3957  0.3095
 2989SOL     OW20428   1.338   4.020   8.683  0.6609  0.3814  0.6452
 2989SOL    HW120429   1.432   4.036   8.686  0.3578  2.5199 -1.6740
 2989SOL    HW220430   1.337   3.943   8.625 -0.8765 -0.4708  1.7813
 2990SOL     OW20431   4.075   0.395  16.174  0.3304  0.7251 -0.4373
 2990SOL    HW120432   4.014   0.334  16.215  2.3371 -0.2259  1.1250
 2990SOL    HW220433   4.026   0.477  16.163  1.1287  1.3518  0.7493
 2991SOL     OW20434   4.200   4.141   5.509 -0.6797 -0.1165  0.2280
 2991SOL    HW120435   4.174   4.073   5.446  1.2907  2.5239 -3.4159
 2991SOL    HW220436   4.202   4.221   5.456  2.8332  0.6846  1.5897
 2992SOL     OW20437   0.504   3.137   1.108  0.1320  0.3016 -0.2407
 2992SOL    HW120438   0.573   3.203   1.115  0.0925  0.2588  0.6240
 2992SOL    HW220439   0.440   3.160   1.176 -0.6118 -2.2797 -0.0475
 2993SOL     OW20440   1.994   1.927   2.505  0.0351 -0.2869  0.1217
 2993SOL    HW120441   1.967   1.845   2.546  1.6354 -1.2518 -0.7201
 2993SOL    HW220442   1.993   1.907   2.411  1.2544  1.4688 -0.2653
 2994SOL     OW20443   0.755   0.232   4.889  0.3251 -0.1495  0.0004
 2994SOL    HW120444   0.749   0.145   4.927 -3.1237  0.6342  1.2515
 2994SOL    HW220445   0.819   0.279   4.943 -1.7225  3.3187 -0.5538
 2995SOL     OW20446   2.859   4.632   6.682  0.4626 -0.1264 -0.2912
 2995SOL    HW120447   2.934   4.619   6.740  0.2123 -1.5651 -0.2971
 2995SOL    HW220448   2.915   4.657   6.608  0.6603  0.8992  0.2078
 2996SOL     OW20449   4.023   2.292   1.264  0.4493  0.2948 -0.2818
 2996SOL    HW120450   4.007   2.386   1.257  1.5675  0.4216 -1.0284
 2996SOL    HW220451   4.072   2.285   1.346  1.3968 -2.7714 -1.1207
 2997SOL     OW20452   0.892   3.793   2.280  0.3471 -0.4654  0.7513
 2997SOL    HW120453   0.855   3.862   2.334 -1.7520 -0.7531 -0.3279
 2997SOL    HW220454   0.815   3.760   2.234  0.0213  0.6935  0.4684
 2998SOL     OW20455   2.941   3.849  13.891 -0.0533  0.1480 -0.5979
 2998SOL    HW120456   3.002   3.909  13.934  0.6528 -0.8514 -0.2303
 2998SOL    HW220457   2.858   3.891  13.915 -0.3685 -1.3568  0.8965
 2999SOL     OW20458   1.293   1.433   7.597 -0.5111  0.4021  0.9719
 2999SOL    HW120459   1.280   1.510   7.542 -0.3104 -1.1211 -1.1630
 2999SOL    HW220460   1.239   1.366   7.556 -0.6201  0.0061  1.7581
 3000SOL     OW20461   4.201   0.341  16.491  0.3012 -0.5427 -0.2152
 3000SOL    HW120462   4.138   0.343  16.564 -0.2684  1.6134 -0.7512
 3000SOL    HW220463   4.282   0.372  16.532  0.3165 -0.2472 -0.4664
 3001SOL     OW20464   2.780   0.912   6.249 -0.1980  0.9094 -0.0200
 3001SOL    HW120465   2.685   0.922   6.243 -0.1794  1.0344 -0.0940
 3001SOL    HW220466   2.781   0.860   6.330  1.7904  1.8708  0.5722
 3002SOL     OW20467   2.071   3.254   7.202 -0.5163 -0.4399  0.2064
 3002SOL    HW120468   2.149   3.307   7.221  0.0644 -1.6724  1.3060
 3002SOL    HW220469   2.009   3.311   7.158  0.4177  1.5572  1.4998
 3003SOL     OW20470   2.247   4.422   1.788  0.3045  0.0582 -0.2235
 3003SOL    HW120471   2.274   4.465   1.706 -0.7080  0.5428 -0.3063
 3003SOL    HW220472   2.216   4.496   1.840 -1.5525 -0.0459 -1.1603
 3004SOL     OW20473   3.029   4.085   9.611 -0.1613 -0.4056  0.0096
 3004SOL    HW120474   2.971   4.035   9.554 -0.9922  1.8513 -1.1411
 3004SOL    HW220475   3.107   4.075   9.557 -0.2471 -0.5407 -0.0889
 3005SOL     OW20476   1.935   2.463  12.165 -0.2474  0.3095 -0.0930
 3005SOL    HW120477   1.906   2.543  12.121 -1.8718  0.2788  0.9466
 3005SOL    HW220478   1.960   2.489  12.254  1.6762 -4.6971  0.8450
 3006SOL     OW20479   1.339   1.899   7.310  0.0489 -0.1751 -0.3824
 3006SOL    HW120480   1.397   1.889   7.235 -0.4733  0.5829 -0.8932
 3006SOL    HW220481   1.265   1.939   7.263  0.2415  1.7850  0.9938
 3007SOL     OW20482   1.359   2.828  13.488 -0.3991 -0.1632  0.0907
 3007SOL    HW120483   1.305   2.824  13.567 -0.5008  0.2475  0.0392
 3007SOL    HW220484   1.298   2.790  13.424  0.2809 -1.3493  0.1366
 3008SOL     OW20485   1.972   2.154   3.034  0.0430  0.4349 -0.1110
 3008SOL    HW120486   1.975   2.201   2.951 -0.8666  0.8835  0.1096
 3008SOL    HW220487   1.996   2.066   3.005 -0.8376  0.7741 -1.8973
 3009SOL     OW20488   4.038   1.136   1.212 -0.7834 -0.4931 -0.0883
 3009SOL    HW120489   4.116   1.182   1.182 -0.1191  0.3276  2.8938
 3009SOL    HW220490   4.065   1.045   1.202 -1.2423 -0.4448 -1.8306
 3010SOL     OW20491   2.053   0.507   6.586 -0.2961  0.0818 -0.1373
 3010SOL    HW120492   1.996   0.486   6.659  1.6178  0.8644  1.5986
 3010SOL    HW220493   2.074   0.600   6.599  0.9315 -0.2385  0.1483
 3011SOL     OW20494   1.316   2.190  15.096  0.6307  0.3890  0.3041
 3011SOL    HW120495   1.249   2.134  15.135  1.2475 -0.5821 -0.0210
 3011SOL    HW220496   1.391   2.183  15.155 -0.6863  1.0843  2.0708
 3012SOL     OW20497   3.396   0.080   2.636  0.2823  0.2593  0.1871
 3012SOL    HW120498   3.354   0.024   2.701 -1.0788 -1.0918 -1.8634
 3012SOL    HW220499   3.326   0.134   2.599  1.2138  0.4467 -1.3140
 3013SOL     OW20500   3.734   3.838   6.107 -0.2363 -0.2886  0.5091
 3013SOL    HW120501   3.674   3.772   6.143 -0.7428  0.6151  1.3387
 3013SOL    HW220502   3.788   3.792   6.043  1.4481 -1.1227  2.5386
 3014SOL     OW20503   3.006   3.974   8.219  0.2465  0.0803  0.0830
 3014SOL    HW120504   2.928   3.970   8.274 -0.5207 -0.6541 -1.0723
 3014SOL    HW220505   2.987   3.933   8.134  1.1667  1.2565 -0.6947
 3015SOL     OW20506   0.899   3.467  12.803 -0.2181 -0.1801 -0.1484
 3015SOL    HW120507   0.811   3.470  12.766 -0.3905 -1.0943  0.1687
 3015SOL    HW220508   0.880   3.403  12.872 -0.9424 -0.1325 -0.3094
 3016SOL     OW20509   3.941   3.184  13.327  0.0699 -0.4532  0.0415
 3016SOL    HW120510   3.963   3.260  13.380  0.3488  1.4619 -2.8235
 3016SOL    HW220511   3.904   3.228  13.251 -0.1881 -0.4621  0.1642
 3017SOL     OW20512   3.841   0.381   7.314  0.2381  0.1307 -0.0396
 3017SOL    HW120513   3.794   0.397   7.396  0.5164 -0.6261  0.2643
 3017SOL    HW220514   3.889   0.463   7.307 -1.8434  1.5023  1.5603
 3018SOL     OW20515   0.395   3.479   9.726  0.4823  0.4773 -0.0454
 3018SOL    HW120516   0.425   3.570   9.729  1.7597  0.0972 -1.2154
 3018SOL    HW220517   0.347   3.474   9.809  1.4056  1.0052  0.5214
 3019SOL     OW20518   3.713   4.199   3.068  0.4993 -0.1972 -0.6114
 3019SOL    HW120519   3.639   4.158   3.022  0.5279  0.1311 -0.9564
 3019SOL    HW220520   3.749   4.267   3.011  1.2655  1.4579  1.8671
 3020SOL     OW20521   3.974   0.089  10.223 -0.2872  0.3406 -0.6657
 3020SOL    HW120522   4.032   0.117  10.153 -0.0244  0.5883 -0.3482
 3020SOL    HW220523   3.897   0.137  10.191  0.9379  2.1064 -0.9599
 3021SOL     OW20524   1.210   1.148   7.417  0.5380  0.7198  0.6424
 3021SOL    HW120525   1.185   1.149   7.509 -0.8637  1.3147  0.2516
 3021SOL    HW220526   1.187   1.062   7.381 -0.3185 -0.2022  3.3983
 3022SOL     OW20527   0.450   1.609  11.087  0.3744  0.0170 -0.3176
 3022SOL    HW120528   0.471   1.522  11.121  0.4149  0.7617  1.5969
 3022SOL    HW220529   0.528   1.654  11.119 -0.5991  1.6708 -0.3055
 3023SOL     OW20530   4.461   3.829   7.668  0.0902 -0.0718 -0.2256
 3023SOL    HW120531   4.366   3.824   7.670  0.0361  1.9349  1.5318
 3023SOL    HW220532   4.478   3.853   7.576 -0.1574  1.0168  0.0066
 3024SOL     OW20533   4.296   3.052  14.217  0.5685 -0.0566 -0.1600
 3024SOL    HW120534   4.368   3.041  14.279 -0.1780  2.9606  1.2269
 3024SOL    HW220535   4.341   3.093  14.142  2.0035 -1.8005 -0.2614
 3025SOL     OW20536   4.131   4.284  13.465 -0.0991 -0.3511 -0.1061
 3025SOL    HW120537   4.203   4.255  13.521  0.5223 -1.3269 -1.3972
 3025SOL    HW220538   4.070   4.321  13.530  2.3052  0.4225  1.6913
 3026SOL     OW20539   0.432   4.152   6.716  0.2219  0.3368 -0.0273
 3026SOL    HW120540   0.527   4.150   6.706  0.0163 -1.2460 -1.8236
 3026SOL    HW220541   0.404   4.063   6.741 -1.2414  0.3660 -1.5109
 3027SOL     OW20542   0.704   0.252  12.480  0.3397 -0.2808  0.2152
 3027SOL    HW120543   0.633   0.221  12.536 -1.6009  1.6034 -1.2115
 3027SOL    HW220544   0.697   0.180  12.417  2.4302  1.4103 -1.9497
 3028SOL     OW20545   3.065   3.461   7.963  0.0717 -0.3887 -1.0384
 3028SOL    HW120546   3.058   3.450   8.057  1.0166  1.5272 -0.7516
 3028SOL    HW220547   3.086   3.371   7.939  2.1160  0.0259 -0.7590
 3029SOL     OW20548   0.135   1.115   7.175 -0.0079 -0.1050  0.0312
 3029SOL    HW120549   0.171   1.062   7.246  0.8945  0.4576 -0.0079
 3029SOL    HW220550   0.115   1.205   7.199  0.8428 -0.0781  0.6470
 3030SOL     OW20551   4.715   0.911   5.607 -0.3721  0.2635 -0.6514
 3030SOL    HW120552   4.708   1.005   5.593  0.1681  0.7481  2.2726
 3030SOL    HW220553   0.033   0.884   5.525 -0.1561 -1.3004 -0.0441
 3031SOL     OW20554   4.526   2.320  17.358  0.2915 -0.0251  0.1761
 3031SOL    HW120555   4.554   2.243  17.407  2.0717  1.1634  0.9944
 3031SOL    HW220556   4.441   2.288  17.328  0.0287  0.3947  0.4840
 3032SOL     OW20557   1.784   3.824   0.120  0.2836 -0.0916 -0.3658
 3032SOL    HW120558   1.757   3.733   0.105 -1.6957  0.2466  1.1007
 3032SOL    HW220559   1.873   3.833   0.087  0.1900  2.0164 -0.0701
 3033SOL     OW20560   1.288   0.663   2.664 -0.0259 -0.2152 -0.2660
 3033SOL    HW120561   1.310   0.580   2.708 -2.0370 -0.5108  0.2153
 3033SOL    HW220562   1.376   0.699   2.670  0.2587 -0.4232 -3.6944
 3034SOL     OW20563   0.873   2.623   3.471  0.5561 -0.3893 -0.1631
 3034SOL    HW120564   0.787   2.626   3.430  0.7910 -0.4413 -0.6648
 3034SOL    HW220565   0.846   2.598   3.559 -0.4862  0.5814 -0.2151
 3035SOL     OW20566   3.616   3.308  10.928 -0.2578  0.2557 -0.0420
 3035SOL    HW120567   3.627   3.292  11.021 -2.6817 -1.9440 -0.1178
 3035SOL    HW220568   3.589   3.221  10.898  1.2583  0.1797 -1.1686
 3036SOL     OW20569   3.252   3.976   6.472  0.3083  0.6365 -0.1374
 3036SOL    HW120570   3.190   4.044   6.497 -1.6926 -0.6829 -1.4167
 3036SOL    HW220571   3.303   4.027   6.409 -1.1683  1.6751 -0.5005
 3037SOL     OW20572   2.045   2.946   5.635  0.0648 -0.0174  0.7004
 3037SOL    HW120573   2.040   2.980   5.724 -0.7105 -0.3171  0.7747
 3037SOL    HW220574   2.059   2.855   5.660 -1.3987 -0.4649 -0.0716
 3038SOL     OW20575   0.033   0.861  15.406  0.1911  0.1348  0.1065
 3038SOL    HW120576   0.096   0.828  15.341 -0.1599  0.3743 -0.3543
 3038SOL    HW220577   0.031   0.953  15.382 -0.5012 -0.5358 -2.4729
 3039SOL     OW20578   2.727   3.779   6.200 -0.5734 -0.4568 -0.2329
 3039SOL    HW120579   2.758   3.842   6.135  3.1758 -2.4970 -0.4242
 3039SOL    HW220580   2.781   3.704   6.173  1.0491  0.7992 -0.4937
 3040SOL     OW20581   1.153   1.729   9.375  0.0505 -0.2584 -0.0549
 3040SOL    HW120582   1.123   1.813   9.341 -0.6343 -0.1565  0.8207
 3040SOL    HW220583   1.236   1.715   9.330  0.4224 -1.4476  1.0119
 3041SOL     OW20584   0.645   3.904   8.220 -0.1068 -0.5227  0.4533
 3041SOL    HW120585   0.641   3.855   8.302  0.7501 -1.2659  0.0393
 3041SOL    HW220586   0.556   3.937   8.204 -0.3114 -1.6657 -0.7943
 3042SOL     OW20587   2.820   1.015   3.972  0.2181  0.1228  0.0184
 3042SOL    HW120588   2.729   1.019   4.000 -0.0048 -1.0076 -0.5779
 3042SOL    HW220589   2.837   1.080   3.904  0.5437  1.2882  1.1988
 3043SOL     OW20590   1.648   1.925   7.729  0.2649  0.5402  0.1307
 3043SOL    HW120591   1.716   1.992   7.740  0.1220  0.9276 -1.3530
 3043SOL    HW220592   1.629   1.914   7.636 -0.4354 -1.8958  0.5714
 3044SOL     OW20593   1.224   3.053   6.335  0.2737  0.1403 -0.0585
 3044SOL    HW120594   1.259   3.132   6.377  0.1606  0.1252  0.0641
 3044SOL    HW220595   1.216   2.991   6.407  0.5358  1.8006  1.4122
 3045SOL     OW20596   1.432   1.501   3.747  0.1559  0.0076 -0.4890
 3045SOL    HW120597   1.452   1.469   3.659 -0.5043  0.5958 -0.8476
 3045SOL    HW220598   1.341   1.474   3.759  0.4997 -0.6721  0.5996
 3046SOL     OW20599   2.127   3.762   8.189 -0.2531 -0.2603 -0.0180
 3046SOL    HW120600   2.058   3.828   8.182 -0.5234 -0.7686 -2.1826
 3046SOL    HW220601   2.083   3.682   8.162  2.6831 -1.3093 -1.5644
 3047SOL     OW20602   1.387   0.067   1.470 -0.0945 -0.0265  0.0865
 3047SOL    HW120603   1.455   0.052   1.535  0.5595  0.7744 -0.4245
 3047SOL    HW220604   1.436   0.122   1.410 -1.2156  0.7122 -0.1524
 3048SOL     OW20605   1.703   4.067   8.288 -0.1418  0.9995 -0.0903
 3048SOL    HW120606   1.722   4.077   8.195 -2.9608 -1.7718 -0.9550
 3048SOL    HW220607   1.702   4.161   8.308  0.0906  0.6395  1.5814
 3049SOL     OW20608   3.058   0.681  13.897 -0.2761 -0.3982 -0.4051
 3049SOL    HW120609   2.987   0.626  13.931  1.0844 -1.7783  0.1795
 3049SOL    HW220610   3.143   0.640  13.912 -0.2967 -0.5138 -0.6037
 3050SOL     OW20611   0.836   3.663  12.319  0.1556 -0.1361 -0.2105
 3050SOL    HW120612   0.833   3.739  12.261  1.7456 -0.3199 -0.5422
 3050SOL    HW220613   0.786   3.689  12.397  1.2164  0.3061  0.3231
 3051SOL     OW20614   4.157   0.837   3.838  0.2571 -0.0058 -0.6212
 3051SOL    HW120615   4.147   0.932   3.835  1.4516  0.1007 -1.5816
 3051SOL    HW220616   4.218   0.816   3.767 -0.0369 -1.1041 -0.5460
 3052SOL     OW20617   1.734   0.352   8.658  0.7879 -0.2185  0.4972
 3052SOL    HW120618   1.723   0.339   8.752 -1.1563  0.8651  0.4135
 3052SOL    HW220619   1.826   0.331   8.642  0.3841 -0.9504 -0.9350
 3053SOL     OW20620   2.030   0.188   3.728 -0.0587  0.0716 -0.2611
 3053SOL    HW120621   2.031   0.215   3.636 -2.3053  1.6311  0.1813
 3053SOL    HW220622   2.077   0.255   3.778  1.2421 -1.4656  0.5844
 3054SOL     OW20623   0.654   2.053   3.773  0.0215  0.1061 -0.1410
 3054SOL    HW120624   0.655   2.142   3.808 -1.6390 -0.1079  0.4598
 3054SOL    HW220625   0.585   2.019   3.831  0.5697  0.5112  0.7385
 3055SOL     OW20626   3.492   1.518   7.198 -0.4087 -0.0784 -0.0327
 3055SOL    HW120627   3.453   1.536   7.113  0.2973  1.9267  0.0741
 3055SOL    HW220628   3.560   1.584   7.206  1.8110 -2.2802 -0.6193
 3056SOL     OW20629   1.356   0.250   6.174  0.2158  0.1248 -0.2880
 3056SOL    HW120630   1.395   0.203   6.248 -1.0654 -0.6014 -0.0675
 3056SOL    HW220631   1.351   0.341   6.202  0.3366 -0.4085  1.4768
 3057SOL     OW20632   4.072   1.972   7.842  0.0566  0.0571  0.2376
 3057SOL    HW120633   4.023   2.002   7.919 -2.4667  0.9493 -1.7143
 3057SOL    HW220634   4.101   2.050   7.796  1.7657  0.3686  1.8445
 3058SOL     OW20635   1.604   4.655   3.957  0.1650  0.0511  0.3401
 3058SOL    HW120636   1.512   4.677   3.941 -0.1601 -0.4018  1.5228
 3058SOL    HW220637   1.616   4.689   4.046 -1.0592 -1.1122  0.9661
 3059SOL     OW20638   4.073   0.753   5.421 -0.0002 -0.2036 -0.0267
 3059SOL    HW120639   4.052   0.831   5.472 -1.8063 -1.8381  1.6967
 3059SOL    HW220640   3.987   0.742   5.379 -0.7366  2.2274  0.8607
 3060SOL     OW20641   3.882   1.716   5.108 -0.2401 -0.4616 -0.1499
 3060SOL    HW120642   3.825   1.740   5.181 -0.1429 -0.0522 -0.2062
 3060SOL    HW220643   3.940   1.645   5.135 -1.3183 -0.3613  2.3626
 3061SOL     OW20644   3.371   4.572   3.290 -0.3822 -0.3038  0.2034
 3061SOL    HW120645   3.337   4.487   3.319 -1.2917 -0.5391 -1.5299
 3061SOL    HW220646   3.361   4.627   3.367 -1.3147 -0.4933  0.2257
 3062SOL     OW20647   2.668   0.683  12.476  0.3270 -0.2637 -0.1361
 3062SOL    HW120648   2.575   0.706  12.469  0.4284 -0.1519 -1.0911
 3062SOL    HW220649   2.669   0.672  12.571  1.3567 -3.3691 -0.5131
 3063SOL     OW20650   1.966   2.111   0.216 -0.6539 -0.5156 -0.2113
 3063SOL    HW120651   1.921   2.050   0.275  0.9201 -1.4710 -0.0105
 3063SOL    HW220652   2.047   2.061   0.218 -0.2301  0.2509  2.1820
 3064SOL     OW20653   4.152   1.842   7.418  0.1149  0.0972  0.2565
 3064SOL    HW120654   4.230   1.808   7.463 -2.5657 -1.0496  4.0807
 3064SOL    HW220655   4.164   1.799   7.333  0.5534 -0.1143  0.4205
 3065SOL     OW20656   3.178   1.249   1.162 -0.3065  0.1308  0.4164
 3065SOL    HW120657   3.234   1.324   1.183 -0.7046  0.6313 -0.3141
 3065SOL    HW220658   3.096   1.262   1.209 -0.6391  1.7923 -0.6228
 3066SOL     OW20659   0.026   4.365   8.781  0.1341  0.2153  0.0017
 3066SOL    HW120660   4.669   4.314   8.782 -0.3936  1.0520 -0.6183
 3066SOL    HW220661   0.003   4.426   8.711 -0.9741 -0.5757 -0.3274
 3067SOL     OW20662   2.648   2.932  15.981 -0.4695 -0.1195  0.3264
 3067SOL    HW120663   2.572   2.894  15.939 -1.8677  1.8413  1.0736
 3067SOL    HW220664   2.628   3.025  15.966  2.7427  0.5640  0.1198
 3068SOL     OW20665   3.842   3.163   5.524  0.1934  0.0621 -0.5106
 3068SOL    HW120666   3.866   3.230   5.461  1.1666  1.1325  1.0005
 3068SOL    HW220667   3.869   3.195   5.610  1.3201 -0.2958 -0.7297
 3069SOL     OW20668   3.020   2.819   6.495  0.2076 -0.4340 -0.4787
 3069SOL    HW120669   3.094   2.879   6.494  1.8073 -2.4554 -2.6844
 3069SOL    HW220670   3.059   2.735   6.472 -0.6059 -0.4788 -1.7195
 3070SOL     OW20671   3.798   3.149  14.083  0.1480  0.6354 -0.5907
 3070SOL    HW120672   3.863   3.106  14.139 -0.1174  0.7074 -0.2271
 3070SOL    HW220673   3.731   3.187  14.140  1.5363 -0.6094  1.8452
 3071SOL     OW20674   4.525   0.566  15.630  0.2755 -0.2406 -0.8053
 3071SOL    HW120675   4.615   0.541  15.611  0.5865  0.8644 -0.7349
 3071SOL    HW220676   4.502   0.622  15.556  2.2626  0.7844 -0.6311
 3072SOL     OW20677   2.976   3.504   3.008 -0.3155 -0.0166  0.5209
 3072SOL    HW120678   2.923   3.481   2.931 -0.8433  0.9010  0.6191
 3072SOL    HW220679   3.050   3.445   3.020 -1.4093 -0.9571  2.6204
 3073SOL     OW20680   1.698   1.218  11.355 -0.1820 -0.1712 -0.2498
 3073SOL    HW120681   1.738   1.222  11.269  2.6215  0.4837  1.0737
 3073SOL    HW220682   1.759   1.162  11.402  2.0373  1.6231 -0.9924
 3074SOL     OW20683   4.598   2.587  17.433  0.4347 -0.1301 -0.2513
 3074SOL    HW120684   4.641   2.544  17.507  0.6783  1.1369  0.3406
 3074SOL    HW220685   4.557   2.514  17.386  0.1543  0.7362 -1.3508
 3075SOL     OW20686   3.233   4.280  17.396 -0.3389  0.2842 -0.1561
 3075SOL    HW120687   3.294   4.214  17.363 -1.2962 -0.1851 -0.9854
 3075SOL    HW220688   3.157   4.229  17.425 -0.3883 -0.0259 -0.8433
 3076SOL     OW20689   0.549   4.127   4.048  0.0081  0.2912  0.3659
 3076SOL    HW120690   0.474   4.109   3.990  2.1230  1.7290 -2.8350
 3076SOL    HW220691   0.505   4.147   4.131  0.4136 -0.5331  0.7731
 3077SOL     OW20692   0.939   1.187   4.716  0.0885 -0.2852  0.6548
 3077SOL    HW120693   1.008   1.250   4.736  0.1024  0.6420 -2.3747
 3077SOL    HW220694   0.871   1.199   4.783  0.1308  1.2784  0.4269
 3078SOL     OW20695   2.668   3.491   0.726  0.5674  0.2450 -0.0816
 3078SOL    HW120696   2.688   3.403   0.756  0.7667  1.0365  2.1001
 3078SOL    HW220697   2.726   3.492   0.650  1.8456 -2.4409  0.8754
 3079SOL     OW20698   4.637   1.472   2.713  0.4932  0.5459 -0.1081
 3079SOL    HW120699   4.670   1.490   2.624 -2.1214  0.9109 -0.9988
 3079SOL    HW220700   4.572   1.404   2.693  0.0540  1.7718 -2.9353
 3080SOL     OW20701   0.550   2.261   4.568 -0.0993 -0.4630  0.1758
 3080SOL    HW120702   0.586   2.180   4.532  0.5508  0.2595 -0.7854
 3080SOL    HW220703   0.614   2.286   4.634  0.8778 -0.7121 -0.6841
 3081SOL     OW20704   4.713   4.342   2.857  0.4240 -0.2142  0.0612
 3081SOL    HW120705   4.693   4.366   2.947  0.3356 -2.1206  0.5461
 3081SOL    HW220706   4.669   4.394   2.789 -2.2761  0.7874  2.5847
 3082SOL     OW20707   2.618   4.454   3.188  0.0326 -0.2272 -0.1821
 3082SOL    HW120708   2.671   4.474   3.265  1.3916 -2.8624 -0.4352
 3082SOL    HW220709   2.527   4.456   3.217  0.2892 -1.0125  0.6527
 3083SOL     OW20710   2.123   2.709  12.761  0.3044 -0.1327 -0.3324
 3083SOL    HW120711   2.189   2.641  12.754  0.2549 -0.0569 -1.5529
 3083SOL    HW220712   2.161   2.781  12.811 -1.2959  1.4675 -1.3894
 3084SOL     OW20713   4.468   4.452   2.715 -0.2574  0.0755  0.3813
 3084SOL    HW120714   4.440   4.432   2.625  2.4371 -0.8601 -0.2511
 3084SOL    HW220715   4.441   4.368   2.753 -0.5442  0.0240  0.0676
 3085SOL     OW20716   1.984   3.555   8.083  0.2110  0.0556  0.2376
 3085SOL    HW120717   2.049   3.487   8.067  0.3311 -0.3923  2.6513
 3085SOL    HW220718   1.950   3.579   7.996 -0.9168  0.4503  0.7770
 3086SOL     OW20719   4.000   1.479   2.651 -0.2339 -0.3137 -0.2182
 3086SOL    HW120720   4.023   1.509   2.563  3.3098 -1.1948  0.3872
 3086SOL    HW220721   4.025   1.554   2.705  0.1155 -0.7064  0.1651
 3087SOL     OW20722   0.207   4.243  14.097  0.4653 -0.0192 -0.5525
 3087SOL    HW120723   0.268   4.186  14.049 -0.5368 -1.3502 -0.2492
 3087SOL    HW220724   0.233   4.326  14.056  0.9764 -0.5864 -1.3910
 3088SOL     OW20725   3.334   2.394   8.148 -0.0261 -0.3188 -0.2047
 3088SOL    HW120726   3.330   2.362   8.239 -0.0625 -0.7396 -0.3510
 3088SOL    HW220727   3.384   2.322   8.108  0.7150 -0.5299  1.1045
 3089SOL     OW20728   3.078   3.087  15.843 -0.6393  0.1192  0.3201
 3089SOL    HW120729   3.070   2.999  15.808 -1.3630  0.2817  0.0704
 3089SOL    HW220730   3.134   3.123  15.774 -0.0854  1.7665  1.6153
 3090SOL     OW20731   3.272   2.253   7.818 -0.0435 -0.5701  0.1277
 3090SOL    HW120732   3.222   2.327   7.854 -0.7955 -0.5186 -1.0152
 3090SOL    HW220733   3.318   2.222   7.895 -1.1459  0.3542  1.1522
 3091SOL     OW20734   1.800   2.377   2.444 -0.0635  0.9654 -0.3982
 3091SOL    HW120735   1.831   2.383   2.354 -0.9618 -1.9521 -0.8889
 3091SOL    HW220736   1.717   2.330   2.438  0.9554 -0.8806 -0.0920
 3092SOL     OW20737   2.658   2.351   2.259 -0.0644  0.1443 -0.0827
 3092SOL    HW120738   2.633   2.351   2.167 -0.1278  2.4388 -0.0572
 3092SOL    HW220739   2.653   2.257   2.276 -0.7745 -0.7794 -5.3257
 3093SOL     OW20740   3.728   3.313   6.178 -0.1015 -0.1630 -0.1850
 3093SOL    HW120741   3.684   3.297   6.262 -0.6821  1.1232 -0.2383
 3093SOL    HW220742   3.806   3.364   6.199  0.2522 -1.4351  1.5266
 3094SOL     OW20743   2.626   4.111  17.436  0.6244  0.7191  0.3222
 3094SOL    HW120744   2.648   4.184  17.377  0.3584  0.2746 -0.3294
 3094SOL    HW220745   2.567   4.143  17.504 -0.3779 -2.1395  0.7980
 3095SOL     OW20746   1.434   3.030  16.729 -0.1090 -0.3233  0.2389
 3095SOL    HW120747   1.511   2.974  16.720 -1.0783 -1.9760  2.0719
 3095SOL    HW220748   1.395   2.988  16.806 -1.3044  0.2712 -0.0468
 3096SOL     OW20749   2.131   1.690   4.417 -0.1814 -0.0103  0.1702
 3096SOL    HW120750   2.043   1.687   4.379  0.3925  2.8465 -1.4348
 3096SOL    HW220751   2.180   1.708   4.337 -1.2097  1.2667 -0.1749
 3097SOL     OW20752   0.339   4.119  16.267  0.4481  0.4215 -0.3972
 3097SOL    HW120753   0.433   4.101  16.262  0.1250 -1.6155  1.0794
 3097SOL    HW220754   0.304   4.050  16.211  0.6145 -0.8949  1.1283
 3098SOL     OW20755   1.257   3.159  11.312 -0.7772 -0.4642  0.4712
 3098SOL    HW120756   1.292   3.243  11.340  1.6874  0.1964 -4.6041
 3098SOL    HW220757   1.314   3.123  11.244 -4.2841 -1.7306 -1.7966
 3099SOL     OW20758   0.043   1.517  14.337 -0.1855 -0.2424 -0.1736
 3099SOL    HW120759   0.066   1.490  14.426 -1.2932  1.4102  0.6193
 3099SOL    HW220760   0.105   1.589  14.328 -1.0116  0.4447 -0.4292
 3100SOL     OW20761   3.733   3.731   4.395  0.4581  0.3552 -0.0105
 3100SOL    HW120762   3.759   3.751   4.485 -3.4268 -0.9133  1.4173
 3100SOL    HW220763   3.719   3.638   4.412 -0.8339  0.8162  1.4599
 3101SOL     OW20764   3.411   4.145  12.395 -0.0158  0.2586  0.2767
 3101SOL    HW120765   3.402   4.083  12.322  0.3388  0.9736 -0.3774
 3101SOL    HW220766   3.487   4.197  12.368  1.1673 -1.8204 -0.4233
 3102SOL     OW20767   3.686   1.290   5.756  0.1783  0.2581 -0.0050
 3102SOL    HW120768   3.687   1.202   5.794  2.3086 -0.8653 -2.6889
 3102SOL    HW220769   3.614   1.284   5.693  1.2388 -2.2913 -1.0029
 3103SOL     OW20770   3.184   3.803  15.016  0.0853  0.0851  0.1396
 3103SOL    HW120771   3.169   3.743  14.943 -0.9139  0.8285 -0.2614
 3103SOL    HW220772   3.272   3.783  15.048 -0.5691 -0.7118  1.4663
 3104SOL     OW20773   2.997   0.067   0.999 -0.3127  0.2863 -0.5926
 3104SOL    HW120774   3.067   0.109   1.049 -0.1269 -1.1732  0.3944
 3104SOL    HW220775   3.009   4.697   1.018  3.4694  0.8314 -0.2430
 3105SOL     OW20776   3.794   0.114   4.551  0.0022 -0.3720  0.1007
 3105SOL    HW120777   3.825   0.197   4.586 -1.2491  1.5319 -3.3103
 3105SOL    HW220778   3.851   0.059   4.606 -0.4229  0.0454  0.9550
 3106SOL     OW20779   3.035   4.255   1.182 -0.0889  0.6285  0.0564
 3106SOL    HW120780   3.069   4.225   1.098  1.6676  1.5328  0.4418
 3106SOL    HW220781   2.983   4.177   1.203 -1.4094  1.3201 -0.6018
 3107SOL     OW20782   0.183   2.101   1.780  0.1310  0.4338  0.2411
 3107SOL    HW120783   0.259   2.157   1.787  0.3269  0.0004  1.5952
 3107SOL    HW220784   0.123   2.153   1.726  0.2480 -0.3819 -0.6833
 3108SOL     OW20785   4.131   4.447   4.775  0.3430 -0.0061  0.5593
 3108SOL    HW120786   4.085   4.406   4.849  0.0026  1.0553  0.9472
 3108SOL    HW220787   4.216   4.466   4.816 -0.3447  1.8975  1.1302
 3109SOL     OW20788   3.781   0.128   2.525  0.4483  0.0809  0.0208
 3109SOL    HW120789   3.761   0.095   2.612 -1.3713  1.1373  0.0127
 3109SOL    HW220790   3.730   0.208   2.539 -0.4571 -0.7852  1.6645
 3110SOL     OW20791   2.035   1.592   5.617 -0.0636 -0.1636  0.3482
 3110SOL    HW120792   1.981   1.519   5.586  0.3532 -1.0673  1.7571
 3110SOL    HW220793   2.111   1.545   5.650  0.6736 -0.0986 -1.3044
 3111SOL     OW20794   1.472   3.576  13.422 -0.0115 -0.4175  0.3126
 3111SOL    HW120795   1.466   3.482  13.442  1.3389 -0.3900  0.8782
 3111SOL    HW220796   1.555   3.579  13.375  1.2821 -1.8159  2.4919
 3112SOL     OW20797   3.592   2.758   6.511 -0.0402 -0.3601 -0.1638
 3112SOL    HW120798   3.549   2.711   6.583 -2.4117  0.2201 -1.2007
 3112SOL    HW220799   3.517   2.786   6.459 -0.4193 -0.7703  0.1608
 3113SOL     OW20800   4.121   3.268   7.146  0.5873  0.5386  0.0032
 3113SOL    HW120801   4.038   3.229   7.173  0.9425 -1.5432 -1.8918
 3113SOL    HW220802   4.184   3.201   7.173  0.5796 -0.9339 -3.5720
 3114SOL     OW20803   0.050   2.133   8.964  0.3292 -0.1106 -0.1469
 3114SOL    HW120804   0.094   2.051   8.982 -2.6806 -1.7679 -0.2928
 3114SOL    HW220805   0.078   2.156   8.876  0.5297  2.8961  0.6904
 3115SOL     OW20806   3.538   0.802   1.892 -0.2681 -0.1295  0.1874
 3115SOL    HW120807   3.596   0.805   1.968  0.2664 -1.3196 -0.1772
 3115SOL    HW220808   3.563   0.870   1.829 -0.9972 -0.1073 -0.0747
 3116SOL     OW20809   3.152   1.666   2.437  0.1792  0.4777  0.2469
 3116SOL    HW120810   3.119   1.594   2.382  0.6377  0.8860 -0.5622
 3116SOL    HW220811   3.246   1.662   2.419 -0.3743  1.2505 -2.7295
 3117SOL     OW20812   0.782   2.616  13.468 -0.4296 -0.1001 -0.3024
 3117SOL    HW120813   0.826   2.687  13.516  0.7731 -1.1761  0.1964
 3117SOL    HW220814   0.744   2.564  13.540  0.0772  1.2136  0.9113
 3118SOL     OW20815   4.276   2.605   5.723  0.0110  0.2242 -0.1759
 3118SOL    HW120816   4.302   2.621   5.632 -0.6858 -0.4299 -0.4843
 3118SOL    HW220817   4.186   2.635   5.718  0.7217  2.2754 -0.8104
 3119SOL     OW20818   0.060   4.235  14.522  0.2343  0.7019 -0.1506
 3119SOL    HW120819   0.070   4.201  14.612  1.3064 -1.1056 -0.9468
 3119SOL    HW220820   0.127   4.184  14.477  1.2180  1.7676  0.1122
 3120SOL     OW20821   2.819   2.047   8.243  0.0921 -0.0378 -0.2150
 3120SOL    HW120822   2.745   2.096   8.207 -0.0753 -0.7635 -0.8727
 3120SOL    HW220823   2.784   1.959   8.227 -1.7163  0.3066  1.8278
 3121SOL     OW20824   3.743   4.298   8.683 -0.6712  0.0230  0.4741
 3121SOL    HW120825   3.702   4.249   8.611 -1.2070  1.9092 -0.5171
 3121SOL    HW220826   3.666   4.330   8.729 -0.4349 -1.3436  1.8031
 3122SOL     OW20827   3.433   3.418   8.210  0.3371  0.2492 -0.3005
 3122SOL    HW120828   3.425   3.447   8.300 -2.5968  3.0278 -1.4392
 3122SOL    HW220829   3.342   3.416   8.180  0.3463 -3.3591 -0.0260
 3123SOL     OW20830   4.492   3.365   8.092 -0.0707  0.7540  0.1797
 3123SOL    HW120831   4.583   3.384   8.069 -0.3757  1.0109 -0.8457
 3123SOL    HW220832   4.446   3.449   8.081 -1.1674 -0.0688 -1.6526
 3124SOL     OW20833   1.294   0.892   6.598  0.1223 -0.2599 -0.2826
 3124SOL    HW120834   1.292   0.955   6.526  0.0515 -0.8441 -0.7934
 3124SOL    HW220835   1.385   0.890   6.626 -0.5341  1.1741  1.9967
 3125SOL     OW20836   2.279   0.337   0.780 -0.0733 -0.0582  0.1307
 3125SOL    HW120837   2.272   0.432   0.792  0.0973  0.1849 -1.6655
 3125SOL    HW220838   2.369   0.319   0.753  0.0740  1.1598 -0.1678
 3126SOL     OW20839   2.802   0.213   5.364 -0.2873  0.7860 -0.0506
 3126SOL    HW120840   2.831   0.152   5.296  1.0638 -0.1934  1.4197
 3126SOL    HW220841   2.731   0.254   5.313  0.1556  0.4893 -0.8905
 3127SOL     OW20842   0.256   0.328   0.567  0.1908 -0.1151 -0.2539
 3127SOL    HW120843   0.210   0.307   0.648  0.7752 -1.7420 -0.3521
 3127SOL    HW220844   0.243   0.422   0.559  1.7002  0.1099 -0.0260
 3128SOL     OW20845   1.833   1.375   3.893 -0.2636 -0.7367 -0.1476
 3128SOL    HW120846   1.796   1.300   3.846 -0.0076 -0.0903 -1.3813
 3128SOL    HW220847   1.752   1.425   3.902  0.2848  0.1962 -0.4191
 3129SOL     OW20848   0.718   4.712   3.065 -0.2314 -0.7717  0.0178
 3129SOL    HW120849   0.661   0.065   3.062  0.5400 -0.2435 -1.0042
 3129SOL    HW220850   0.756   4.721   3.152 -1.4801  0.5721  0.4329
 3130SOL     OW20851   3.269   0.006   9.093 -0.1807  0.8092 -0.1367
 3130SOL    HW120852   3.176   0.008   9.072 -0.1024  0.0566 -0.5269
 3130SOL    HW220853   3.301   0.095   9.078 -2.6384  1.5174 -1.0867
 3131SOL     OW20854   3.293   1.179   6.633  0.0019 -0.0621  0.9543
 3131SOL    HW120855   3.329   1.128   6.705  1.2757 -0.8175 -0.2089
 3131SOL    HW220856   3.320   1.128   6.556 -0.8273 -0.5223  0.9636
 3132SOL     OW20857   0.875   3.786   6.194  0.0948 -0.0395  0.2459
 3132SOL    HW120858   0.940   3.718   6.179 -1.2389 -1.4205  0.7226
 3132SOL    HW220859   0.939   3.856   6.203 -1.5646  1.4065  0.7855
 3133SOL     OW20860   2.948   2.992   8.049 -0.5640  0.5756  0.1180
 3133SOL    HW120861   2.880   2.938   8.090  0.5128 -0.6944  0.2203
 3133SOL    HW220862   3.020   2.929   8.046  1.2701  2.5050  3.8304
 3134SOL     OW20863   1.478   1.279   3.029 -0.0062 -0.3354  0.2189
 3134SOL    HW120864   1.514   1.226   2.958 -0.3938  2.1543 -1.8362
 3134SOL    HW220865   1.401   1.229   3.055  0.6395 -0.9874  0.8734
 3135SOL     OW20866   2.446   3.211   8.410  0.2734 -0.3041  0.3093
 3135SOL    HW120867   2.425   3.161   8.489 -1.8248  0.5761  0.3073
 3135SOL    HW220868   2.455   3.297   8.451  0.0123  0.0904 -0.4649
 3136SOL     OW20869   2.118   1.310   6.901  0.7241 -0.4274  0.5397
 3136SOL    HW120870   2.166   1.236   6.939 -2.2827 -2.0636  1.0900
 3136SOL    HW220871   2.197   1.355   6.869  0.6546 -1.1697 -0.6477
 3137SOL     OW20872   3.824   1.274   4.458 -0.4061 -0.2809 -0.2906
 3137SOL    HW120873   3.846   1.323   4.538  1.3203 -1.4574 -0.0427
 3137SOL    HW220874   3.758   1.220   4.500 -1.6136  0.8637 -0.7131
 3138SOL     OW20875   2.013   0.167   9.593  0.3537  0.5872 -0.0586
 3138SOL    HW120876   2.031   0.162   9.499  0.9788 -2.3410  0.2296
 3138SOL    HW220877   2.051   0.252   9.616  0.3773  0.0583  1.8937
 3139SOL     OW20878   4.475   0.178  13.699 -0.3356 -0.0813  0.2453
 3139SOL    HW120879   4.398   0.149  13.749  0.2440 -1.1228  0.5321
 3139SOL    HW220880   4.461   0.271  13.716  1.0300 -0.1977  2.0075
 3140SOL     OW20881   1.330   2.228   5.958 -0.0357 -0.0372  0.4160
 3140SOL    HW120882   1.405   2.284   5.938  0.1553 -0.4432 -0.0072
 3140SOL    HW220883   1.300   2.215   5.868  0.9171 -0.0508  0.1072
 3141SOL     OW20884   4.378   2.263   4.361 -0.0024  0.3650  0.1151
 3141SOL    HW120885   4.398   2.178   4.400  0.7553 -0.3476 -1.8628
 3141SOL    HW220886   4.459   2.308   4.382 -0.5962  1.4227  0.1553
 3142SOL     OW20887   1.100   0.089   3.350 -0.3646  0.1146  0.3969
 3142SOL    HW120888   1.112   4.720   3.370 -1.4382  0.2034  1.4786
 3142SOL    HW220889   1.071   0.123   3.435 -0.9061  2.6981 -0.8176
 3143SOL     OW20890   3.743   2.871   7.387  0.2411 -0.9645  0.3198
 3143SOL    HW120891   3.731   2.855   7.293  0.6280  3.2039 -0.4628
 3143SOL    HW220892   3.652   2.878   7.417  1.7736  2.0110  4.2733
 3144SOL     OW20893   0.500   2.304   5.306 -0.0874  0.1067 -0.2686
 3144SOL    HW120894   0.531   2.272   5.221 -1.0880  0.1177 -0.6438
 3144SOL    HW220895   0.441   2.378   5.291 -1.0925 -0.3355  1.4620
 3145SOL     OW20896   1.066   0.276   5.906  0.5430  0.2143 -0.1269
 3145SOL    HW120897   1.011   0.319   5.972  1.2319  0.8355  0.0315
 3145SOL    HW220898   1.138   0.338   5.892 -1.1872  2.4267  0.7123
 3146SOL     OW20899   1.263   4.013   4.053  0.3137  0.2443 -0.1083
 3146SOL    HW120900   1.339   4.028   3.996  1.1692  1.3996  1.3529
 3146SOL    HW220901   1.245   4.102   4.084 -1.7687 -0.3272  0.3156
 3147SOL     OW20902   0.668   3.687   8.965  0.3928 -0.5355 -0.3191
 3147SOL    HW120903   0.740   3.711   8.907 -0.0437 -1.0425 -1.0630
 3147SOL    HW220904   0.673   3.592   8.949  1.8395 -0.4492 -0.3303
 3148SOL     OW20905   1.304   3.079   7.109 -0.2308  0.0921  0.3291
 3148SOL    HW120906   1.362   3.029   7.166  1.7790  1.2068 -0.7638
 3148SOL    HW220907   1.221   3.056   7.151 -0.3796 -1.3830 -0.7729
 3149SOL     OW20908   3.241   4.163   7.518 -0.2183 -0.1090  0.1162
 3149SOL    HW120909   3.208   4.102   7.584  2.0642 -1.1797  0.2851
 3149SOL    HW220910   3.187   4.140   7.443 -0.8429  1.2311  0.1485
 3150SOL     OW20911   4.350   4.606   5.368  0.3921 -0.3298  0.1838
 3150SOL    HW120912   4.289   4.679   5.373  0.1613 -0.6275  1.7690
 3150SOL    HW220913   4.377   4.614   5.460  0.8897 -0.3386  0.0393
 3151SOL     OW20914   4.478   2.701   9.537  0.4101  0.2449 -0.0395
 3151SOL    HW120915   4.428   2.716   9.617  0.2392 -1.7228  0.2362
 3151SOL    HW220916   4.565   2.669   9.560  0.1745 -1.8078 -1.9421
 3152SOL     OW20917   4.257   1.808   5.628  0.0723 -0.4113  0.0233
 3152SOL    HW120918   4.178   1.758   5.650 -0.0146 -0.6787 -0.9131
 3152SOL    HW220919   4.215   1.879   5.581 -2.1677 -1.4070  0.5247
 3153SOL     OW20920   2.206   1.528   3.672 -0.1359 -0.2109 -0.0740
 3153SOL    HW120921   2.179   1.462   3.736  0.4739  1.2380  1.6953
 3153SOL    HW220922   2.222   1.606   3.725 -0.0994 -0.3981  0.1942
 3154SOL     OW20923   2.917   1.397   4.167  0.0635  0.1902  0.1245
 3154SOL    HW120924   2.945   1.307   4.184  0.0820  0.3104  0.7229
 3154SOL    HW220925   2.838   1.373   4.118  1.2958 -3.3317 -0.1236
 3155SOL     OW20926   1.211   2.888  15.886  0.6297  0.8938  0.0115
 3155SOL    HW120927   1.231   2.825  15.955  1.4883  0.7507 -0.3717
 3155SOL    HW220928   1.122   2.920  15.902 -0.0404 -1.4921  1.1368
 3156SOL     OW20929   0.895   4.142   7.695  0.0203 -0.2149  0.3364
 3156SOL    HW120930   0.836   4.152   7.770  1.3627  0.0676  1.3381
 3156SOL    HW220931   0.922   4.233   7.679 -0.2901 -0.3689 -1.0642
 3157SOL     OW20932   2.451   3.516   7.979 -0.2848  0.4916  0.1510
 3157SOL    HW120933   2.486   3.583   8.037  0.9166 -0.7532  0.8677
 3157SOL    HW220934   2.495   3.551   7.901  0.3629  0.7924  0.6504
 3158SOL     OW20935   1.119   0.146  15.579 -0.4894  0.2856 -0.1524
 3158SOL    HW120936   1.135   0.087  15.652 -2.3441  0.7076  0.5997
 3158SOL    HW220937   1.110   0.088  15.503 -2.4471 -1.6609  1.5755
 3159SOL     OW20938   0.821   2.021  17.199 -0.5117 -0.3366 -0.0153
 3159SOL    HW120939   0.768   2.088  17.243 -0.9150 -0.3393 -0.4867
 3159SOL    HW220940   0.778   1.945  17.238  1.1204 -0.9513  0.5854
 3160SOL     OW20941   1.905   0.855  10.275 -0.1023  0.1632  0.3888
 3160SOL    HW120942   1.949   0.916  10.335  0.5097  2.3412 -2.2911
 3160SOL    HW220943   1.879   0.790  10.341 -1.3173  0.2755  0.0163
 3161SOL     OW20944   4.574   3.642  13.099  0.5585  0.1306  0.3347
 3161SOL    HW120945   4.606   3.732  13.086 -1.0967  0.5113 -1.0460
 3161SOL    HW220946   4.631   3.592  13.040  1.3623  1.1317  0.2422
 3162SOL     OW20947   1.058   3.740  15.187 -0.3581  0.1658 -0.1216
 3162SOL    HW120948   0.994   3.668  15.186  0.9948 -1.0360  0.3487
 3162SOL    HW220949   1.006   3.814  15.218 -1.4810 -0.9526  0.7030
 3163SOL     OW20950   0.131   4.330  16.791  0.0721 -0.5988 -0.3853
 3163SOL    HW120951   0.212   4.281  16.775 -0.5104 -2.3227  1.8682
 3163SOL    HW220952   0.139   4.403  16.730  1.3019 -0.0482  0.4208
 3164SOL     OW20953   1.141   2.347   4.536  0.0874 -0.5582 -0.1196
 3164SOL    HW120954   1.084   2.281   4.576 -0.8285  0.3274  0.0141
 3164SOL    HW220955   1.113   2.426   4.582  0.5932 -0.8943  0.7643
 3165SOL     OW20956   4.114   4.010   0.624  0.1141  0.1109  0.1783
 3165SOL    HW120957   4.084   3.922   0.646 -0.6965 -0.3123 -2.5229
 3165SOL    HW220958   4.171   3.981   0.552  0.1674  1.5721 -0.3629
 3166SOL     OW20959   1.470   1.618  12.079  0.3064  0.1689  0.2052
 3166SOL    HW120960   1.417   1.541  12.100 -0.8331  0.4822 -1.5476
 3166SOL    HW220961   1.560   1.587  12.083  0.3722  0.5434  1.6634
 3167SOL     OW20962   1.931   1.379   6.256 -0.3515  0.0232  0.5138
 3167SOL    HW120963   1.965   1.306   6.205 -1.7578 -0.6663  0.5745
 3167SOL    HW220964   2.002   1.406   6.314  1.0829  0.1283 -1.2942
 3168SOL     OW20965   1.407   0.512   6.291 -0.5573 -0.1223  1.3806
 3168SOL    HW120966   1.441   0.530   6.379 -2.8942  1.4495  1.9633
 3168SOL    HW220967   1.313   0.526   6.300 -0.6146 -0.4775  1.3220
 3169SOL     OW20968   3.490   1.800   4.650 -0.7188  0.0953 -0.3533
 3169SOL    HW120969   3.535   1.735   4.596  1.6344  1.9118 -0.5613
 3169SOL    HW220970   3.492   1.755   4.735 -0.6675 -0.4272 -0.6325
 3170SOL     OW20971   0.988   0.795   9.337 -0.1933 -0.6754  0.6089
 3170SOL    HW120972   1.014   0.724   9.278 -1.4511 -0.1965 -0.4906
 3170SOL    HW220973   1.046   0.863   9.302 -0.8936 -0.6920 -0.5591
 3171SOL     OW20974   1.104   0.820   0.421  0.1214 -0.0571 -0.2525
 3171SOL    HW120975   1.073   0.788   0.506 -1.4949  0.9482 -0.4619
 3171SOL    HW220976   1.192   0.783   0.432  1.2808  3.5292  2.6051
 3172SOL     OW20977   1.980   1.909   1.221 -0.6392 -0.0416 -0.9393
 3172SOL    HW120978   2.008   1.880   1.134  1.1664 -2.2910  0.3813
 3172SOL    HW220979   1.992   2.003   1.212 -0.3543 -0.0152 -0.2634
 3173SOL     OW20980   3.571   1.501   4.792  0.3721 -0.1353  0.7703
 3173SOL    HW120981   3.644   1.563   4.794  0.7187 -0.5326  0.4466
 3173SOL    HW220982   3.509   1.539   4.854 -1.7742 -0.6159 -1.0362
 3174SOL     OW20983   2.279   2.989   2.873  0.1760 -0.0583  0.3476
 3174SOL    HW120984   2.319   3.005   2.959 -0.1983  0.5014  0.4223
 3174SOL    HW220985   2.347   3.002   2.807  1.4299  0.2008  1.6757
 3175SOL     OW20986   2.554   0.632   7.620  0.3115 -0.1718  0.2647
 3175SOL    HW120987   2.598   0.716   7.627 -0.3075  0.2452 -0.7996
 3175SOL    HW220988   2.463   0.662   7.611 -0.7242 -3.1435  0.7998
 3176SOL     OW20989   3.095   1.583   8.972  0.3850 -0.0943  0.0890
 3176SOL    HW120990   3.101   1.607   8.880 -0.8765 -0.7093 -0.1586
 3176SOL    HW220991   3.007   1.548   8.982 -0.3828  1.2490 -1.9273
 3177SOL     OW20992   3.837   3.417  10.331  0.0742  0.0514 -0.0402
 3177SOL    HW120993   3.837   3.426  10.426 -0.5188 -2.3494  0.1825
 3177SOL    HW220994   3.768   3.478  10.305  0.6457  0.5986 -0.2663
 3178SOL     OW20995   2.438   0.357   5.784  0.2052  0.3480 -0.5134
 3178SOL    HW120996   2.521   0.342   5.738  0.4395 -2.0070  0.6746
 3178SOL    HW220997   2.404   0.271   5.810 -0.3723  1.1961  1.5379
 3179SOL     OW20998   4.537   0.579  17.690  0.0223 -0.2685  0.1305
 3179SOL    HW120999   4.459   0.557  17.638 -0.0608  2.7150 -1.0327
 3179SOL    HW221000   4.580   0.495   0.012  1.8527  0.7447  0.4564
 3180SOL     OW21001   1.687   2.383   9.005 -0.1265  0.1591  0.4290
 3180SOL    HW121002   1.654   2.471   9.023 -1.0249 -0.3583  1.3238
 3180SOL    HW221003   1.716   2.349   9.090 -1.5738  1.9519  1.6457
 3181SOL     OW21004   2.202   2.019   6.730  0.6125 -0.3663  0.2982
 3181SOL    HW121005   2.113   2.017   6.695 -0.1013 -1.4770  2.2118
 3181SOL    HW221006   2.189   1.951   6.796  1.8349  1.4467  2.3971
 3182SOL     OW21007   4.012   0.172   2.396  0.1954 -1.2493  0.2143
 3182SOL    HW121008   4.015   0.268   2.398 -1.3901 -1.1726 -1.4506
 3182SOL    HW221009   3.928   0.151   2.436 -0.6096  0.6241 -0.4837
 3183SOL     OW21010   4.680   0.289  16.519  0.1607 -0.4174  0.0019
 3183SOL    HW121011   0.036   0.251  16.482  0.8794 -0.2597  1.3854
 3183SOL    HW221012   4.724   0.362  16.563 -1.5407  1.3752 -1.3190
 3184SOL     OW21013   2.332   0.031  12.457 -0.4570  0.6329  0.3431
 3184SOL    HW121014   2.322   0.089  12.382 -1.9527 -0.1227 -0.0462
 3184SOL    HW221015   2.415   0.055  12.497  1.3895 -1.8694 -2.0322
 3185SOL     OW21016   2.339   0.200  12.226  0.3060 -0.2887  0.2605
 3185SOL    HW121017   2.332   0.147  12.148 -2.5238 -0.4406  0.6142
 3185SOL    HW221018   2.412   0.255  12.199  0.2085 -0.3183 -0.0554
 3186SOL     OW21019   3.705   0.451   8.435 -0.7566 -0.5756 -0.0625
 3186SOL    HW121020   3.694   0.399   8.355  1.2875 -0.9491 -0.1083
 3186SOL    HW221021   3.615   0.444   8.467 -0.4918  1.8036  1.1586
 3187SOL     OW21022   4.601   1.694  15.639  0.4656  0.3818 -0.2692
 3187SOL    HW121023   4.569   1.764  15.583 -1.2476  0.3195  0.6309
 3187SOL    HW221024   4.632   1.737  15.719 -0.0802 -0.1214  0.2194
 3188SOL     OW21025   0.440   3.324   6.946 -0.5733 -0.3253 -0.1695
 3188SOL    HW121026   0.451   3.331   6.851 -1.7181  2.1920 -0.1146
 3188SOL    HW221027   0.404   3.410   6.969  1.1850  0.3625 -0.0031
 3189SOL     OW21028   2.821   1.673   4.705 -0.2597 -0.0107  0.3695
 3189SOL    HW121029   2.765   1.749   4.722 -0.9664  0.0630 -2.2889
 3189SOL    HW221030   2.910   1.709   4.701  0.2399 -1.1033  1.5648
 3190SOL     OW21031   1.542   2.063  10.688 -0.3955  0.2811  0.8938
 3190SOL    HW121032   1.553   2.047  10.594  1.1793  1.9842  0.7823
 3190SOL    HW221033   1.538   1.972  10.715 -0.8574 -0.3411 -1.2493
 3191SOL     OW21034   0.788   1.167  17.120  0.1193 -0.3015 -0.4061
 3191SOL    HW121035   0.734   1.228  17.070  1.6521  1.1024 -0.3473
 3191SOL    HW221036   0.795   1.104  17.049  2.0188 -0.8673  0.2835
 3192SOL     OW21037   4.575   2.562   7.173  0.4193 -0.1028  0.2462
 3192SOL    HW121038   4.587   2.584   7.265  0.9028 -0.7374  0.3371
 3192SOL    HW221039   4.665   2.544   7.145  0.9008  0.7777  1.2436
 3193SOL     OW21040   0.120   1.418   5.724  0.7864 -0.0289  0.1466
 3193SOL    HW121041   0.155   1.503   5.696  1.6995 -0.1329  0.9858
 3193SOL    HW221042   0.128   1.416   5.819 -1.3788 -0.2414  0.3068
 3194SOL     OW21043   2.900   2.451  17.596  0.6895  0.1295  0.2617
 3194SOL    HW121044   2.935   2.531  17.634 -0.9801  1.7372 -1.5748
 3194SOL    HW221045   2.924   2.461  17.504  2.2392  0.2675  0.6844
 3195SOL     OW21046   2.347   1.177   2.166  0.0639  0.0051  0.2654
 3195SOL    HW121047   2.400   1.122   2.223 -1.3032 -2.3986 -0.8014
 3195SOL    HW221048   2.279   1.120   2.131  0.0845 -0.0644  0.3399
 3196SOL     OW21049   3.778   3.938   8.801  0.4359 -0.5147  0.1232
 3196SOL    HW121050   3.753   3.879   8.872 -0.3573  0.4017  0.6129
 3196SOL    HW221051   3.690   3.975   8.791  0.2463 -0.9720  0.1054
 3197SOL     OW21052   2.767   4.496   2.659  0.1045 -0.0744  0.1790
 3197SOL    HW121053   2.751   4.501   2.754 -2.7951  0.0695 -0.2994
 3197SOL    HW221054   2.681   4.503   2.617 -0.2953 -1.0383  0.8239
 3198SOL     OW21055   3.062   1.514  16.286  0.4937 -0.0565 -0.5028
 3198SOL    HW121056   3.115   1.491  16.361  0.0488  3.3207  0.8531
 3198SOL    HW221057   2.991   1.454  16.308 -0.3248  1.0384 -0.1035
 3199SOL     OW21058   3.901   4.579   0.326 -0.0031  0.1508  0.4684
 3199SOL    HW121059   3.890   4.591   0.231 -0.1203 -0.5151  0.4012
 3199SOL    HW221060   3.986   4.536   0.339  1.0412  1.4711 -1.8498
 3200SOL     OW21061   0.129   1.830  13.097 -0.3149  0.2683 -1.1082
 3200SOL    HW121062   0.054   1.787  13.137 -1.1630  1.6009 -1.2742
 3200SOL    HW221063   0.097   1.859  13.012  1.2175  0.5343 -1.5966
 3201SOL     OW21064   3.951   0.188   8.441 -0.2771  0.4304  0.1475
 3201SOL    HW121065   4.006   0.205   8.518 -1.0686  1.0229  0.5919
 3201SOL    HW221066   3.872   0.150   8.481 -2.1507  2.0398 -2.0316
 3202SOL     OW21067   4.713   3.539   4.489 -0.5337  0.1351 -0.2573
 3202SOL    HW121068   0.023   3.629   4.482 -1.4151  0.6008  1.4551
 3202SOL    HW221069   4.701   3.522   4.396 -0.9172 -3.2356  0.4158
 3203SOL     OW21070   0.348   3.555   6.332  0.0137  0.1970 -0.1275
 3203SOL    HW121071   0.434   3.596   6.339  0.0351 -0.1764  1.8059
 3203SOL    HW221072   0.364   3.462   6.318 -1.6755 -0.0861 -0.1937
 3204SOL     OW21073   2.237   1.380   6.100 -0.1756 -0.4957 -0.3555
 3204SOL    HW121074   2.186   1.300   6.091  0.3160 -0.8985  0.4266
 3204SOL    HW221075   2.202   1.421   6.179  0.4838  0.5077 -0.5915
 3205SOL     OW21076   3.914   2.681   8.202  0.0169  0.1910 -0.7734
 3205SOL    HW121077   3.854   2.752   8.227  1.0071  1.2378 -1.3717
 3205SOL    HW221078   3.869   2.635   8.131 -0.2062  0.7768 -1.0182
 3206SOL     OW21079   4.631   2.890   4.411  0.4452 -0.2231 -0.2072
 3206SOL    HW121080   4.715   2.924   4.442  0.2816 -0.3286  0.3475
 3206SOL    HW221081   4.575   2.934   4.475  0.0563  2.0376 -2.0804
 3207SOL     OW21082   0.404   0.614   6.318 -0.2819 -0.2541 -0.1568
 3207SOL    HW121083   0.391   0.520   6.304 -0.3133 -0.1099 -1.0876
 3207SOL    HW221084   0.389   0.621   6.412 -0.3941 -2.1278 -0.0426
 3208SOL     OW21085   2.875   2.034   5.079 -0.4327  0.1156 -0.1179
 3208SOL    HW121086   2.785   2.020   5.109 -1.2465  2.2798 -1.5478
 3208SOL    HW221087   2.867   2.092   5.003 -0.3914 -0.5033 -0.5970
 3209SOL     OW21088   1.250   2.953   6.805 -0.5830 -0.2619  0.0165
 3209SOL    HW121089   1.197   3.032   6.812 -0.4506 -0.3392  2.0587
 3209SOL    HW221090   1.319   2.970   6.870 -0.9166  0.0450  0.2870
 3210SOL     OW21091   3.723   0.085   7.422  0.2861 -0.0812 -0.1353
 3210SOL    HW121092   3.809   0.054   7.451 -1.0548 -0.0847  3.8487
 3210SOL    HW221093   3.722   0.166   7.474  0.0180 -0.3162  0.2272
 3211SOL     OW21094   2.352   0.905   6.469 -0.0029  0.3831  0.5040
 3211SOL    HW121095   2.379   0.874   6.555 -2.3379 -0.5510  0.9144
 3211SOL    HW221096   2.432   0.914   6.417 -1.6494  1.5048 -1.8179
 3212SOL     OW21097   4.380   3.329   0.078  0.1495  0.0494  0.2581
 3212SOL    HW121098   4.451   3.343   0.016 -0.5373 -0.8994 -0.7748
 3212SOL    HW221099   4.344   3.417   0.091 -0.8080  0.0328 -2.1802
 3213SOL     OW21100   4.194   4.463   9.585 -0.2646 -0.3489  0.6844
 3213SOL    HW121101   4.251   4.462   9.508 -0.6049 -2.3460  0.4558
 3213SOL    HW221102   4.241   4.536   9.624  0.5896 -0.2219 -0.5747
 3214SOL     OW21103   2.554   1.501   4.424  0.1420 -0.0124  0.1407
 3214SOL    HW121104   2.523   1.413   4.404  0.5101 -0.0966 -0.0816
 3214SOL    HW221105   2.643   1.475   4.448 -0.7595 -0.6804  2.7889
 3215SOL     OW21106   0.608   2.546   3.958  0.6075  0.1380  0.1723
 3215SOL    HW121107   0.533   2.606   3.955  2.2546  2.0859 -2.4892
 3215SOL    HW221108   0.685   2.603   3.949 -1.2109  2.5428 -0.2605
 3216SOL     OW21109   3.191   4.658   7.986 -0.3096 -0.0744 -0.1247
 3216SOL    HW121110   3.207   4.565   7.972 -0.0696  0.2220 -1.7609
 3216SOL    HW221111   3.215   4.703   7.905  2.5043 -0.1903  0.6263
 3217SOL     OW21112   1.679   2.711   2.534 -0.1278 -0.2289  0.5175
 3217SOL    HW121113   1.682   2.790   2.479 -0.4801  1.0954  2.4118
 3217SOL    HW221114   1.714   2.645   2.474 -0.1537  0.3300 -0.1179
 3218SOL     OW21115   1.116   2.262   4.296  0.0157 -0.3871  0.1873
 3218SOL    HW121116   1.202   2.276   4.256 -0.1149  1.1182  0.4384
 3218SOL    HW221117   1.128   2.308   4.379  0.7303  0.1356 -0.2092
 3219SOL     OW21118   4.294   4.701  11.828  0.6739  0.1961  0.9210
 3219SOL    HW121119   4.358   0.047  11.842  1.8147 -0.2772 -1.9943
 3219SOL    HW221120   4.220   0.034  11.806 -0.2689 -2.5641 -3.0023
 3220SOL     OW21121   3.477   0.127   0.803 -0.2837  0.0351  0.1812
 3220SOL    HW121122   3.496   0.116   0.897 -0.7906 -1.4001  0.1183
 3220SOL    HW221123   3.562   0.157   0.769 -0.6135  0.3547 -0.3532
 3221SOL     OW21124   4.699   3.574   3.195 -0.1966  0.4256 -0.2848
 3221SOL    HW121125   0.040   3.605   3.132 -0.9975 -0.4504 -1.5277
 3221SOL    HW221126   0.002   3.619   3.275  1.1228  0.8899 -0.9977
 3222SOL     OW21127   2.962   4.446   4.472 -0.1322  0.3025  0.1724
 3222SOL    HW121128   2.919   4.409   4.395 -1.3359 -2.0087  1.9314
 3222SOL    HW221129   2.996   4.368   4.516  0.1181 -0.7451 -1.8968
 3223SOL     OW21130   4.599   0.163  12.380 -0.2584 -0.5151 -0.2296
 3223SOL    HW121131   4.552   0.219  12.442 -0.6330 -2.5751  1.3308
 3223SOL    HW221132   4.572   0.075  12.406 -1.8083 -0.0609 -0.3530
 3224SOL     OW21133   2.220   3.759  17.452 -0.6619  0.0796  0.1792
 3224SOL    HW121134   2.263   3.843  17.467 -0.9594  0.3034 -0.2103
 3224SOL    HW221135   2.263   3.701  17.515  1.9644  0.9146 -0.8539
 3225SOL     OW21136   4.333   0.322   2.892  0.1025 -0.2968 -0.6061
 3225SOL    HW121137   4.351   0.409   2.929  0.9791 -0.8736  0.2975
 3225SOL    HW221138   4.329   0.356   2.803  0.9452  0.4612 -0.3571
 3226SOL     OW21139   3.469   3.341   1.963  0.1623 -0.7609  0.2568
 3226SOL    HW121140   3.462   3.350   1.868 -1.3580 -2.2294  0.2323
 3226SOL    HW221141   3.389   3.290   1.977 -1.5916  1.7439 -0.5044
 3227SOL     OW21142   2.050   0.003  15.270  0.0778 -0.0699  0.4667
 3227SOL    HW121143   1.970   4.681  15.244 -0.6606  0.6262  1.5686
 3227SOL    HW221144   2.026   0.061  15.342  1.2831  0.2495  0.6160
 3228SOL     OW21145   2.568   1.678   6.687 -0.4648  0.2110 -0.1660
 3228SOL    HW121146   2.556   1.623   6.609 -2.3077  1.6972 -0.9217
 3228SOL    HW221147   2.494   1.731   6.658 -0.9314  0.5586  1.6937
 3229SOL     OW21148   4.505   2.319   3.589  0.5438  0.3464  0.3348
 3229SOL    HW121149   4.462   2.379   3.528  0.7030 -0.5221 -0.6341
 3229SOL    HW221150   4.573   2.283   3.532 -1.5255 -1.3082 -1.0509
 3230SOL     OW21151   3.503   1.949   2.355 -0.0370 -0.3183 -0.4804
 3230SOL    HW121152   3.537   1.892   2.286 -0.9957 -0.6022 -0.7147
 3230SOL    HW221153   3.477   1.878   2.413  1.2577 -1.2750 -1.0797
 3231SOL     OW21154   4.260   4.595   9.244 -0.3426  0.0094 -0.8306
 3231SOL    HW121155   4.327   4.573   9.308  0.1837  0.0547 -1.3593
 3231SOL    HW221156   4.186   4.634   9.291 -0.0089 -3.9879  2.9448
 3232SOL     OW21157   0.531   0.765  17.655  0.0857  0.3956  0.7479
 3232SOL    HW121158   0.621   0.781  17.626 -0.0937  1.2821  0.6842
 3232SOL    HW221159   0.552   0.770   0.052 -0.7901  1.0829  0.9139
 3233SOL     OW21160   3.801   0.335  11.590  0.4890  0.0971  0.4485
 3233SOL    HW121161   3.712   0.314  11.562  0.6547  1.4849 -1.0980
 3233SOL    HW221162   3.823   0.254  11.635  1.0052  0.5868  1.0772
 3234SOL     OW21163   1.426   2.483  11.713 -0.0743 -0.0398 -0.0628
 3234SOL    HW121164   1.422   2.388  11.703  0.7612 -0.0546 -0.2276
 3234SOL    HW221165   1.516   2.491  11.746  0.4101  0.7658 -1.5903
 3235SOL     OW21166   1.822   1.103  16.910  0.0137 -0.4147  0.1206
 3235SOL    HW121167   1.861   1.125  16.994  2.0194 -0.1591 -0.8638
 3235SOL    HW221168   1.786   1.188  16.887 -1.0102 -0.7717  0.4232
 3236SOL     OW21169   3.199   0.586  15.945  0.5698  0.2410  0.4876
 3236SOL    HW121170   3.181   0.493  15.952 -2.3535  0.6761 -0.8884
 3236SOL    HW221171   3.122   0.606  15.890  1.4324 -0.5702 -1.0138
 3237SOL     OW21172   2.753   4.683   0.217  0.0736  0.1640  0.1184
 3237SOL    HW121173   2.810   4.668   0.293  1.6663  1.7395 -0.7763
 3237SOL    HW221174   2.686   4.614   0.225  1.9869 -1.7823 -0.5490
 3238SOL     OW21175   3.511   1.515   4.516  0.3983  1.2691  0.1922
 3238SOL    HW121176   3.543   1.475   4.597 -1.0103  0.2280  0.2409
 3238SOL    HW221177   3.434   1.464   4.490  2.0349 -1.3512  0.4343
 3239SOL     OW21178   4.078   0.844   3.302  0.1931 -0.5267 -0.1522
 3239SOL    HW121179   4.093   0.937   3.319 -1.4968  0.0022 -1.5719
 3239SOL    HW221180   4.118   0.827   3.216 -1.4602 -1.2171 -0.7767
 3240SOL     OW21181   2.814   2.001   6.792 -0.2974  0.0982 -0.0938
 3240SOL    HW121182   2.845   2.016   6.882  0.7132  0.3812 -0.4887
 3240SOL    HW221183   2.892   2.025   6.741 -0.2883 -0.6866 -0.4502
 3241SOL     OW21184   2.794   4.416   3.413 -0.1695 -0.0429  0.6298
 3241SOL    HW121185   2.878   4.453   3.385 -0.1872 -0.8214 -0.4625
 3241SOL    HW221186   2.796   4.440   3.505 -2.6681  0.2493  0.6320
 3242SOL     OW21187   2.083   0.274  17.377  0.3234  0.3807 -0.1703
 3242SOL    HW121188   2.059   0.316  17.294 -1.3704 -1.1997 -0.4833
 3242SOL    HW221189   1.996   0.235  17.383  1.6395 -2.2613  2.0226
 3243SOL     OW21190   3.425   3.727  12.998  0.3466 -0.2223  0.4754
 3243SOL    HW121191   3.374   3.670  12.940  1.4835  0.4399 -1.1857
 3243SOL    HW221192   3.356   3.761  13.054 -0.7945  0.7265 -1.5054
 3244SOL     OW21193   1.115   2.000  12.540 -0.5619  0.6434  0.0850
 3244SOL    HW121194   1.185   2.029  12.482  1.5002  0.9517  2.7333
 3244SOL    HW221195   1.045   2.058  12.513 -1.5434  0.3052  1.9133
 3245SOL     OW21196   4.163   0.688   8.818  0.1072 -0.3788  0.1495
 3245SOL    HW121197   4.151   0.608   8.869  2.0300  0.4761  1.9525
 3245SOL    HW221198   4.156   0.655   8.728  1.1533  2.9403 -1.1491
 3246SOL     OW21199   1.452   0.106   6.399  0.3963  0.3764  0.3422
 3246SOL    HW121200   1.535   0.065   6.375  1.1240  1.2991  1.3272
 3246SOL    HW221201   1.473   0.175   6.461  0.9988  0.8930 -0.4390
 3247SOL     OW21202   1.742   4.120  17.342 -0.2436  0.0928  0.2533
 3247SOL    HW121203   1.702   4.037  17.315  0.5790  0.2181 -1.3914
 3247SOL    HW221204   1.721   4.165  17.260 -0.7015 -0.3682  0.1095
 3248SOL     OW21205   0.180   1.939   6.154  0.3640 -0.2392 -0.2062
 3248SOL    HW121206   0.159   1.913   6.244 -2.5154 -1.5912 -1.2328
 3248SOL    HW221207   0.273   1.956   6.161 -0.0308  1.3640  1.0549
 3249SOL     OW21208   0.386   3.560   0.284 -0.5409  0.2872  0.1867
 3249SOL    HW121209   0.353   3.603   0.205  0.7895 -0.2308 -0.6554
 3249SOL    HW221210   0.479   3.558   0.261 -0.2369  2.5145  1.2172
 3250SOL     OW21211   2.053   4.222   1.812 -0.0628  0.0549  0.1902
 3250SOL    HW121212   2.090   4.134   1.804  1.1724  0.6794 -0.7993
 3250SOL    HW221213   2.121   4.286   1.795 -2.2967  3.1700  2.8891
 3251SOL     OW21214   4.004   4.576   1.118  0.9333  0.7369  0.7020
 3251SOL    HW121215   4.003   4.652   1.060  1.8095  1.4878  1.6652
 3251SOL    HW221216   4.068   4.610   1.182  1.4178  2.0248 -0.4629
 3252SOL     OW21217   1.186   2.177   7.017  0.1855  0.5074  0.0661
 3252SOL    HW121218   1.269   2.194   7.063 -0.7910  0.9032  1.7007
 3252SOL    HW221219   1.144   2.263   7.021 -0.7431  0.0245  0.6226
 3253SOL     OW21220   0.046   2.309   5.100  0.2669  0.2461 -0.2203
 3253SOL    HW121221   4.700   2.314   5.034 -0.6549  0.1342  0.7567
 3253SOL    HW221222   0.047   2.398   5.135  0.1040 -0.7892  2.4177
 3254SOL     OW21223   4.644   2.635  17.138 -0.3782  0.2824  0.1514
 3254SOL    HW121224   4.671   2.549  17.108 -1.4419 -0.5701  1.6242
 3254SOL    HW221225   4.629   2.610  17.230  1.9043 -1.1809  0.1243
 3255SOL     OW21226   1.163   0.739  10.947  0.1785  0.0208  0.0832
 3255SOL    HW121227   1.215   0.660  10.933 -0.4580 -0.2726 -0.6668
 3255SOL    HW221228   1.116   0.743  10.864  0.0998  1.7713  0.2239
 3256SOL     OW21229   1.592   3.441  14.905  0.2943 -0.3928  0.2723
 3256SOL    HW121230   1.604   3.531  14.876 -0.4165  0.3952  2.3999
 3256SOL    HW221231   1.684   3.424  14.928  0.7657 -0.0224 -1.3521
 3257SOL     OW21232   0.480   0.919   8.896 -0.4347 -0.4851 -0.4800
 3257SOL    HW121233   0.552   0.979   8.879 -0.5712 -0.2379 -0.1827
 3257SOL    HW221234   0.473   0.915   8.991  0.2928  0.8567 -0.3708
 3258SOL     OW21235   2.515   1.080   1.693 -0.0257  0.3364  0.4090
 3258SOL    HW121236   2.540   1.166   1.727  0.7031  0.5311 -0.6259
 3258SOL    HW221237   2.593   1.043   1.652 -0.1584  0.6946 -0.1679
 3259SOL     OW21238   0.476   1.408   8.360  0.1385  0.4412  0.0674
 3259SOL    HW121239   0.409   1.342   8.379 -0.9775  0.8589 -2.5181
 3259SOL    HW221240   0.408   1.465   8.325  0.5794  1.4183  0.8082
 3260SOL     OW21241   2.836   2.750   2.452 -0.2754 -0.1205  0.6889
 3260SOL    HW121242   2.847   2.813   2.381 -3.0783 -1.8750 -1.3079
 3260SOL    HW221243   2.829   2.665   2.409 -1.5703  0.1413  0.3666
 3261SOL     OW21244   4.216   1.214   5.024 -0.2411  0.1068 -0.0755
 3261SOL    HW121245   4.299   1.191   4.984  1.2055  2.6963  1.3897
 3261SOL    HW221246   4.159   1.242   4.952  1.5471  1.5979 -0.9093
 3262SOL     OW21247   3.087   2.333   2.757 -0.0780  0.0054 -0.5292
 3262SOL    HW121248   3.178   2.323   2.727  0.2325 -0.9586  0.7375
 3262SOL    HW221249   3.069   2.423   2.729 -1.0389  0.2767  0.9730
 3263SOL     OW21250   0.272   3.013   8.305  0.4171  0.2948 -0.2474
 3263SOL    HW121251   0.303   3.064   8.380  0.6390 -0.5051  0.2052
 3263SOL    HW221252   0.308   3.071   8.237 -0.9017  0.7758 -0.5314
 3264SOL     OW21253   0.798   3.357   1.925 -0.4371 -0.6345  0.5777
 3264SOL    HW121254   0.715   3.317   1.898 -0.7779  0.0618  0.5749
 3264SOL    HW221255   0.780   3.381   2.016 -0.9037 -3.2858  1.1917
 3265SOL     OW21256   1.140   3.215   4.208 -0.0876  0.0303 -0.2920
 3265SOL    HW121257   1.137   3.146   4.142  0.1142  1.9226 -2.2660
 3265SOL    HW221258   1.183   3.172   4.282 -1.7203  2.6040  2.1208
 3266SOL     OW21259   2.834   2.435   5.421 -0.2870 -0.1066  0.5515
 3266SOL    HW121260   2.900   2.474   5.477 -1.5218 -0.5909  2.3371
 3266SOL    HW221261   2.895   2.379   5.373  1.3113  0.9248  1.3902
 3267SOL     OW21262   0.612   0.870   3.833  0.4432  0.1845 -0.5591
 3267SOL    HW121263   0.636   0.936   3.768  0.3951  1.6919  0.9441
 3267SOL    HW221264   0.579   0.921   3.907  1.2172 -1.1464  0.6987
 3268SOL     OW21265   3.596   1.706   8.191  0.4923  0.3983  0.0014
 3268SOL    HW121266   3.664   1.702   8.124  0.0864 -1.3245 -0.3098
 3268SOL    HW221267   3.511   1.702   8.146  1.1794  0.6765 -1.3366
 3269SOL     OW21268   3.111   3.942   0.242  0.6214 -0.4975 -0.1785
 3269SOL    HW121269   3.110   3.987   0.157 -4.0986  1.4013  0.8953
 3269SOL    HW221270   3.139   3.855   0.216 -0.6735 -1.6181  2.2474
 3270SOL     OW21271   0.760   3.835   7.600  0.2823 -0.3239  0.2300
 3270SOL    HW121272   0.803   3.762   7.644 -0.4845 -1.1554 -0.4112
 3270SOL    HW221273   0.764   3.904   7.666 -0.5307  1.5715 -1.6807
 3271SOL     OW21274   4.174   2.675   1.697  0.4839  0.6576 -0.2871
 3271SOL    HW121275   4.147   2.586   1.718 -0.0502  0.6391 -1.0372
 3271SOL    HW221276   4.200   2.666   1.605  0.0418 -0.0209 -0.3427
 3272SOL     OW21277   4.006   1.158  15.968  0.1349  0.4206 -0.1613
 3272SOL    HW121278   4.084   1.189  15.924 -0.4006  0.0614 -1.3574
 3272SOL    HW221279   3.936   1.207  15.926 -2.0018 -1.1734  1.4620
 3273SOL     OW21280   1.330   2.193   6.633  0.3160  0.5231  0.2073
 3273SOL    HW121281   1.393   2.170   6.702 -1.1171  0.2406  1.4128
 3273SOL    HW221282   1.359   2.135   6.563  0.6815  0.5022  0.3758
 3274SOL     OW21283   4.273   3.651   6.528 -0.2330  0.3813 -0.3302
 3274SOL    HW121284   4.295   3.717   6.594  1.2652 -0.6766  0.2202
 3274SOL    HW221285   4.339   3.678   6.464  0.9134 -1.2683  0.1686
 3275SOL     OW21286   0.606   3.023   1.373 -0.8742  0.6009 -0.1750
 3275SOL    HW121287   0.658   2.974   1.309 -2.7174 -1.3515 -0.1544
 3275SOL    HW221288   0.615   3.109   1.330  2.0904 -0.0037 -0.8190
 3276SOL     OW21289   4.044   1.804   4.935 -0.8843  0.2044  0.0442
 3276SOL    HW121290   4.112   1.751   4.976 -0.2973  0.4359 -0.6202
 3276SOL    HW221291   3.975   1.781   4.997 -0.8593  1.1827  0.4365
 3277SOL     OW21292   0.988   3.355  10.048 -0.1674  0.2945  0.0516
 3277SOL    HW121293   1.067   3.400  10.019  0.1000 -0.0775  0.2114
 3277SOL    HW221294   0.930   3.430  10.033  0.4507  0.3620 -1.9479
 3278SOL     OW21295   3.579   1.879   6.409  0.1433  0.0089 -0.2370
 3278SOL    HW121296   3.670   1.877   6.380 -0.2909  0.3134 -1.6135
 3278SOL    HW221297   3.597   1.934   6.485 -2.2105  3.0741 -1.9295
 3279SOL     OW21298   2.996   2.735  17.696 -0.0452  0.0155 -0.2868
 3279SOL    HW121299   3.006   2.800   0.069 -0.3226 -0.9248  0.6381
 3279SOL    HW221300   3.032   2.778  17.618 -0.2763  0.8605  0.0676
 3280SOL     OW21301   1.080   4.301   4.201 -0.1507 -0.3053  0.2048
 3280SOL    HW121302   0.986   4.315   4.216 -0.3394 -1.2733 -0.0695
 3280SOL    HW221303   1.082   4.306   4.105 -1.6752 -0.2021  0.1814
 3281SOL     OW21304   1.747   4.132   6.127  0.2927 -0.1855 -1.1920
 3281SOL    HW121305   1.675   4.128   6.189  1.6848  0.7826  0.5055
 3281SOL    HW221306   1.713   4.213   6.088 -0.4191 -0.4876 -1.1793
 3282SOL     OW21307   3.964   4.576   7.842  0.0610  0.7713 -0.4602
 3282SOL    HW121308   3.946   4.483   7.858  0.8000  0.9697  1.4223
 3282SOL    HW221309   3.897   4.618   7.894  0.9807  3.2888 -1.3010
 3283SOL     OW21310   1.490   2.570  16.096  0.6999  0.2175  0.2456
 3283SOL    HW121311   1.505   2.527  16.181 -0.4503 -0.2606  0.2027
 3283SOL    HW221312   1.575   2.608  16.074  0.6429 -0.0099 -0.3473
 3284SOL     OW21313   2.818   1.126   5.567  0.3848 -0.0762 -0.4680
 3284SOL    HW121314   2.750   1.068   5.600 -0.0165  0.5592 -0.1740
 3284SOL    HW221315   2.794   1.132   5.474 -0.1248 -2.0670 -0.4635
 3285SOL     OW21316   4.087   4.517   5.701 -0.0309 -0.5142 -0.8382
 3285SOL    HW121317   4.029   4.593   5.701 -0.3597 -0.7394  1.6274
 3285SOL    HW221318   4.030   4.455   5.656  0.1454 -0.9862 -0.4190
 3286SOL     OW21319   2.672   2.247   3.586  0.4184  0.0153  0.2440
 3286SOL    HW121320   2.703   2.334   3.613 -0.5730  1.3061 -2.8208
 3286SOL    HW221321   2.646   2.253   3.494  0.4536  1.3817  0.3264
 3287SOL     OW21322   4.390   3.592   9.258 -0.4765  0.3452 -0.5529
 3287SOL    HW121323   4.426   3.603   9.346  3.2862 -1.0948 -1.9115
 3287SOL    HW221324   4.423   3.508   9.227  2.1412  0.8020  0.9223
 3288SOL     OW21325   0.163   2.114  13.047 -0.3661 -0.5349  0.2991
 3288SOL    HW121326   0.254   2.142  13.048 -0.3216 -0.4759 -3.5334
 3288SOL    HW221327   0.148   2.056  13.122 -3.0897  0.5380  0.5941
 3289SOL     OW21328   3.593   2.833   4.652  0.7245 -0.1235  0.3780
 3289SOL    HW121329   3.499   2.840   4.673  0.4466  0.3475 -1.0022
 3289SOL    HW221330   3.579   2.862   4.561  0.4093 -0.4302  0.3303
 3290SOL     OW21331   4.225   3.176   3.897 -0.0224 -0.0890  0.2917
 3290SOL    HW121332   4.300   3.116   3.905  1.0298  0.8186 -2.6450
 3290SOL    HW221333   4.191   3.181   3.987 -0.3183 -0.0007  0.1729
 3291SOL     OW21334   4.510   0.998   6.390  0.3574 -0.0841 -0.0017
 3291SOL    HW121335   4.576   1.058   6.425  0.6224 -0.1567 -0.3730
 3291SOL    HW221336   4.432   1.036   6.430  0.7906  1.4942 -0.6814
 3292SOL     OW21337   3.580   0.885   5.740 -0.0619 -0.0005 -0.0230
 3292SOL    HW121338   3.533   0.917   5.663  0.0258  1.6611  0.5995
 3292SOL    HW221339   3.549   0.948   5.806  2.1230 -0.0847  1.0689
 3293SOL     OW21340   3.706   4.440   7.996  1.0082  0.2280 -0.1503
 3293SOL    HW121341   3.677   4.356   7.959 -0.9141  1.5101 -1.5676
 3293SOL    HW221342   3.635   4.494   7.961 -1.3031 -2.7599 -0.0142
 3294SOL     OW21343   0.662   4.425   5.123 -0.2935  0.0470  0.0676
 3294SOL    HW121344   0.650   4.354   5.186 -0.3432 -0.4030 -0.4487
 3294SOL    HW221345   0.582   4.478   5.129 -0.3309 -0.1213  1.0590
 3295SOL     OW21346   3.861   3.044   6.537  0.2906  0.0888  0.1764
 3295SOL    HW121347   3.945   3.030   6.492 -1.6073  0.2551 -3.4358
 3295SOL    HW221348   3.852   2.953   6.568  0.4607  0.4619  1.3130
 3296SOL     OW21349   3.518   1.495  16.633  0.5020 -0.2047 -0.0338
 3296SOL    HW121350   3.456   1.516  16.703  0.0336 -1.8480  0.0455
 3296SOL    HW221351   3.538   1.404  16.655  1.5934 -0.0413 -0.3897
 3297SOL     OW21352   2.642   4.712   4.570  0.4465 -0.2786  0.4553
 3297SOL    HW121353   2.559   0.031   4.548  0.9191  1.2711  1.6471
 3297SOL    HW221354   2.701   0.064   4.561 -0.2850  0.3197  0.7728
 3298SOL     OW21355   0.554   3.626   6.860 -0.1885  0.3684 -0.1240
 3298SOL    HW121356   0.607   3.691   6.814  1.2086 -2.0755 -2.0244
 3298SOL    HW221357   0.487   3.600   6.796  0.6260 -2.7057  0.2886
 3299SOL     OW21358   0.807   4.465   3.037 -0.3971 -0.4023 -0.4177
 3299SOL    HW121359   0.776   4.428   3.120  0.0717 -1.8460 -0.8900
 3299SOL    HW221360   0.769   4.553   3.044  0.6862  0.0773 -0.5127
 3300SOL     OW21361   0.984   3.071   5.357  0.2513  0.8470  0.2836
 3300SOL    HW121362   1.014   3.029   5.437 -2.3469 -2.6855 -0.6094
 3300SOL    HW221363   0.923   3.140   5.384  1.2698  1.4989  0.9062
 3301SOL     OW21364   2.546   1.943   1.609 -0.3405 -0.1341  0.4295
 3301SOL    HW121365   2.566   1.985   1.525 -0.7677 -2.6105 -0.8790
 3301SOL    HW221366   2.451   1.931   1.604 -0.3699 -0.1675  1.1576
 3302SOL     OW21367   4.523   4.310   0.748 -0.4299  0.5660  0.0998
 3302SOL    HW121368   4.446   4.253   0.742 -1.7055  2.2404  0.4862
 3302SOL    HW221369   4.599   4.254   0.733 -2.4102 -2.2600  0.5676
 3303SOL     OW21370   1.035   0.824  10.732 -0.2715  0.1586 -0.0663
 3303SOL    HW121371   0.967   0.800  10.668 -0.8909  1.1061  0.2441
 3303SOL    HW221372   1.013   0.916  10.741 -0.8745  0.1157 -1.0224
 3304SOL     OW21373   3.805   3.250   8.120  0.4411 -0.2987  0.2854
 3304SOL    HW121374   3.755   3.169   8.110  1.0145 -0.5352 -0.6024
 3304SOL    HW221375   3.898   3.230   8.116  0.9357  2.7030 -3.4357
 3305SOL     OW21376   3.394   4.285   5.395 -0.2995 -0.0601 -0.0740
 3305SOL    HW121377   3.470   4.315   5.345  0.7441  1.4318  2.3844
 3305SOL    HW221378   3.420   4.297   5.487  0.8933  0.1947 -0.4456
 3306SOL     OW21379   3.832   4.215  17.664  0.2209 -0.3639 -0.1707
 3306SOL    HW121380   3.741   4.186  17.671  0.0899 -0.3498 -1.7213
 3306SOL    HW221381   3.840   4.213  17.568  1.4223  0.1106 -0.0745
 3307SOL     OW21382   0.617   0.615  14.085 -0.5067 -0.0913  0.0395
 3307SOL    HW121383   0.658   0.698  14.107  0.7532 -0.4698 -0.9136
 3307SOL    HW221384   0.560   0.655  14.019  1.2336  2.1686 -0.0502
 3308SOL     OW21385   4.353   4.437  16.465  0.0568 -0.3584  0.0764
 3308SOL    HW121386   4.371   4.449  16.558 -0.0887 -1.3352  0.2386
 3308SOL    HW221387   4.268   4.480  16.456  0.0193 -0.8727 -1.9701
 3309SOL     OW21388   0.760   2.976   9.377  0.1094 -0.9053 -0.2097
 3309SOL    HW121389   0.770   2.892   9.332 -0.3422 -0.8408 -0.4215
 3309SOL    HW221390   0.669   2.983   9.350  0.6762  0.7922 -1.6005
 3310SOL     OW21391   2.414   2.727   6.678  0.1122 -0.0571  0.6097
 3310SOL    HW121392   2.402   2.719   6.584  1.8456  0.1155  0.3753
 3310SOL    HW221393   2.505   2.699   6.695 -0.1848 -1.0741  0.5619
 3311SOL     OW21394   0.978   0.884   6.051  0.0088  0.2867  0.6189
 3311SOL    HW121395   1.041   0.888   6.124  0.7545 -0.1846  0.0091
 3311SOL    HW221396   1.012   0.954   5.997  1.6470 -1.8974 -1.1902
 3312SOL     OW21397   2.507   1.739   4.574 -0.0939 -0.3511 -0.3920
 3312SOL    HW121398   2.514   1.665   4.514  1.3092 -0.0798 -0.5597
 3312SOL    HW221399   2.515   1.684   4.652  1.2233  0.2040 -0.1537
 3313SOL     OW21400   1.527   1.321  10.857 -0.1700 -0.7108 -0.6867
 3313SOL    HW121401   1.434   1.301  10.865  0.2355 -2.4129 -0.2572
 3313SOL    HW221402   1.531   1.344  10.764 -1.2858 -2.0846 -1.0673
 3314SOL     OW21403   3.365   3.492   0.391  0.1869  0.1545  0.5131
 3314SOL    HW121404   3.365   3.422   0.325 -1.4611 -1.6566  2.4120
 3314SOL    HW221405   3.276   3.467   0.417  0.1055 -0.8748 -0.7305
 3315SOL     OW21406   2.950   1.390   5.841 -0.3768  0.3779 -0.0235
 3315SOL    HW121407   2.997   1.471   5.820 -3.6228  2.5984  1.2035
 3315SOL    HW221408   2.895   1.393   5.763 -1.5305 -1.2048  0.7522
 3316SOL     OW21409   3.658   0.735   7.742 -0.2091 -0.0812 -0.1212
 3316SOL    HW121410   3.745   0.747   7.781 -0.1757  1.7925 -0.8128
 3316SOL    HW221411   3.597   0.788   7.793 -0.4599 -1.2557  0.8185
 3317SOL     OW21412   4.308   3.174   0.669 -0.3122 -0.2299  0.3578
 3317SOL    HW121413   4.233   3.232   0.663 -0.6212 -0.9898 -3.3009
 3317SOL    HW221414   4.280   3.144   0.755 -1.4580 -0.2936 -0.0352
 3318SOL     OW21415   0.367   1.979  12.576  0.1994 -0.2596  0.3529
 3318SOL    HW121416   0.311   1.926  12.519 -0.2579 -0.0560  0.6176
 3318SOL    HW221417   0.418   1.912  12.621  0.1510 -0.4546  0.1217
 3319SOL     OW21418   2.051   2.763   7.389  0.1294 -0.2153 -0.4898
 3319SOL    HW121419   2.113   2.722   7.329  1.9081 -0.0177  1.2543
 3319SOL    HW221420   2.056   2.856   7.368 -2.4413  0.5616  2.3317
 3320SOL     OW21421   4.569   0.992   2.375 -0.0297 -0.1002 -0.4359
 3320SOL    HW121422   4.606   0.947   2.450  3.1990  1.9378 -0.7928
 3320SOL    HW221423   4.515   0.923   2.336  1.1491 -1.6733  0.7298
 3321SOL     OW21424   3.125   0.858   0.899  0.2461  0.2025 -0.7745
 3321SOL    HW121425   3.154   0.899   0.817 -1.9612 -0.6752 -1.9883
 3321SOL    HW221426   3.135   0.934   0.957  0.5176 -1.0243  0.7790
 3322SOL     OW21427   3.516   0.845  16.893 -0.1501  0.3578  0.4573
 3322SOL    HW121428   3.567   0.901  16.836 -0.9187  0.5317 -0.0614
 3322SOL    HW221429   3.452   0.809  16.831 -2.1024  3.7696  0.4864
 3323SOL     OW21430   2.770   2.581  14.225 -0.0158  0.2976  1.1305
 3323SOL    HW121431   2.797   2.579  14.133  0.2464  1.5460  1.1877
 3323SOL    HW221432   2.731   2.494  14.237 -0.2294  0.2075 -0.2084
 3324SOL     OW21433   1.044   2.403  12.921  0.6816  0.1368 -0.1367
 3324SOL    HW121434   0.967   2.431  12.872 -1.2613 -1.2861  2.0963
 3324SOL    HW221435   1.088   2.361  12.847 -1.3193 -1.1153 -0.6303
 3325SOL     OW21436   2.705   3.962  10.941 -0.0941 -0.1499 -0.3301
 3325SOL    HW121437   2.781   3.968  10.883 -0.4258  1.3298 -0.6132
 3325SOL    HW221438   2.659   4.046  10.934  1.3220  0.6477 -0.0439
 3326SOL     OW21439   3.067   3.204  13.969 -0.1568 -0.3462  0.3919
 3326SOL    HW121440   3.001   3.134  13.963  0.9545 -1.1121 -2.4816
 3326SOL    HW221441   3.151   3.160  13.957 -0.7733 -1.4460  0.0848
 3327SOL     OW21442   3.671   3.063   7.685 -0.2425 -0.2354 -0.0266
 3327SOL    HW121443   3.581   3.077   7.714 -0.2465  1.4908 -0.9175
 3327SOL    HW221444   3.681   2.972   7.656 -4.1599 -0.6992  0.1557
 3328SOL     OW21445   0.810   4.484   3.539  0.1542  0.0378 -0.4311
 3328SOL    HW121446   0.733   4.532   3.510 -1.1881 -1.2712  0.9713
 3328SOL    HW221447   0.805   4.494   3.634 -0.3096  0.7445 -0.5366
 3329SOL     OW21448   2.883   4.538  11.107 -0.4789  0.0785 -0.1087
 3329SOL    HW121449   2.952   4.604  11.101  0.9559 -1.6552 -2.8872
 3329SOL    HW221450   2.888   4.493  11.023  1.1432  1.8523 -0.9700
 3330SOL     OW21451   4.519   4.132   8.468  0.4016  0.3117 -0.3091
 3330SOL    HW121452   4.577   4.159   8.397 -0.1357 -0.9199 -1.2235
 3330SOL    HW221453   4.436   4.177   8.450 -0.5841 -0.6255  1.8211
 3331SOL     OW21454   3.481   4.493   7.282 -0.1114 -0.6251  0.2345
 3331SOL    HW121455   3.511   4.407   7.313 -0.7588 -1.0553 -0.3421
 3331SOL    HW221456   3.565   4.538   7.272 -0.2903  0.4430  3.3587
 3332SOL     OW21457   1.990   4.090   7.134 -0.3309 -0.2392 -0.1334
 3332SOL    HW121458   2.061   4.078   7.197  0.1008  0.4984 -0.4785
 3332SOL    HW221459   2.001   4.015   7.077 -0.6681  0.9291 -1.7384
 3333SOL     OW21460   4.467   2.899   7.712  0.2752  0.3085 -0.7530
 3333SOL    HW121461   4.529   2.910   7.640 -0.5303  2.2795 -1.1386
 3333SOL    HW221462   4.519   2.923   7.788  1.8723 -0.0319 -1.7305
 3334SOL     OW21463   1.665   0.597   5.392 -0.2195 -0.0503  0.3995
 3334SOL    HW121464   1.582   0.605   5.439  0.4395  0.3561  1.4856
 3334SOL    HW221465   1.634   0.607   5.302  0.3977  0.7340  0.2777
 3335SOL     OW21466   1.329   4.238   5.853 -0.5388 -0.2819  0.0236
 3335SOL    HW121467   1.275   4.235   5.774  0.2405  0.4783 -0.5375
 3335SOL    HW221468   1.419   4.238   5.818 -1.6435  1.0372 -2.8706
 3336SOL     OW21469   1.330   3.823   2.559 -0.2004 -0.1128  0.0518
 3336SOL    HW121470   1.271   3.835   2.485 -0.3379  1.0949  0.3568
 3336SOL    HW221471   1.313   3.904   2.607 -1.4913 -1.3449  1.6421
 3337SOL     OW21472   1.587   1.447  10.059 -0.4545  0.2034  0.2032
 3337SOL    HW121473   1.613   1.513   9.995  0.9343 -1.4243 -0.8964
 3337SOL    HW221474   1.672   1.405  10.062 -1.7564 -2.5085 -1.2274
 3338SOL     OW21475   2.577   0.106   0.536  0.0166 -0.3179 -0.3844
 3338SOL    HW121476   2.626   0.125   0.455  0.2288 -1.2557 -0.4699
 3338SOL    HW221477   2.510   0.048   0.500 -0.7128 -0.6844  1.5601
 3339SOL     OW21478   0.053   2.048   6.705 -0.0731  0.0796  0.2098
 3339SOL    HW121479   0.125   2.107   6.730 -1.5230  1.8062  0.3633
 3339SOL    HW221480   0.041   2.009   6.792 -0.9779 -0.8234 -0.3292
 3340SOL     OW21481   1.067   0.141  13.327  0.0863 -0.1100  0.4278
 3340SOL    HW121482   1.096   0.110  13.413  0.4110  1.8173  1.0268
 3340SOL    HW221483   0.973   0.123  13.331 -0.2817  1.1945 -2.7580
 3341SOL     OW21484   1.313   1.473  17.385  0.6717  0.0235 -0.0660
 3341SOL    HW121485   1.232   1.489  17.433  0.5525 -2.8599  0.6966
 3341SOL    HW221486   1.371   1.465  17.461  0.3465  1.8145  0.3680
 3342SOL     OW21487   0.494   2.818   2.576 -0.4614 -0.2430  0.1918
 3342SOL    HW121488   0.472   2.805   2.484  2.4849 -1.5739 -0.3219
 3342SOL    HW221489   0.589   2.810   2.586  0.0265  1.5061 -3.3628
 3343SOL     OW21490   3.367   1.383  14.810  0.3606  0.2805 -0.7055
 3343SOL    HW121491   3.428   1.310  14.821  0.6571  0.5420 -0.5830
 3343SOL    HW221492   3.352   1.390  14.716 -1.3481  0.5434 -0.4036
 3344SOL     OW21493   1.324   3.103   7.696 -0.2365  0.0246 -0.1041
 3344SOL    HW121494   1.326   3.195   7.669 -1.1190  0.2186  0.5091
 3344SOL    HW221495   1.412   3.074   7.671 -0.1663 -1.4171  1.8227
 3345SOL     OW21496   4.633   1.279   4.205 -0.1993  0.2751  0.1956
 3345SOL    HW121497   4.589   1.361   4.227  1.5396  0.9205  1.2726
 3345SOL    HW221498   4.581   1.260   4.127  0.0439  2.9689 -0.6628
 3346SOL     OW21499   2.135   3.427   3.304 -0.3659 -0.1529 -0.1555
 3346SOL    HW121500   2.126   3.385   3.389  0.9449 -1.9288 -0.9039
 3346SOL    HW221501   2.050   3.410   3.264 -0.7020  0.6662  0.2003
 3347SOL     OW21502   0.366   0.084   7.431  0.6830 -0.1113 -0.7760
 3347SOL    HW121503   0.292   0.031   7.402 -0.1103  0.8795 -0.5837
 3347SOL    HW221504   0.438   0.073   7.368 -0.0951  0.6390 -1.7924
 3348SOL     OW21505   3.526   3.710  15.555  0.1652  0.2372  0.0863
 3348SOL    HW121506   3.546   3.639  15.494 -0.5522 -1.5028  1.8806
 3348SOL    HW221507   3.564   3.688  15.639  1.6086  1.1783 -0.3246
 3349SOL     OW21508   2.324   2.399   7.949  0.4375 -0.1940 -0.1640
 3349SOL    HW121509   2.230   2.381   7.948  0.7916 -1.9437 -0.7393
 3349SOL    HW221510   2.328   2.495   7.943  1.5919 -0.2711 -0.5770
 3350SOL     OW21511   2.962   4.429   9.898  0.8011  0.1227  0.0904
 3350SOL    HW121512   3.051   4.404   9.924  0.2860 -0.9935  0.7682
 3350SOL    HW221513   2.941   4.485   9.972  0.5767  1.0982 -0.7078
 3351SOL     OW21514   3.443   1.922   2.775  0.3317  0.4396  0.0129
 3351SOL    HW121515   3.511   1.986   2.753 -0.0581  0.3592 -1.4282
 3351SOL    HW221516   3.371   1.984   2.790  0.9575  0.2898  3.4945
 3352SOL     OW21517   2.087   2.225   7.534  0.0197 -0.2995  0.1994
 3352SOL    HW121518   2.107   2.144   7.581 -0.9601 -0.6552 -0.0060
 3352SOL    HW221519   1.991   2.225   7.531  0.0418 -0.7192 -0.5604
 3353SOL     OW21520   1.311   2.493   4.028  0.3832  0.7135 -0.4508
 3353SOL    HW121521   1.365   2.428   3.982  1.6953  0.9673  0.7314
 3353SOL    HW221522   1.286   2.557   3.961  2.3574 -0.0038 -1.8664
 3354SOL     OW21523   0.226   3.448   0.891 -0.2495 -0.2147 -0.3179
 3354SOL    HW121524   0.294   3.434   0.956 -1.7912 -0.7267  1.1845
 3354SOL    HW221525   0.163   3.494   0.946  0.0990 -0.2689  0.1241
 3355SOL     OW21526   0.052   1.822   8.276 -0.6421  0.4070  0.0425
 3355SOL    HW121527   0.077   1.883   8.346  0.9240  0.8683 -0.9078
 3355SOL    HW221528   4.687   1.796   8.300 -1.0014  2.4000  0.8330
 3356SOL     OW21529   0.039   3.529  16.194  0.3787 -0.0882 -0.0307
 3356SOL    HW121530   0.021   3.620  16.169  0.6943  0.7965  2.9486
 3356SOL    HW221531   0.132   3.532  16.218  0.1175  0.6856  0.8982
 3357SOL     OW21532   2.749   0.969   8.324 -0.2929 -0.0696 -0.3343
 3357SOL    HW121533   2.763   0.994   8.232 -0.8864 -0.8002 -0.6246
 3357SOL    HW221534   2.690   0.893   8.316 -2.0189  1.2182  0.1922
 3358SOL     OW21535   0.037   2.787   5.323  0.0078  0.1120  0.4104
 3358SOL    HW121536   4.679   2.814   5.365  0.8147  0.9631  1.4257
 3358SOL    HW221537   0.093   2.864   5.318 -2.0864  1.6656  0.8714
 3359SOL     OW21538   4.588   1.875  10.377  0.0011 -0.4123  0.1170
 3359SOL    HW121539   4.552   1.841  10.459  2.8519 -0.1605  1.4658
 3359SOL    HW221540   4.562   1.966  10.386 -1.5147 -0.8138 -0.0987
 3360SOL     OW21541   1.587   1.442  15.784 -0.3599  0.4713  0.5479
 3360SOL    HW121542   1.621   1.369  15.837  1.9008  1.5814  0.6322
 3360SOL    HW221543   1.518   1.477  15.840 -1.1933  0.3359 -0.4147
 3361SOL     OW21544   1.306   0.487   3.338 -0.0353  0.1584  0.0562
 3361SOL    HW121545   1.378   0.549   3.350  0.9918 -1.2661  1.2856
 3361SOL    HW221546   1.269   0.494   3.427  0.6685  0.9947  0.2795
 3362SOL     OW21547   3.332   0.855  13.748  0.1317  0.1583  0.1112
 3362SOL    HW121548   3.424   0.864  13.724 -0.1418 -0.1902 -1.0413
 3362SOL    HW221549   3.331   0.921  13.817 -0.0194  0.2083  0.0596
 3363SOL     OW21550   3.147   3.801   9.280 -0.0561  0.3050 -0.2766
 3363SOL    HW121551   3.066   3.832   9.321 -0.2613 -2.2203  1.2369
 3363SOL    HW221552   3.175   3.875   9.227 -1.0510  0.0591 -1.1550
 3364SOL     OW21553   1.283   0.529  10.841 -0.2619 -0.1702  0.1937
 3364SOL    HW121554   1.190   0.512  10.829 -0.2417 -0.7266  0.8232
 3364SOL    HW221555   1.335   0.453  10.817 -0.7192  0.1644 -1.8353
 3365SOL     OW21556   0.521   3.901   9.508  0.1020 -0.2706  0.2459
 3365SOL    HW121557   0.441   3.888   9.457  0.9567 -3.4809 -0.2781
 3365SOL    HW221558   0.573   3.822   9.490  1.6783  0.3042  2.3051
 3366SOL     OW21559   2.420   0.535  14.146 -0.2192 -0.2492  0.1819
 3366SOL    HW121560   2.410   0.629  14.160 -0.2147 -0.0841 -0.8880
 3366SOL    HW221561   2.398   0.517  14.054  2.6170  3.1806 -1.1638
 3367SOL     OW21562   2.412   3.155   9.888 -0.4347  0.4573  0.5745
 3367SOL    HW121563   2.505   3.145   9.909 -0.4920 -0.8723  0.1903
 3367SOL    HW221564   2.391   3.247   9.904  1.9164  1.3357 -1.3066
 3368SOL     OW21565   3.969   2.242   4.271  0.3848 -0.2829  0.2804
 3368SOL    HW121566   3.904   2.233   4.202  2.1901 -0.9350 -1.3233
 3368SOL    HW221567   4.049   2.250   4.218  0.5968 -1.4510  0.4302
 3369SOL     OW21568   2.769   1.958   0.364  0.0224 -0.0292  0.0063
 3369SOL    HW121569   2.770   2.050   0.388  0.4427  0.2432 -1.0574
 3369SOL    HW221570   2.765   1.962   0.268  2.6254  0.9631 -0.0422
 3370SOL     OW21571   0.509   2.574   7.228  0.3184 -0.4560 -0.2990
 3370SOL    HW121572   0.563   2.565   7.307 -0.1692 -2.3485 -0.1741
 3370SOL    HW221573   0.532   2.492   7.185  1.1886 -1.1532  1.5218
 3371SOL     OW21574   0.617   0.294  15.052  0.4155 -0.1958  0.1769
 3371SOL    HW121575   0.667   0.375  15.065  0.5388 -0.4137  1.0274
 3371SOL    HW221576   0.678   0.230  15.089 -0.6191 -1.1268  0.2563
 3372SOL     OW21577   4.236   0.508   4.304  0.2774  0.0183 -0.2267
 3372SOL    HW121578   4.195   0.574   4.359  0.9735  1.5359 -1.4999
 3372SOL    HW221579   4.326   0.504   4.338 -1.0255  1.1711  3.3315
 3373SOL     OW21580   4.405   1.825   1.916  0.9619 -0.2991 -0.8379
 3373SOL    HW121581   4.341   1.819   1.845 -0.1302 -1.7477  0.2733
 3373SOL    HW221582   4.396   1.735   1.947 -1.3295 -0.2871 -1.4689
 3374SOL     OW21583   3.540   4.497   3.805 -0.0858  0.3048 -0.5419
 3374SOL    HW121584   3.531   4.430   3.738 -1.2291  0.0086 -0.0811
 3374SOL    HW221585   3.562   4.572   3.749 -2.4658  1.0939 -0.4357
 3375SOL     OW21586   1.072   1.715  17.472 -0.1232 -0.5533 -0.3369
 3375SOL    HW121587   1.042   1.631  17.437  2.3411 -0.8971 -1.6448
 3375SOL    HW221588   1.159   1.724  17.432 -0.5802 -1.6250 -1.5805
 3376SOL     OW21589   4.509   1.161   5.804 -0.1922  0.1357  0.2131
 3376SOL    HW121590   4.556   1.186   5.884 -2.5106  0.4388  1.5106
 3376SOL    HW221591   4.434   1.118   5.846  0.1097 -1.0507 -0.4602
 3377SOL     OW21592   3.858   4.185   6.445  0.0980  1.0429 -0.8100
 3377SOL    HW121593   3.936   4.222   6.487 -0.4129  0.9635  0.2187
 3377SOL    HW221594   3.866   4.211   6.354  2.1298  1.8965 -0.3776
 3378SOL     OW21595   1.981   3.140  13.630  0.8455 -0.6697  0.7654
 3378SOL    HW121596   1.930   3.063  13.607 -1.4927  1.2581 -0.5250
 3378SOL    HW221597   2.018   3.162  13.544 -0.6507  1.7253  0.7299
 3379SOL     OW21598   0.637   2.005   2.018  0.1145  0.2741  0.0664
 3379SOL    HW121599   0.576   2.012   2.091 -0.5878 -1.4398 -0.3573
 3379SOL    HW221600   0.577   2.023   1.946  0.2590 -4.3489 -1.1961
 3380SOL     OW21601   0.839   2.225   5.569  0.2767 -0.1946 -0.1461
 3380SOL    HW121602   0.821   2.317   5.590  1.5650  0.2278 -0.8887
 3380SOL    HW221603   0.930   2.230   5.539  0.1015 -0.6441 -0.7345
 3381SOL     OW21604   2.757   0.746  14.183  0.4279  0.2501  0.0113
 3381SOL    HW121605   2.796   0.827  14.216 -1.8627  0.3761  2.4189
 3381SOL    HW221606   2.711   0.725  14.264 -1.3589  0.5305 -0.9143
 3382SOL     OW21607   3.927   3.545   3.776 -0.4167 -0.8142 -0.1571
 3382SOL    HW121608   4.005   3.556   3.722  0.4830  2.0068  1.6865
 3382SOL    HW221609   3.897   3.459   3.749  1.1549 -1.5485  0.4487
 3383SOL     OW21610   0.614   2.107   5.527 -0.7785 -0.6028  0.2288
 3383SOL    HW121611   0.705   2.136   5.523 -0.1460 -2.7612 -0.8967
 3383SOL    HW221612   0.573   2.138   5.446 -1.8143 -0.0665  0.9431
 3384SOL     OW21613   0.167   2.375   6.342 -0.1915 -0.0830  0.9362
 3384SOL    HW121614   0.194   2.330   6.421 -0.8023 -2.7606 -0.3633
 3384SOL    HW221615   0.208   2.461   6.350 -0.1248 -0.2222  2.0027
 3385SOL     OW21616   1.011   3.376  10.854  0.0067  0.4723  0.0799
 3385SOL    HW121617   1.056   3.348  10.934  1.4694  2.9742  0.1484
 3385SOL    HW221618   1.066   3.453  10.837 -1.6778  1.5983 -0.3188
 3386SOL     OW21619   3.952   2.119   5.873  0.8449  0.3807  0.3669
 3386SOL    HW121620   4.039   2.125   5.832  0.7278 -0.8774 -0.0890
 3386SOL    HW221621   3.903   2.182   5.821  2.7818  1.4376 -0.1547
 3387SOL     OW21622   0.372   1.836   7.889 -0.1927 -0.1107 -0.3994
 3387SOL    HW121623   0.381   1.850   7.984 -1.1015 -3.3448  0.1311
 3387SOL    HW221624   0.406   1.920   7.857 -0.6212  0.4253  0.5438
 3388SOL     OW21625   2.886   3.809   1.308 -0.0764  0.5403  0.0945
 3388SOL    HW121626   2.855   3.775   1.392 -0.9287 -1.6930 -1.1135
 3388SOL    HW221627   2.923   3.727   1.277 -1.7428 -1.0002  2.1536
 3389SOL     OW21628   0.975   1.126   0.349  0.1756  0.8676 -0.1841
 3389SOL    HW121629   1.048   1.068   0.371 -0.9032  0.3736  2.1710
 3389SOL    HW221630   1.018   1.159   0.271  1.1109  0.9667  0.3784
 3390SOL     OW21631   1.831   2.485   0.365 -0.0099  0.0829  0.2574
 3390SOL    HW121632   1.807   2.540   0.290  1.9813 -1.3597 -1.4495
 3390SOL    HW221633   1.857   2.555   0.426  2.3586 -1.0633  0.5760
 3391SOL     OW21634   2.950   2.428   4.601 -0.8259  0.4101 -0.8678
 3391SOL    HW121635   2.988   2.452   4.686 -1.0448  1.3027 -1.0186
 3391SOL    HW221636   2.993   2.343   4.591 -0.2253  0.8243 -1.8310
 3392SOL     OW21637   1.796   4.428   4.252 -0.0729  0.1157 -0.1787
 3392SOL    HW121638   1.776   4.445   4.160  1.3806 -0.5569 -0.6229
 3392SOL    HW221639   1.875   4.375   4.238 -0.2697 -0.3594  0.5020
 3393SOL     OW21640   2.001   4.326   2.266  0.8302 -0.1062 -0.5338
 3393SOL    HW121641   1.936   4.256   2.273 -1.5175  2.1163  0.0565
 3393SOL    HW221642   1.989   4.356   2.356 -2.1703  2.7110 -1.8449
 3394SOL     OW21643   1.408   1.419   2.226  0.0100 -0.0066  0.7690
 3394SOL    HW121644   1.323   1.403   2.266 -0.0866 -2.2675 -0.3486
 3394SOL    HW221645   1.398   1.396   2.133 -0.8045  2.4765  0.2322
 3395SOL     OW21646   3.903   4.583  15.577  0.1545  0.0146 -0.0860
 3395SOL    HW121647   3.921   4.650  15.643 -1.7423  0.7174 -0.2531
 3395SOL    HW221648   3.988   4.571  15.535 -0.0890  2.4740 -1.2816
 3396SOL     OW21649   2.262   1.827   6.961  0.8258 -0.1225 -0.3132
 3396SOL    HW121650   2.330   1.792   7.018  0.8446  2.2179  1.0999
 3396SOL    HW221651   2.246   1.913   6.999 -1.7873 -0.5451 -0.4699
 3397SOL     OW21652   4.195   1.997   4.629 -0.0647  0.0622 -0.1927
 3397SOL    HW121653   4.148   2.036   4.703  0.7371 -0.8431  0.7933
 3397SOL    HW221654   4.117   1.977   4.577  0.0751 -0.4504 -0.2054
 3398SOL     OW21655   2.209   3.665  12.995  0.1776 -0.2074  0.5101
 3398SOL    HW121656   2.305   3.664  12.999  0.1148 -0.7052  1.9629
 3398SOL    HW221657   2.197   3.760  13.004 -1.7640 -0.4722  0.6012
 3399SOL     OW21658   1.134   2.594   7.491  0.1884 -0.2605  0.8376
 3399SOL    HW121659   1.059   2.640   7.453  0.2338  0.3175  1.4703
 3399SOL    HW221660   1.099   2.577   7.578  2.2555 -0.9199  1.5440
 3400SOL     OW21661   4.030   4.575  11.119 -0.2632 -0.6399 -0.0089
 3400SOL    HW121662   4.125   4.567  11.110  0.0342 -0.4564  2.9029
 3400SOL    HW221663   4.008   4.548  11.208  0.7044 -3.0657 -0.4985
 3401SOL     OW21664   3.901   3.873   5.472 -0.5307 -0.0488 -0.4224
 3401SOL    HW121665   3.833   3.836   5.529  0.2712 -1.7462 -0.5723
 3401SOL    HW221666   3.976   3.855   5.529 -0.4724  0.1847 -0.4272
 3402SOL     OW21667   0.423   3.354   6.667  0.0204  0.0039 -0.3115
 3402SOL    HW121668   0.377   3.303   6.601  0.4834 -0.5682 -0.1987
 3402SOL    HW221669   0.368   3.431   6.656  2.4333  1.6206 -1.1157
 3403SOL     OW21670   3.803   3.026  10.780 -0.2766 -0.4516  0.6036
 3403SOL    HW121671   3.843   3.105  10.743 -1.3793  0.2673  0.9343
 3403SOL    HW221672   3.710   3.050  10.784 -0.1601  0.6480 -2.8874
 3404SOL     OW21673   3.825   4.160   7.225  0.0122  0.4524 -0.0284
 3404SOL    HW121674   3.750   4.186   7.279 -0.4532 -0.6584 -0.1386
 3404SOL    HW221675   3.889   4.210   7.277  0.2104 -1.0303  1.1605
 3405SOL     OW21676   0.542   2.279   1.507 -0.3572 -0.3143  0.4721
 3405SOL    HW121677   0.520   2.358   1.458 -1.2031 -1.0739 -0.3559
 3405SOL    HW221678   0.461   2.274   1.558  0.0773 -1.2152  1.0898
 3406SOL     OW21679   2.935   3.706   3.594 -0.0332  0.0159  0.1891
 3406SOL    HW121680   2.898   3.728   3.679 -0.2638  1.4305 -0.2740
 3406SOL    HW221681   2.937   3.790   3.549 -0.0722 -0.5036 -0.7904
 3407SOL     OW21682   0.449   2.268   3.531 -0.0718  0.6458 -0.1005
 3407SOL    HW121683   0.452   2.332   3.460 -2.3679  0.1525 -0.6618
 3407SOL    HW221684   0.498   2.201   3.483  0.0212 -0.4052  1.4737
 3408SOL     OW21685   4.435   2.482   2.327 -0.4324 -0.0776 -0.2800
 3408SOL    HW121686   4.486   2.417   2.278 -2.6729 -0.5086 -2.0524
 3408SOL    HW221687   4.480   2.473   2.411  2.7943  0.1143 -1.9883
 3409SOL     OW21688   3.829   3.083   2.259 -0.3317  0.8310 -0.1636
 3409SOL    HW121689   3.913   3.065   2.217 -0.4919  3.9008 -1.8251
 3409SOL    HW221690   3.853   3.167   2.300 -1.3296  0.9397  0.1895
 3410SOL     OW21691   0.158   2.581   2.157 -0.7607  0.2770 -0.1368
 3410SOL    HW121692   0.182   2.593   2.249 -0.5469 -0.3584 -0.1073
 3410SOL    HW221693   0.173   2.673   2.135 -0.1287  0.2406  0.1223
 3411SOL     OW21694   0.598   4.203   9.793  0.1248  0.0968  0.0257
 3411SOL    HW121695   0.517   4.237   9.830 -1.0520 -1.1387 -1.4620
 3411SOL    HW221696   0.660   4.274   9.815 -1.2921  1.7610 -1.3772
 3412SOL     OW21697   1.559   3.443   7.916  0.6160 -0.5446  0.0423
 3412SOL    HW121698   1.593   3.469   8.001  1.2881 -4.7466  1.0393
 3412SOL    HW221699   1.465   3.435   7.933  1.1996 -1.1339  2.9265
 3413SOL     OW21700   0.354   2.989   2.361  0.2737 -0.2121  0.3044
 3413SOL    HW121701   0.286   2.984   2.294  1.4389  0.0646 -0.9017
 3413SOL    HW221702   0.307   3.044   2.423  1.1183 -0.2723  0.9917
 3414SOL     OW21703   2.507   2.937   4.118  0.3703  0.0402  0.3119
 3414SOL    HW121704   2.449   2.978   4.053 -0.3166 -1.1040  0.1916
 3414SOL    HW221705   2.459   2.961   4.197 -1.2662 -0.0738 -0.6361
 3415SOL     OW21706   0.865   0.638   6.940 -0.2319  0.4046  0.6088
 3415SOL    HW121707   0.889   0.559   6.988  0.4385  0.2556  0.0337
 3415SOL    HW221708   0.858   0.608   6.849  3.4649 -0.7112  0.7183
 3416SOL     OW21709   2.271   0.719   2.293  0.0662 -0.1540  0.9307
 3416SOL    HW121710   2.228   0.801   2.268 -0.4623 -1.6106 -2.7798
 3416SOL    HW221711   2.200   0.656   2.289 -0.9910  1.0713  0.5220
 3417SOL     OW21712   1.314   2.303   7.518  0.2623 -0.3158  0.0889
 3417SOL    HW121713   1.332   2.319   7.425 -1.4343 -1.4122 -0.4313
 3417SOL    HW221714   1.218   2.303   7.520  0.2747 -0.9493  0.6526
 3418SOL     OW21715   2.631   3.199   2.991 -0.7378  0.2250  0.1463
 3418SOL    HW121716   2.659   3.238   3.074  1.2858 -1.4624  0.2776
 3418SOL    HW221717   2.598   3.114   3.021 -0.0223  0.6790  2.2270
 3419SOL     OW21718   3.767   2.042  14.185 -0.0217  0.1053 -0.4242
 3419SOL    HW121719   3.855   2.079  14.172 -0.3689  0.4892 -1.6729
 3419SOL    HW221720   3.728   2.070  14.102 -2.1337  0.4277  0.7038
 3420SOL     OW21721   0.116   3.815   7.083  0.4677 -0.3178  0.1076
 3420SOL    HW121722   0.161   3.870   7.147 -0.5120 -2.2339  2.4265
 3420SOL    HW221723   0.135   3.858   7.000 -1.5417  0.9324  0.2940
 3421SOL     OW21724   0.537   0.736   6.099  0.3400  0.1338  0.3243
 3421SOL    HW121725   0.493   0.704   6.020  0.4659 -0.9480  0.6915
 3421SOL    HW221726   0.493   0.690   6.170  2.7565 -1.0588  1.0723
 3422SOL     OW21727   1.148   0.288   3.710  0.2125 -0.1291  0.3725
 3422SOL    HW121728   1.213   0.335   3.657  0.9716 -1.5095  0.0868
 3422SOL    HW221729   1.130   0.358   3.773 -1.9401 -0.1367 -0.2107
 3423SOL     OW21730   2.215   2.954   1.980  0.4283 -0.0293 -0.1213
 3423SOL    HW121731   2.158   2.893   2.025 -1.3579 -0.3568 -2.8151
 3423SOL    HW221732   2.231   3.029   2.038  0.4296  0.1346 -0.3316
 3424SOL     OW21733   2.279   3.869  12.287 -0.3842 -0.0637  0.1507
 3424SOL    HW121734   2.263   3.803  12.355 -2.5258  1.3688  1.0211
 3424SOL    HW221735   2.372   3.887  12.293 -0.2833 -0.5375  0.0194
 3425SOL     OW21736   0.412   2.927   5.416 -0.1624 -0.3565 -0.1226
 3425SOL    HW121737   0.378   2.898   5.332 -1.1601  0.3666  0.0270
 3425SOL    HW221738   0.422   3.022   5.406 -4.6446 -0.1752 -3.0276
 3426SOL     OW21739   4.560   1.582   3.431  0.8307 -0.1121 -0.5492
 3426SOL    HW121740   4.572   1.582   3.526 -0.4225  1.2011 -0.3968
 3426SOL    HW221741   4.647   1.605   3.398  1.5080 -0.2015  1.1635
 3427SOL     OW21742   3.318   4.455   4.551  0.4725  0.1714  0.5125
 3427SOL    HW121743   3.397   4.463   4.605 -0.1246 -0.7641  1.5214
 3427SOL    HW221744   3.245   4.460   4.613  0.6581 -4.0995  1.0322
 3428SOL     OW21745   1.221   4.654   8.329 -0.0418  0.4207  0.4979
 3428SOL    HW121746   1.155   4.607   8.279  1.0684 -0.9293  0.3071
 3428SOL    HW221747   1.260   4.580   8.375  0.1356 -0.2893 -0.7980
 3429SOL     OW21748   4.721   4.582   0.236 -0.3160 -0.4746  0.0430
 3429SOL    HW121749   0.079   4.580   0.285  1.0711  0.3517 -2.2414
 3429SOL    HW221750   0.018   4.661   0.186  0.0245 -0.8616 -0.4312
 3430SOL     OW21751   1.502   1.827   1.835  0.2567 -0.0027 -0.9333
 3430SOL    HW121752   1.549   1.764   1.781  0.2318 -0.4404 -0.4476
 3430SOL    HW221753   1.526   1.914   1.802 -0.6767  0.4582 -0.4006
 3431SOL     OW21754   2.695   0.810   7.806 -0.1162  0.5725 -1.0731
 3431SOL    HW121755   2.786   0.781   7.794 -0.0918 -0.0272  0.5446
 3431SOL    HW221756   2.677   0.790   7.898  0.9266  1.7285 -0.6125
 3432SOL     OW21757   0.200   3.902   4.639  0.8068  0.1136 -0.4946
 3432SOL    HW121758   0.169   3.856   4.561  3.5268  0.2177 -1.6128
 3432SOL    HW221759   0.211   3.991   4.605  0.9849  0.1882 -0.2417
 3433SOL     OW21760   3.039   0.850   9.316  0.7316 -0.1925 -0.3997
 3433SOL    HW121761   2.967   0.856   9.253  1.7827  0.2252 -1.5607
 3433SOL    HW221762   3.037   0.755   9.323  0.6789 -0.2192 -0.8045
 3434SOL     OW21763   4.286   0.816   6.638 -0.5783 -0.5632  0.6839
 3434SOL    HW121764   4.249   0.755   6.702  0.6966 -3.0626 -0.9793
 3434SOL    HW221765   4.353   0.855   6.694 -0.1104 -1.0139  0.4421
 3435SOL     OW21766   1.384   0.587   6.873  0.4157  0.3034 -0.5090
 3435SOL    HW121767   1.347   0.641   6.803 -1.6306 -1.2515 -0.6150
 3435SOL    HW221768   1.339   0.505   6.856 -1.3010  1.1133  0.1232
 3436SOL     OW21769   4.183   1.501   8.874 -0.0330  0.0745  0.4000
 3436SOL    HW121770   4.089   1.507   8.893 -0.2036  0.6463 -0.6091
 3436SOL    HW221771   4.225   1.498   8.959 -1.4464 -1.1012  1.0549
 3437SOL     OW21772   4.399   2.805   0.573 -0.2248 -0.4533  0.3122
 3437SOL    HW121773   4.363   2.816   0.486 -0.5106  0.8957  0.5999
 3437SOL    HW221774   4.331   2.762   0.624  1.4113 -2.3974  0.8583
 3438SOL     OW21775   2.891   4.220   2.975 -0.0035 -0.1648  0.0754
 3438SOL    HW121776   2.962   4.182   3.027 -0.7855  1.0289  2.0211
 3438SOL    HW221777   2.928   4.231   2.887  2.8894 -0.3646  1.2850
 3439SOL     OW21778   3.508   3.908  10.235  0.4481  0.1698 -0.9883
 3439SOL    HW121779   3.566   3.983  10.249 -0.7785  1.0750 -0.6923
 3439SOL    HW221780   3.550   3.845  10.294  0.1114  2.6959  1.9578
 3440SOL     OW21781   0.370   3.496   4.911 -0.5050 -1.6140 -0.1791
 3440SOL    HW121782   0.326   3.539   4.838 -0.8798 -1.0060  0.4097
 3440SOL    HW221783   0.296   3.467   4.963  0.4354 -1.0520  1.4795
 3441SOL     OW21784   3.082   1.038  14.471  0.4014 -0.6170  0.6879
 3441SOL    HW121785   3.046   0.950  14.458  0.2756 -0.2996 -1.1132
 3441SOL    HW221786   3.070   1.058  14.564 -0.5489 -1.5592  0.7613
 3442SOL     OW21787   0.641   3.867  13.955  0.2009  0.0127 -0.0717
 3442SOL    HW121788   0.685   3.834  14.033 -0.2887 -0.7153 -0.1008
 3442SOL    HW221789   0.587   3.940  13.985  0.6336  0.1993  0.2422
 3443SOL     OW21790   0.256   1.631   7.505  0.2183  0.1253  0.1860
 3443SOL    HW121791   0.315   1.559   7.527  0.9910  0.6545 -0.1775
 3443SOL    HW221792   0.226   1.659   7.592 -2.5767  1.2346 -1.1265
 3444SOL     OW21793   4.146   2.444   8.006  0.1818 -0.3173  0.6814
 3444SOL    HW121794   4.067   2.407   8.046  0.2382  0.2167  1.2866
 3444SOL    HW221795   4.188   2.476   8.086 -1.9153  1.5892  1.0493
 3445SOL     OW21796   1.809   1.612   4.410  0.2958 -0.1814  0.1710
 3445SOL    HW121797   1.761   1.532   4.388  1.3923 -0.3123 -1.7470
 3445SOL    HW221798   1.813   1.668   4.332 -0.7803  1.2117  1.1107
 3446SOL     OW21799   1.930   1.022   3.937 -0.3994 -0.2560  0.4417
 3446SOL    HW121800   1.874   1.090   3.900 -0.2044  2.1031  4.5209
 3446SOL    HW221801   1.974   0.991   3.857 -1.6875  1.2343 -0.8302
 3447SOL     OW21802   2.757   1.346   8.922  0.1213 -0.0880  0.1091
 3447SOL    HW121803   2.697   1.399   8.975 -0.6706 -0.6743 -0.2141
 3447SOL    HW221804   2.826   1.328   8.986  0.5746 -1.9974 -0.9415
 3448SOL     OW21805   0.114   4.266   8.355 -0.1381  0.0987 -0.6619
 3448SOL    HW121806   0.137   4.223   8.437 -0.6024  1.4861  0.1933
 3448SOL    HW221807   0.058   4.336   8.390  1.1815 -0.2014  2.0389
 3449SOL     OW21808   1.096   1.952   7.180 -0.1098  0.1649 -0.2130
 3449SOL    HW121809   1.062   1.875   7.133 -0.9279 -0.3899  1.2713
 3449SOL    HW221810   1.023   1.968   7.239  1.2547 -0.6760  1.7152
 3450SOL     OW21811   0.051   1.365   7.234 -0.6710  0.2122  0.4154
 3450SOL    HW121812   0.030   1.394   7.146 -0.4484 -0.9384 -0.0156
 3450SOL    HW221813   0.046   1.446   7.284 -1.5338  0.6546 -0.4030
 3451SOL     OW21814   1.973   3.088   8.977  0.2043 -0.2666 -0.3841
 3451SOL    HW121815   2.012   3.027   9.040  1.1868  0.0507 -0.6883
 3451SOL    HW221816   1.906   3.028   8.943  0.4014 -0.3206 -0.6678
 3452SOL     OW21817   4.367   0.811   6.911 -0.5362 -0.0094  0.6956
 3452SOL    HW121818   4.273   0.800   6.928 -1.1912  4.5832  0.1030
 3452SOL    HW221819   4.382   0.727   6.954  1.5786  0.1891  0.3129
 3453SOL     OW21820   3.098   1.608   5.366 -0.0120  0.5791 -0.2818
 3453SOL    HW121821   3.034   1.668   5.327  1.6333 -0.5150 -4.7078
 3453SOL    HW221822   3.045   1.529   5.359  1.2187 -0.2461 -0.2293
 3454SOL     OW21823   3.501   2.586   2.059  0.4304 -0.5623 -0.0879
 3454SOL    HW121824   3.422   2.547   2.023  0.0955  1.7135 -1.8140
 3454SOL    HW221825   3.553   2.600   1.980 -1.6844 -0.4373 -1.4612
 3455SOL     OW21826   0.968   3.017  17.100  0.0678 -0.0814  0.1526
 3455SOL    HW121827   0.989   3.109  17.113 -0.5140  0.2558 -1.3339
 3455SOL    HW221828   0.937   2.998  17.188  0.4367  3.0188  0.9297
 3456SOL     OW21829   0.651   1.592  13.720  0.6745 -0.6013  0.6347
 3456SOL    HW121830   0.604   1.659  13.768 -3.8360 -1.6760 -2.2737
 3456SOL    HW221831   0.669   1.629  13.633  0.3743 -2.5389 -0.2705
 3457SOL     OW21832   0.300   3.477   4.136  0.0448 -0.5985 -0.1027
 3457SOL    HW121833   0.332   3.541   4.073 -3.6613  0.2907 -1.0977
 3457SOL    HW221834   0.248   3.427   4.073 -1.1114  2.0686 -1.2649
 3458SOL     OW21835   3.146   1.659  11.113  0.0116 -0.1880 -0.4038
 3458SOL    HW121836   3.237   1.632  11.102  0.3136  0.7652 -0.2103
 3458SOL    HW221837   3.130   1.605  11.191 -0.7474  0.5653 -0.0388
 3459SOL     OW21838   3.038   0.001   8.716 -0.0433 -0.7899  0.4784
 3459SOL    HW121839   3.047   4.648   8.659  2.1720 -0.9359  1.0199
 3459SOL    HW221840   2.945   4.719   8.737  0.0689 -1.7917  0.7157
 3460SOL     OW21841   4.659   1.019   4.993 -0.0012  0.0813  0.0549
 3460SOL    HW121842   4.642   1.040   5.085 -0.0133  1.6804 -0.3052
 3460SOL    HW221843   0.030   1.035   4.985 -0.2594  1.4288 -0.2551
 3461SOL     OW21844   0.323   2.063  16.888 -0.2561 -0.3263 -0.2012
 3461SOL    HW121845   0.281   2.098  16.966  0.3106  0.3311 -0.1819
 3461SOL    HW221846   0.262   1.998  16.856  1.2115 -2.5125  1.4348
 3462SOL     OW21847   2.012   2.601   4.027  0.0469  0.0824  0.0196
 3462SOL    HW121848   2.088   2.590   4.084 -0.2757 -0.7229  0.2926
 3462SOL    HW221849   2.023   2.543   3.952 -0.8436  0.8166 -0.6809
 3463SOL     OW21850   3.378   1.925   3.069 -0.3485  0.0722  0.3167
 3463SOL    HW121851   3.380   1.927   2.974  3.6086 -1.0197  0.3645
 3463SOL    HW221852   3.416   2.010   3.089 -0.5389  0.0819  0.6420
 3464SOL     OW21853   3.046   2.181   6.839  0.1456 -0.0679  0.4716
 3464SOL    HW121854   3.110   2.183   6.768 -0.0887 -1.3093  0.2260
 3464SOL    HW221855   3.011   2.270   6.832  1.2647  0.1472 -2.5530
 3465SOL     OW21856   3.326   2.671   6.819  0.0736 -0.3272  0.0390
 3465SOL    HW121857   3.275   2.719   6.885  0.4945  0.2679 -0.0680
 3465SOL    HW221858   3.395   2.736   6.805  1.6944 -1.7316  1.4830
 3466SOL     OW21859   0.854   4.450   1.185 -0.5058  0.0561 -0.5900
 3466SOL    HW121860   0.833   4.514   1.116  2.3204  2.6586  0.9689
 3466SOL    HW221861   0.769   4.409   1.200  0.4616 -0.9914  2.0116
 3467SOL     OW21862   0.440   3.638   0.609  0.2693  0.2795  0.3512
 3467SOL    HW121863   0.458   3.617   0.701 -2.1412 -2.6885  0.1468
 3467SOL    HW221864   0.525   3.661   0.572 -1.1368  1.9594 -1.8090
 3468SOL     OW21865   4.377   3.220   2.542  0.1391 -0.1468  0.0273
 3468SOL    HW121866   4.321   3.170   2.602  0.5271 -1.0119 -0.3294
 3468SOL    HW221867   4.460   3.221   2.590 -0.9951 -0.0205  1.9737
 3469SOL     OW21868   4.124   2.376  15.708  0.3511 -0.1074 -0.4014
 3469SOL    HW121869   4.187   2.311  15.677 -1.1023 -1.8385  0.2829
 3469SOL    HW221870   4.046   2.361  15.655  0.2689  0.7618 -0.5208
 3470SOL     OW21871   2.130   1.295   2.957  0.3421 -0.1405  0.5360
 3470SOL    HW121872   2.065   1.365   2.950  1.0560  0.5353  0.6886
 3470SOL    HW221873   2.158   1.293   2.866 -2.0967  2.1033 -0.2580
 3471SOL     OW21874   4.463   0.991   9.697  0.4092 -0.0817  0.1039
 3471SOL    HW121875   4.434   0.953   9.780  0.7967 -2.0365 -0.6564
 3471SOL    HW221876   4.556   1.000   9.714  0.1908  2.6396 -0.0362
 3472SOL     OW21877   1.245   0.523   8.452  0.2372  0.5156  0.0243
 3472SOL    HW121878   1.303   0.501   8.380 -0.0126 -1.3914  0.4195
 3472SOL    HW221879   1.263   0.453   8.514 -0.1246  0.1594 -0.2758
 3473SOL     OW21880   3.117   1.356   3.925  0.3538  0.1409 -0.2591
 3473SOL    HW121881   3.043   1.367   3.865 -1.4520 -2.4430  1.4723
 3473SOL    HW221882   3.194   1.361   3.868 -0.2430  1.4630 -0.9383
 3474SOL     OW21883   0.195   3.168   2.511  0.0975 -0.2398  0.0431
 3474SOL    HW121884   0.138   3.210   2.446 -1.4422 -1.6022  0.5044
 3474SOL    HW221885   0.178   3.220   2.590  2.4917  0.6096  0.0069
 3475SOL     OW21886   0.738   1.276   6.472 -0.5071  0.2938 -0.2673
 3475SOL    HW121887   0.784   1.270   6.388  0.6537 -1.5515  0.4945
 3475SOL    HW221888   0.806   1.301   6.534  1.9298 -1.8760 -2.0575
 3476SOL     OW21889   3.562   3.212   3.009 -0.6564 -0.3125 -0.2609
 3476SOL    HW121890   3.597   3.295   2.975  0.6296 -1.1815 -1.0512
 3476SOL    HW221891   3.539   3.254   3.092  0.1524 -1.1312  0.3678
 3477SOL     OW21892   0.130   2.117  13.840  0.8571 -0.2874 -0.8583
 3477SOL    HW121893   0.215   2.156  13.860  1.0507 -1.0090 -0.2777
 3477SOL    HW221894   0.067   2.158  13.900  2.2282 -0.5122  0.7204
 3478SOL     OW21895   0.607   0.089  12.725 -0.0659  0.5264 -0.1770
 3478SOL    HW121896   0.522   0.053  12.749  1.4206 -3.1136 -0.2841
 3478SOL    HW221897   0.608   0.170  12.776  3.1832  2.1158 -2.7641
 3479SOL     OW21898   3.644   2.799  11.267 -0.2567  0.4675 -0.0652
 3479SOL    HW121899   3.688   2.837  11.190  0.5678 -0.6858 -0.1554
 3479SOL    HW221900   3.685   2.713  11.272 -0.3499  0.4478  0.3036
 3480SOL     OW21901   4.441   2.505  11.338 -0.0782 -0.0173 -0.1227
 3480SOL    HW121902   4.384   2.485  11.413 -0.9180 -1.4338 -1.1375
 3480SOL    HW221903   4.500   2.572  11.371 -1.6308  1.9997 -1.4138
 3481SOL     OW21904   3.259   1.840   5.779  0.1162  0.3822 -0.0425
 3481SOL    HW121905   3.346   1.879   5.786  0.2499 -0.4732  2.7419
 3481SOL    HW221906   3.260   1.806   5.689 -0.4080  0.0689  0.0673
 3482SOL     OW21907   0.580   3.833   6.686 -0.1492 -0.5355  0.0063
 3482SOL    HW121908   0.645   3.895   6.718 -0.8972  0.1736  0.1491
 3482SOL    HW221909   0.546   3.881   6.610 -0.4073 -1.2054 -0.3037
 3483SOL     OW21910   3.130   0.316   3.640  0.0130 -0.0074  0.2402
 3483SOL    HW121911   3.077   0.368   3.579  1.7431  1.6899  0.1720
 3483SOL    HW221912   3.215   0.359   3.652 -0.0782  0.0469  0.6710
 3484SOL     OW21913   2.479   2.176   6.220 -0.2281 -0.3627 -0.4461
 3484SOL    HW121914   2.483   2.262   6.262  0.6407 -0.8181  0.4351
 3484SOL    HW221915   2.522   2.130   6.293 -0.0082 -2.3156 -1.8357
 3485SOL     OW21916   2.312   0.993   4.650  0.0090  0.0182 -0.1402
 3485SOL    HW121917   2.236   0.953   4.609  0.7266 -1.1488 -0.3265
 3485SOL    HW221918   2.372   0.918   4.650 -0.1602 -0.1135 -1.5437
 3486SOL     OW21919   2.692   3.720   4.654  0.5156  0.3834 -0.1877
 3486SOL    HW121920   2.707   3.657   4.583 -0.2760 -0.4214  0.3622
 3486SOL    HW221921   2.602   3.700   4.681 -0.4189  0.2295 -3.3879
 3487SOL     OW21922   3.736   4.259   2.429 -0.0839 -0.2587 -0.2218
 3487SOL    HW121923   3.801   4.249   2.499 -0.4246 -0.4290  0.0729
 3487SOL    HW221924   3.756   4.181   2.376  0.4797  0.5581 -1.2068
 3488SOL     OW21925   2.457   0.859   1.860 -0.0056 -0.0385  0.3200
 3488SOL    HW121926   2.522   0.880   1.926  2.5550 -0.2748 -2.1590
 3488SOL    HW221927   2.476   0.925   1.794 -0.2661 -1.8307 -1.5473
 3489SOL     OW21928   1.443   4.572   7.689 -0.0056 -0.1875 -0.0604
 3489SOL    HW121929   1.516   4.615   7.645  0.7732 -2.7828 -1.3127
 3489SOL    HW221930   1.488   4.513   7.749 -2.5319  0.4524  2.4888
 3490SOL     OW21931   4.448   2.278   3.139  0.6304 -0.4999 -0.0543
 3490SOL    HW121932   4.382   2.289   3.071 -0.7598 -1.5073  1.1062
 3490SOL    HW221933   4.398   2.236   3.210 -0.9260  1.3882 -0.0117
 3491SOL     OW21934   3.649   3.598  13.941 -0.8132 -0.4722 -0.0465
 3491SOL    HW121935   3.724   3.657  13.955 -0.4625 -1.2839  1.5714
 3491SOL    HW221936   3.570   3.652  13.939 -0.8902 -0.7943 -4.8786
 3492SOL     OW21937   0.144   1.151  12.889 -0.2388 -0.1523 -0.0073
 3492SOL    HW121938   0.229   1.135  12.930  0.6338  1.2524 -1.3084
 3492SOL    HW221939   0.085   1.126  12.960  1.3120 -3.1347  0.2384
 3493SOL     OW21940   1.267   2.668  11.865  0.1280  0.3758 -0.3923
 3493SOL    HW121941   1.349   2.620  11.856 -0.2763 -0.2758 -0.6203
 3493SOL    HW221942   1.224   2.637  11.785  0.3234  1.4430 -0.9145
 3494SOL     OW21943   1.195   3.511   2.388 -0.6619 -1.0980 -0.3215
 3494SOL    HW121944   1.218   3.580   2.326 -1.5889 -0.5312 -0.0272
 3494SOL    HW221945   1.141   3.464   2.324  1.3995 -0.3364 -2.6031
 3495SOL     OW21946   2.298   4.550   0.607 -0.3013  1.0480  0.5424
 3495SOL    HW121947   2.361   4.548   0.679  2.3041 -0.2442 -1.7580
 3495SOL    HW221948   2.360   4.564   0.536 -0.7648 -1.7229 -0.4103
 3496SOL     OW21949   0.705   3.936  10.454  0.0231  0.0881  0.3109
 3496SOL    HW121950   0.653   3.892  10.387  2.0934 -1.7338 -0.0888
 3496SOL    HW221951   0.704   3.880  10.531  0.6483 -1.7006 -0.9700
 3497SOL     OW21952   0.589   4.610   3.434  0.2711 -0.1860  0.1259
 3497SOL    HW121953   0.521   4.557   3.393 -0.8180  1.2712  0.0666
 3497SOL    HW221954   0.551   4.690   3.398  2.9195  0.7042 -0.7535
 3498SOL     OW21955   3.527   1.091   5.900  0.3454  0.1974  1.0720
 3498SOL    HW121956   3.542   1.174   5.946 -0.6210  1.0471 -0.1385
 3498SOL    HW221957   3.457   1.052   5.952  0.0757 -0.4176  0.2559
 3499SOL     OW21958   2.632   3.211   7.136  0.1401 -0.0924  0.6302
 3499SOL    HW121959   2.581   3.292   7.136 -0.5297 -0.5151  1.2379
 3499SOL    HW221960   2.590   3.154   7.072  2.4253 -1.4577  0.3438
 3500SOL     OW21961   3.246   4.688   1.699  0.3517  0.3216  0.6605
 3500SOL    HW121962   3.284   0.026   1.762  0.4008  0.4083  0.5450
 3500SOL    HW221963   3.169   4.658   1.748 -0.6452 -0.1742 -1.2065
 3501SOL     OW21964   3.592   1.573  16.033 -0.5129  0.0640  0.1679
 3501SOL    HW121965   3.545   1.582  16.116  1.0242  1.2010  0.9000
 3501SOL    HW221966   3.555   1.643  15.979  0.9447  0.4764 -0.2943
 3502SOL     OW21967   2.294   4.077  10.908 -0.4080 -0.2849  0.0824
 3502SOL    HW121968   2.291   3.995  10.957  0.3294 -0.7958 -0.7056
 3502SOL    HW221969   2.215   4.123  10.936 -0.6402 -1.3150  1.0888
 3503SOL     OW21970   2.195   3.116  10.681  0.1273 -0.3477  0.7156
 3503SOL    HW121971   2.237   3.076  10.758  3.2467  0.4304 -0.6117
 3503SOL    HW221972   2.181   3.208  10.704 -0.3061  0.1946 -1.7535
 3504SOL     OW21973   1.380   2.967   0.124 -0.2579  0.2611 -0.4489
 3504SOL    HW121974   1.349   2.906   0.058  0.8340 -0.9726  0.1802
 3504SOL    HW221975   1.305   2.973   0.183  0.0864 -0.0057  0.0207
 3505SOL     OW21976   1.914   4.287   0.608 -0.3802 -0.0391 -0.5889
 3505SOL    HW121977   1.992   4.283   0.553 -0.2979 -1.4513 -0.3599
 3505SOL    HW221978   1.942   4.336   0.684  2.1243 -1.2783 -0.7322
 3506SOL     OW21979   3.778   0.046   6.920 -0.0532 -0.4539  0.2591
 3506SOL    HW121980   3.736   4.688   6.948 -3.2374  1.6285  1.4664
 3506SOL    HW221981   3.808   0.069   7.008 -0.3612 -0.1127  0.2701
 3507SOL     OW21982   2.354   2.529   1.641 -0.0777 -0.2359  0.5220
 3507SOL    HW121983   2.390   2.448   1.605 -0.5774 -0.9167  1.5508
 3507SOL    HW221984   2.320   2.560   1.557  0.6704 -1.6709 -0.3159
 3508SOL     OW21985   0.825   0.414   7.494 -0.5364 -0.0175 -0.3811
 3508SOL    HW121986   0.872   0.495   7.473 -1.5620 -0.0721 -2.9722
 3508SOL    HW221987   0.733   0.439   7.493 -0.7570 -0.8488 -1.1710
 3509SOL     OW21988   0.274   4.113  13.431 -0.2837  0.2224  0.4315
 3509SOL    HW121989   0.318   4.121  13.346  0.9352 -1.9518  0.8639
 3509SOL    HW221990   0.181   4.125  13.417  0.3130  1.2878 -2.5412
 3510SOL     OW21991   3.823   1.967  13.769  0.0659 -0.8114 -0.2507
 3510SOL    HW121992   3.754   1.908  13.739  1.0922 -1.7499 -0.8104
 3510SOL    HW221993   3.780   2.017  13.838  2.4891 -0.4916  1.0340
 3511SOL     OW21994   0.734   0.498   3.280  0.3621 -0.5751  0.0964
 3511SOL    HW121995   0.765   0.501   3.189  1.3582  3.0532  0.5520
 3511SOL    HW221996   0.667   0.430   3.276 -0.4107  0.2144 -0.3978
 3512SOL     OW21997   2.487   4.717  17.247 -0.1979  0.9592 -1.3331
 3512SOL    HW121998   2.559   0.009  17.308 -2.4257  0.0917  1.5338
 3512SOL    HW221999   2.423   0.054  17.283  0.1170 -0.1895  1.1650
 3513SOL     OW22000   2.902   0.460  15.273 -0.0575 -0.3963 -0.1477
 3513SOL    HW122001   2.871   0.444  15.184 -0.7526  0.0207  0.0156
 3513SOL    HW222002   2.907   0.370  15.305  0.1611 -0.3241  0.0216
 3514SOL     OW22003   0.104   1.409  14.584  0.0441  0.6317  0.0947
 3514SOL    HW122004   0.135   1.406  14.674  0.8446 -0.8182 -0.2330
 3514SOL    HW222005   0.062   1.323  14.573 -0.9819  1.3042 -1.3475
 3515SOL     OW22006   1.085   3.050   3.991 -0.3228  0.0628  0.1019
 3515SOL    HW122007   1.082   2.959   4.022  0.5433 -0.2490 -0.7373
 3515SOL    HW222008   1.020   3.045   3.921 -0.1690 -0.3958 -0.0114
 3516SOL     OW22009   0.162   1.257   4.111  0.1314  0.0319  0.2414
 3516SOL    HW122010   0.075   1.253   4.152  0.2891  0.3929  0.6129
 3516SOL    HW222011   0.225   1.230   4.177 -0.3096  0.1331  0.7078
 3517SOL     OW22012   3.527   2.391  11.193  0.3505  0.0704 -0.1673
 3517SOL    HW122013   3.503   2.406  11.284 -1.0520  1.3094 -0.7401
 3517SOL    HW222014   3.617   2.424  11.191  0.3619  0.0247 -0.3824
 3518SOL     OW22015   2.856   2.226   5.663 -0.7304 -0.3356 -0.0223
 3518SOL    HW122016   2.835   2.275   5.584 -0.9263 -1.6129 -0.7626
 3518SOL    HW222017   2.937   2.183   5.636 -0.0114 -0.5733  2.5081
 3519SOL     OW22018   2.196   3.737   3.319  0.1317 -0.1241 -0.0158
 3519SOL    HW122019   2.169   3.792   3.246 -3.9608 -0.5554  1.1264
 3519SOL    HW222020   2.169   3.649   3.290  1.2099 -0.5687  0.3446
 3520SOL     OW22021   2.900   1.644  11.816  0.1326  0.1152 -0.5830
 3520SOL    HW122022   2.958   1.581  11.859 -0.2949 -0.0268 -0.2211
 3520SOL    HW222023   2.872   1.598  11.737 -2.4174  0.2295  0.2430
 3521SOL     OW22024   1.203   0.849   8.247 -0.0992 -0.1649  0.2454
 3521SOL    HW122025   1.169   0.760   8.251 -1.9524  0.4832 -0.9295
 3521SOL    HW222026   1.167   0.875   8.163  0.8448 -2.0643 -0.7274
 3522SOL     OW22027   2.803   4.551   0.783 -0.1462 -0.2801  0.0632
 3522SOL    HW122028   2.799   4.510   0.870 -0.3110  1.0721  0.6878
 3522SOL    HW222029   2.798   4.478   0.721 -0.7404  0.8953 -1.2529
 3523SOL     OW22030   3.450   1.504   0.966  0.6198  0.8073  0.3851
 3523SOL    HW122031   3.530   1.463   1.000 -0.0953 -1.0163 -0.1866
 3523SOL    HW222032   3.501   1.582   0.941 -0.2480  0.7671 -1.4235
 3524SOL     OW22033   4.717   3.364   8.337  0.0032 -0.3339  0.0856
 3524SOL    HW122034   4.723   3.385   8.244  0.0160 -1.0308 -0.0692
 3524SOL    HW222035   0.031   3.443   8.377 -1.2129  1.1196 -1.6472
 3525SOL     OW22036   3.957   4.303   7.890 -0.1900 -0.5776 -0.1538
 3525SOL    HW122037   3.982   4.280   7.800 -0.0057  0.8426 -0.4695
 3525SOL    HW222038   3.921   4.222   7.926  0.7359 -0.2313  1.5552
 3526SOL     OW22039   3.900   1.020   8.545 -0.4071 -0.3177 -0.0035
 3526SOL    HW122040   3.863   1.058   8.465 -1.2902  1.8042  1.4024
 3526SOL    HW222041   3.894   0.928   8.522  1.9035 -0.4500 -0.0788
 3527SOL     OW22042   1.013   4.540  17.614 -0.4025 -0.3879 -0.0351
 3527SOL    HW122043   1.088   4.593  17.642  0.9270 -2.2848  0.0118
 3527SOL    HW222044   0.963   4.540  17.696  0.9749  1.5222  0.8054
 3528SOL     OW22045   1.809   0.206   5.911  0.4528  0.1806  0.2791
 3528SOL    HW122046   1.723   0.229   5.945 -0.2193 -0.9004 -0.7074
 3528SOL    HW222047   1.860   0.248   5.981  0.4975 -0.9513  0.9243
 3529SOL     OW22048   1.286   1.656  11.115  0.0010 -0.2464 -0.2176
 3529SOL    HW122049   1.216   1.720  11.108 -0.8291 -0.9810  1.3295
 3529SOL    HW222050   1.359   1.708  11.082  0.3544 -0.3102  0.4780
 3530SOL     OW22051   2.958   2.216   8.745  0.0251 -0.2925 -0.6655
 3530SOL    HW122052   2.911   2.278   8.689  0.1203  1.5726  1.3088
 3530SOL    HW222053   2.964   2.140   8.687  1.8402  0.3711 -1.3390
 3531SOL     OW22054   4.107   4.081   2.180 -0.0097  0.3351  0.2936
 3531SOL    HW122055   4.154   4.127   2.250 -1.8541  0.5119  1.4140
 3531SOL    HW222056   4.091   4.001   2.231  1.2991  1.0648  1.8611
 3532SOL     OW22057   3.902   0.584   2.378 -0.4377  0.4056  0.0225
 3532SOL    HW122058   3.937   0.583   2.289 -0.7957 -1.3651 -0.0836
 3532SOL    HW222059   3.892   0.677   2.402  0.9793  0.0504  2.0187
 3533SOL     OW22060   3.831   2.896   2.544 -1.1323  0.2908  0.1290
 3533SOL    HW122061   3.879   2.887   2.461 -0.4330 -0.7018  0.6317
 3533SOL    HW222062   3.852   2.985   2.573  2.8229 -0.9078  0.9442
 3534SOL     OW22063   4.267   4.211   0.757 -0.0450  0.4743 -0.0948
 3534SOL    HW122064   4.308   4.139   0.806 -0.7004 -0.5303 -1.0101
 3534SOL    HW222065   4.208   4.150   0.713 -0.7867  0.2378  1.2234
 3535SOL     OW22066   0.413   4.626   7.852 -0.2426  0.3760 -0.0827
 3535SOL    HW122067   0.478   4.629   7.781 -0.0978 -1.1684 -0.0116
 3535SOL    HW222068   0.410   4.533   7.875 -0.3833  0.6518  0.9936
 3536SOL     OW22069   2.209   1.929  13.552  0.4682 -0.3283 -0.4101
 3536SOL    HW122070   2.246   1.910  13.466  2.7931  0.5916  0.3846
 3536SOL    HW222071   2.254   1.864  13.606 -1.7367 -1.2175  0.3576
 3537SOL     OW22072   2.019   1.304   2.028 -0.3246 -0.1749 -0.4416
 3537SOL    HW122073   2.039   1.211   2.037 -0.5391 -0.2245 -0.4814
 3537SOL    HW222074   1.933   1.300   1.987 -0.6501 -1.3734  0.3524
 3538SOL     OW22075   3.273   1.057   4.986  0.0582  0.0854  0.3211
 3538SOL    HW122076   3.339   1.004   5.031  0.5730  0.2824 -0.2012
 3538SOL    HW222077   3.210   1.060   5.058 -1.0303 -0.4606 -0.6132
 3539SOL     OW22078   1.979   1.223   1.482  0.4806 -0.9246 -0.1840
 3539SOL    HW122079   2.030   1.196   1.406 -0.9054  0.1540 -1.4963
 3539SOL    HW222080   1.900   1.256   1.439  1.0747 -0.2046 -0.7131
 3540SOL     OW22081   0.282   0.804   4.815 -0.0193  0.0912 -0.7900
 3540SOL    HW122082   0.196   0.771   4.843 -0.2524  1.7106  0.4169
 3540SOL    HW222083   0.308   0.826   4.905 -0.5386 -0.8769 -0.3988
 3541SOL     OW22084   4.173   4.390   6.189 -0.4014 -0.1236  0.2765
 3541SOL    HW122085   4.224   4.377   6.109  0.8349  0.2148  0.9964
 3541SOL    HW222086   4.086   4.390   6.151  0.8705  1.0174 -2.5836
 3542SOL     OW22087   4.552   1.190   3.394 -0.3833 -0.6356 -0.5234
 3542SOL    HW122088   4.625   1.249   3.373 -1.1552  0.8446  0.9579
 3542SOL    HW222089   4.489   1.243   3.442 -0.1210 -0.2609 -0.5876
 3543SOL     OW22090   3.136   2.087  11.677 -0.1622  0.2772  0.0466
 3543SOL    HW122091   3.204   2.063  11.614 -1.7331 -0.1709 -1.5111
 3543SOL    HW222092   3.184   2.121  11.752 -0.1479  0.9583 -0.2721
 3544SOL     OW22093   1.908   0.582   8.570 -0.1013 -0.3766  0.4768
 3544SOL    HW122094   1.887   0.674   8.582  1.1908  0.1027 -0.9955
 3544SOL    HW222095   1.822   0.548   8.543 -0.5160  0.4064  0.8049
 3545SOL     OW22096   4.345   3.028  12.092  0.0516 -0.4169 -0.5277
 3545SOL    HW122097   4.253   3.030  12.067 -0.1902 -2.1015  0.2396
 3545SOL    HW222098   4.333   2.981  12.174  1.1970  3.5125  1.8815
 3546SOL     OW22099   1.209   3.902  16.548 -0.5468 -0.0479 -0.4233
 3546SOL    HW122100   1.292   3.949  16.558  1.3529 -2.6030 -4.5481
 3546SOL    HW222101   1.220   3.840  16.620  1.3607 -1.4214 -1.9007
 3547SOL     OW22102   1.088   2.281   3.011  0.1813  0.0202  0.2675
 3547SOL    HW122103   1.101   2.313   2.922 -1.7808  0.1638  0.0269
 3547SOL    HW222104   1.051   2.354   3.061 -1.1563  0.1432 -0.9166
 3548SOL     OW22105   3.586   0.429  15.595 -0.3010  0.0372 -0.3047
 3548SOL    HW122106   3.556   0.381  15.673  0.1429  0.2794  0.0133
 3548SOL    HW222107   3.646   0.368  15.552  0.0849  0.2590 -0.0798
 3549SOL     OW22108   4.423   2.076   5.354  0.8340 -0.4673  0.1681
 3549SOL    HW122109   4.418   2.166   5.320 -0.0797 -0.4399  0.3795
 3549SOL    HW222110   4.507   2.046   5.318  0.4700 -0.8205 -0.3951
 3550SOL     OW22111   1.844   0.675  10.509  0.4607  0.5233  0.5142
 3550SOL    HW122112   1.849   0.592  10.557 -0.3198 -0.2235 -0.6965
 3550SOL    HW222113   1.749   0.678  10.497  0.7488 -0.5171 -1.9026
 3551SOL     OW22114   2.687   0.078   3.110  0.3646  0.6030 -0.4884
 3551SOL    HW122115   2.745   0.082   3.186  0.1957  0.4439 -0.3508
 3551SOL    HW222116   2.719   0.156   3.064  1.4180 -0.1920 -1.1159
 3552SOL     OW22117   3.138   1.455  14.907  0.2788  0.7813  0.0749
 3552SOL    HW122118   3.218   1.415  14.872 -0.0786  1.0091 -0.9888
 3552SOL    HW222119   3.112   1.520  14.842  0.6426  0.3424 -0.5172
 3553SOL     OW22120   2.304   3.783   4.125 -0.8804 -0.1928 -0.1194
 3553SOL    HW122121   2.277   3.735   4.046  0.1748 -0.0811 -0.5595
 3553SOL    HW222122   2.271   3.718   4.186 -2.0791 -2.1049 -2.7765
 3554SOL     OW22123   3.274   3.108   9.708 -0.6683 -0.0979  0.3228
 3554SOL    HW122124   3.220   3.110   9.787 -0.8019  1.9815  0.1853
 3554SOL    HW222125   3.291   3.014   9.703  3.1141  0.4433  2.8293
 3555SOL     OW22126   0.043   0.702   4.883 -0.3069 -0.4189 -0.2012
 3555SOL    HW122127   0.044   0.609   4.906  1.5780 -0.3861 -0.1634
 3555SOL    HW222128   4.672   0.707   4.867 -0.0773  0.6159 -1.1988
 3556SOL     OW22129   4.154   3.750   4.949 -0.3763  0.1942 -0.0885
 3556SOL    HW122130   4.201   3.780   5.027 -0.5653  1.7554 -0.5757
 3556SOL    HW222131   4.208   3.788   4.880 -2.7005  0.6069 -1.6516
 3557SOL     OW22132   0.340   3.154   5.029 -0.0423  0.1343  0.2543
 3557SOL    HW122133   0.287   3.234   5.028 -0.1311  0.0174 -2.9705
 3557SOL    HW222134   0.318   3.121   4.942  1.8163  0.1990 -0.2528
 3558SOL     OW22135   3.305   0.843   7.318 -0.3644 -0.0928 -0.1369
 3558SOL    HW122136   3.261   0.920   7.353  0.9706  1.1202 -1.1415
 3558SOL    HW222137   3.277   0.854   7.227  2.4883  1.2387 -0.8208
 3559SOL     OW22138   1.213   2.640   2.621  0.1583 -0.2506 -0.0197
 3559SOL    HW122139   1.285   2.660   2.562 -1.1371  0.3084 -1.4145
 3559SOL    HW222140   1.266   2.602   2.691 -2.0745 -0.3799  1.6176
 3560SOL     OW22141   0.272   3.781   9.947 -0.2934 -0.3172 -0.3812
 3560SOL    HW122142   0.310   3.767   9.860 -2.5414 -0.0096 -1.4065
 3560SOL    HW222143   0.201   3.844   9.933 -1.2111 -1.0524  1.0154
 3561SOL     OW22144   3.704   4.411   9.062  0.1113 -0.6297  0.5310
 3561SOL    HW122145   3.784   4.359   9.071  0.6974  0.1744 -0.0612
 3561SOL    HW222146   3.710   4.453   9.148  0.2093  1.7764 -0.6440
 3562SOL     OW22147   0.919   1.340  15.966 -0.0145  1.1057  0.5360
 3562SOL    HW122148   0.875   1.296  15.893 -0.3807  0.4737  1.1429
 3562SOL    HW222149   1.011   1.337  15.938  0.3307 -2.0967  2.0190
 3563SOL     OW22150   1.928   4.437   5.169 -0.6646 -0.5143  0.5387
 3563SOL    HW122151   1.992   4.382   5.124 -1.7433 -0.0501 -1.5495
 3563SOL    HW222152   1.864   4.382   5.213  0.7383 -2.5591  0.0309
 3564SOL     OW22153   2.905   0.579  17.507  0.6778  0.0572  0.2810
 3564SOL    HW122154   2.866   0.502  17.550 -2.2447  0.9796 -0.7333
 3564SOL    HW222155   2.939   0.628  17.582 -0.4031  0.8372  0.2653
 3565SOL     OW22156   2.059   0.776   1.675 -0.7114  0.3081  0.0657
 3565SOL    HW122157   2.041   0.843   1.741  1.1275  0.2200  0.6376
 3565SOL    HW222158   2.132   0.810   1.624  0.5399  0.1393  1.7510
 3566SOL     OW22159   3.532   3.656   6.495  0.5560 -0.7244  0.1253
 3566SOL    HW122160   3.495   3.737   6.531  0.8240  0.1337 -1.5254
 3566SOL    HW222161   3.602   3.641   6.558  1.5825  1.1325 -0.5680
 3567SOL     OW22162   3.138   1.492  17.379 -0.0593 -0.8833  0.1658
 3567SOL    HW122163   3.097   1.405  17.378 -2.8256  0.4154  1.2455
 3567SOL    HW222164   3.067   1.554  17.397  0.1913 -0.2750 -0.9636
 3568SOL     OW22165   1.244   4.074   3.213  0.1035  0.4931  0.0888
 3568SOL    HW122166   1.177   4.045   3.275  1.0165  0.0497  0.8658
 3568SOL    HW222167   1.201   4.092   3.129 -1.9885  1.3216  1.3494
 3569SOL     OW22168   0.936   0.451  12.024 -0.4049  0.1982 -0.1696
 3569SOL    HW122169   0.887   0.441  12.106  0.4411 -2.0680  0.0488
 3569SOL    HW222170   1.024   0.459  12.061 -0.1762  0.3105 -0.7457
 3570SOL     OW22171   1.171   2.116   3.990 -0.4490 -0.5073 -0.3206
 3570SOL    HW122172   1.239   2.129   3.925 -1.0723 -0.8035 -1.0272
 3570SOL    HW222173   1.091   2.118   3.938 -0.7916 -1.3484  0.1635
 3571SOL     OW22174   2.765   3.380   8.212 -0.1829  0.0609 -0.4396
 3571SOL    HW122175   2.683   3.355   8.254 -1.3709  0.7440 -2.3508
 3571SOL    HW222176   2.799   3.296   8.180  1.5272 -0.5461  2.9895
 3572SOL     OW22177   1.734   3.646   4.037 -0.3543  0.1758  0.1638
 3572SOL    HW122178   1.726   3.722   3.978  0.4042 -0.8572 -1.2819
 3572SOL    HW222179   1.670   3.660   4.106 -2.5923 -0.0279 -1.8499
 3573SOL     OW22180   3.530   4.034   1.840  0.0423  0.5085 -0.6655
 3573SOL    HW122181   3.473   4.102   1.804  0.1603  0.9496 -0.0131
 3573SOL    HW222182   3.605   4.039   1.781  0.1538 -0.2354 -0.5912
 3574SOL     OW22183   2.526   3.773  15.939  0.2513 -0.0046  0.7243
 3574SOL    HW122184   2.485   3.771  16.025 -0.8572  0.6249  0.2186
 3574SOL    HW222185   2.579   3.853  15.928 -0.1176  0.0673 -0.5000
 3575SOL     OW22186   3.775   4.606   3.409  0.3556  0.4599 -0.0191
 3575SOL    HW122187   3.830   4.666   3.359 -0.3355  1.4440  0.3903
 3575SOL    HW222188   3.837   4.533   3.410 -0.1577  0.0199 -0.5750
 3576SOL     OW22189   2.385   4.669   1.238  1.1039  0.4204 -0.4063
 3576SOL    HW122190   2.425   4.599   1.185  2.0413  1.5173 -1.1552
 3576SOL    HW222191   2.374   0.017   1.175 -2.2271  0.1332 -0.1160
 3577SOL     OW22192   2.033   0.673   5.240 -0.3658 -0.0399 -0.1196
 3577SOL    HW122193   1.973   0.651   5.168 -1.3099  1.5223  0.1847
 3577SOL    HW222194   2.006   0.604   5.301 -1.2947 -0.1299 -0.6302
 3578SOL     OW22195   3.313   4.360  10.274 -0.3692  0.2868  0.1508
 3578SOL    HW122196   3.399   4.397  10.252 -0.7967  2.0185  1.3764
 3578SOL    HW222197   3.336   4.269  10.288 -1.8192 -0.2037 -0.5896
 3579SOL     OW22198   2.921   3.657  10.951 -0.2002  0.0644 -0.0798
 3579SOL    HW122199   2.966   3.725  11.001  0.0840 -1.1705  1.3593
 3579SOL    HW222200   2.981   3.587  10.976 -0.1663 -0.2381 -1.0174
 3580SOL     OW22201   1.567   1.205   6.295  0.1549 -0.6506 -0.0553
 3580SOL    HW122202   1.618   1.279   6.326  0.6429 -0.5070 -1.1947
 3580SOL    HW222203   1.544   1.232   6.206 -0.0274 -0.7842 -0.0503
 3581SOL     OW22204   1.413   2.999   8.019 -0.2523  0.0194  0.0893
 3581SOL    HW122205   1.341   2.964   7.965  1.5875 -0.6053 -1.9378
 3581SOL    HW222206   1.441   2.920   8.066  1.0691 -0.1506 -0.9823
 3582SOL     OW22207   4.614   0.144   0.285  0.2000 -0.3465  0.2975
 3582SOL    HW122208   4.669   0.210   0.327  0.3618  0.6211 -1.4427
 3582SOL    HW222209   4.554   0.209   0.248  0.4083 -1.5941 -2.2190
 3583SOL     OW22210   1.313   4.644   3.988  0.0456 -0.2978  0.8162
 3583SOL    HW122211   1.314   4.549   3.978 -1.2065 -0.6001  3.6285
 3583SOL    HW222212   1.267   4.639   4.071  0.4790  0.9850  1.1290
 3584SOL     OW22213   3.104   4.458  13.622 -0.4220 -0.3227 -0.1016
 3584SOL    HW122214   3.136   4.429  13.537 -0.7443  0.6686 -0.5526
 3584SOL    HW222215   3.165   4.406  13.675  2.4677  3.4817  0.3135
 3585SOL     OW22216   4.175   3.888   7.726 -0.0487 -0.3318  0.4454
 3585SOL    HW122217   4.099   3.946   7.726  0.4404  0.3174  0.3511
 3585SOL    HW222218   4.133   3.803   7.732  0.9907 -0.8620  0.2400
 3586SOL     OW22219   2.759   4.411   1.037 -0.2450 -0.2142  0.1535
 3586SOL    HW122220   2.686   4.472   1.035 -0.0727 -0.0399 -0.7778
 3586SOL    HW222221   2.811   4.429   1.116 -1.2773 -0.3364  0.8589
 3587SOL     OW22222   0.817   0.823  14.128 -0.4060  0.4685  0.1006
 3587SOL    HW122223   0.867   0.873  14.192 -0.0199 -1.5626  1.3712
 3587SOL    HW222224   0.883   0.803  14.061  2.1921  2.0418  2.2165
 3588SOL     OW22225   0.526   1.300   2.099  0.4235  0.9547  0.3089
 3588SOL    HW122226   0.471   1.334   2.029  0.4492  0.6074  0.1211
 3588SOL    HW222227   0.601   1.283   2.044 -0.8613 -0.3172 -1.0438
 3589SOL     OW22228   1.986   1.129   9.519 -0.1011 -0.0936 -0.2713
 3589SOL    HW122229   2.017   1.205   9.569  0.1824 -0.3552 -0.0516
 3589SOL    HW222230   1.934   1.089   9.589 -0.3240 -0.4297 -0.6303
 3590SOL     OW22231   0.344   1.260  11.390 -0.6282  0.3446 -0.2269
 3590SOL    HW122232   0.308   1.347  11.410 -4.5937 -1.0870 -1.0954
 3590SOL    HW222233   0.270   1.207  11.361 -0.6020  0.1389  0.0864
 3591SOL     OW22234   2.848   3.387  11.646  0.4609 -0.2260  0.1331
 3591SOL    HW122235   2.895   3.320  11.696  0.0229  0.6409  1.6841
 3591SOL    HW222236   2.834   3.352  11.557  2.1246 -1.3146  0.3052
 3592SOL     OW22237   0.925   3.240  13.373  0.6465 -0.1836 -0.5782
 3592SOL    HW122238   1.001   3.270  13.322  2.6363 -0.8884  1.9695
 3592SOL    HW222239   0.879   3.184  13.310  1.2513 -1.0547 -0.2365
 3593SOL     OW22240   3.302   4.087   1.411  0.6683 -0.4181 -0.0188
 3593SOL    HW122241   3.273   4.013   1.463 -0.7568  0.9713  1.1665
 3593SOL    HW222242   3.287   4.046   1.326 -0.5230 -0.7986  0.3821
 3594SOL     OW22243   1.913   3.570   5.808  0.6618 -0.1585  0.1616
 3594SOL    HW122244   1.944   3.656   5.781 -1.5812  1.0308  1.4069
 3594SOL    HW222245   1.887   3.592   5.897  0.0199 -0.4229  0.0386
 3595SOL     OW22246   2.452   2.174   7.075 -0.0037  0.0157 -0.2962
 3595SOL    HW122247   2.446   2.238   7.003  1.8896  1.4223  0.7954
 3595SOL    HW222248   2.473   2.095   7.024 -0.6877 -0.0278 -0.5073
 3596SOL     OW22249   2.264   3.095   3.659  0.4380  0.3956  0.1861
 3596SOL    HW122250   2.211   3.175   3.665 -0.8960 -0.4987  0.2734
 3596SOL    HW222251   2.293   3.098   3.568 -0.2944  0.7600 -0.0359
 3597SOL     OW22252   0.490   3.186   5.621 -0.4783 -0.0809 -0.2405
 3597SOL    HW122253   0.473   3.239   5.699  0.7596 -0.2730  0.1553
 3597SOL    HW222254   0.540   3.242   5.562  0.3949 -0.0101  0.5665
 3598SOL     OW22255   4.167   3.833   8.122  0.1095 -0.0287 -0.0003
 3598SOL    HW122256   4.239   3.886   8.090  0.9174 -1.3325 -0.3034
 3598SOL    HW222257   4.152   3.877   8.206 -1.0008 -0.1263 -0.1434
 3599SOL     OW22258   3.638   1.125   4.593  0.0726  0.4870 -0.4065
 3599SOL    HW122259   3.625   1.172   4.675  1.4467  0.2145 -0.0413
 3599SOL    HW222260   3.553   1.085   4.575 -0.2426  0.0152  2.1933
 3600SOL     OW22261   0.080   0.226   6.020  0.1028  0.1960 -0.5267
 3600SOL    HW122262   0.132   0.306   6.022 -0.5100  0.6080 -1.0532
 3600SOL    HW222263   0.119   0.176   6.092 -0.3178 -0.6935 -0.9272
 3601SOL     OW22264   2.460   4.711   7.584 -0.0029 -0.3170 -0.0120
 3601SOL    HW122265   2.469   0.004   7.678 -0.0110 -0.3379 -0.0074
 3601SOL    HW222266   2.548   0.003   7.550 -0.1870 -1.7541 -1.1614
 3602SOL     OW22267   1.845   0.168   0.286 -0.1984  0.3808 -0.0426
 3602SOL    HW122268   1.766   0.222   0.291 -0.0940  0.4397  0.8718
 3602SOL    HW222269   1.806   0.084   0.311 -1.0160  0.9030  0.4071
 3603SOL     OW22270   2.804   2.504   4.857  0.1088 -0.0383  0.4652
 3603SOL    HW122271   2.779   2.419   4.820  0.3908 -0.7368  1.8885
 3603SOL    HW222272   2.788   2.497   4.951 -3.4079 -1.1332 -0.2147
 3604SOL     OW22273   1.488   1.097   7.253 -0.0927 -0.0287  0.0033
 3604SOL    HW122274   1.468   1.044   7.175  1.2851 -1.4501  0.6358
 3604SOL    HW222275   1.408   1.090   7.305 -0.5495  2.6715 -0.3166
 3605SOL     OW22276   4.342   3.840   5.359  0.7531  0.3292 -0.6057
 3605SOL    HW122277   4.409   3.798   5.414  0.0228  2.2226  1.7575
 3605SOL    HW222278   4.398   3.914   5.335  0.8090  0.2724 -0.6513
 3606SOL     OW22279   0.440   3.505   5.307 -0.4132  0.4624 -0.2035
 3606SOL    HW122280   0.443   3.601   5.305  1.9825  0.4385  2.2619
 3606SOL    HW222281   0.345   3.494   5.317 -0.4528 -0.0871 -1.1308
 3607SOL     OW22282   0.016   3.256   5.858 -0.3139  0.4920 -0.2781
 3607SOL    HW122283   0.049   3.262   5.768 -0.1757 -2.2392 -0.4054
 3607SOL    HW222284   0.077   3.189   5.890 -0.3768  0.7661  0.4036
 3608SOL     OW22285   1.154   3.230   5.628  0.3263 -0.4724  0.2867
 3608SOL    HW122286   1.063   3.249   5.607  0.0700 -2.3902 -0.3796
 3608SOL    HW222287   1.146   3.238   5.723 -0.1748  0.8619  0.1254
 3609SOL     OW22288   1.401   2.320   4.241  0.0165 -0.3175  0.1399
 3609SOL    HW122289   1.419   2.380   4.313  0.8947  0.4178 -0.6915
 3609SOL    HW222290   1.385   2.388   4.176 -5.2532  0.6801  2.5071
 3610SOL     OW22291   1.225   4.343  10.751 -0.3786 -0.8951  0.6511
 3610SOL    HW122292   1.189   4.428  10.775  1.5574 -0.1300  0.8778
 3610SOL    HW222293   1.314   4.341  10.786 -0.0979 -1.0029 -0.0602
 3611SOL     OW22294   0.822   3.818   2.781  0.1715 -0.4494  0.1195
 3611SOL    HW122295   0.911   3.802   2.812  0.2717 -1.6630 -0.7556
 3611SOL    HW222296   0.843   3.825   2.688 -1.2333 -1.4019 -0.2706
 3612SOL     OW22297   0.822   0.604   6.663 -0.0707 -0.3082  0.3667
 3612SOL    HW122298   0.885   0.677   6.669 -0.0907 -0.3053  0.5571
 3612SOL    HW222299   0.824   0.573   6.573 -0.4851  0.4323  0.0998
 3613SOL     OW22300   0.331   4.149  13.094  0.1150  0.6954 -0.2849
 3613SOL    HW122301   0.385   4.075  13.067  1.5035  1.2835  0.8711
 3613SOL    HW222302   0.243   4.127  13.062 -0.5652 -0.6855  2.4754
 3614SOL     OW22303   0.112   0.652   7.485  0.0850  0.0542 -0.4707
 3614SOL    HW122304   0.188   0.655   7.544 -0.6112  0.3537  0.4260
 3614SOL    HW222305   0.085   0.561   7.498  0.5083 -0.0192 -0.0806
 3615SOL     OW22306   1.551   4.179   4.839 -0.0968  0.0872  0.2938
 3615SOL    HW122307   1.589   4.267   4.841 -0.4147  0.2274  0.0822
 3615SOL    HW222308   1.473   4.197   4.787  0.4045  0.9026 -0.1649
 3616SOL     OW22309   4.642   1.986   0.077 -0.9962 -0.1050 -0.0542
 3616SOL    HW122310   4.563   1.953   0.120 -1.1233 -3.0653 -2.5838
 3616SOL    HW222311   4.698   1.908   0.079  1.0159  1.3300  0.0842
 3617SOL     OW22312   2.652   0.399   1.514  0.2010 -0.7542  0.5342
 3617SOL    HW122313   2.715   0.350   1.461  1.4762  1.2188  0.1977
 3617SOL    HW222314   2.660   0.489   1.481  1.1922 -2.0014 -2.6750
 3618SOL     OW22315   0.149   3.046   2.898 -0.8275 -0.1207  0.3386
 3618SOL    HW122316   0.243   3.044   2.918 -0.9855  0.4386  1.1005
 3618SOL    HW222317   0.132   3.130   2.855  1.5237  0.0932 -0.1588
 3619SOL     OW22318   0.948   4.420   6.355  0.5014 -0.0843  0.5183
 3619SOL    HW122319   0.865   4.373   6.347 -1.0939  3.0463 -0.9458
 3619SOL    HW222320   0.922   4.507   6.327  0.3816 -0.0963  0.5915
 3620SOL     OW22321   4.229   0.065  13.879  0.3405  0.7027 -0.2953
 3620SOL    HW122322   4.286   0.051  13.955 -2.3348 -4.2817  0.7963
 3620SOL    HW222323   4.152   0.098  13.926 -0.0912  2.5194 -2.2806
 3621SOL     OW22324   1.220   1.930   0.574 -0.1893  0.2995 -0.1998
 3621SOL    HW122325   1.154   1.912   0.506  0.1996  4.3122 -1.6411
 3621SOL    HW222326   1.243   2.021   0.555  0.5680  0.0140 -0.6551
 3622SOL     OW22327   3.741   3.594   5.753  0.4974  0.3444 -0.2554
 3622SOL    HW122328   3.717   3.562   5.840  0.2921 -0.2797 -0.5363
 3622SOL    HW222329   3.695   3.678   5.750  3.4903  1.9754 -0.0477
 3623SOL     OW22330   0.586   2.522   4.455  0.0911  0.2512 -0.2050
 3623SOL    HW122331   0.556   2.433   4.437  0.0499  0.1498  0.3748
 3623SOL    HW222332   0.528   2.570   4.395  0.0979 -1.0525 -1.2596
 3624SOL     OW22333   2.470   0.572   0.747 -0.3898  0.0857 -1.0112
 3624SOL    HW122334   2.477   0.509   0.819  3.6117 -0.2271 -1.6662
 3624SOL    HW222335   2.529   0.521   0.690  0.1494  0.1502 -0.5141
 3625SOL     OW22336   2.580   3.821   1.513  0.1337 -0.1939 -0.2872
 3625SOL    HW122337   2.507   3.865   1.558 -0.4348 -0.4375 -0.9798
 3625SOL    HW222338   2.543   3.763   1.447  0.1503 -0.3084 -0.1957
 3626SOL     OW22339   3.119   4.042   2.653  0.1191  0.2316  0.0156
 3626SOL    HW122340   3.214   4.041   2.667 -0.0640  2.3032  1.4005
 3626SOL    HW222341   3.097   4.020   2.744  1.8315 -0.4508  0.2626
 3627SOL     OW22342   2.542   2.768   2.202 -0.1942  0.3569  0.4485
 3627SOL    HW122343   2.560   2.843   2.258  1.5936 -0.3876  0.8635
 3627SOL    HW222344   2.546   2.698   2.267  2.1662  0.0032 -0.0848
 3628SOL     OW22345   2.823   1.444   4.517  0.5077  0.1951  0.4618
 3628SOL    HW122346   2.907   1.400   4.505 -0.0978 -0.7606 -0.2771
 3628SOL    HW222347   2.849   1.517   4.574  0.6144  0.2261  0.3740
 3629SOL     OW22348   4.336   1.889  16.795  0.1996 -0.0974 -0.4251
 3629SOL    HW122349   4.270   1.899  16.865 -0.2796 -0.6053 -0.8020
 3629SOL    HW222350   4.416   1.906  16.845 -0.1637 -2.6287  1.0334
 3630SOL     OW22351   3.544   4.384   8.851 -0.4328  0.6370 -0.1477
 3630SOL    HW122352   3.573   4.410   8.938 -0.3487  0.3326 -0.0850
 3630SOL    HW222353   3.476   4.447   8.828  0.3687  1.7474  0.5594
 3631SOL     OW22354   0.031   0.814   7.845  0.0180  0.3529  0.4456
 3631SOL    HW122355   0.105   0.845   7.792  1.2262 -3.0812  0.1262
 3631SOL    HW222356   4.693   0.886   7.849 -0.2231  0.1603  0.1867
 3632SOL     OW22357   2.843   2.491   5.777  0.6312  0.2468 -0.6519
 3632SOL    HW122358   2.904   2.486   5.851  1.1823 -0.2707 -1.1482
 3632SOL    HW222359   2.875   2.408   5.741  0.7946  0.3736 -0.7921
 3633SOL     OW22360   3.144   3.932   7.672  0.6243  0.4621  0.5730
 3633SOL    HW122361   3.089   3.855   7.654  0.9099  0.6598 -1.2318
 3633SOL    HW222362   3.232   3.893   7.665  0.0977 -0.9683  2.0614
 3634SOL     OW22363   3.124   0.415   6.910 -0.2026 -0.1838 -0.6559
 3634SOL    HW122364   3.152   0.360   6.983  2.0308  0.4908 -0.9834
 3634SOL    HW222365   3.134   0.360   6.832 -3.4260 -2.3680  0.5024
 3635SOL     OW22366   4.587   0.488   6.855 -0.4466  0.2778  0.4267
 3635SOL    HW122367   4.557   0.492   6.764 -1.8345  0.6510  0.8971
 3635SOL    HW222368   4.628   0.575   6.855 -0.3443  0.2304  0.1056
 3636SOL     OW22369   0.281   0.534  15.710  0.0180  0.1223 -0.0277
 3636SOL    HW122370   0.210   0.516  15.648 -2.0199  1.2675  2.0054
 3636SOL    HW222371   0.221   0.565  15.777 -0.7040 -1.2438 -0.0430
 3637SOL     OW22372   3.558   1.591   9.906 -0.3645  0.1664 -0.2902
 3637SOL    HW122373   3.572   1.630   9.992 -1.0510 -0.8483  0.2831
 3637SOL    HW222374   3.583   1.654   9.839  3.6106 -0.3970  0.7073
 3638SOL     OW22375   1.172   0.837   0.149 -0.0868 -0.6476  0.1295
 3638SOL    HW122376   1.137   0.845   0.237  0.4925  1.0785  0.2096
 3638SOL    HW222377   1.106   0.877   0.093 -2.9322 -1.7955  2.6891
 3639SOL     OW22378   4.120   3.292  11.046 -0.0254 -0.4375 -0.1128
 3639SOL    HW122379   4.188   3.229  11.065  0.0025  0.2272  2.0503
 3639SOL    HW222380   4.124   3.313  10.953 -3.9725  0.0659 -0.2039
 3640SOL     OW22381   3.996   3.755   9.492 -0.2337  0.1396  0.4146
 3640SOL    HW122382   3.957   3.833   9.530  1.7041  1.7597 -0.9782
 3640SOL    HW222383   3.928   3.688   9.503 -1.3223  1.2323  0.2660
 3641SOL     OW22384   3.526   4.577   2.044  0.2883  0.1044  0.1507
 3641SOL    HW122385   3.521   4.522   1.966 -0.8410  1.4272 -0.6998
 3641SOL    HW222386   3.450   4.559   2.100  0.5617  1.6119  1.0062
 3642SOL     OW22387   0.138   3.179  16.075  0.2657  0.3876 -0.6044
 3642SOL    HW122388   0.203   3.141  16.016  1.6118  1.0211  0.4948
 3642SOL    HW222389   0.118   3.265  16.037 -1.2285 -0.5858 -2.0420
 3643SOL     OW22390   1.772   0.593  11.205  0.5275  0.2560 -0.4697
 3643SOL    HW122391   1.848   0.558  11.158  1.9506  1.0122  1.2762
 3643SOL    HW222392   1.725   0.511  11.221 -2.8800  1.9149 -2.0818
 3644SOL     OW22393   1.516   4.708  14.281  0.0808 -0.3772  0.1340
 3644SOL    HW122394   1.551   4.641  14.338  0.5840 -0.0338  0.2229
 3644SOL    HW222395   1.435   0.006  14.328  0.8207  0.4192  1.0413
 3645SOL     OW22396   4.227   2.727   6.442  0.2477  0.3400  0.1238
 3645SOL    HW122397   4.286   2.653   6.428  0.5219  0.1713  2.2725
 3645SOL    HW222398   4.183   2.698   6.521  1.1207 -2.0170 -0.2516
 3646SOL     OW22399   1.014   3.093  11.403  0.2018 -0.0969 -0.1463
 3646SOL    HW122400   0.979   3.156  11.341 -0.0346  1.0718  1.1747
 3646SOL    HW222401   1.105   3.114  11.382  1.1877 -2.3838  1.8434
 3647SOL     OW22402   3.986   3.611   3.304  0.8263 -0.0929 -0.3212
 3647SOL    HW122403   4.012   3.571   3.221  2.6944  1.2832 -0.4005
 3647SOL    HW222404   4.072   3.642   3.334 -0.0656  0.4264  1.6756
 3648SOL     OW22405   2.074   2.550   6.069  0.2787  0.5738 -0.1034
 3648SOL    HW122406   2.005   2.485   6.054 -0.2471  0.9578  0.6691
 3648SOL    HW222407   2.047   2.597   6.147 -1.9105 -0.0009 -0.5136
 3649SOL     OW22408   0.230   4.610   0.379 -0.7874 -0.1010 -0.5293
 3649SOL    HW122409   0.306   4.663   0.356 -1.7477  1.4491 -0.1852
 3649SOL    HW222410   0.189   4.664   0.447 -1.1801 -1.3496  0.2134
 3650SOL     OW22411   3.626   0.908   3.476 -0.2269 -0.2763 -0.4481
 3650SOL    HW122412   3.719   0.907   3.497  0.1369 -2.7255 -2.1249
 3650SOL    HW222413   3.584   0.926   3.561  0.6290  0.6355 -0.2263
 3651SOL     OW22414   3.089   3.568   6.027  0.2687  0.2776  0.1295
 3651SOL    HW122415   3.163   3.530   5.979  0.6192  0.3075  0.6475
 3651SOL    HW222416   3.124   3.644   6.073  3.4366 -0.6258 -0.7988
 3652SOL     OW22417   1.097   2.619  10.466  0.1710 -0.6259 -0.1459
 3652SOL    HW122418   1.117   2.701  10.510  1.3553 -1.2616  0.5320
 3652SOL    HW222419   1.160   2.568  10.518  0.2967 -1.1493 -0.8038
 3653SOL     OW22420   3.852   0.858   2.755  0.5273 -0.3763  0.0902
 3653SOL    HW122421   3.925   0.920   2.760 -0.0869  0.4679 -1.5850
 3653SOL    HW222422   3.810   0.873   2.840 -0.7550 -0.8714 -0.4681
 3654SOL     OW22423   3.962   1.488  14.766 -0.3846 -0.0199 -0.3573
 3654SOL    HW122424   3.996   1.488  14.677  0.3619  0.3213 -0.0772
 3654SOL    HW222425   3.890   1.426  14.757  0.6240 -1.2904  0.1751
 3655SOL     OW22426   3.540   1.507   3.687  0.4924 -0.0583 -0.2840
 3655SOL    HW122427   3.448   1.504   3.661 -0.2041 -0.8360  2.2834
 3655SOL    HW222428   3.542   1.541   3.776 -1.8261  2.3273 -1.1419
 3656SOL     OW22429   3.730   1.484   4.313  0.8655  0.4717 -0.2568
 3656SOL    HW122430   3.641   1.483   4.350  0.3761  2.0055 -1.3850
 3656SOL    HW222431   3.770   1.418   4.370 -0.1083  1.5526  1.7160
 3657SOL     OW22432   2.391   4.450   6.407 -0.3956  0.4764  0.0048
 3657SOL    HW122433   2.360   4.456   6.497 -0.7529  0.9553 -0.1492
 3657SOL    HW222434   2.485   4.435   6.413 -0.3982 -0.0639 -1.4170
 3658SOL     OW22435   2.339   1.935  16.590 -0.0584 -0.3114 -0.2515
 3658SOL    HW122436   2.379   1.894  16.513  1.9460 -0.6443  0.9567
 3658SOL    HW222437   2.304   1.864  16.643 -1.0341  2.0465  2.2998
 3659SOL     OW22438   4.709   0.215   7.955  0.2695 -0.0100  0.2081
 3659SOL    HW122439   0.068   0.165   7.951 -0.5481 -1.3745  0.2294
 3659SOL    HW222440   4.684   0.184   8.042 -0.7669  0.9809  0.2490
 3660SOL     OW22441   4.515   1.708  13.403 -0.0159 -0.0936 -0.1838
 3660SOL    HW122442   4.576   1.782  13.411  2.0409 -1.4554 -3.0975
 3660SOL    HW222443   4.570   1.642  13.360  1.2366  2.0962 -1.9163
 3661SOL     OW22444   4.528   1.590   4.531 -0.5783  0.6292  0.4441
 3661SOL    HW122445   4.551   1.505   4.568 -0.5929  0.4227 -0.0279
 3661SOL    HW222446   4.498   1.633   4.612 -2.0322  3.4727 -1.5863
 3662SOL     OW22447   4.066   2.229  10.966 -0.5246  0.0221  0.2333
 3662SOL    HW122448   4.039   2.151  11.014  0.2582 -0.8587 -0.7720
 3662SOL    HW222449   4.161   2.233  10.977 -0.1027 -3.9167 -2.1612
 3663SOL     OW22450   2.035   2.546   3.544  0.0313  0.1582 -0.0824
 3663SOL    HW122451   2.118   2.580   3.514  0.8851 -0.9353  1.0295
 3663SOL    HW222452   1.975   2.616   3.519 -0.8767 -0.0452  1.5079
 3664SOL     OW22453   3.546   4.046   9.222  0.1606 -1.1290  0.0189
 3664SOL    HW122454   3.620   3.988   9.237  1.5237  0.3185 -1.0554
 3664SOL    HW222455   3.565   4.112   9.289  1.6864 -0.9981 -0.5363
 3665SOL     OW22456   2.473   1.195  13.918 -0.0703  0.2140 -0.2037
 3665SOL    HW122457   2.540   1.145  13.872 -0.7338  0.7609 -1.7638
 3665SOL    HW222458   2.418   1.227  13.847  0.5837  2.4343  0.2837
 3666SOL     OW22459   4.134   1.620  14.934  0.3510 -0.4724  0.3049
 3666SOL    HW122460   4.085   1.555  14.883  1.5205 -1.2119  0.1128
 3666SOL    HW222461   4.149   1.679  14.859 -0.2465 -0.5357  0.1365
 3667SOL     OW22462   3.612   2.352   2.240 -0.5983 -0.5281  0.0396
 3667SOL    HW122463   3.681   2.401   2.195  0.1549  0.3088  2.1225
 3667SOL    HW222464   3.553   2.427   2.242 -2.7619 -2.2469  0.7689
 3668SOL     OW22465   3.307   2.182   9.807  0.9078  0.0234 -0.5942
 3668SOL    HW122466   3.214   2.189   9.826  0.9970 -0.2813 -0.0444
 3668SOL    HW222467   3.316   2.240   9.731 -4.6819  2.4415  0.6084
 3669SOL     OW22468   2.784   4.496   5.813 -0.0671 -0.3916  0.1823
 3669SOL    HW122469   2.827   4.479   5.729 -0.6828  0.8793 -0.3995
 3669SOL    HW222470   2.739   4.413   5.833  1.2327 -0.9571  0.7259
 3670SOL     OW22471   0.886   0.787   2.930 -0.5705 -0.2407 -0.3247
 3670SOL    HW122472   0.958   0.729   2.905 -1.7081 -0.7133 -2.5393
 3670SOL    HW222473   0.927   0.832   3.004 -0.1703 -0.5571 -0.3571
 3671SOL     OW22474   0.106   0.372   4.001  0.6894 -0.0121  0.2658
 3671SOL    HW122475   0.120   0.458   3.961  0.8834 -0.1882 -0.0421
 3671SOL    HW222476   0.154   0.387   4.082  2.5838  1.6909 -1.1671
 3672SOL     OW22477   1.098   1.012   4.020 -0.0125  0.0551  0.3374
 3672SOL    HW122478   1.146   0.932   4.039 -1.0455 -0.8122 -0.7172
 3672SOL    HW222479   1.102   0.996   3.925 -3.1280  1.6799 -0.0624
 3673SOL     OW22480   1.233   0.020   6.126 -0.0655 -0.2525 -0.0612
 3673SOL    HW122481   1.154   0.053   6.083  0.4117  1.4735  0.3729
 3673SOL    HW222482   1.279   0.103   6.135 -0.9658  0.3876 -1.3537
 3674SOL     OW22483   0.291   1.145   3.129  0.4098 -0.3089 -0.2303
 3674SOL    HW122484   0.267   1.095   3.051  0.2894 -2.1029  0.9531
 3674SOL    HW222485   0.321   1.225   3.085 -1.2912  0.3878 -0.1454
 3675SOL     OW22486   4.587   2.981   7.940  0.1918  0.5764 -0.0675
 3675SOL    HW122487   4.669   2.933   7.945 -0.9088 -1.1311  1.7438
 3675SOL    HW222488   4.549   2.965   8.027  1.8849 -2.1603  0.1847
 3676SOL     OW22489   1.389   2.086   3.085 -0.1357  0.1449  0.3383
 3676SOL    HW122490   1.374   2.061   2.993 -0.3820  0.2855  0.3406
 3676SOL    HW222491   1.482   2.066   3.093  0.2033  1.9510  0.7592
 3677SOL     OW22492   1.953   3.555  15.747  0.3722 -0.1161 -0.0570
 3677SOL    HW122493   1.936   3.645  15.720  1.1061 -0.0485 -0.3141
 3677SOL    HW222494   1.872   3.530  15.792  1.5119 -0.1191  2.0046
 3678SOL     OW22495   4.691   3.425   7.715 -0.2239  0.0047  0.0937
 3678SOL    HW122496   4.604   3.448   7.749 -0.3171 -0.0770 -0.0851
 3678SOL    HW222497   0.038   3.466   7.764 -2.6022  0.5643  3.0117
 3679SOL     OW22498   3.169   0.515   7.713  0.0224  0.1560 -0.2418
 3679SOL    HW122499   3.250   0.565   7.719  0.4946 -0.7786  1.0211
 3679SOL    HW222500   3.197   0.438   7.665  0.7521  1.1088 -1.3431
 3680SOL     OW22501   3.039   2.984  14.176 -0.0444 -0.2294  0.3317
 3680SOL    HW122502   2.992   2.969  14.095  0.1323 -0.2624  0.2354
 3680SOL    HW222503   3.061   2.892  14.186 -2.3042 -0.7528  0.4899
 3681SOL     OW22504   3.490   4.111   2.119  0.0677 -0.0689 -0.1455
 3681SOL    HW122505   3.528   4.195   2.145  0.5944 -0.5475  0.6284
 3681SOL    HW222506   3.516   4.096   2.029 -1.8196 -1.5396 -0.4405
 3682SOL     OW22507   3.015   4.636   8.374  0.5968 -0.0519 -0.8407
 3682SOL    HW122508   3.092   4.657   8.321  1.7785  1.0727  1.2851
 3682SOL    HW222509   3.037   4.547   8.401 -0.6900 -0.1790 -0.2231
 3683SOL     OW22510   3.180   1.214  16.090 -0.2196  0.3012 -0.3772
 3683SOL    HW122511   3.108   1.210  16.153 -0.7470 -0.9078 -1.0550
 3683SOL    HW222512   3.145   1.140  16.041  1.6478 -1.5730  1.0878
 3684SOL     OW22513   1.538   3.026  11.888 -0.7740 -0.5472  0.3265
 3684SOL    HW122514   1.514   3.067  11.971  0.4176 -0.4558  0.6216
 3684SOL    HW222515   1.454   3.002  11.848 -0.6563  0.5551 -0.6065
 3685SOL     OW22516   0.537   4.108   3.180 -0.3298  0.2089  0.0554
 3685SOL    HW122517   0.587   4.096   3.261 -2.3300  0.1400  1.2972
 3685SOL    HW222518   0.569   4.025   3.144 -1.6005 -0.3442  0.2170
 3686SOL     OW22519   0.049   0.222   5.750 -0.1351 -0.2614 -0.1112
 3686SOL    HW122520   0.088   0.230   5.838  0.3191 -0.1343 -0.3228
 3686SOL    HW222521   4.700   0.285   5.752  0.8102  0.7461  3.0292
 3687SOL     OW22522   4.618   3.163   2.692 -0.4268 -0.0705 -0.1371
 3687SOL    HW122523   4.664   3.090   2.650 -0.2707  1.6916 -2.9985
 3687SOL    HW222524   4.684   3.216   2.737 -0.5786  1.2031 -1.4258
 3688SOL     OW22525   3.020   0.641   6.792  0.1759  0.5091 -0.3517
 3688SOL    HW122526   2.972   0.595   6.723  0.5010 -0.3835  0.0179
 3688SOL    HW222527   3.053   0.565   6.839 -0.5633  0.1667 -0.3838
 3689SOL     OW22528   3.472   2.091   9.520  0.3134  0.6048 -0.6230
 3689SOL    HW122529   3.538   2.095   9.589  0.3994  3.9793 -0.8759
 3689SOL    HW222530   3.411   2.156   9.555  1.5844  1.0238  0.8041
 3690SOL     OW22531   4.076   2.475   4.793  0.1921 -1.3748 -0.1536
 3690SOL    HW122532   4.003   2.531   4.765  0.0007 -1.4268  0.2428
 3690SOL    HW222533   4.102   2.500   4.881 -1.0810  0.3101 -0.2646
 3691SOL     OW22534   4.542   4.674  16.483 -0.0657  0.0452  0.3289
 3691SOL    HW122535   4.477   0.007  16.523  1.0977  2.5788 -1.3889
 3691SOL    HW222536   4.545   4.591  16.531 -0.6336  0.4826  1.1131
 3692SOL     OW22537   1.659   2.053   2.282 -0.0175 -0.4230  0.2413
 3692SOL    HW122538   1.625   2.093   2.362  1.3504 -0.9754  1.1100
 3692SOL    HW222539   1.618   1.967   2.285 -0.6987 -0.0999  0.1966
 3693SOL     OW22540   4.045   2.863   5.026  0.6691  0.4122  0.3862
 3693SOL    HW122541   4.121   2.881   5.081 -0.5724  2.6003  1.3870
 3693SOL    HW222542   4.053   2.946   4.979  1.1622  0.2246  0.1352
 3694SOL     OW22543   0.566   3.669  12.991 -0.2025 -0.2016  0.1637
 3694SOL    HW122544   0.523   3.601  13.044 -1.7789 -1.1727 -2.3640
 3694SOL    HW222545   0.629   3.680  13.062  2.5229 -2.2974 -1.9926
 3695SOL     OW22546   3.965   3.622  13.839 -0.1758  0.9468  0.0167
 3695SOL    HW122547   3.972   3.562  13.913 -0.7692 -1.1709 -1.6279
 3695SOL    HW222548   3.938   3.702  13.883 -1.0500 -0.5011  2.1085
 3696SOL     OW22549   1.265   3.343  13.304  0.2986 -0.1664 -0.3289
 3696SOL    HW122550   1.191   3.390  13.265  2.1475  2.5163 -0.5860
 3696SOL    HW222551   1.305   3.310  13.224  1.3481 -0.4782  0.3249
 3697SOL     OW22552   2.440   2.843  12.703  0.5589 -0.4053  0.1997
 3697SOL    HW122553   2.387   2.873  12.776 -1.5047 -0.2929 -1.3648
 3697SOL    HW222554   2.373   2.781  12.674  1.5522 -0.7733 -1.2900
 3698SOL     OW22555   2.121   0.312   7.652 -0.1197 -0.1148 -0.7876
 3698SOL    HW122556   2.141   0.238   7.595  0.5315 -0.4585 -0.1171
 3698SOL    HW222557   2.179   0.305   7.728 -0.2793 -2.2368 -0.8604
 3699SOL     OW22558   2.380   3.162  17.688 -0.6209 -0.9281  0.0965
 3699SOL    HW122559   2.348   3.074   0.010 -0.3263 -0.9790  0.3769
 3699SOL    HW222560   2.303   3.207  17.654  0.5345  1.4287  0.5986
 3700SOL     OW22561   3.324   4.225   8.933  0.7397 -0.7984 -0.3972
 3700SOL    HW122562   3.383   4.293   8.903  0.5882  0.7934  2.8813
 3700SOL    HW222563   3.280   4.262   9.010 -0.8383  0.1444 -1.7529
 3701SOL     OW22564   2.721   1.208   1.814 -0.1034  0.7278  0.6335
 3701SOL    HW122565   2.680   1.291   1.794 -1.9928 -0.3707 -0.0337
 3701SOL    HW222566   2.811   1.219   1.781  0.3770 -2.8030  0.7036
 3702SOL     OW22567   3.179   2.753  14.417 -0.1406 -0.4372 -0.1638
 3702SOL    HW122568   3.121   2.812  14.465  0.0812 -0.7116  0.4462
 3702SOL    HW222569   3.125   2.740  14.340 -1.2389 -2.3148  0.9381
 3703SOL     OW22570   3.207   1.820   5.522  0.1451  0.1074 -0.2195
 3703SOL    HW122571   3.250   1.851   5.442 -0.2312  0.7786 -0.1579
 3703SOL    HW222572   3.151   1.748   5.493  2.3357 -1.0521 -1.5800
 3704SOL     OW22573   4.233   0.504   6.708  0.3263  0.1110  0.0337
 3704SOL    HW122574   4.301   0.521   6.643 -1.7207  0.9708 -1.8695
 3704SOL    HW222575   4.244   0.412   6.734 -0.5305 -0.3023 -1.0913
 3705SOL     OW22576   2.816   4.497   7.322 -0.2230  0.4175  0.4165
 3705SOL    HW122577   2.911   4.488   7.314 -0.0691  1.4614  0.9999
 3705SOL    HW222578   2.770   4.431   7.269  0.0785  0.3120  0.2894
 3706SOL     OW22579   4.430   1.673   2.626  0.1421 -0.5069  0.2884
 3706SOL    HW122580   4.432   1.623   2.544 -1.3946 -0.5999  0.3077
 3706SOL    HW222581   4.491   1.615   2.672  0.2387 -0.9596 -0.3947
 3707SOL     OW22582   3.956   1.983   2.229 -0.3539  0.2879 -0.2277
 3707SOL    HW122583   3.870   1.942   2.234 -1.2442  2.2078  0.1955
 3707SOL    HW222584   4.007   1.913   2.271  1.3374  0.9859 -1.1344
 3708SOL     OW22585   4.457   2.893  13.579  0.2475  0.5869  0.0893
 3708SOL    HW122586   4.365   2.866  13.583  0.6373 -0.8887 -0.7210
 3708SOL    HW222587   4.476   2.901  13.672  1.2121  1.4207 -0.1851
 3709SOL     OW22588   2.638   1.421   5.029 -0.0665  0.2635 -0.0145
 3709SOL    HW122589   2.704   1.420   4.959  1.8326  2.2384  1.7447
 3709SOL    HW222590   2.617   1.514   5.038 -0.5824 -0.0481  2.1012
 3710SOL     OW22591   2.066   2.919   0.575  0.4052  0.5125 -0.1899
 3710SOL    HW122592   2.012   2.997   0.587  1.9606  2.1033 -3.5218
 3710SOL    HW222593   2.134   2.957   0.519 -0.6147  0.7000 -1.3130
 3711SOL     OW22594   3.019   1.176   1.813 -0.0988  0.1341 -0.2881
 3711SOL    HW122595   3.023   1.080   1.816  1.8442  0.2728  1.0772
 3711SOL    HW222596   3.106   1.206   1.786 -0.4934 -0.0181 -1.7219
 3712SOL     OW22597   0.981   3.805   8.099 -0.4081  0.3321  0.2539
 3712SOL    HW122598   0.911   3.742   8.085 -0.8321  0.4007  2.0184
 3712SOL    HW222599   0.925   3.870   8.141  1.1394  1.0915  1.1551
 3713SOL     OW22600   3.627   4.664  17.558 -0.5061  0.2978  0.1787
 3713SOL    HW122601   3.606   0.016  17.613 -0.5451  0.0064  0.5579
 3713SOL    HW222602   3.704   4.702  17.515 -0.0573  0.7857  1.4283
 3714SOL     OW22603   3.891   3.396  13.490 -0.2551 -0.6272  0.0212
 3714SOL    HW122604   3.919   3.487  13.483  0.3678 -0.7972  0.3543
 3714SOL    HW222605   3.836   3.387  13.568 -1.9756  0.2016 -1.1029
 3715SOL     OW22606   2.559   3.696  17.070 -0.4435  0.0753  0.0027
 3715SOL    HW122607   2.556   3.727  17.161  1.6755 -0.6470  0.3126
 3715SOL    HW222608   2.603   3.612  17.077  0.2855  0.4593  0.0563
 3716SOL     OW22609   2.226   1.643  14.543 -0.2499 -0.0842 -1.0926
 3716SOL    HW122610   2.182   1.560  14.522 -0.2932 -0.6386  1.1454
 3716SOL    HW222611   2.303   1.603  14.582 -1.2145 -0.1538  0.7252
 3717SOL     OW22612   3.187   2.938  16.958  0.3122 -0.1674 -0.4796
 3717SOL    HW122613   3.245   3.013  16.945 -0.6810  0.6221 -0.3830
 3717SOL    HW222614   3.244   2.862  16.967  1.1688  0.7942  2.2799
 3718SOL     OW22615   4.156   3.414   9.588 -0.2579  0.2287 -0.3860
 3718SOL    HW122616   4.178   3.502   9.617 -1.4402  1.1384 -2.2828
 3718SOL    HW222617   4.075   3.403   9.638 -0.2642  1.8096 -0.0486
 3719SOL     OW22618   1.268   0.572   3.061  1.1647 -0.2133  0.1247
 3719SOL    HW122619   1.292   0.539   3.148  3.1538  0.0995 -0.3073
 3719SOL    HW222620   1.356   0.566   3.022  2.1804  0.9954  2.2383
 3720SOL     OW22621   1.602   0.920   7.004 -0.1161 -0.2094 -0.0972
 3720SOL    HW122622   1.595   0.862   7.080 -0.5759 -0.5007 -0.3589
 3720SOL    HW222623   1.510   0.908   6.979  0.1166  0.7062 -1.3908
 3721SOL     OW22624   2.719   3.591   8.613  0.0759  0.1106  0.4574
 3721SOL    HW122625   2.659   3.597   8.688  0.0262  0.7014  0.3681
 3721SOL    HW222626   2.802   3.581   8.660  0.0005  0.2695  0.6282
 3722SOL     OW22627   4.236   1.740  11.148  0.1384  0.4884  0.3539
 3722SOL    HW122628   4.239   1.712  11.240  0.6285 -0.5577  0.0181
 3722SOL    HW222629   4.317   1.789  11.142  0.8747 -0.9263 -1.3378
 3723SOL     OW22630   2.672   2.160   7.250 -0.4731 -0.2315  0.5783
 3723SOL    HW122631   2.711   2.246   7.265 -1.4692  0.3561 -0.1966
 3723SOL    HW222632   2.584   2.186   7.220 -1.6182 -2.1505  2.2340
 3724SOL     OW22633   0.205   2.567   8.340 -0.2291 -0.5520 -0.4240
 3724SOL    HW122634   0.128   2.591   8.392 -0.0093 -0.0664 -0.3298
 3724SOL    HW222635   0.268   2.635   8.364 -0.2290 -0.2573 -1.2458
 3725SOL     OW22636   3.154   3.437  13.091 -0.2333  0.2759  0.4206
 3725SOL    HW122637   3.101   3.490  13.032 -0.7406 -0.6388  0.0567
 3725SOL    HW222638   3.201   3.512  13.128  1.8066 -1.0091  0.4410
 3726SOL     OW22639   0.163   1.144   4.872  0.3482  0.1809 -0.0876
 3726SOL    HW122640   0.205   1.122   4.955 -2.8130 -1.5817  1.0675
 3726SOL    HW222641   0.167   1.239   4.881 -1.5309  0.2123  0.4174
 3727SOL     OW22642   3.901   1.943   8.507 -0.6521 -0.6196 -0.2333
 3727SOL    HW122643   3.861   1.891   8.576 -1.1131  0.1106  0.0603
 3727SOL    HW222644   3.822   1.989   8.476  0.1304  1.3810  0.7221
 3728SOL     OW22645   1.233   0.023   3.048 -0.4823  0.1025  0.5334
 3728SOL    HW122646   1.233   4.651   3.038  4.3437  0.2008 -0.4986
 3728SOL    HW222647   1.185   0.033   3.130 -0.1718  0.2099  0.7039
 3729SOL     OW22648   4.240   3.845   4.685  0.0198  0.1126  0.2257
 3729SOL    HW122649   4.191   3.861   4.605  1.9930 -0.3945 -1.0777
 3729SOL    HW222650   4.304   3.917   4.684 -1.7357  1.7081  3.3810
 3730SOL     OW22651   0.872   2.510   8.687  0.1803 -0.4563  0.4657
 3730SOL    HW122652   0.791   2.485   8.644 -0.6139 -0.3788  1.9028
 3730SOL    HW222653   0.935   2.519   8.615 -0.4895 -1.5563 -0.2465
 3731SOL     OW22654   0.402   4.468  10.996  0.4133  0.5828  0.2011
 3731SOL    HW122655   0.409   4.455  11.090  3.8240  1.5915  0.0933
 3731SOL    HW222656   0.392   4.563  10.983  1.0096  0.6938  0.5332
 3732SOL     OW22657   4.429   2.417   9.539 -0.7742 -0.5949 -0.4320
 3732SOL    HW122658   4.376   2.494   9.560 -0.8419 -0.7829  0.0809
 3732SOL    HW222659   4.513   2.450   9.507 -1.2342  0.2469 -0.7618
 3733SOL     OW22660   1.395   2.006   7.836 -0.5791  0.0001 -0.6551
 3733SOL    HW122661   1.401   1.999   7.932 -0.3660  0.1253 -0.6593
 3733SOL    HW222662   1.481   1.971   7.813 -0.0173 -0.1395  1.5964
 3734SOL     OW22663   2.466   4.295   5.005  0.0343 -0.1801 -0.2662
 3734SOL    HW122664   2.439   4.204   5.018  0.0136 -0.3057 -1.1399
 3734SOL    HW222665   2.419   4.345   5.071  0.8043 -0.8874  0.8042
 3735SOL     OW22666   3.780   1.091   4.967 -0.0473 -0.6211  0.5655
 3735SOL    HW122667   3.822   1.170   5.000  0.6243  0.1762 -2.1785
 3735SOL    HW222668   3.698   1.131   4.938 -0.1048 -0.2449  1.2416
 3736SOL     OW22669   2.697   3.920   6.722  0.2117 -0.6920  0.1337
 3736SOL    HW122670   2.611   3.937   6.685  0.8772  0.5230 -0.8577
 3736SOL    HW222671   2.697   3.830   6.753  2.0875 -1.1318 -1.1201
 3737SOL     OW22672   3.365   4.449   6.512  0.4202  0.8608  0.2031
 3737SOL    HW122673   3.317   4.453   6.429  0.7131  2.8458  0.1362
 3737SOL    HW222674   3.449   4.417   6.480 -0.1997  1.6097 -2.1544
 3738SOL     OW22675   0.503   2.469  17.667  0.2268 -0.2381 -0.0439
 3738SOL    HW122676   0.425   2.522  17.677 -2.2324 -3.5122 -1.8370
 3738SOL    HW222677   0.504   2.430   0.058 -0.2026  1.8438  0.8757
 3739SOL     OW22678   0.256   1.333   8.662 -0.1520 -0.3390  0.5332
 3739SOL    HW122679   0.278   1.311   8.571 -1.3906  0.7880 -0.0412
 3739SOL    HW222680   0.267   1.250   8.709  1.1061 -1.3599 -1.5749
 3740SOL     OW22681   3.584   4.532   4.609  0.1628 -0.4434 -0.8774
 3740SOL    HW122682   3.626   4.555   4.526 -2.7531  0.7318 -2.0580
 3740SOL    HW222683   3.577   4.613   4.659 -0.8920 -2.0390  1.5836
 3741SOL     OW22684   1.730   4.013   4.755 -0.5092 -0.7857 -0.1607
 3741SOL    HW122685   1.799   4.064   4.797 -3.6620  1.2759  2.5011
 3741SOL    HW222686   1.657   4.067   4.785  0.2246 -2.1763  4.0899
 3742SOL     OW22687   0.261   2.627   6.646 -0.4683  0.2167 -0.5910
 3742SOL    HW122688   0.191   2.690   6.662 -2.0971 -1.6836 -0.2277
 3742SOL    HW222689   0.286   2.639   6.555 -0.1764  2.5146 -0.1911
 3743SOL     OW22690   3.833   3.344   5.324  0.3806 -0.3123  0.1304
 3743SOL    HW122691   3.880   3.406   5.268  1.1128  0.4444  1.5686
 3743SOL    HW222692   3.835   3.268   5.266 -1.1373  0.6120 -1.1388
 3744SOL     OW22693   0.757   1.776   3.353  0.4316 -0.6018 -0.8541
 3744SOL    HW122694   0.710   1.695   3.374  1.3576 -1.3582 -1.7033
 3744SOL    HW222695   0.709   1.813   3.279 -1.4734 -0.7561  0.2927
 3745SOL     OW22696   3.084   0.366   0.896 -0.2647 -0.5677  0.0183
 3745SOL    HW122697   3.055   0.414   0.974 -3.3772 -1.5003 -0.5527
 3745SOL    HW222698   3.176   0.351   0.915 -0.1717 -0.5691 -0.4381
 3746SOL     OW22699   2.745   2.283   4.702  0.6027 -0.1068 -0.2764
 3746SOL    HW122700   2.657   2.252   4.724 -0.1178  2.4331  0.3758
 3746SOL    HW222701   2.736   2.290   4.607 -1.1315 -0.6108 -0.1509
 3747SOL     OW22702   0.774   3.390   5.246 -0.6063 -0.0788  0.2302
 3747SOL    HW122703   0.734   3.303   5.257 -1.6906  0.4281  0.3164
 3747SOL    HW222704   0.752   3.399   5.153  1.7265 -0.9044 -0.3966
 3748SOL     OW22705   2.552   4.550   4.247 -0.0839  0.4057 -0.3594
 3748SOL    HW122706   2.516   4.619   4.302 -0.0418 -1.0472  1.5255
 3748SOL    HW222707   2.484   4.483   4.235  0.4869  0.1158 -1.9256
 3749SOL     OW22708   4.300   2.065   6.528 -0.1532 -0.6102 -0.1420
 3749SOL    HW122709   4.256   2.067   6.443 -1.8027 -2.2054  0.6618
 3749SOL    HW222710   4.390   2.044   6.502 -0.0503 -0.9823  0.5065
 3750SOL     OW22711   4.326   0.296   8.540  0.4441 -0.2278  0.5528
 3750SOL    HW122712   4.363   0.359   8.602  0.8889 -1.0975  1.1640
 3750SOL    HW222713   4.243   0.273   8.582 -0.4927  0.0836 -1.1355
 3751SOL     OW22714   1.840   1.380  11.579 -0.1244 -0.2399  0.2827
 3751SOL    HW122715   1.812   1.341  11.496 -3.1777  1.9812  0.2672
 3751SOL    HW222716   1.794   1.463  11.590 -0.0439 -0.3952  1.8619
 3752SOL     OW22717   0.598   4.361   9.349  0.2632  0.1231 -0.1126
 3752SOL    HW122718   0.586   4.298   9.421 -1.8155 -1.2766 -1.6799
 3752SOL    HW222719   0.642   4.432   9.394  1.1534 -0.6235  0.1885
 3753SOL     OW22720   2.477   4.430  17.236  0.2871 -0.0594 -0.0731
 3753SOL    HW122721   2.461   4.509  17.286 -0.7619  0.0323 -0.5396
 3753SOL    HW222722   2.512   4.458  17.151  0.7763  0.7547  0.4034
 3754SOL     OW22723   1.954   4.485  11.082  0.6733  0.4367 -0.0095
 3754SOL    HW122724   2.044   4.509  11.059  0.1488  1.5236 -0.9554
 3754SOL    HW222725   1.958   4.446  11.169 -1.3243  1.0317  0.3634
 3755SOL     OW22726   0.796   2.037   7.992  0.3989  0.0014 -0.0550
 3755SOL    HW122727   0.856   2.027   8.066 -0.9086  0.7983  1.1105
 3755SOL    HW222728   0.834   1.986   7.920  1.4382 -2.1314  2.0028
 3756SOL     OW22729   3.963   3.507   5.598 -0.0443  0.7419 -0.4169
 3756SOL    HW122730   3.881   3.546   5.627 -0.9275  0.0949 -2.0907
 3756SOL    HW222731   4.017   3.583   5.576  2.6815 -1.3199 -0.8902
 3757SOL     OW22732   0.515   1.384  11.209 -0.0480 -0.2829  0.1067
 3757SOL    HW122733   0.459   1.347  11.277  0.4786 -1.4137 -0.0780
 3757SOL    HW222734   0.530   1.309  11.151  2.2500  1.0485 -1.0307
 3758SOL     OW22735   0.174   1.369   1.450  0.1493 -0.2699  0.1389
 3758SOL    HW122736   0.110   1.300   1.468  2.1492 -2.3868 -0.8381
 3758SOL    HW222737   0.187   1.357   1.356 -2.1767 -3.1195  0.1735
 3759SOL     OW22738   2.883   1.307   2.622  0.5829 -0.1241 -0.3024
 3759SOL    HW122739   2.851   1.394   2.599 -2.3293 -0.9067  0.7263
 3759SOL    HW222740   2.827   1.293   2.699  2.4094 -0.2912  0.9775
 3760SOL     OW22741   2.010   1.913  14.834  0.2997  0.0116 -0.4229
 3760SOL    HW122742   2.046   1.919  14.745  1.7837  2.2213  0.3243
 3760SOL    HW222743   1.944   1.847  14.814 -0.1280  0.9319 -2.1342
 3761SOL     OW22744   0.906   1.112  14.257 -0.4138  0.0333 -0.4823
 3761SOL    HW122745   0.903   1.207  14.272 -0.8234  0.2388 -1.9231
 3761SOL    HW222746   0.853   1.085  14.332  0.9974  1.4247  1.0433
 3762SOL     OW22747   2.587   3.217   0.165 -0.0163 -0.1265 -0.0465
 3762SOL    HW122748   2.623   3.128   0.166 -0.0282 -0.1304 -0.0048
 3762SOL    HW222749   2.528   3.209   0.090  1.7910  0.3546 -1.5182
 3763SOL     OW22750   4.479   4.716   2.901  0.3685 -0.4840  0.0218
 3763SOL    HW122751   4.539   4.642   2.913 -0.3371 -1.0764 -0.1073
 3763SOL    HW222752   4.495   0.045   2.979  2.7147 -0.1191 -0.7015
 3764SOL     OW22753   1.710   0.411   3.234  0.1617  0.0062  0.3897
 3764SOL    HW122754   1.735   0.360   3.311  0.5193 -0.5930 -0.1221
 3764SOL    HW222755   1.649   0.478   3.266 -1.2336 -0.9470 -0.2639
 3765SOL     OW22756   2.635   3.704   3.352  0.0459 -0.1132  0.2994
 3765SOL    HW122757   2.657   3.789   3.314 -1.0181  0.6052  1.2811
 3765SOL    HW222758   2.630   3.658   3.268  0.1316  0.1919  0.1240
 3766SOL     OW22759   1.112   3.415  15.644  0.1642  0.3849 -0.2234
 3766SOL    HW122760   1.063   3.388  15.567 -1.2056 -0.1723  0.8640
 3766SOL    HW222761   1.176   3.480  15.612 -2.8516  3.8725  0.8876
 3767SOL     OW22762   1.364   0.516   8.181 -0.3217  0.2030  0.6765
 3767SOL    HW122763   1.396   0.563   8.104 -0.2231  0.3038  0.7805
 3767SOL    HW222764   1.296   0.462   8.141  0.4680  1.7944 -2.8675
 3768SOL     OW22765   3.402   1.526   8.421  0.0359 -0.0186 -0.5323
 3768SOL    HW122766   3.457   1.483   8.487  1.2248  1.8992 -0.2571
 3768SOL    HW222767   3.424   1.616   8.447  0.6364  0.2650 -1.9992
 3769SOL     OW22768   1.748   3.147   4.540  0.0880  0.1906  1.1423
 3769SOL    HW122769   1.738   3.141   4.445 -3.4290 -0.1351  1.5563
 3769SOL    HW222770   1.731   3.059   4.572 -0.4510 -0.2665 -0.3904
 3770SOL     OW22771   1.398   2.240   9.531  0.4652 -0.5074 -0.8303
 3770SOL    HW122772   1.380   2.259   9.623  0.8525  0.0637 -0.8735
 3770SOL    HW222773   1.345   2.316   9.506 -0.0190 -0.5124  0.1814
 3771SOL     OW22774   0.323   2.824   8.132  0.0298 -0.5608 -0.2285
 3771SOL    HW122775   0.385   2.860   8.069  0.8504 -1.5410  0.0303
 3771SOL    HW222776   0.326   2.876   8.213 -1.2330  0.3139 -0.7306
 3772SOL     OW22777   0.777   0.342  17.486 -0.4530  0.3785 -0.4313
 3772SOL    HW122778   0.830   0.285  17.431  0.7579  0.3820  0.7431
 3772SOL    HW222779   0.787   0.301  17.572  1.5893  2.7051  0.4315
 3773SOL     OW22780   1.238   3.642   8.387 -0.3881  0.1118 -0.2619
 3773SOL    HW122781   1.331   3.629   8.406 -0.8020 -0.7380  1.1452
 3773SOL    HW222782   1.237   3.737   8.392 -0.8671  0.0326  1.1415
 3774SOL     OW22783   1.799   2.309   7.530  0.3673  0.2917  0.2144
 3774SOL    HW122784   1.754   2.224   7.533  1.9269 -0.5213  0.9471
 3774SOL    HW222785   1.737   2.368   7.572 -1.8641 -0.8192 -1.4934
 3775SOL     OW22786   1.296   4.027   5.511  0.3954  0.0209 -0.5091
 3775SOL    HW122787   1.293   4.059   5.421 -1.4675  0.7181 -0.1971
 3775SOL    HW222788   1.387   3.997   5.514  0.1773 -0.2926  2.6614
 3776SOL     OW22789   4.556   0.107   6.058 -0.1563  0.3518 -0.2206
 3776SOL    HW122790   4.632   0.158   6.029  0.3214 -0.2478 -0.0334
 3776SOL    HW222791   4.552   0.116   6.153  2.3617 -3.0910  0.2369
 3777SOL     OW22792   0.736   1.721  10.820 -0.6930  0.0557 -0.2607
 3777SOL    HW122793   0.645   1.704  10.845 -0.8897  1.4246 -0.0906
 3777SOL    HW222794   0.794   1.684  10.886 -0.2087  2.3320  0.5794
 3778SOL     OW22795   0.149   3.361   4.647 -0.1180 -0.1650  0.4435
 3778SOL    HW122796   0.157   3.438   4.703  1.1420 -0.9044  1.3002
 3778SOL    HW222797   0.116   3.403   4.568  0.3612 -4.1093 -1.8342
 3779SOL     OW22798   3.547   0.753   4.658 -0.2746 -0.2314  0.5189
 3779SOL    HW122799   3.568   0.662   4.681 -0.8866 -0.4378  0.2759
 3779SOL    HW222800   3.630   0.793   4.685  0.6981 -1.8362 -0.0473
 3780SOL     OW22801   4.568   4.010   6.530  0.6597 -0.2919 -0.1018
 3780SOL    HW122802   4.585   4.103   6.549 -2.5483  0.1462  0.5213
 3780SOL    HW222803   4.514   4.023   6.452 -1.2826 -2.9000  0.8136
 3781SOL     OW22804   0.697   2.469   2.469  0.9140  0.4040 -0.1277
 3781SOL    HW122805   0.730   2.379   2.461  1.8830  0.5797  1.8163
 3781SOL    HW222806   0.779   2.514   2.489  0.1608  0.4869  2.7440
 3782SOL     OW22807   0.937   4.303  11.958  0.7644  0.1106  0.5388
 3782SOL    HW122808   0.895   4.381  11.994 -0.1369  0.1915 -0.7029
 3782SOL    HW222809   0.876   4.230  11.964  1.8579 -0.8630 -0.1388
 3783SOL     OW22810   3.576   3.962  15.432 -0.4467  0.1044 -0.4451
 3783SOL    HW122811   3.657   3.944  15.384  0.6378  1.3303  0.9335
 3783SOL    HW222812   3.544   3.872  15.433 -0.8424  0.2480 -0.3060
 3784SOL     OW22813   1.178   4.378   3.102  0.2934  0.9121 -0.2192
 3784SOL    HW122814   1.233   4.303   3.079 -0.2375  0.4232  0.1274
 3784SOL    HW222815   1.209   4.416   3.184  0.6490 -1.2312  0.6251
 3785SOL     OW22816   2.530   0.674   4.999  0.3369 -0.6196  0.0824
 3785SOL    HW122817   2.484   0.755   4.978 -0.9849 -0.8391  2.1671
 3785SOL    HW222818   2.593   0.710   5.060 -0.3037 -0.7336  0.8087
 3786SOL     OW22819   4.530   4.057   0.434  0.4228  0.1883  0.3836
 3786SOL    HW122820   4.582   4.016   0.503 -0.5454 -0.6444  0.6277
 3786SOL    HW222821   4.448   4.007   0.436 -0.7434  2.0484 -0.5716
 3787SOL     OW22822   2.640   1.511   6.885  0.2005 -0.0279  0.2651
 3787SOL    HW122823   2.576   1.541   6.949  1.4892  1.2097  0.9946
 3787SOL    HW222824   2.633   1.588   6.829  0.9212 -1.0238 -1.1863
 3788SOL     OW22825   2.823   3.796   1.594 -0.3683  0.4507 -0.1056
 3788SOL    HW122826   2.804   3.867   1.655 -2.0142  0.2539 -0.4040
 3788SOL    HW222827   2.736   3.786   1.557  0.0934  1.1451 -1.3806
 3789SOL     OW22828   4.472   4.091   5.237 -0.2707  0.2612  0.3853
 3789SOL    HW122829   4.443   4.181   5.224  1.0282  0.5953 -0.2191
 3789SOL    HW222830   4.553   4.095   5.288 -0.1482 -0.4094  0.2487
 3790SOL     OW22831   2.892   0.942   3.264 -0.0155 -0.1914 -0.0175
 3790SOL    HW122832   2.886   0.920   3.357 -0.8503  1.4053  0.3023
 3790SOL    HW222833   2.980   0.913   3.240 -0.2051 -1.0354  0.3347
 3791SOL     OW22834   2.666   1.658  11.424 -0.1916  0.2102 -0.4175
 3791SOL    HW122835   2.735   1.668  11.359 -0.8057 -1.2056 -1.2824
 3791SOL    HW222836   2.592   1.669  11.364 -0.0116  0.9317 -0.5051
 3792SOL     OW22837   2.725   2.127   3.859  0.4617 -0.0009 -0.0982
 3792SOL    HW122838   2.678   2.208   3.880  1.6929  0.8896 -0.8196
 3792SOL    HW222839   2.711   2.120   3.765 -1.1221 -2.6061  0.3309
 3793SOL     OW22840   3.990   4.350   9.974 -0.4959  0.6267 -0.2894
 3793SOL    HW122841   4.075   4.331   9.933 -0.9479  1.1633 -1.4593
 3793SOL    HW222842   3.947   4.389   9.899  1.0492  2.1105 -0.4232
 3794SOL     OW22843   3.015   2.441   0.287  0.0177  0.3336 -0.2124
 3794SOL    HW122844   3.083   2.451   0.220  1.2126  2.5045  1.3054
 3794SOL    HW222845   3.024   2.520   0.341  0.0548 -1.5205  2.4837
 3795SOL     OW22846   0.374   4.694   6.844  0.2474 -0.6760  0.4526
 3795SOL    HW122847   0.452   0.025   6.832  0.7861 -1.8881 -1.5122
 3795SOL    HW222848   0.357   4.712   6.937 -1.4384 -1.5628  0.3188
 3796SOL     OW22849   2.465   3.600   2.001 -0.6314  0.2627  0.1575
 3796SOL    HW122850   2.537   3.559   2.050  0.5530  0.7730 -1.1632
 3796SOL    HW222851   2.473   3.692   2.026  0.6809 -0.4137  2.2725
 3797SOL     OW22852   4.637   0.679  10.413 -0.0311  0.6823  0.4848
 3797SOL    HW122853   4.595   0.763  10.398 -0.8544  0.5227  1.8192
 3797SOL    HW222854   4.721   0.717  10.439 -0.1738  2.2163 -1.3207
 3798SOL     OW22855   2.573   3.187   6.465 -0.5117  0.3232  0.2070
 3798SOL    HW122856   2.569   3.160   6.373  0.1111  1.9034 -0.2831
 3798SOL    HW222857   2.665   3.173   6.488 -0.9095 -0.1736  1.5017
 3799SOL     OW22858   1.793   2.586  11.230 -0.2757  0.0747  0.1183
 3799SOL    HW122859   1.733   2.590  11.305 -1.6392 -1.1167 -0.9072
 3799SOL    HW222860   1.723   2.555  11.172 -0.1744  1.2926 -0.6498
 3800SOL     OW22861   2.658   2.408   3.894 -0.1289 -0.0019  0.2626
 3800SOL    HW122862   2.668   2.500   3.870  1.3567 -0.3797 -0.5667
 3800SOL    HW222863   2.679   2.405   3.987  0.2117 -0.4227  0.1731
 3801SOL     OW22864   1.012   0.032   5.895  0.6862 -0.5710  0.1633
 3801SOL    HW122865   1.051   0.119   5.893  0.9845 -0.7388 -1.6756
 3801SOL    HW222866   0.963   0.041   5.976  1.6484 -2.3142  0.9344
 3802SOL     OW22867   0.863   4.496   7.984 -0.2846 -0.4933 -0.0041
 3802SOL    HW122868   0.881   4.527   8.073 -3.7355 -0.7546  0.7694
 3802SOL    HW222869   0.780   4.534   7.957  0.1138 -0.6975 -1.4975
 3803SOL     OW22870   4.455   2.974  15.015 -0.5293 -0.5660 -0.2759
 3803SOL    HW122871   4.410   2.934  14.940  0.6557 -0.1804 -1.2028
 3803SOL    HW222872   4.377   3.015  15.054 -0.3575  0.6912 -1.2332
 3804SOL     OW22873   2.129   4.552  12.438  0.4255 -0.5894 -0.1052
 3804SOL    HW122874   2.196   4.486  12.459  0.3268 -1.1966 -1.7006
 3804SOL    HW222875   2.181   4.632  12.434  0.5434 -0.6712 -0.2007
 3805SOL     OW22876   1.500   3.965  15.673  0.1738 -0.0573 -0.5570
 3805SOL    HW122877   1.506   3.943  15.765  2.0970  1.3157 -0.3599
 3805SOL    HW222878   1.408   3.992  15.675  0.1916 -0.0208 -0.3341
 3806SOL     OW22879   0.838   0.740   1.690 -0.2838 -0.2554 -0.4103
 3806SOL    HW122880   0.880   0.654   1.678 -0.1137 -0.1746 -0.3943
 3806SOL    HW222881   0.758   0.719   1.642 -1.1072  0.4478  0.6302
 3807SOL     OW22882   3.515   2.932  14.804 -0.4362 -0.4209 -0.3432
 3807SOL    HW122883   3.517   2.845  14.844 -0.5498 -0.3603 -0.2071
 3807SOL    HW222884   3.448   2.916  14.737  0.8299  0.6189 -1.8413
 3808SOL     OW22885   1.614   0.227   4.539 -0.0098  0.4274  0.6362
 3808SOL    HW122886   1.570   0.218   4.455 -0.5928 -0.4722  1.0466
 3808SOL    HW222887   1.559   0.185   4.605 -1.9918 -0.6187 -1.7440
 3809SOL     OW22888   4.255   2.323   3.726  0.2939  0.0260  0.3517
 3809SOL    HW122889   4.343   2.308   3.692  1.1291  1.0531  2.0533
 3809SOL    HW222890   4.272   2.328   3.820  1.3012  0.8678  0.1237
 3810SOL     OW22891   4.205   1.357   2.275  0.0050  0.4429  0.0371
 3810SOL    HW122892   4.283   1.304   2.290  0.5462  1.5019  0.9956
 3810SOL    HW222893   4.156   1.326   2.351  1.6033 -1.2036  0.3980
 3811SOL     OW22894   1.023   4.611   1.324  0.0709  0.2812  0.2992
 3811SOL    HW122895   0.982   4.536   1.281  0.4201  2.1244 -3.2733
 3811SOL    HW222896   0.950   4.647   1.375  1.0048  0.6979  1.3535
 3812SOL     OW22897   3.413   2.420  14.638  0.7435 -0.0076 -0.3075
 3812SOL    HW122898   3.450   2.397  14.553 -0.4284 -1.7256 -0.3668
 3812SOL    HW222899   3.406   2.516  14.639  0.3830 -0.0233 -1.2967
 3813SOL     OW22900   1.735   3.258   6.670 -0.4458  0.7351  0.4213
 3813SOL    HW122901   1.782   3.207   6.604  0.0251  1.6224  0.0657
 3813SOL    HW222902   1.812   3.277   6.723 -0.8865  0.2984  1.2231
 3814SOL     OW22903   3.928   2.045   8.128  0.1251 -0.6791  0.0970
 3814SOL    HW122904   3.878   2.021   8.206 -0.8313 -0.6596 -0.5184
 3814SOL    HW222905   4.016   2.053   8.165  0.1709 -2.6414  0.4261
 3815SOL     OW22906   1.526   3.308   7.048 -0.0958 -0.0206  0.5060
 3815SOL    HW122907   1.476   3.228   7.035  0.9868 -0.8285  1.2690
 3815SOL    HW222908   1.596   3.283   7.108 -1.8993  0.6321  2.8834
 3816SOL     OW22909   1.589   1.190   8.393 -0.7691 -0.3675 -0.0514
 3816SOL    HW122910   1.584   1.160   8.483 -2.5376 -1.3718 -0.4876
 3816SOL    HW222911   1.496   1.202   8.374 -0.7673 -1.3628 -0.6917
 3817SOL     OW22912   2.107   1.710   6.524 -0.3995 -0.3683 -0.4355
 3817SOL    HW122913   2.061   1.792   6.507  0.3308  0.2124  0.3671
 3817SOL    HW222914   2.116   1.712   6.619  0.9776 -2.2388 -0.5288
 3818SOL     OW22915   4.436   1.421  13.430 -0.4616 -0.3376 -0.0465
 3818SOL    HW122916   4.405   1.469  13.354  1.0650  0.8619  0.1021
 3818SOL    HW222917   4.468   1.492  13.486 -0.7640 -0.4000  0.2065
 3819SOL     OW22918   4.547   3.841   1.326 -0.4452 -0.1172 -0.7641
 3819SOL    HW122919   4.510   3.920   1.287  0.0390  1.6257  2.3238
 3819SOL    HW222920   4.529   3.765   1.270  1.9760 -0.2692 -1.3331
 3820SOL     OW22921   4.438   2.954   1.149 -0.1131  0.5541 -0.0107
 3820SOL    HW122922   4.432   2.984   1.240  1.3907  0.0709  0.2501
 3820SOL    HW222923   4.361   2.900   1.132  1.1995 -0.7436 -1.8414
 3821SOL     OW22924   4.038   1.328   1.894 -0.4454  0.3495 -0.3985
 3821SOL    HW122925   4.011   1.387   1.824  1.2387  0.5366 -0.8870
 3821SOL    HW222926   4.104   1.266   1.861  0.1204  0.4879  0.4505
 3822SOL     OW22927   0.188   4.148   5.746 -0.3908 -0.1620  0.1674
 3822SOL    HW122928   0.256   4.178   5.807 -1.3812  0.6133  0.8935
 3822SOL    HW222929   0.127   4.105   5.806  0.6079 -1.4649  0.2619
 3823SOL     OW22930   3.446   1.954   3.854  0.3951 -0.6487 -0.2157
 3823SOL    HW122931   3.537   1.933   3.878  0.0296 -0.3625  1.4216
 3823SOL    HW222932   3.404   1.984   3.934  0.4989 -3.2725  0.8202
 3824SOL     OW22933   1.330   2.443   3.388 -0.0232  0.1285 -0.0312
 3824SOL    HW122934   1.353   2.467   3.478  2.0301 -2.2565  0.0732
 3824SOL    HW222935   1.252   2.499   3.391 -1.0228 -1.3780  1.9609
 3825SOL     OW22936   1.212   0.356   6.782 -0.4366 -0.0506  0.0300
 3825SOL    HW122937   1.244   0.314   6.862 -1.1828  0.1277  0.4201
 3825SOL    HW222938   1.127   0.312   6.777  0.7844 -2.3907 -0.0906
 3826SOL     OW22939   0.306   0.097   4.532 -0.4141 -0.6671 -0.1369
 3826SOL    HW122940   0.330   0.008   4.557  0.6991  0.0831  1.4696
 3826SOL    HW222941   0.241   0.086   4.463 -0.2551 -0.9467 -0.2452
 3827SOL     OW22942   3.812   4.091   4.268  0.2847  0.6523 -0.5247
 3827SOL    HW122943   3.806   4.180   4.235  0.1936  0.3611 -1.2782
 3827SOL    HW222944   3.900   4.082   4.303  0.5325  2.2190 -0.7634
 3828SOL     OW22945   3.820   0.661  13.051  0.3076  0.0570  0.4507
 3828SOL    HW122946   3.914   0.670  13.035  0.1486  0.9864  0.0401
 3828SOL    HW222947   3.782   0.642  12.965  0.1493  1.3414  0.2417
 3829SOL     OW22948   2.015   1.327  10.705 -0.2701 -0.3095  0.3802
 3829SOL    HW122949   2.026   1.237  10.736 -0.4462  0.4741  2.7264
 3829SOL    HW222950   1.952   1.322  10.633 -0.1410  3.1229 -0.0029
 3830SOL     OW22951   0.686   3.941   9.807  0.0400  0.3057 -0.6545
 3830SOL    HW122952   0.642   3.935   9.892 -0.8132 -1.1104 -1.1826
 3830SOL    HW222953   0.663   4.032   9.792  0.4660  0.4134 -0.6691
 3831SOL     OW22954   0.556   0.917   6.516  0.4954 -0.0791  0.0740
 3831SOL    HW122955   0.503   0.886   6.589  0.4551 -2.0949 -0.8066
 3831SOL    HW222956   0.636   0.949   6.557  0.1272 -1.1137  1.5911
 3832SOL     OW22957   1.601   1.104   7.544  0.3379  0.1559 -0.3320
 3832SOL    HW122958   1.587   1.083   7.452 -1.9488 -0.0976  0.0666
 3832SOL    HW222959   1.612   1.199   7.547 -0.7890  0.3467 -2.3711
 3833SOL     OW22960   3.129   1.678   3.540 -0.4272 -0.1994 -0.5164
 3833SOL    HW122961   3.214   1.713   3.513  1.1123 -1.4823  2.6578
 3833SOL    HW222962   3.104   1.738   3.610 -2.0597 -1.5934  0.0891
 3834SOL     OW22963   0.593   0.549  15.238 -0.1001 -0.1838 -0.0428
 3834SOL    HW122964   0.650   0.483  15.277  1.3842  0.9281 -0.3504
 3834SOL    HW222965   0.541   0.580  15.312 -0.7009  0.0093 -0.5473
 3835SOL     OW22966   3.605   4.553   8.284 -0.0846  0.3403 -0.1194
 3835SOL    HW122967   3.648   4.505   8.213 -0.0221  0.1102  0.0724
 3835SOL    HW222968   3.519   4.513   8.286  0.1304 -0.1008  0.4517
 3836SOL     OW22969   4.327   1.795   6.845  0.0596 -0.1426  0.1933
 3836SOL    HW122970   4.411   1.803   6.800 -0.2655  1.5960 -0.0699
 3836SOL    HW222971   4.339   1.862   6.912  0.8135  0.3659 -0.4585
 3837SOL     OW22972   2.574   2.545   8.283 -0.0691  0.3545 -0.2303
 3837SOL    HW122973   2.617   2.488   8.346  0.6167  0.8232 -0.2629
 3837SOL    HW222974   2.487   2.507   8.284 -1.3512  3.2023 -1.4287
 3838SOL     OW22975   3.769   3.863   2.946 -0.5535  0.2025 -0.1888
 3838SOL    HW122976   3.783   3.847   3.039 -0.7869  0.8228 -0.0501
 3838SOL    HW222977   3.794   3.779   2.907  1.1105 -0.6332  2.6671
 3839SOL     OW22978   4.436   2.719   2.626 -1.1202  0.5487  0.0374
 3839SOL    HW122979   4.488   2.641   2.609  0.0755  0.8381  2.2693
 3839SOL    HW222980   4.406   2.685   2.710 -0.2095  3.1980  1.4409
 3840SOL     OW22981   3.277   1.210   4.771  0.3121 -0.0366  0.5940
 3840SOL    HW122982   3.253   1.153   4.844 -1.3518 -1.3145 -0.9627
 3840SOL    HW222983   3.294   1.298   4.806  1.7542 -0.1403  0.1342
 3841SOL     OW22984   2.110   1.173   8.525 -0.3149  0.0726  0.1549
 3841SOL    HW122985   2.139   1.261   8.551 -0.0369  0.2727 -0.8170
 3841SOL    HW222986   2.188   1.119   8.532 -0.7970 -0.5889  0.3557
 3842SOL     OW22987   2.613   3.230   7.531  0.0207  0.5302 -0.1136
 3842SOL    HW122988   2.555   3.277   7.472 -0.6579 -0.4307 -0.2229
 3842SOL    HW222989   2.678   3.296   7.556 -1.6104  1.2260  2.3203
 3843SOL     OW22990   1.604   2.540   8.245  0.5553  0.0411  0.1042
 3843SOL    HW122991   1.632   2.488   8.321  1.0260 -1.8726 -1.3851
 3843SOL    HW222992   1.508   2.541   8.254  0.5911  0.1262  0.5017
 3844SOL     OW22993   1.181   3.546   6.475  0.2631 -0.2824  0.1448
 3844SOL    HW122994   1.177   3.497   6.393 -0.7358  0.7713 -0.4465
 3844SOL    HW222995   1.092   3.550   6.508  1.4697 -0.0285  3.3948
 3845SOL     OW22996   4.055   3.945   7.371 -0.4253 -0.4594  0.5348
 3845SOL    HW122997   4.031   3.852   7.379  1.1301 -1.0474 -1.7023
 3845SOL    HW222998   4.032   3.958   7.279 -1.1606  3.4887  1.2717
 3846SOL     OW22999   4.344   0.798   5.128  0.8620 -0.3360 -0.4703
 3846SOL    HW123000   4.284   0.855   5.081  0.5785  0.3675  0.7653
 3846SOL    HW223001   4.417   0.787   5.067  1.8865 -0.3976  0.7574
 3847SOL     OW23002   3.166   0.229  17.675 -0.3529  0.4588 -1.0055
 3847SOL    HW123003   3.116   0.303   0.012  0.7424  0.7425  0.0006
 3847SOL    HW223004   3.192   0.264  17.590  3.5300 -3.2826 -1.3581
 3848SOL     OW23005   3.250   3.261  15.691  0.0346  0.4840  0.0001
 3848SOL    HW123006   3.218   3.227  15.607 -0.5610 -0.8456  0.7670
 3848SOL    HW223007   3.336   3.293  15.665  1.0207 -3.0754 -1.1451
 3849SOL     OW23008   4.321   4.181   8.098  0.1406  0.3082 -0.2193
 3849SOL    HW123009   4.402   4.197   8.148 -0.2729 -0.4163  0.6695
 3849SOL    HW223010   4.339   4.129   8.019 -0.9091 -0.8337  0.3090
 3850SOL     OW23011   0.308   1.907  16.099 -0.1557 -0.1626 -0.3019
 3850SOL    HW123012   0.381   1.858  16.137 -1.0377 -1.0008  0.3167
 3850SOL    HW223013   0.286   1.845  16.029 -1.2130 -1.1265  0.8914
 3851SOL     OW23014   1.573   0.623   9.121  0.9759  0.1811 -0.8257
 3851SOL    HW123015   1.628   0.631   9.043  0.8773  1.1426 -0.8015
 3851SOL    HW223016   1.592   0.534   9.151  1.0270 -0.1323 -1.7804
 3852SOL     OW23017   0.340   2.067   8.449  0.3180  0.7123  0.1700
 3852SOL    HW123018   0.286   2.058   8.371  1.2521 -0.5014 -0.3359
 3852SOL    HW223019   0.382   2.151   8.433 -0.2727  1.2145  1.2238
 3853SOL     OW23020   3.093   3.266   5.731 -0.1858  0.5392  0.0592
 3853SOL    HW123021   3.098   3.174   5.708  0.3133  0.9835 -1.6200
 3853SOL    HW223022   3.182   3.293   5.706 -1.1824  2.5025 -1.4037
 3854SOL     OW23023   4.064   4.225  17.203  0.0615 -0.1180  0.1501
 3854SOL    HW123024   4.096   4.313  17.185  0.1976 -0.1983  0.0000
 3854SOL    HW223025   4.146   4.178  17.215  0.1043  0.0053  0.3450
 3855SOL     OW23026   0.855   2.275   4.266  0.0266 -0.3904 -0.1874
 3855SOL    HW123027   0.951   2.278   4.266 -0.0069  0.6255  1.8449
 3855SOL    HW223028   0.851   2.368   4.242  0.1578 -0.9652 -2.4172
 3856SOL     OW23029   4.407   1.981   0.205 -0.2614 -0.5749 -0.8601
 3856SOL    HW123030   4.406   1.979   0.301 -1.2023  0.5528 -0.8548
 3856SOL    HW223031   4.316   1.993   0.180 -0.1703  0.3038 -0.7791
 3857SOL     OW23032   4.397   0.041  11.277 -0.0346 -0.7040  0.5542
 3857SOL    HW123033   4.383   4.712  11.356 -0.7732  2.2575  2.4400
 3857SOL    HW223034   4.313   0.085  11.264  0.6737  1.0107  1.6209
 3858SOL     OW23035   4.048   0.118  10.557  0.2009 -0.2791  0.0028
 3858SOL    HW123036   4.035   0.213  10.566  0.9681  0.0508 -2.4866
 3858SOL    HW223037   3.994   0.101  10.480  1.1625 -1.7173 -0.3542
 3859SOL     OW23038   2.797   3.914  10.489 -0.0565 -0.4779  0.2031
 3859SOL    HW123039   2.760   3.845  10.545  0.5930 -1.6346 -0.7858
 3859SOL    HW223040   2.818   3.970  10.564  0.3179 -0.9513  0.4529
 3860SOL     OW23041   2.554   2.581   3.564 -0.6163  0.5226 -0.6033
 3860SOL    HW123042   2.539   2.661   3.615 -2.6149  1.2451 -2.3269
 3860SOL    HW223043   2.645   2.552   3.576 -0.7237  0.5421  0.2775
 3861SOL     OW23044   1.493   1.035   5.565  0.0370 -0.0343 -0.4748
 3861SOL    HW123045   1.422   1.099   5.568 -0.3519 -0.4918  0.1511
 3861SOL    HW223046   1.467   0.990   5.645 -1.1750  0.5277 -0.5559
 3862SOL     OW23047   3.266   4.395   8.621 -0.6655 -0.4370 -0.6303
 3862SOL    HW123048   3.188   4.373   8.569 -1.2464  0.7109 -0.2677
 3862SOL    HW223049   3.229   4.408   8.709 -0.3970  0.5335 -0.6563
 3863SOL     OW23050   1.925   4.020   5.964  0.0016  0.5151 -0.1353
 3863SOL    HW123051   1.863   4.038   6.034  0.1724  3.5431 -0.7935
 3863SOL    HW223052   1.984   4.094   5.963 -0.0603  0.5679  0.0987
 3864SOL     OW23053   3.923   0.278   8.171 -0.1680 -0.1822 -0.1787
 3864SOL    HW123054   3.920   0.270   8.266 -1.0303 -0.8774 -0.2579
 3864SOL    HW223055   3.849   0.226   8.138 -0.8109  0.7121 -0.1286
 3865SOL     OW23056   0.217   4.196  15.478  0.3391  0.0804  0.6714
 3865SOL    HW123057   0.225   4.202  15.383 -1.5527 -0.6283  0.4898
 3865SOL    HW223058   0.223   4.291  15.492  2.0615 -0.1646  1.6831
 3866SOL     OW23059   4.105   2.087   2.923  0.1527 -0.2072  0.7155
 3866SOL    HW123060   4.070   2.102   3.011  1.1055 -1.0434  1.2352
 3866SOL    HW223061   4.099   1.992   2.916  0.9567 -0.2135  0.1582
 3867SOL     OW23062   1.686   3.861  17.252 -0.0864 -0.4738 -0.3076
 3867SOL    HW123063   1.633   3.833  17.177 -0.9168  1.1808 -0.3374
 3867SOL    HW223064   1.666   3.784  17.306 -1.6386  0.4212  0.3911
 3868SOL     OW23065   3.692   1.453  12.372  0.3001  0.0682  0.3686
 3868SOL    HW123066   3.765   1.413  12.419 -0.3113  1.2868  2.3595
 3868SOL    HW223067   3.724   1.530  12.326 -0.7247  0.8134  0.9001
 3869SOL     OW23068   2.480   0.217   4.630  0.7462 -0.6064  0.2547
 3869SOL    HW123069   2.399   0.165   4.632  0.8293 -0.7463 -0.0837
 3869SOL    HW223070   2.441   0.302   4.651  0.4492 -0.4297 -0.9966
 3870SOL     OW23071   2.053   3.051  11.416  0.3968 -0.1936  0.0816
 3870SOL    HW123072   2.107   3.094  11.351  1.6238 -1.6184  0.1691
 3870SOL    HW223073   2.005   3.126  11.451 -0.8584 -0.8669 -0.1775
 3871SOL     OW23074   2.178   0.801   7.458  0.1315 -0.0871 -0.7020
 3871SOL    HW123075   2.268   0.834   7.468 -0.2449  1.0269 -0.9640
 3871SOL    HW223076   2.160   0.848   7.377  0.3866  2.6545  0.7974
 3872SOL     OW23077   2.890   0.098   0.746 -0.3126 -0.1817  0.5389
 3872SOL    HW123078   2.945   0.095   0.825 -0.3547 -0.9370  0.5349
 3872SOL    HW223079   2.891   0.002   0.744  1.1021 -0.1230 -2.1132
 3873SOL     OW23080   3.083   4.271   5.399  0.4503 -0.1823  0.0298
 3873SOL    HW123081   3.018   4.231   5.341  1.3886 -2.0488  0.2768
 3873SOL    HW223082   3.166   4.241   5.364  0.0306 -0.5650 -0.6405
 3874SOL     OW23083   2.886   2.494   2.314  0.0562  0.4544  0.4952
 3874SOL    HW123084   2.889   2.536   2.228 -0.2912  1.3217  0.8989
 3874SOL    HW223085   2.814   2.433   2.301  2.0335 -1.6059 -0.7395
 3875SOL     OW23086   3.074   4.218  10.170  0.3389 -0.2928 -0.0145
 3875SOL    HW123087   3.140   4.239  10.235  2.9069 -2.2455 -1.9932
 3875SOL    HW223088   3.000   4.179  10.217 -2.0404  4.1024 -0.0413
 3876SOL     OW23089   4.632   3.226   0.147 -0.0005 -0.1482 -0.1491
 3876SOL    HW123090   4.660   3.240   0.057  1.9538  0.7965  0.6120
 3876SOL    HW223091   4.673   3.140   0.157  0.7911  0.2624  0.1387
 3877SOL     OW23092   0.631   4.125   2.547  0.0445 -0.0604  0.3576
 3877SOL    HW123093   0.634   4.216   2.518 -1.5515 -0.7493 -1.9069
 3877SOL    HW223094   0.566   4.118   2.616 -1.0233  0.3073 -0.6277
 3878SOL     OW23095   3.685   0.579  10.728  0.3843  0.3784  0.6196
 3878SOL    HW123096   3.610   0.529  10.760 -1.3396  2.2779 -0.4851
 3878SOL    HW223097   3.664   0.594  10.636 -2.0270  0.1619  1.1315
 3879SOL     OW23098   4.651   1.927  13.494  0.3666  0.4064  0.1216
 3879SOL    HW123099   4.721   1.902  13.554  0.1413  1.3609  0.7829
 3879SOL    HW223100   4.706   1.985  13.442  0.8226 -1.0449 -0.9799
 3880SOL     OW23101   1.346   2.203  11.738  0.3214 -0.3842 -0.3728
 3880SOL    HW123102   1.305   2.242  11.815  1.3820 -0.8015  0.4101
 3880SOL    HW223103   1.424   2.169  11.783  0.8890 -0.5332 -1.4612
 3881SOL     OW23104   4.097   0.201   8.671 -0.1883 -0.2110  0.1189
 3881SOL    HW123105   4.075   0.110   8.692 -2.1230 -0.3138 -2.3323
 3881SOL    HW223106   4.139   0.234   8.751 -0.7559  0.7062  0.0344
 3882SOL     OW23107   2.913   1.694   4.133 -0.6303  0.9252  0.0221
 3882SOL    HW123108   2.895   1.730   4.220  3.6096  0.1223  1.2492
 3882SOL    HW223109   2.893   1.602   4.150  1.0148  0.0722 -2.7599
 3883SOL     OW23110   1.340   1.064  10.334 -0.0762 -0.0474 -0.2469
 3883SOL    HW123111   1.396   0.994  10.301  1.0538  0.2780  0.9480
 3883SOL    HW223112   1.379   1.135  10.284  0.1420 -1.0732 -1.5076
 3884SOL     OW23113   0.696   1.084   3.720 -0.6061  0.1840  0.1026
 3884SOL    HW123114   0.637   1.158   3.732 -0.1401  0.5039  0.4161
 3884SOL    HW223115   0.749   1.100   3.798  0.6315 -0.7366 -0.5470
 3885SOL     OW23116   1.809   0.822   8.355  0.4517  0.0279 -0.1720
 3885SOL    HW123117   1.841   0.741   8.315  0.7323 -0.3406  0.7856
 3885SOL    HW223118   1.871   0.888   8.325 -0.1588  0.3244 -0.7729
 3886SOL     OW23119   3.273   3.829  11.581 -0.3258 -0.1719 -0.3836
 3886SOL    HW123120   3.200   3.825  11.519  0.5110  0.2978 -1.4139
 3886SOL    HW223121   3.243   3.791  11.663 -0.3873  0.9840  0.1272
 3887SOL     OW23122   2.862   0.353  11.011  0.2631  0.2691  0.4126
 3887SOL    HW123123   2.806   0.298  10.956 -0.1360  0.8016  0.2862
 3887SOL    HW223124   2.815   0.436  11.021 -0.0295  0.5121 -3.0379
 3888SOL     OW23125   0.428   2.926  11.637 -0.6535  0.3781  0.1519
 3888SOL    HW123126   0.394   3.005  11.593 -0.3363  0.1488 -0.5089
 3888SOL    HW223127   0.433   2.953  11.729 -0.8541  1.2428 -0.0882
 3889SOL     OW23128   1.769   4.168   8.032  0.4718 -0.0050 -0.1305
 3889SOL    HW123129   1.799   4.258   8.021  1.0725 -0.0091  1.4376
 3889SOL    HW223130   1.708   4.157   7.960  0.6253 -2.6283  0.1367
 3890SOL     OW23131   4.346   0.039   9.039  0.5163  0.1742  0.4777
 3890SOL    HW123132   4.394   4.692   8.996 -0.6452  0.8103 -1.9115
 3890SOL    HW223133   4.305   4.705   9.104  0.5159  1.7509  1.8783
 3891SOL     OW23134   3.567   0.780  13.024 -0.0044  0.3838  0.0692
 3891SOL    HW123135   3.491   0.724  13.041 -0.2757  1.4591  2.3126
 3891SOL    HW223136   3.640   0.729  13.059 -0.8793 -1.0500 -0.1510
 3892SOL     OW23137   3.927   3.626  13.187  0.0129 -0.3293  0.0188
 3892SOL    HW123138   4.008   3.599  13.230 -0.9757 -1.3457  1.1985
 3892SOL    HW223139   3.894   3.543  13.155  0.0859 -0.3154 -0.0943
 3893SOL     OW23140   4.560   4.709   1.780  0.1065 -0.6443 -0.4057
 3893SOL    HW123141   4.600   4.664   1.854  1.1065  0.9658  0.0195
 3893SOL    HW223142   4.502   4.639   1.751 -0.9416 -0.0255  0.1665
 3894SOL     OW23143   4.667   2.149   0.301 -0.9421 -0.1946  0.2982
 3894SOL    HW123144   4.597   2.214   0.307 -0.2539  0.6001 -0.1798
 3894SOL    HW223145   4.637   2.106   0.221 -0.7526 -1.8202  1.1088
 3895SOL     OW23146   2.897   0.503   7.659  0.5112 -0.6374  0.0563
 3895SOL    HW123147   2.985   0.529   7.686  0.4209 -1.8002  1.5311
 3895SOL    HW223148   2.877   0.570   7.595 -2.0444 -1.7595 -0.3232
 3896SOL     OW23149   4.505   3.374   5.601 -0.2789  0.3151  0.5224
 3896SOL    HW123150   4.460   3.289   5.606  0.6626 -0.3240 -2.1937
 3896SOL    HW223151   4.485   3.401   5.691  1.3054  1.1315  0.6300
 3897SOL     OW23152   3.011   2.088  15.213 -1.0545 -0.4105  0.4796
 3897SOL    HW123153   3.022   2.180  15.190 -1.0233 -0.0216  2.0501
 3897SOL    HW223154   3.103   2.063  15.217 -0.8278  0.1969 -0.8818
 3898SOL     OW23155   0.050   2.436   0.208  0.4074 -0.5921  0.4249
 3898SOL    HW123156   0.100   2.517   0.215  0.7737 -0.9280  1.7105
 3898SOL    HW223157   4.697   2.459   0.261 -0.9463 -5.0201  0.3912
 3899SOL     OW23158   3.638   1.602   5.553 -0.7489 -0.0307 -0.3208
 3899SOL    HW123159   3.722   1.587   5.595 -0.9126 -0.2244 -0.0610
 3899SOL    HW223160   3.582   1.651   5.613 -0.7612  0.8342 -1.0415
 3900SOL     OW23161   4.379   3.891   5.039 -0.0722 -0.4857  0.0064
 3900SOL    HW123162   4.470   3.863   5.031  0.3589  1.2081 -1.1574
 3900SOL    HW223163   4.386   3.982   5.068 -1.3555 -0.8742  1.5444
 3901SOL     OW23164   0.174   3.058   2.175 -0.2600  0.1156 -0.2247
 3901SOL    HW123165   0.079   3.047   2.181 -0.1016 -0.9547  0.2635
 3901SOL    HW223166   0.192   3.006   2.097  0.6411  0.6085 -0.3430
 3902SOL     OW23167   2.093   2.576   7.049 -0.5693  0.1198  0.0152
 3902SOL    HW123168   2.142   2.652   7.017  1.2232 -1.9888 -2.1957
 3902SOL    HW223169   2.158   2.535   7.105 -0.2799 -0.3505 -0.6661
 3903SOL     OW23170   3.984   0.909  15.067  0.5648  0.6612  0.0543
 3903SOL    HW123171   4.009   0.896  14.976  0.2465 -3.8852  0.5839
 3903SOL    HW223172   3.903   0.859  15.064  1.0968 -0.3212  1.8289
 3904SOL     OW23173   4.663   1.935   1.996 -0.0256  0.6560 -0.0949
 3904SOL    HW123174   0.005   1.897   2.054  0.2061  2.7020  1.0040
 3904SOL    HW223175   4.602   1.862   1.998  2.9495 -1.8417 -0.1211
 3905SOL     OW23176   3.375   0.054   1.937 -0.3668 -0.3092 -0.2423
 3905SOL    HW123177   3.447   0.101   1.896 -1.0850  0.3738 -0.7133
 3905SOL    HW223178   3.418   0.001   2.004 -0.2241 -0.3329 -0.3529
 3906SOL     OW23179   0.593   4.204   0.210 -0.4632 -0.0726 -0.6764
 3906SOL    HW123180   0.570   4.271   0.275 -1.7178 -0.8322 -0.3513
 3906SOL    HW223181   0.677   4.243   0.185  0.4190 -1.8421 -0.4868
 3907SOL     OW23182   3.733   2.066   8.321  0.2952 -0.1311 -0.0504
 3907SOL    HW123183   3.643   2.056   8.352  0.4170 -2.4510 -0.4431
 3907SOL    HW223184   3.733   2.162   8.320  0.2503 -0.0768  3.7655
 3908SOL     OW23185   3.974   4.072  11.465 -0.1369  0.1859 -0.0758
 3908SOL    HW123186   3.910   4.130  11.506 -0.3970 -0.5708  0.6029
 3908SOL    HW223187   3.957   3.995  11.519 -0.0493  0.0386 -0.2569
 3909SOL     OW23188   0.806   4.664  13.629  0.2066 -0.1288  0.3941
 3909SOL    HW123189   0.714   4.649  13.647 -0.0470  0.5210 -0.3625
 3909SOL    HW223190   0.813   4.661  13.534 -0.0717 -1.8849  0.4316
 3910SOL     OW23191   0.343   0.890   8.063 -0.3144 -0.5466  0.1135
 3910SOL    HW123192   0.273   0.886   7.998  1.3581  2.5310 -1.8784
 3910SOL    HW223193   0.299   0.870   8.145  1.4133  2.1208  1.6879
 3911SOL     OW23194   3.028   2.833   8.535 -0.0027  0.3029 -0.3214
 3911SOL    HW123195   3.082   2.759   8.507 -0.2477  0.1875 -0.4963
 3911SOL    HW223196   3.022   2.811   8.628  0.1160 -1.5497 -0.7525
 3912SOL     OW23197   1.174   1.067   4.875  0.2127  0.1558 -0.0623
 3912SOL    HW123198   1.219   1.131   4.930  0.7352  0.8169 -1.2479
 3912SOL    HW223199   1.248   1.018   4.837  0.6031  0.0475  0.8408
 3913SOL     OW23200   0.885   4.567  16.718  0.6261  0.6611  0.2576
 3913SOL    HW123201   0.818   4.596  16.780  3.0470  1.4577  2.5026
 3913SOL    HW223202   0.918   4.654  16.696  3.0693 -0.2878  0.1442
 3914SOL     OW23203   1.932   3.189   2.684 -0.0112 -0.8480 -0.1742
 3914SOL    HW123204   1.849   3.208   2.726  1.4896  2.5977  1.2099
 3914SOL    HW223205   1.962   3.119   2.742 -1.2584 -1.5491 -0.3769
 3915SOL     OW23206   0.607   4.470   7.295 -0.4101  0.3645 -0.1259
 3915SOL    HW123207   0.548   4.459   7.220 -0.3914  0.1540 -0.1101
 3915SOL    HW223208   0.547   4.436   7.362 -1.0337 -1.4159 -1.5784
 3916SOL     OW23209   0.721   1.148   8.791 -0.6981  0.3749  0.0869
 3916SOL    HW123210   0.666   1.149   8.869 -1.0229  0.8288 -0.1511
 3916SOL    HW223211   0.759   1.061   8.808  0.5154  1.3194  2.2071
 3917SOL     OW23212   1.380   4.444   1.932 -0.3246 -0.3492  0.2418
 3917SOL    HW123213   1.404   4.440   1.840 -0.5003  1.3717  0.1274
 3917SOL    HW223214   1.312   4.511   1.932 -0.8664 -0.8939  1.3815
 3918SOL     OW23215   4.558   1.270   2.428  0.4622  0.2352  0.1380
 3918SOL    HW123216   4.588   1.183   2.399 -2.1665 -0.7818  0.4790
 3918SOL    HW223217   4.576   1.320   2.348  1.5780  2.8044  2.0008
 3919SOL     OW23218   4.040   3.734   0.693  0.1828 -0.1803 -0.0942
 3919SOL    HW123219   4.094   3.663   0.660 -0.3945  0.2628 -1.9732
 3919SOL    HW223220   4.021   3.701   0.781 -1.6299 -3.9181 -1.9079
 3920SOL     OW23221   4.443   3.815   5.673 -0.1300 -0.5048 -0.0910
 3920SOL    HW123222   4.527   3.808   5.628  0.2062  0.1915  0.4184
 3920SOL    HW223223   4.455   3.872   5.749  0.5238 -1.4902  0.5425
 3921SOL     OW23224   3.765   3.898   5.241 -0.2219  0.4025 -0.2644
 3921SOL    HW123225   3.803   3.817   5.206  1.3303  0.9318  0.1728
 3921SOL    HW223226   3.818   3.898   5.321  1.4713 -0.0247 -1.3932
 3922SOL     OW23227   0.995   0.175  13.615  0.0737 -0.4652  0.3112
 3922SOL    HW123228   0.961   0.240  13.676 -2.3099 -2.9774  1.6920
 3922SOL    HW223229   0.953   0.093  13.643 -1.2165  0.7278  1.8939
 3923SOL     OW23230   3.979   0.047  15.765 -0.0684 -0.0548 -0.2595
 3923SOL    HW123231   3.968   0.134  15.725 -0.4357  0.8658  1.8536
 3923SOL    HW223232   3.946   0.056  15.854  0.1724 -1.5998 -0.0285
 3924SOL     OW23233   1.173   0.983  11.051 -0.0456  0.0287  0.1453
 3924SOL    HW123234   1.167   1.022  10.964 -1.0598  2.0232  1.0888
 3924SOL    HW223235   1.141   0.895  11.034  0.2011 -0.5038  2.4063
 3925SOL     OW23236   3.547   1.607  14.634 -0.0043  0.3447  1.3465
 3925SOL    HW123237   3.485   1.679  14.638  1.1388  1.4345 -0.8598
 3925SOL    HW223238   3.497   1.551  14.575  1.1697 -0.8377  1.4647
 3926SOL     OW23239   1.468   2.317  10.651  0.1790 -0.3591 -0.3742
 3926SOL    HW123240   1.553   2.351  10.678 -0.0275  0.2134 -0.4502
 3926SOL    HW223241   1.492   2.231  10.686  1.6475  1.3178  2.6632
 3927SOL     OW23242   2.205   0.277  13.751  0.4558  0.0350  0.2002
 3927SOL    HW123243   2.171   0.246  13.834  0.6959  0.7276  0.5571
 3927SOL    HW223244   2.283   0.224  13.737 -0.8517 -2.2115  1.5938
 3928SOL     OW23245   3.121   0.629   2.848  0.7785  0.5666  0.0620
 3928SOL    HW123246   3.127   0.550   2.901 -1.2613  1.4978  1.7227
 3928SOL    HW223247   3.029   0.654   2.859  0.6440 -1.5903  3.6993
 3929SOL     OW23248   1.176   0.979   9.249  0.1758  0.0198  0.0399
 3929SOL    HW123249   1.192   1.058   9.197  0.0145 -0.3196 -0.5168
 3929SOL    HW223250   1.259   0.932   9.239  0.5199  0.6923 -0.2765
 3930SOL     OW23251   0.699   3.243   4.438  0.5894 -0.5474 -0.1520
 3930SOL    HW123252   0.669   3.193   4.362 -0.8216  0.0616  0.0032
 3930SOL    HW223253   0.701   3.331   4.402 -1.1273  0.1254  1.4205
 3931SOL     OW23254   3.917   3.555   9.111 -0.5626 -0.1309 -0.3041
 3931SOL    HW123255   3.893   3.474   9.065 -1.3675  0.3996 -0.8295
 3931SOL    HW223256   3.972   3.524   9.183 -0.0644 -1.1604 -1.1229
 3932SOL     OW23257   4.132   2.059  12.699  0.5773  0.0117  0.3715
 3932SOL    HW123258   4.132   2.121  12.772 -0.7025 -1.6865  1.8059
 3932SOL    HW223259   4.226   2.055  12.681  0.8008 -0.7145  1.7540
 3933SOL     OW23260   0.210   2.216   0.263 -0.1506 -0.0186 -0.2072
 3933SOL    HW123261   0.168   2.292   0.223 -0.6338  0.1511  0.6240
 3933SOL    HW223262   0.131   2.191   0.311  1.0689  0.8008  2.2785
 3934SOL     OW23263   3.997   3.031   7.681  0.2180 -0.0585 -0.0559
 3934SOL    HW123264   3.903   3.024   7.669  0.0571  2.7152 -0.3597
 3934SOL    HW223265   4.009   3.119   7.717  3.2347 -1.3732  2.1668
 3935SOL     OW23266   4.199   2.014   1.713  0.5675 -0.1004  0.0124
 3935SOL    HW123267   4.207   1.921   1.733 -3.4983  0.0641  2.4413
 3935SOL    HW223268   4.190   2.021   1.618 -0.1637 -2.9664 -0.1332
 3936SOL     OW23269   1.152   0.020   7.128  0.3667 -0.6334 -0.2289
 3936SOL    HW123270   1.081   4.711   7.183  0.7825 -0.6624  0.2835
 3936SOL    HW223271   1.118   4.720   7.041 -1.4833  0.7459  0.1432
 3937SOL     OW23272   0.039   1.582  10.557  0.6713  0.3599  0.9851
 3937SOL    HW123273   0.013   1.563  10.648 -2.4643 -1.0037 -0.1800
 3937SOL    HW223274   4.680   1.571  10.510  0.5251 -1.1317  1.5799
 3938SOL     OW23275   4.213   4.228   7.717 -0.0594 -0.0581 -0.6582
 3938SOL    HW123276   4.205   4.322   7.732  3.6019  0.1464  0.0355
 3938SOL    HW223277   4.215   4.188   7.804 -1.8512  1.1598 -0.0579
 3939SOL     OW23278   3.382   0.433   3.672  0.2036 -0.1319 -0.1802
 3939SOL    HW123279   3.469   0.472   3.685  0.3823 -0.6679  0.2289
 3939SOL    HW223280   3.378   0.380   3.751 -4.2122  1.2190  0.4789
 3940SOL     OW23281   2.965   1.911   3.186 -0.2281 -0.2360  0.7585
 3940SOL    HW123282   2.925   1.937   3.103  0.2714 -2.1273 -0.0793
 3940SOL    HW223283   2.896   1.862   3.232  0.8340 -2.5503 -0.1005
 3941SOL     OW23284   4.388   1.000   2.836  0.0164 -0.0974 -0.5879
 3941SOL    HW123285   4.428   1.073   2.789 -1.1396  0.0493 -1.3543
 3941SOL    HW223286   4.386   1.027   2.928 -3.5718 -0.2488 -0.5936
 3942SOL     OW23287   0.091   1.535   8.786 -0.7087 -0.4546  0.3162
 3942SOL    HW123288   0.130   1.464   8.735 -0.6878  1.4978 -2.4196
 3942SOL    HW223289   0.134   1.614   8.754 -1.5466  0.0714  0.4806
 3943SOL     OW23290   0.323   4.090   9.121  0.4066  0.0678 -0.8391
 3943SOL    HW123291   0.307   4.153   9.191 -0.5382 -1.6293  0.4795
 3943SOL    HW223292   0.303   4.147   9.046  1.4887 -1.0503 -1.9648
 3944SOL     OW23293   3.697   1.750  12.320 -0.1289 -0.1894  0.2291
 3944SOL    HW123294   3.613   1.715  12.351 -0.9328  0.6405 -0.9806
 3944SOL    HW223295   3.717   1.815  12.387  2.2853 -1.4064  0.6808
 3945SOL     OW23296   0.798   0.865   8.880  0.2706 -0.6521  0.2976
 3945SOL    HW123297   0.854   0.788   8.877 -0.7195 -1.2885 -2.2552
 3945SOL    HW223298   0.851   0.916   8.940 -1.8234 -0.0658  1.6371
 3946SOL     OW23299   1.662   4.261  13.158  0.0790 -0.4241 -0.8520
 3946SOL    HW123300   1.600   4.262  13.231  1.6845 -0.1863  0.5008
 3946SOL    HW223301   1.692   4.352  13.159  0.1889 -0.4643 -0.5140
 3947SOL     OW23302   1.775   1.942  13.701 -0.2579  0.0195 -0.4375
 3947SOL    HW123303   1.773   2.033  13.729  0.5956 -0.3856  0.9604
 3947SOL    HW223304   1.810   1.907  13.783 -0.1611 -2.5716 -1.5746
 3948SOL     OW23305   3.905   4.099   3.210 -0.0930  0.0159 -0.1036
 3948SOL    HW123306   3.863   4.124   3.292  2.0142  0.8912  0.6891
 3948SOL    HW223307   3.829   4.114   3.154 -2.9409  2.5691  4.4418
 3949SOL     OW23308   4.565   3.951  10.569 -0.7074 -0.1229 -0.4484
 3949SOL    HW123309   4.499   3.891  10.534 -1.0559  0.9689 -1.6404
 3949SOL    HW223310   4.509   4.024  10.595 -1.1616 -0.2958 -0.9434
 3950SOL     OW23311   3.375   0.674   7.079 -0.0527 -0.0127  0.0226
 3950SOL    HW123312   3.430   0.740   7.122  2.1675 -0.5961 -1.9133
 3950SOL    HW223313   3.441   0.607   7.057  0.3620  1.0856 -2.0421
 3951SOL     OW23314   3.591   4.331   5.837 -0.6973  0.2692 -0.2122
 3951SOL    HW123315   3.640   4.408   5.808 -2.0283 -0.2063 -3.7094
 3951SOL    HW223316   3.660   4.265   5.840  0.1963  1.1085 -1.9332
 3952SOL     OW23317   1.651   3.297  16.831 -0.3965  0.8477 -0.3080
 3952SOL    HW123318   1.621   3.347  16.906 -1.8229  0.7841 -0.8320
 3952SOL    HW223319   1.705   3.368  16.797  1.9252 -0.1322  1.3488
 3953SOL     OW23320   1.525   4.046   9.028 -0.2815 -0.9493  0.4995
 3953SOL    HW123321   1.613   4.007   9.027  0.4124  0.5985  1.8151
 3953SOL    HW223322   1.513   4.072   9.119 -0.2387  0.4060  0.1125
 3954SOL     OW23323   2.235   0.056   4.598  0.3751  0.4821  1.0223
 3954SOL    HW123324   2.260   4.709   4.538 -1.4530  0.1970  0.5913
 3954SOL    HW223325   2.171   0.009   4.651  0.8843  0.8795  1.9773
 3955SOL     OW23326   1.746   3.706  15.653 -0.5033 -0.1566  0.3947
 3955SOL    HW123327   1.655   3.692  15.628 -0.2985 -1.6079  0.4617
 3955SOL    HW223328   1.800   3.705  15.574  0.9563  3.3092  1.3327
 3956SOL     OW23329   4.684   0.035  10.235  0.3969 -0.0247 -0.2203
 3956SOL    HW123330   0.003   4.703  10.170  0.6526  0.1988 -0.2404
 3956SOL    HW223331   4.720   0.117  10.200  2.5526 -1.6546 -1.7653
 3957SOL     OW23332   4.366   3.176   8.267 -0.5595  0.1969  0.2766
 3957SOL    HW123333   4.426   3.239   8.226 -0.4268  0.0785  0.2853
 3957SOL    HW223334   4.307   3.247   8.292  0.9036  0.9259  1.6407
 3958SOL     OW23335   4.538   2.974   4.170  0.1067  0.5046  0.2927
 3958SOL    HW123336   4.567   2.936   4.253 -2.4446  0.3214  1.0967
 3958SOL    HW223337   4.450   3.007   4.189 -0.5689 -0.6607 -0.8409
 3959SOL     OW23338   1.582   0.481   7.051 -0.1322 -0.0267 -0.4686
 3959SOL    HW123339   1.572   0.530   7.133  0.9135 -2.8641  1.3537
 3959SOL    HW223340   1.518   0.521   6.992  0.2436  0.1374 -0.7650
 3960SOL     OW23341   1.592   0.399  12.811  0.4503 -0.0511  0.4401
 3960SOL    HW123342   1.519   0.360  12.858 -0.4916  0.6837 -0.4013
 3960SOL    HW223343   1.650   0.325  12.792  1.1821  0.9241 -1.2246
 3961SOL     OW23344   0.848   2.487   7.237  0.2489  0.0778 -0.1398
 3961SOL    HW123345   0.940   2.480   7.211  0.1375  0.8452 -0.7255
 3961SOL    HW223346   0.812   2.509   7.151 -1.5906 -1.5499  0.2099
 3962SOL     OW23347   2.302   0.132  14.989  0.7821  0.1148  0.2008
 3962SOL    HW123348   2.386   0.134  15.035  0.4526  0.1359  0.8020
 3962SOL    HW223349   2.325   0.187  14.914  0.1752  0.2930  0.1508
 3963SOL     OW23350   0.641   2.546   7.439 -0.0794  0.4797  0.0860
 3963SOL    HW123351   0.708   2.497   7.392  1.5311  1.5112  1.3243
 3963SOL    HW223352   0.687   2.573   7.518  0.2433  2.0202 -0.6422
 3964SOL     OW23353   3.301   4.714   4.423  0.5818 -0.1883  0.0460
 3964SOL    HW123354   3.326   4.624   4.444 -0.1498  0.0589  2.0016
 3964SOL    HW223355   3.223   0.014   4.474  0.6497 -0.9190  0.4918
 3965SOL     OW23356   4.606   4.327  16.465 -0.4043 -0.6076 -0.1101
 3965SOL    HW123357   4.623   4.339  16.559 -0.2259 -0.5042 -0.1547
 3965SOL    HW223358   4.529   4.382  16.453  0.5037  0.9750  1.2530
 3966SOL     OW23359   1.559   0.085   9.772  1.4330  0.2748  0.2218
 3966SOL    HW123360   1.647   0.075   9.808  0.8648 -0.9086  1.2628
 3966SOL    HW223361   1.534   0.165   9.819  2.7745  0.8714 -0.0743
 3967SOL     OW23362   2.223   1.723  10.570  0.7728 -0.1304  0.3144
 3967SOL    HW123363   2.211   1.671  10.491  2.8547 -0.6771  0.3597
 3967SOL    HW223364   2.140   1.772  10.573  0.2884 -0.7932 -2.0701
 3968SOL     OW23365   4.555   1.073   9.245 -0.0608  0.1926 -0.7887
 3968SOL    HW123366   4.478   1.076   9.301  0.9222  1.5630  0.4677
 3968SOL    HW223367   4.515   1.042   9.163 -0.7675 -0.0398 -0.3561
 3969SOL     OW23368   0.564   2.405   8.156 -0.5181  0.2452  0.0131
 3969SOL    HW123369   0.581   2.348   8.081 -0.1825  2.1739 -1.3712
 3969SOL    HW223370   0.490   2.456   8.124 -1.7603 -2.3143 -1.1678
 3970SOL     OW23371   0.498   3.681   0.864  0.1162 -0.5460 -0.2444
 3970SOL    HW123372   0.449   3.663   0.944  1.4976 -2.1720  0.2329
 3970SOL    HW223373   0.485   3.775   0.852 -0.5044 -0.7360 -1.1189
 3971SOL     OW23374   4.365   3.916   7.131 -0.1333 -0.1041 -0.5483
 3971SOL    HW123375   4.275   3.944   7.115  0.0867  0.3393 -1.0041
 3971SOL    HW223376   4.345   3.824   7.145 -1.1897  0.4763  1.7008
 3972SOL     OW23377   3.830   0.138   0.369 -0.1140  0.1738  0.1803
 3972SOL    HW123378   3.912   0.089   0.365 -0.1941  0.1507 -1.2575
 3972SOL    HW223379   3.766   0.084   0.322 -2.1264  2.9459 -0.2833
 3973SOL     OW23380   3.457   1.755  12.428  0.0050  0.4703 -0.5262
 3973SOL    HW123381   3.417   1.839  12.452 -0.2048 -0.0802  1.0700
 3973SOL    HW223382   3.428   1.693  12.495  1.3620 -2.9212 -3.0900
 3974SOL     OW23383   3.467   0.396   5.700 -0.3372 -0.2464  0.0190
 3974SOL    HW123384   3.539   0.436   5.748  1.1550 -0.1436 -2.3045
 3974SOL    HW223385   3.514   0.381   5.617 -0.4435  0.4756 -0.1685
 3975SOL     OW23386   4.687   0.387   6.435 -0.2007  0.3743 -0.4289
 3975SOL    HW123387   0.023   0.408   6.363  0.2687 -0.0526 -0.1665
 3975SOL    HW223388   0.026   0.386   6.508 -1.1546 -0.6207  0.3804
 3976SOL     OW23389   3.383   0.273   4.460 -0.9868 -0.4070  0.0597
 3976SOL    HW123390   3.408   0.181   4.462 -0.0845 -0.1268  1.8834
 3976SOL    HW223391   3.297   0.262   4.420  0.3257 -2.3748 -2.2236
 3977SOL     OW23392   2.319   1.428   2.312 -0.4561  0.1122  0.3008
 3977SOL    HW123393   2.410   1.421   2.342 -0.6922 -0.9616  0.7623
 3977SOL    HW223394   2.318   1.341   2.274 -1.1829  0.0972  0.3481
 3978SOL     OW23395   4.310   2.168  14.208 -0.3358 -0.0142  0.1249
 3978SOL    HW123396   4.247   2.137  14.142 -0.5282  1.4358 -0.3720
 3978SOL    HW223397   4.341   2.251  14.172 -1.9956  0.1878 -0.8489
 3979SOL     OW23398   3.261   2.695   3.988 -0.0726  0.1256 -0.1915
 3979SOL    HW123399   3.203   2.767   3.966 -1.9011 -0.9573  1.0586
 3979SOL    HW223400   3.323   2.688   3.916  1.3396 -0.8365  1.1053
 3980SOL     OW23401   0.848   3.242   5.714  0.0190  0.0696  0.1132
 3980SOL    HW123402   0.849   3.147   5.728  1.4034 -0.0553 -0.8658
 3980SOL    HW223403   0.821   3.266   5.803  1.5835  1.1281  0.2940
 3981SOL     OW23404   1.478   3.234   2.681 -0.3209 -0.1903 -0.1020
 3981SOL    HW123405   1.514   3.284   2.608 -0.0487 -1.2243 -0.6798
 3981SOL    HW223406   1.387   3.263   2.679  0.5264  2.5271  1.4909
 3982SOL     OW23407   0.846   1.574   2.775 -0.4102 -0.5464  0.4358
 3982SOL    HW123408   0.873   1.486   2.800  1.7646 -0.1067 -0.4126
 3982SOL    HW223409   0.901   1.627   2.832  0.1881 -1.4195  0.6627
 3983SOL     OW23410   4.470   1.046  12.799  0.6467 -0.6484  0.6490
 3983SOL    HW123411   4.546   1.077  12.749 -0.5014  2.5848  0.9009
 3983SOL    HW223412   4.479   0.954  12.775  1.4167  0.4100 -3.2584
 3984SOL     OW23413   0.254   0.871   3.844  0.1674 -0.4185 -0.6202
 3984SOL    HW123414   0.318   0.917   3.897 -1.9247  1.8673 -0.0782
 3984SOL    HW223415   0.274   0.890   3.752  2.2468 -0.1112 -0.0978
 3985SOL     OW23416   0.743   2.904   6.846  0.2589  0.3391  0.1321
 3985SOL    HW123417   0.750   2.982   6.901  1.9534  0.1391  0.1921
 3985SOL    HW223418   0.651   2.904   6.818  0.0383  0.1941  0.8764
 3986SOL     OW23419   4.649   2.599   8.416  0.1508  0.0929 -0.1868
 3986SOL    HW123420   4.608   2.582   8.501  0.5481 -0.3549 -0.0838
 3986SOL    HW223421   4.575   2.573   8.360  0.1040  0.3872 -0.2605
 3987SOL     OW23422   0.078   1.170   2.208  0.6659  0.0308 -0.0046
 3987SOL    HW123423   0.057   1.131   2.293 -0.4869  0.3838 -0.1278
 3987SOL    HW223424   0.064   1.263   2.226 -1.7341 -0.7556  2.2656
 3988SOL     OW23425   4.650   4.077   1.988  0.7866 -0.0826  0.1670
 3988SOL    HW123426   4.689   4.145   1.932 -1.1457  0.9437  0.0762
 3988SOL    HW223427   4.644   4.005   1.925 -1.0885  0.1587  0.0839
 3989SOL     OW23428   2.268   2.508  17.359  0.2408 -0.4688 -0.4311
 3989SOL    HW123429   2.197   2.568  17.333  0.7755 -0.6863 -2.4192
 3989SOL    HW223430   2.218   2.441  17.406 -0.7723  0.4442 -0.2040
 3990SOL     OW23431   4.244   1.732   1.719 -0.0176 -0.2238 -0.0416
 3990SOL    HW123432   4.204   1.689   1.644 -0.3388 -0.1167  0.0693
 3990SOL    HW223433   4.329   1.689   1.711 -0.5785 -1.5081  0.9845
 3991SOL     OW23434   2.259   0.064   2.297 -0.6664  0.4263 -0.2387
 3991SOL    HW123435   2.179   0.102   2.261 -1.5432 -0.3204  0.8961
 3991SOL    HW223436   2.259   4.705   2.249  0.5366 -0.1885  0.7905
 3992SOL     OW23437   0.092   0.115   4.352 -0.3298  1.0078 -0.3688
 3992SOL    HW123438   4.722   0.127   4.336 -0.8647 -2.1044  0.5542
 3992SOL    HW223439   0.126   0.082   4.269  1.1001  2.3867 -0.3248
 3993SOL     OW23440   3.928   1.621   8.645  0.3707 -0.4967  0.0346
 3993SOL    HW123441   3.968   1.631   8.731  1.2862 -2.1572 -0.1868
 3993SOL    HW223442   3.844   1.665   8.652  0.1800 -0.8994  0.2808
 3994SOL     OW23443   1.319   4.179   2.885  0.4134 -0.9729 -0.3762
 3994SOL    HW123444   1.318   4.234   2.806 -2.0588  0.5720  0.7196
 3994SOL    HW223445   1.408   4.146   2.872  0.2910 -1.4882  0.1006
 3995SOL     OW23446   1.472   0.673   8.772  0.0401 -0.2844  0.2737
 3995SOL    HW123447   1.423   0.697   8.693  0.2322 -2.6202 -0.5646
 3995SOL    HW223448   1.466   0.762   8.807 -2.7143 -0.2888 -0.2100
 3996SOL     OW23449   1.331   3.732   8.684 -0.3069  0.4040  0.3824
 3996SOL    HW123450   1.377   3.697   8.760  1.7843  2.6796  0.1728
 3996SOL    HW223451   1.390   3.705   8.614  1.1475 -1.0279  2.1597
 3997SOL     OW23452   2.701   3.261  13.844  0.2451 -0.0418  0.5214
 3997SOL    HW123453   2.737   3.190  13.791 -1.3455  0.2074 -0.8848
 3997SOL    HW223454   2.611   3.234  13.829  0.5715 -1.3303  0.8849
 3998SOL     OW23455   0.103   2.472   6.830  0.4396  0.2029 -0.2352
 3998SOL    HW123456   0.037   2.446   6.767 -1.1646 -1.5314  2.1813
 3998SOL    HW223457   0.166   2.523   6.779 -1.0641  0.8596 -1.4206
 3999SOL     OW23458   4.613   0.887  14.033 -0.1819  0.3561 -0.1367
 3999SOL    HW123459   4.543   0.822  14.042 -1.6712  1.9936  0.2192
 3999SOL    HW223460   4.565   0.957  13.988  1.8837  3.3008  2.2787
 4000SOL     OW23461   2.384   4.065   5.844  0.6463 -0.4303  0.2635
 4000SOL    HW123462   2.356   4.145   5.799  1.6149 -0.6146 -0.6539
 4000SOL    HW223463   2.428   4.094   5.923  0.7777 -0.2735  0.1308
 4001SOL     OW23464   1.586   0.962   2.475 -0.2323  0.5638 -0.1628
 4001SOL    HW123465   1.599   1.047   2.434 -1.7549  1.6173  1.5030
 4001SOL    HW223466   1.491   0.947   2.479 -0.3101  0.5927 -1.8835
 4002SOL     OW23467   0.829   0.767   3.349  0.3432 -0.6882  0.0505
 4002SOL    HW123468   0.923   0.749   3.345  0.2805 -0.9684 -0.1818
 4002SOL    HW223469   0.801   0.676   3.341  0.3470 -0.8178  1.5651
 4003SOL     OW23470   1.388   0.495  15.688 -0.1057  0.5394  0.0915
 4003SOL    HW123471   1.410   0.468  15.777  1.0533  0.5234 -0.1986
 4003SOL    HW223472   1.299   0.458  15.688  0.6482 -1.2750  1.1044
 4004SOL     OW23473   2.875   3.957   5.057 -0.0964 -0.5580 -0.1241
 4004SOL    HW123474   2.830   3.882   5.096 -1.1633  0.6604  0.9879
 4004SOL    HW223475   2.834   3.962   4.971 -0.2938 -0.9491 -0.0523
 4005SOL     OW23476   4.017   2.496   4.130  0.0147 -0.3286 -0.0400
 4005SOL    HW123477   4.091   2.437   4.141  0.4968 -0.1156 -2.0605
 4005SOL    HW223478   4.034   2.509   4.037 -1.7328 -0.2953 -0.3516
 4006SOL     OW23479   0.482   4.702   2.765 -0.3017  0.1937 -0.5444
 4006SOL    HW123480   0.568   0.012   2.740  0.1634 -1.4853 -1.1594
 4006SOL    HW223481   0.463   0.034   2.841  3.2339 -0.6149  0.9004
 4007SOL     OW23482   3.849   2.695   5.302 -0.3612  0.0440  0.3119
 4007SOL    HW123483   3.862   2.788   5.286 -1.5633  0.4824  1.8999
 4007SOL    HW223484   3.845   2.657   5.214 -1.8293  2.3148 -0.6009
 4008SOL     OW23485   3.676   4.666  15.127 -0.1869  0.1577  0.0531
 4008SOL    HW123486   3.743   0.000  15.092  0.9759 -0.4329  1.3393
 4008SOL    HW223487   3.621   4.660  15.049  0.3992 -0.8527 -0.2708
 4009SOL     OW23488   4.190   0.701   3.502 -0.2243 -0.1299  0.1007
 4009SOL    HW123489   4.151   0.744   3.426 -0.4136  1.4980  1.1140
 4009SOL    HW223490   4.250   0.770   3.530 -1.2809  0.2129  1.5485
 4010SOL     OW23491   0.433   4.095   8.310 -0.0093 -0.2076  0.1130
 4010SOL    HW123492   0.410   4.117   8.400  0.4109  2.3120 -0.4082
 4010SOL    HW223493   0.403   4.168   8.256  0.6102  0.3901  0.5822
 4011SOL     OW23494   3.036   3.712  16.380  0.1946 -0.6517 -0.2000
 4011SOL    HW123495   2.959   3.703  16.325  0.4642 -2.1742 -0.3251
 4011SOL    HW223496   3.106   3.663  16.337 -0.1886  0.3629 -1.9524
 4012SOL     OW23497   1.153   0.388   8.054 -0.4282 -0.1395 -0.0038
 4012SOL    HW123498   1.172   0.295   8.049 -0.7253 -0.3300  2.7259
 4012SOL    HW223499   1.095   0.402   7.979 -0.3379 -0.8401 -0.1986
 4013SOL     OW23500   1.682   4.259   0.463  0.1617  0.2872  0.6212
 4013SOL    HW123501   1.651   4.180   0.420 -0.5363  0.1790  1.3248
 4013SOL    HW223502   1.775   4.248   0.483  0.8520  2.7919 -1.2396
 4014SOL     OW23503   2.067   3.457   4.794 -0.2344 -0.2265  0.4803
 4014SOL    HW123504   2.124   3.416   4.728 -2.8510  0.7511 -2.4160
 4014SOL    HW223505   2.114   3.456   4.877 -0.4662 -2.1236  0.5889
 4015SOL     OW23506   0.602   3.151   8.270  0.3132  0.2856  0.0505
 4015SOL    HW123507   0.539   3.157   8.198 -0.3625 -0.6939  0.5819
 4015SOL    HW223508   0.585   3.062   8.300  1.6459 -0.2094 -0.6497
 4016SOL     OW23509   3.846   3.541  16.990  0.5675  0.2748  0.2130
 4016SOL    HW123510   3.889   3.626  17.001  2.8005 -0.7749 -0.5369
 4016SOL    HW223511   3.765   3.551  17.041 -0.5564 -1.4127 -1.2220
 4017SOL     OW23512   2.392   1.258  13.664  0.0413 -0.6053  0.5480
 4017SOL    HW123513   2.375   1.239  13.572 -2.5694  0.3454  0.8363
 4017SOL    HW223514   2.303   1.263  13.700  0.2757  0.6118  0.9369
 4018SOL     OW23515   2.620   1.219  15.999 -0.4781  0.2284  0.1936
 4018SOL    HW123516   2.678   1.198  15.926 -1.4031 -0.4847 -0.3443
 4018SOL    HW223517   2.543   1.253  15.953 -0.7236  0.5367  0.8342
 4019SOL     OW23518   2.755   3.193   5.029  0.0402  0.2437 -0.1287
 4019SOL    HW123519   2.781   3.137   4.956  1.0991 -2.0657  1.9945
 4019SOL    HW223520   2.729   3.124   5.090  1.7385  1.1252  1.5759
 4020SOL     OW23521   2.356   3.044   6.187  0.0166  0.1413  0.2127
 4020SOL    HW123522   2.347   2.989   6.265 -2.0477 -0.7897 -0.6916
 4020SOL    HW223523   2.263   3.051   6.163  0.0206 -0.2668  0.0717
 4021SOL     OW23524   1.594   2.249   3.407 -0.0386  0.3397  0.6040
 4021SOL    HW123525   1.520   2.310   3.397 -0.3938 -0.0820  0.6285
 4021SOL    HW223526   1.649   2.260   3.330  1.5027 -0.2671  1.6363
 4022SOL     OW23527   2.138   2.614   6.681  0.1375 -0.2331  0.0358
 4022SOL    HW123528   2.214   2.565   6.650  1.1427  0.7067  1.0309
 4022SOL    HW223529   2.108   2.659   6.602  0.5519  0.6687  0.3882
 4023SOL     OW23530   3.925   2.121   7.239 -0.0522 -0.2754  0.3589
 4023SOL    HW123531   3.925   2.188   7.308 -1.9550  0.5934 -0.4916
 4023SOL    HW223532   4.001   2.143   7.186  0.0692  0.2602  0.7462
 4024SOL     OW23533   3.815   1.335   5.085 -0.0829 -0.2271  0.8360
 4024SOL    HW123534   3.729   1.369   5.062  0.7524  0.4790 -1.1991
 4024SOL    HW223535   3.847   1.410   5.135 -0.5706 -1.4131  2.9231
 4025SOL     OW23536   3.447   3.142   3.971 -0.2336  0.0485  0.4088
 4025SOL    HW123537   3.471   3.053   3.945  1.3922  1.1575 -1.9143
 4025SOL    HW223538   3.392   3.116   4.044 -0.8752 -1.9157 -0.7558
 4026SOL     OW23539   2.528   0.791   2.138 -0.6009  0.0144 -0.9832
 4026SOL    HW123540   2.547   0.881   2.166  0.2634 -0.3565 -0.3941
 4026SOL    HW223541   2.458   0.761   2.197  0.5480  4.4945  2.6609
 4027SOL     OW23542   0.283   4.241   6.473  0.7085 -0.7967 -0.4417
 4027SOL    HW123543   0.342   4.204   6.540 -1.2947 -2.3678  0.4575
 4027SOL    HW223544   0.215   4.276   6.530  1.0607 -1.6748  0.5230
 4028SOL     OW23545   2.841   1.360  12.780  0.2056  0.0503  0.1069
 4028SOL    HW123546   2.797   1.312  12.851 -0.0519  0.6749  0.3713
 4028SOL    HW223547   2.773   1.381  12.716 -0.2060  3.5592  1.6914
 4029SOL     OW23548   0.019   2.424  17.606 -0.0121 -0.4054  0.3218
 4029SOL    HW123549   0.055   2.414  17.694  1.6038  0.0512 -0.2877
 4029SOL    HW223550   4.675   2.357  17.614 -1.3427  0.7243 -1.5341
 4030SOL     OW23551   0.216   3.563   7.025  0.0436  0.3426  0.3492
 4030SOL    HW123552   0.195   3.508   7.101 -1.3761  0.3489 -0.0500
 4030SOL    HW223553   0.165   3.643   7.036  0.9509  0.9777 -0.1431
 4031SOL     OW23554   3.436   0.234   9.101 -0.2479  0.1729  0.0068
 4031SOL    HW123555   3.446   0.290   9.177 -0.9037  1.3422 -0.7662
 4031SOL    HW223556   3.406   0.293   9.031 -0.0180  0.0494 -0.1962
 4032SOL     OW23557   3.286   2.122   4.418 -0.5892  0.4973 -0.2611
 4032SOL    HW123558   3.353   2.129   4.349  0.0337  2.2181  0.5286
 4032SOL    HW223559   3.287   2.027   4.433 -1.7325  0.7275  1.2939
 4033SOL     OW23560   2.758   1.507  11.632 -0.6320 -0.2632 -0.3718
 4033SOL    HW123561   2.711   1.550  11.561  0.8208  0.5707 -0.8458
 4033SOL    HW223562   2.682   1.515  11.690 -2.0924  1.6144 -2.5418
 4034SOL     OW23563   4.376   4.470   8.021 -0.2676  0.4538 -0.4542
 4034SOL    HW123564   4.362   4.376   8.007 -0.1110  0.3157  0.3336
 4034SOL    HW223565   4.316   4.474   8.095  1.7237  0.2465  1.1605
 4035SOL     OW23566   1.787   1.322   7.459 -0.0954 -0.2823 -0.3823
 4035SOL    HW123567   1.832   1.262   7.518 -0.3725  0.3718  0.4925
 4035SOL    HW223568   1.786   1.402   7.512  1.3267 -0.6586  0.2080
 4036SOL     OW23569   2.810   3.756   7.734  0.5342  0.4616 -0.1110
 4036SOL    HW123570   2.729   3.743   7.785 -0.0329  0.5829 -0.9761
 4036SOL    HW223571   2.776   3.802   7.657 -0.0058  0.1019 -0.0931
 4037SOL     OW23572   0.210   1.654   5.668 -0.2405 -0.1763  0.1924
 4037SOL    HW123573   0.263   1.686   5.742 -0.2511 -0.9229  0.5207
 4037SOL    HW223574   0.174   1.740   5.645  0.4407 -0.5411 -2.2122
 4038SOL     OW23575   1.697   0.864   7.554 -0.4068  0.4070 -0.0440
 4038SOL    HW123576   1.670   0.955   7.559 -0.3529  0.5394 -2.0212
 4038SOL    HW223577   1.783   0.868   7.596  0.9978 -0.4291 -2.7758
 4039SOL     OW23578   2.753   0.736  11.422  0.4504 -0.3085 -0.3230
 4039SOL    HW123579   2.716   0.675  11.359 -1.1069 -0.7667  1.0251
 4039SOL    HW223580   2.793   0.680  11.489  1.7497  0.7359 -0.2112
 4040SOL     OW23581   2.561   3.454   4.978  0.0782 -0.1921 -0.0697
 4040SOL    HW123582   2.618   3.417   4.910 -1.2783  0.3559 -1.5036
 4040SOL    HW223583   2.501   3.498   4.918  0.4869 -0.5844 -0.7740
 4041SOL     OW23584   3.653   1.702   9.010  0.1257 -0.2403  0.2090
 4041SOL    HW123585   3.674   1.795   9.002  2.7408 -0.8961 -0.4291
 4041SOL    HW223586   3.557   1.711   9.003  0.2403 -0.8804 -2.1151
 4042SOL     OW23587   2.508   0.613   0.356  0.0367 -0.2613  0.6183
 4042SOL    HW123588   2.443   0.580   0.418  0.2820  0.7795  1.4320
 4042SOL    HW223589   2.483   0.704   0.340  0.2127 -0.3019  0.0901
 4043SOL     OW23590   1.938   3.740  17.018  0.2554  0.0845  0.0476
 4043SOL    HW123591   1.925   3.806  17.086  1.0757 -0.8837  1.1530
 4043SOL    HW223592   2.033   3.730  17.012  0.1237 -0.2192 -1.7054
 4044SOL     OW23593   4.338   0.983   4.733 -0.3291  0.4973  0.0325
 4044SOL    HW123594   4.402   0.972   4.663  2.7562  2.4987  2.5151
 4044SOL    HW223595   4.262   0.971   4.676 -0.7492  0.1418  0.6643
 4045SOL     OW23596   4.011   4.278   7.378  0.0457 -0.0335 -0.0006
 4045SOL    HW123597   4.070   4.205   7.399 -0.7541 -0.0875  2.0285
 4045SOL    HW223598   4.058   4.354   7.413  1.5587 -0.8186 -0.3067
 4046SOL     OW23599   2.594   1.319   4.657  0.6582 -0.7729 -0.1575
 4046SOL    HW123600   2.683   1.355   4.650  0.9643 -0.9123  2.7504
 4046SOL    HW223601   2.547   1.400   4.675 -0.0866 -1.7225  2.1811
 4047SOL     OW23602   4.706   1.678   6.894 -0.4681 -0.3600  0.0367
 4047SOL    HW123603   4.693   1.690   6.800  0.7669  1.3021  0.0779
 4047SOL    HW223604   4.691   1.768   6.920  1.2669 -0.7104  2.2702
 4048SOL     OW23605   1.574   0.834   8.463  0.2564  0.0597  0.4385
 4048SOL    HW123606   1.667   0.849   8.446  0.4858 -1.9357 -0.1324
 4048SOL    HW223607   1.559   0.910   8.519  0.8912  1.2092 -0.9370
 4049SOL     OW23608   2.600   2.178   2.784 -0.0575  0.0465 -0.3163
 4049SOL    HW123609   2.628   2.267   2.803  1.9012 -0.1068 -2.6064
 4049SOL    HW223610   2.664   2.151   2.718 -1.3671 -1.4246 -0.9879
 4050SOL     OW23611   3.450   3.418   3.911 -0.2095 -0.0633  0.6285
 4050SOL    HW123612   3.358   3.440   3.901  0.1450  0.4369 -1.6079
 4050SOL    HW223613   3.448   3.325   3.889  0.2412 -0.2694  1.4662
 4051SOL     OW23614   1.476   4.654   8.544  0.6098 -0.0156 -0.4404
 4051SOL    HW123615   1.529   4.722   8.501  0.3331  1.0147  0.8559
 4051SOL    HW223616   1.452   4.690   8.629 -0.9842 -2.7973  0.2831
 4052SOL     OW23617   4.412   4.401   4.874 -0.7306  0.1547  0.4708
 4052SOL    HW123618   4.506   4.397   4.855 -1.0103  1.1735 -1.1710
 4052SOL    HW223619   4.419   4.384   4.967 -0.2248 -0.6682  0.2812
 4053SOL     OW23620   0.736   4.174  12.993  0.1791  0.2466  0.4968
 4053SOL    HW123621   0.757   4.266  12.972 -2.8377  0.6097 -0.8432
 4053SOL    HW223622   0.789   4.123  12.931 -1.0499 -1.6074  1.0121
 4054SOL     OW23623   4.376   1.842   3.442 -0.4767 -0.3574 -0.0216
 4054SOL    HW123624   4.446   1.903   3.465 -0.9975  0.0490  0.5149
 4054SOL    HW223625   4.433   1.767   3.428  2.1137  2.1369 -2.9183
 4055SOL     OW23626   2.187   0.450   5.713 -0.1283 -0.4929 -0.1664
 4055SOL    HW123627   2.224   0.527   5.671 -0.0907 -0.1748  0.4547
 4055SOL    HW223628   2.267   0.415   5.753 -1.4420 -3.4355 -0.1073
 4056SOL     OW23629   3.302   0.010   1.449 -0.2447  0.2180 -0.3089
 4056SOL    HW123630   3.300   4.701   1.539  0.8792  1.7621  0.2772
 4056SOL    HW223631   3.278   0.101   1.467 -2.3210 -0.5168  0.6898
 4057SOL     OW23632   2.664   2.564  14.698 -0.1219 -0.1334 -0.1017
 4057SOL    HW123633   2.738   2.567  14.638  0.7691 -0.8521  0.9590
 4057SOL    HW223634   2.657   2.655  14.728 -1.2481  0.1186 -1.1167
 4058SOL     OW23635   0.135   1.973  15.737 -0.7742  0.0918  0.1820
 4058SOL    HW123636   0.126   1.887  15.777  0.6561 -0.6816 -1.1252
 4058SOL    HW223637   0.154   2.026  15.815  0.4550  0.4322 -0.3394
 4059SOL     OW23638   2.527   4.194   0.133 -0.5217 -0.1820 -0.8723
 4059SOL    HW123639   2.469   4.126   0.167  1.2278 -0.3959  1.6932
 4059SOL    HW223640   2.617   4.163   0.146 -1.5644 -1.9839  1.9008
 4060SOL     OW23641   0.060   3.410   5.525 -0.2070  0.1820  0.4936
 4060SOL    HW123642   0.112   3.336   5.556 -0.5823 -0.1397  0.3609
 4060SOL    HW223643   4.694   3.384   5.546  0.0902 -0.5431  0.8708
 4061SOL     OW23644   4.699   1.622   7.343 -0.4301 -0.8737 -0.4080
 4061SOL    HW123645   4.655   1.619   7.428  1.4416 -0.5681  0.5739
 4061SOL    HW223646   0.045   1.681   7.372 -2.1789  0.7164  0.5958
 4062SOL     OW23647   3.642   4.124  10.329  0.1476 -0.3862 -0.0335
 4062SOL    HW123648   3.713   4.184  10.308 -1.3598  1.3449 -0.1822
 4062SOL    HW223649   3.624   4.133  10.423  1.7184  0.0638  0.2118
 4063SOL     OW23650   1.512   3.554  13.942  0.0327 -0.3212 -0.4065
 4063SOL    HW123651   1.607   3.552  13.941  0.0208 -1.9237  1.2903
 4063SOL    HW223652   1.500   3.645  13.917  0.9899  0.1163  0.7285
 4064SOL     OW23653   0.323   3.715  10.481  0.1963  0.5352 -0.6157
 4064SOL    HW123654   0.276   3.662  10.417 -0.6212  0.5455 -0.0233
 4064SOL    HW223655   0.261   3.787  10.493  0.0877  0.4604 -0.7222
 4065SOL     OW23656   0.050   4.496   4.314  0.1643  0.1279 -0.2670
 4065SOL    HW123657   0.074   4.588   4.312  0.2330  0.1474  1.7185
 4065SOL    HW223658   4.681   4.509   4.292 -0.1793 -1.6229  0.1201
 4066SOL     OW23659   2.032   3.855   0.039 -0.0178  0.0556  0.0031
 4066SOL    HW123660   2.008   3.844  17.643  0.1662  0.0580 -0.0442
 4066SOL    HW223661   2.125   3.875   0.039  0.1436 -0.7201 -1.4370
 4067SOL     OW23662   1.139   3.912   2.370  0.3310  0.0101 -0.3596
 4067SOL    HW123663   1.178   3.863   2.297  1.7382 -2.7650  2.2680
 4067SOL    HW223664   1.047   3.914   2.344  0.4665  1.5176 -0.7110
 4068SOL     OW23665   2.303   2.849   5.930  0.3382 -0.2187 -0.0370
 4068SOL    HW123666   2.243   2.896   5.988  0.5057  0.6600 -0.5770
 4068SOL    HW223667   2.360   2.924   5.914 -1.6703  1.1526 -0.7130
 4069SOL     OW23668   2.562   1.333   2.068  0.2019 -0.0108 -0.3217
 4069SOL    HW123669   2.486   1.276   2.079  2.0165 -2.8476 -2.2832
 4069SOL    HW223670   2.545   1.376   1.984  0.2471  0.0849 -0.2826
 4070SOL     OW23671   3.417   3.851  14.080 -0.4085 -0.3279 -0.6607
 4070SOL    HW123672   3.504   3.840  14.118  0.6896 -0.0654 -3.0448
 4070SOL    HW223673   3.366   3.775  14.107 -0.1758 -0.0356  0.5660
 4071SOL     OW23674   3.814   4.384   1.596  0.2218  0.4111  0.1127
 4071SOL    HW123675   3.755   4.458   1.613 -0.8763 -1.0705  2.7277
 4071SOL    HW223676   3.804   4.373   1.501  1.7235  0.8311 -0.0963
 4072SOL     OW23677   4.696   4.166   4.921 -0.3610  0.0413  0.2492
 4072SOL    HW123678   0.066   4.152   4.939 -0.1892  0.6583 -0.1492
 4072SOL    HW223679   4.689   4.088   4.866 -0.5235  0.0764  0.2226
 4073SOL     OW23680   0.084   2.010   2.734  0.2515 -0.4737 -0.0403
 4073SOL    HW123681   0.141   1.944   2.775 -1.2263 -0.3540  2.2037
 4073SOL    HW223682   0.037   2.046   2.809  1.4885 -0.4205  0.7070
 4074SOL     OW23683   0.565   1.473   0.848 -0.9566 -0.3863  0.4902
 4074SOL    HW123684   0.512   1.481   0.768 -2.5393  1.5510  1.7355
 4074SOL    HW223685   0.647   1.445   0.807 -1.0456  0.8448 -0.5298
 4075SOL     OW23686   3.291   2.013   2.166 -0.1767 -0.5238  0.2738
 4075SOL    HW123687   3.354   2.013   2.238 -1.7677 -1.3520  1.6558
 4075SOL    HW223688   3.289   1.923   2.133  2.3252 -0.4623 -0.0373
 4076SOL     OW23689   0.448   3.022  11.900  0.3171  0.5062 -0.0630
 4076SOL    HW123690   0.412   2.940  11.933  0.6567  1.3545  2.4126
 4076SOL    HW223691   0.402   3.080  11.961 -2.9198 -0.5580 -1.4362
 4077SOL     OW23692   4.312   4.135   4.157 -0.5673  0.5372 -0.5551
 4077SOL    HW123693   4.280   4.059   4.109 -1.8231 -0.9159  2.5337
 4077SOL    HW223694   4.333   4.082   4.234  1.5313  0.2546 -1.3356
 4078SOL     OW23695   4.589   0.042   3.962  0.3666  0.6903  0.2580
 4078SOL    HW123696   4.508   0.011   4.003  1.2953 -1.4263  0.5007
 4078SOL    HW223697   4.591   0.120   4.018  0.4533 -0.3733  1.7434
 4079SOL     OW23698   3.123   0.783   6.356  0.3446 -0.5964  0.2669
 4079SOL    HW123699   3.105   0.862   6.307 -3.8614 -1.5218  0.2889
 4079SOL    HW223700   3.128   0.817   6.446 -0.4525  2.4845 -0.8598
 4080SOL     OW23701   3.582   2.248   7.089  0.0409  0.3012 -0.2914
 4080SOL    HW123702   3.652   2.269   7.150 -1.4437  0.5155  1.3447
 4080SOL    HW223703   3.638   2.230   7.014 -0.2537  1.1877 -0.7288
 4081SOL     OW23704   4.049   3.669   4.016  0.3047 -0.0207  0.0661
 4081SOL    HW123705   4.025   3.640   3.928 -0.8430  0.8825  0.0955
 4081SOL    HW223706   3.964   3.698   4.049 -0.0932  1.3225 -2.1743
 4082SOL     OW23707   4.673   2.906   2.263 -0.2666  0.2833  0.1500
 4082SOL    HW123708   4.618   2.835   2.230  0.0112 -0.0125  0.3361
 4082SOL    HW223709   4.709   2.861   2.339 -0.3226  0.1595  0.1027
 4083SOL     OW23710   4.197   3.441   6.339  0.1788  0.5114 -0.2123
 4083SOL    HW123711   4.226   3.508   6.401 -0.5093  1.7458 -1.2349
 4083SOL    HW223712   4.219   3.366   6.395 -0.3086  1.2288  0.9374
 4084SOL     OW23713   4.065   2.014   9.564 -0.3932  0.1866 -0.2853
 4084SOL    HW123714   4.116   2.095   9.562 -1.4455  0.8512 -0.2447
 4084SOL    HW223715   4.113   1.959   9.502 -1.0687  0.0335 -0.6727
 4085SOL     OW23716   0.696   4.518   8.288  0.5441 -0.0170  0.1485
 4085SOL    HW123717   0.787   4.493   8.299  0.1222 -1.3003  0.6734
 4085SOL    HW223718   0.666   4.464   8.215 -0.4839  0.2226  0.3868
 4086SOL     OW23719   1.404   1.276   4.619 -0.8237 -0.0482 -0.2525
 4086SOL    HW123720   1.462   1.244   4.688  0.4881 -0.3318 -1.4789
 4086SOL    HW223721   1.464   1.331   4.568 -0.8099  0.8529  0.7417
 4087SOL     OW23722   1.240   1.842   1.812 -0.1999 -0.4308  0.5362
 4087SOL    HW123723   1.335   1.832   1.807 -0.1549 -0.4543  1.4078
 4087SOL    HW223724   1.220   1.919   1.759  0.8379 -0.7677 -0.3384
 4088SOL     OW23725   4.362   4.518   3.096  0.0158  0.4594 -0.0472
 4088SOL    HW123726   4.385   4.601   3.138 -0.1412 -0.0644  1.0814
 4088SOL    HW223727   4.327   4.542   3.010  3.1351 -0.2140 -1.5271
 4089SOL     OW23728   2.453   0.518  11.751 -0.4883 -0.3147 -0.4093
 4089SOL    HW123729   2.377   0.530  11.807 -0.7569  0.0870 -0.8648
 4089SOL    HW223730   2.496   0.443  11.793  3.2191  1.5624 -0.7887
 4090SOL     OW23731   3.575   2.900   2.774  0.4963 -0.5120 -0.3446
 4090SOL    HW123732   3.522   2.938   2.703  0.3369 -0.3664 -0.1472
 4090SOL    HW223733   3.622   2.837   2.719 -0.9362  0.3382 -2.5519
 4091SOL     OW23734   0.330   3.711   3.072  0.0675  0.1328  0.7057
 4091SOL    HW123735   0.378   3.714   2.989  0.2506 -1.1966  0.7630
 4091SOL    HW223736   0.282   3.793   3.064 -3.8895 -2.2486  0.0680
 4092SOL     OW23737   0.283   2.803  12.004 -0.4231  0.0277 -0.2664
 4092SOL    HW123738   0.190   2.815  11.985 -0.4734 -0.5313 -0.3816
 4092SOL    HW223739   0.277   2.794  12.100 -0.4110  1.3951 -0.1367
 4093SOL     OW23740   2.219   4.161   7.295 -0.5749  0.2931  0.3906
 4093SOL    HW123741   2.228   4.160   7.390 -1.8751 -2.3480  0.4881
 4093SOL    HW223742   2.252   4.248   7.272 -0.2048 -0.3879 -1.6462
 4094SOL     OW23743   4.148   3.199   2.405  0.2695  0.5426  0.1442
 4094SOL    HW123744   4.174   3.176   2.315  3.1978 -0.5341  1.2383
 4094SOL    HW223745   4.227   3.178   2.456 -2.2587 -0.7680  3.4723
 4095SOL     OW23746   1.894   2.207  17.344 -0.8372 -0.0316 -0.5019
 4095SOL    HW123747   1.799   2.213  17.341 -0.7294  1.8788 -0.4506
 4095SOL    HW223748   1.910   2.172  17.257  1.1765 -0.6219  0.0934
 4096SOL     OW23749   3.944   3.542   8.597  0.3433 -0.2035 -0.5962
 4096SOL    HW123750   4.004   3.506   8.662 -1.7268 -1.6030  0.5408
 4096SOL    HW223751   3.915   3.460   8.556  0.5007 -1.0551  0.9887
 4097SOL     OW23752   1.275   1.630   3.997 -0.3433  0.0267 -0.4110
 4097SOL    HW123753   1.285   1.685   3.919 -0.9462 -1.0658 -1.2614
 4097SOL    HW223754   1.270   1.545   3.953  1.0552  0.6946 -1.8758
 4098SOL     OW23755   3.851   3.246   4.298 -0.2421  0.3888  0.0083
 4098SOL    HW123756   3.812   3.167   4.261  1.2571 -0.3323 -0.0351
 4098SOL    HW223757   3.899   3.196   4.365 -0.3709  1.5705  0.9796
 4099SOL     OW23758   0.808   2.060   4.121  0.2543  0.0184 -0.3209
 4099SOL    HW123759   0.871   2.096   4.057 -0.4221  1.2500 -0.2953
 4099SOL    HW223760   0.812   2.136   4.179  0.2578  1.2407 -1.9159
 4100SOL     OW23761   3.270   4.635   2.809 -0.1968  0.2178 -0.0375
 4100SOL    HW123762   3.181   4.610   2.835 -0.1306 -0.6209 -0.6123
 4100SOL    HW223763   3.325   4.612   2.883  0.4379  0.9618 -0.2784
 4101SOL     OW23764   3.020   1.202   4.605 -0.3491  0.3753  0.3680
 4101SOL    HW123765   2.937   1.157   4.592  0.7646 -0.4440 -3.9031
 4101SOL    HW223766   3.075   1.132   4.640  1.8585  1.6594 -0.5365
 4102SOL     OW23767   1.598   4.272   7.591 -0.0159 -0.1571  0.0504
 4102SOL    HW123768   1.676   4.299   7.541 -0.1331 -0.2332 -0.1722
 4102SOL    HW223769   1.543   4.312   7.523 -0.7882 -0.7346  0.3413
 4103SOL     OW23770   2.579   2.817   5.768 -0.1307 -0.1689 -0.3541
 4103SOL    HW123771   2.555   2.776   5.851  1.8845 -1.0160 -0.1958
 4103SOL    HW223772   2.557   2.910   5.779 -1.8635 -0.5788 -0.3606
 4104SOL     OW23773   3.366   4.059  11.409  0.2532  0.2797  0.1565
 4104SOL    HW123774   3.452   4.022  11.429 -0.4931  0.3963  3.6082
 4104SOL    HW223775   3.317   4.050  11.491  2.0437  2.1143  1.4122
 4105SOL     OW23776   4.058   4.693   8.283 -0.8592 -0.3221  0.1750
 4105SOL    HW123777   3.998   4.620   8.267 -0.8790  0.3904 -3.0518
 4105SOL    HW223778   4.000   0.040   8.312 -1.0441 -1.0199  1.5097
 4106SOL     OW23779   3.364   3.400  16.446  0.0339 -0.4214 -1.0233
 4106SOL    HW123780   3.349   3.486  16.407  0.7067 -0.8764 -2.2879
 4106SOL    HW223781   3.335   3.337  16.379 -1.2872 -0.0455 -0.8036
 4107SOL     OW23782   0.383   2.915   1.466 -0.7771  0.0563 -0.0277
 4107SOL    HW123783   0.409   2.825   1.486  0.7107  0.5282  0.1433
 4107SOL    HW223784   0.466   2.958   1.445 -0.1681 -1.2228 -0.2398
 4108SOL     OW23785   3.548   3.940  17.421  0.5151 -0.3525  0.0189
 4108SOL    HW123786   3.629   3.890  17.422  0.0848 -1.0168  1.5351
 4108SOL    HW223787   3.502   3.889  17.353 -0.4124  0.4081  0.0706
 4109SOL     OW23788   1.688   3.612  17.407  0.3399 -0.7913 -0.0327
 4109SOL    HW123789   1.728   3.607  17.494  0.7971 -1.3251 -0.2792
 4109SOL    HW223790   1.763   3.609  17.348  0.4242  1.8450 -0.0932
 4110SOL     OW23791   0.839   0.744   0.858  0.1319  0.1918 -0.8221
 4110SOL    HW123792   0.915   0.688   0.874  0.9648  0.6633 -3.2112
 4110SOL    HW223793   0.849   0.819   0.917  1.9939 -1.1349  0.5582
 4111SOL     OW23794   0.213   4.639   2.965 -1.1581 -0.0704 -0.1730
 4111SOL    HW123795   0.223   4.586   2.885  2.2115  0.1221  0.1058
 4111SOL    HW223796   0.173   4.577   3.026 -1.3775  1.3393  1.1195
 4112SOL     OW23797   3.896   2.569   1.552  0.3813 -0.1405 -0.6579
 4112SOL    HW123798   3.833   2.541   1.486  0.5683 -0.9282 -0.5135
 4112SOL    HW223799   3.976   2.562   1.501  0.4980  1.0902 -0.6427
 4113SOL     OW23800   3.315   2.816   7.415  0.5499 -0.2999 -0.5733
 4113SOL    HW123801   3.378   2.745   7.417  0.0988 -0.6735  0.4396
 4113SOL    HW223802   3.367   2.896   7.427 -2.0932  1.4352 -0.5703
 4114SOL     OW23803   1.095   3.635  12.735  0.0262 -0.0049  0.0566
 4114SOL    HW123804   1.112   3.613  12.643  1.2903  0.0748  0.2638
 4114SOL    HW223805   1.016   3.586  12.756  0.3844 -1.0151 -0.9614
 4115SOL     OW23806   2.982   1.085  10.626 -0.0720 -0.0666  0.3789
 4115SOL    HW123807   2.891   1.091  10.655  0.4156  0.6411  1.7863
 4115SOL    HW223808   2.991   0.992  10.646 -1.0420 -0.3856 -0.6282
 4116SOL     OW23809   4.274   4.239   8.424 -0.4290  0.1419  0.3378
 4116SOL    HW123810   4.238   4.276   8.505 -1.6566  2.2192 -1.1587
 4116SOL    HW223811   4.255   4.295   8.349 -1.7683  0.4811  0.9291
 4117SOL     OW23812   1.878   1.314   4.619 -0.5724 -0.0732 -0.2691
 4117SOL    HW123813   1.886   1.285   4.529  3.4193  0.3998 -0.0339
 4117SOL    HW223814   1.855   1.407   4.612  0.4104  0.3107  1.5204
 4118SOL     OW23815   4.028   3.474   5.129  0.7278 -0.1543 -0.3088
 4118SOL    HW123816   4.026   3.452   5.036  0.5237  1.6460 -0.7258
 4118SOL    HW223817   4.122   3.489   5.140  0.3478  0.8709  1.5303
 4119SOL     OW23818   2.263   3.164   7.461  0.3624 -0.1121  0.8162
 4119SOL    HW123819   2.274   3.124   7.548  1.4976  1.0998  1.2271
 4119SOL    HW223820   2.333   3.229   7.463  2.1951 -2.0440 -0.8415
 4120SOL     OW23821   2.981   3.106   6.226  0.5951 -0.4247  0.1279
 4120SOL    HW123822   2.953   3.035   6.168  0.7798  0.4072 -0.9717
 4120SOL    HW223823   2.950   3.180   6.175 -2.4211 -1.4945  0.4412
 4121SOL     OW23824   0.419   3.494   7.317 -0.2439  0.3664  0.2325
 4121SOL    HW123825   0.341   3.466   7.269 -0.0263  1.0708 -0.5371
 4121SOL    HW223826   0.471   3.523   7.242 -1.8114  2.5966  0.0174
 4122SOL     OW23827   1.118   3.984   6.302 -0.2617  0.5234 -0.3362
 4122SOL    HW123828   1.058   4.020   6.368 -0.7828  1.5851 -1.3947
 4122SOL    HW223829   1.202   4.011   6.338  1.4121 -3.9456 -0.8058
 4123SOL     OW23830   2.833   0.054   3.361  0.3398 -0.1625  0.4204
 4123SOL    HW123831   2.858   0.057   3.454 -1.0097 -2.9613  0.8690
 4123SOL    HW223832   2.902   4.720   3.329  0.7774  0.8092 -0.3743
 4124SOL     OW23833   1.806   1.300  13.445 -0.3010  0.3500 -0.1011
 4124SOL    HW123834   1.784   1.393  13.453  0.3306  0.5101 -0.1856
 4124SOL    HW223835   1.808   1.285  13.351  1.4688 -1.8338  0.2868
 4125SOL     OW23836   0.753   0.100  16.905 -0.0929 -0.5090 -0.1905
 4125SOL    HW123837   0.776   0.125  16.816  0.1065 -0.2858 -0.0770
 4125SOL    HW223838   0.690   0.166  16.934  1.6553  0.1915  2.0406
 4126SOL     OW23839   4.172   0.119   8.088 -0.4097 -0.5861  0.2146
 4126SOL    HW123840   4.142   0.198   8.134 -2.7926 -0.0600 -2.2029
 4126SOL    HW223841   4.133   0.054   8.146  1.0183 -1.4369  0.2312
 4127SOL     OW23842   0.019   3.036   9.678  0.1729 -0.2037  0.1100
 4127SOL    HW123843   0.070   3.081   9.746  1.9989 -0.9509 -0.7613
 4127SOL    HW223844   4.695   2.973   9.733  0.2817  0.0114  0.4532
 4128SOL     OW23845   0.519   3.849   4.587  0.3295 -0.2161 -0.3931
 4128SOL    HW123846   0.458   3.879   4.520  2.8182  2.7503 -1.2737
 4128SOL    HW223847   0.506   3.754   4.582  3.2308 -0.6999  1.1780
 4129SOL     OW23848   4.439   0.752   7.227 -0.1713 -0.1193 -0.7676
 4129SOL    HW123849   4.467   0.733   7.316  0.6392  1.7779 -0.6239
 4129SOL    HW223850   4.494   0.823   7.193 -0.1192 -0.3366 -1.1356
 4130SOL     OW23851   4.195   1.391   7.183 -0.7787 -0.7888  0.1829
 4130SOL    HW123852   4.120   1.445   7.206 -0.5934  0.3256 -1.8326
 4130SOL    HW223853   4.228   1.370   7.270 -2.4204 -0.2748  0.9242
 4131SOL     OW23854   0.437   4.466  11.271 -0.8210  0.2081  0.1236
 4131SOL    HW123855   0.344   4.482  11.287 -0.9155 -0.1871 -0.0184
 4131SOL    HW223856   0.443   4.373  11.248 -0.4199  0.3875 -0.4965
 4132SOL     OW23857   3.919   0.004   5.686 -0.0134  0.0427 -0.1188
 4132SOL    HW123858   3.961   0.074   5.738 -0.5176 -0.5894  1.1398
 4132SOL    HW223859   3.872   0.054   5.620 -1.2604  0.0570  0.7739
 4133SOL     OW23860   4.431   2.064   4.584 -0.2424  0.5763 -0.4969
 4133SOL    HW123861   4.344   2.025   4.589  0.1585 -0.6484 -3.0858
 4133SOL    HW223862   4.411   2.132   4.648 -0.3871 -1.4676  1.6265
 4134SOL     OW23863   0.713   0.205   6.873 -0.0376 -0.7124 -0.4502
 4134SOL    HW123864   0.656   0.165   6.807 -0.0427 -0.3314 -0.6750
 4134SOL    HW223865   0.651   0.270   6.905  0.5639 -0.4951  0.2978
 4135SOL     OW23866   2.893   2.324   2.991 -0.1983 -0.1616  1.1363
 4135SOL    HW123867   2.954   2.367   2.930  0.6322 -0.7460  1.5445
 4135SOL    HW223868   2.821   2.344   2.931 -1.0747 -0.6597  2.0277
 4136SOL     OW23869   3.641   4.344   4.003 -0.1221  0.2868  0.2705
 4136SOL    HW123870   3.616   4.398   3.929 -1.1730 -1.0273 -0.3356
 4136SOL    HW223871   3.688   4.277   3.953  0.4211  1.2964 -0.5682
 4137SOL     OW23872   3.136   3.589  15.553  0.0422  0.0202  0.3340
 4137SOL    HW123873   3.168   3.565  15.640  0.2553 -0.9435 -0.0111
 4137SOL    HW223874   3.140   3.503  15.510  2.2986 -0.4570  1.4878
 4138SOL     OW23875   4.527   1.064   8.180 -0.1910  0.1610 -0.4925
 4138SOL    HW123876   4.513   1.150   8.219 -2.8797 -0.8550  0.7845
 4138SOL    HW223877   4.451   1.022   8.219 -0.1063 -0.2586 -0.7813
 4139SOL     OW23878   4.193   3.302  14.001 -0.2054  0.3638 -0.1514
 4139SOL    HW123879   4.106   3.334  14.024  1.0063  0.7912  3.7037
 4139SOL    HW223880   4.174   3.267  13.913  0.1599 -0.4845  0.1101
 4140SOL     OW23881   4.514   1.706   0.202  0.3584  0.3640 -0.5615
 4140SOL    HW123882   4.449   1.743   0.142 -0.5314 -1.9713 -1.0694
 4140SOL    HW223883   4.476   1.736   0.284  2.3441  0.9184  0.1573
 4141SOL     OW23884   4.397   3.131  11.392 -0.3958 -0.0572  0.1974
 4141SOL    HW123885   4.466   3.190  11.364  0.6195 -1.7593 -0.8356
 4141SOL    HW223886   4.455   3.059  11.417 -0.4330  0.2618  1.2253
 4142SOL     OW23887   4.397   3.227   7.614 -0.4897  0.5931  0.3457
 4142SOL    HW123888   4.383   3.145   7.567  1.6810  0.3309  0.1609
 4142SOL    HW223889   4.410   3.196   7.704 -2.6296  1.9454  1.1049
 4143SOL     OW23890   1.706   0.426   4.249  0.0413 -0.6495 -0.8564
 4143SOL    HW123891   1.738   0.354   4.303 -3.0643 -1.6640 -0.3775
 4143SOL    HW223892   1.645   0.374   4.196  1.1789 -2.8582  0.0196
 4144SOL     OW23893   4.497   0.782   4.353 -0.0807  0.2261  0.4857
 4144SOL    HW123894   4.580   0.789   4.400 -0.1976  0.2022  0.6938
 4144SOL    HW223895   4.502   0.696   4.312 -1.8782 -0.3942  1.5753
 4145SOL     OW23896   0.277   3.976   2.918  0.4877 -0.3434 -0.0338
 4145SOL    HW123897   0.249   4.021   2.837 -0.2192 -0.3251  0.2188
 4145SOL    HW223898   0.360   3.941   2.888  0.4921  0.1140 -0.5638
 4146SOL     OW23899   0.171   2.568   1.239  0.0597  0.1911  0.3621
 4146SOL    HW123900   0.129   2.633   1.183  0.4944 -1.6383 -2.1127
 4146SOL    HW223901   0.140   2.492   1.188  1.2923  0.9490 -1.5469
 4147SOL     OW23902   3.341   0.659  13.956 -0.7029 -0.4157 -0.7635
 4147SOL    HW123903   3.347   0.721  13.883  2.2203  0.0316 -0.1499
 4147SOL    HW223904   3.381   0.583  13.916 -0.4419 -0.4021 -0.5267
 4148SOL     OW23905   2.285   1.024   5.284 -0.6409 -0.2845  0.0928
 4148SOL    HW123906   2.202   1.036   5.329 -1.6676  0.3556 -1.9711
 4148SOL    HW223907   2.319   1.113   5.293 -1.7651  0.0820  0.6222
 4149SOL     OW23908   1.046   1.312  16.524  0.6068  0.0583 -0.4056
 4149SOL    HW123909   1.037   1.294  16.617  2.0943 -0.0532 -0.2874
 4149SOL    HW223910   0.985   1.384  16.509 -0.5957 -1.1237 -1.1994
 4150SOL     OW23911   4.607   3.761   4.920 -0.0244 -0.3682  0.0017
 4150SOL    HW123912   4.615   3.823   4.848  1.0967  1.3720  1.6427
 4150SOL    HW223913   4.557   3.695   4.871 -0.3247  0.1442 -0.3780
 4151SOL     OW23914   0.941   1.232   7.687  0.6672 -0.4676 -0.0785
 4151SOL    HW123915   0.901   1.230   7.775  0.1138 -1.2213 -0.3402
 4151SOL    HW223916   1.031   1.205   7.705  0.2591 -0.6390  1.7349
 4152SOL     OW23917   0.078   4.607   8.275 -0.0336 -0.5615  0.0649
 4152SOL    HW123918   0.147   4.662   8.238 -0.3366 -1.0033 -1.1319
 4152SOL    HW223919   0.072   4.534   8.214 -2.2579  1.1452 -1.7099
 4153SOL     OW23920   2.459   0.744   3.089 -0.6612 -0.1906  0.3572
 4153SOL    HW123921   2.509   0.797   3.152  1.4936  0.8818 -2.2741
 4153SOL    HW223922   2.403   0.699   3.153 -1.3203  2.5231  1.6546
 4154SOL     OW23923   3.159   4.487  13.111 -0.1160  0.3636 -0.6707
 4154SOL    HW123924   3.098   4.413  13.107  0.5150 -0.0625 -2.7214
 4154SOL    HW223925   3.181   4.482  13.204 -1.4682  0.2270 -0.3625
 4155SOL     OW23926   2.459   3.450   7.112  0.3514 -0.3969 -0.2977
 4155SOL    HW123927   2.374   3.459   7.069 -0.2882 -3.2766  0.3471
 4155SOL    HW223928   2.498   3.537   7.105  0.2241 -0.2218  1.0632
 4156SOL     OW23929   0.260   0.424   5.999 -0.1685  0.1428  0.0437
 4156SOL    HW123930   0.254   0.517   5.977 -1.7681 -0.1847 -0.9095
 4156SOL    HW223931   0.322   0.406   5.928  1.1351 -0.5783  1.3737
 4157SOL     OW23932   1.341   1.702   9.755 -0.4334  0.1077  0.1275
 4157SOL    HW123933   1.271   1.638   9.736  0.4795 -0.6252 -0.7489
 4157SOL    HW223934   1.322   1.771   9.692  1.9250 -0.7100 -1.4495
 4158SOL     OW23935   4.027   4.406   3.064  0.1364 -0.5786 -0.2488
 4158SOL    HW123936   3.960   4.447   3.009 -2.0406 -1.7077  1.5826
 4158SOL    HW223937   4.111   4.442   3.034 -0.8010 -0.1623 -2.3379
 4159SOL     OW23938   0.514   3.283   9.446 -0.2654 -0.5337  0.4925
 4159SOL    HW123939   0.607   3.270   9.460 -0.4863 -1.4002  1.1207
 4159SOL    HW223940   0.497   3.229   9.369 -1.9576  0.5790  0.0778
 4160SOL     OW23941   4.098   4.383   0.377  0.8601 -0.7834  0.1951
 4160SOL    HW123942   4.056   4.315   0.325  0.8649 -0.3595 -0.3543
 4160SOL    HW223943   4.188   4.360   0.356  0.7941 -0.9545  0.1040
 4161SOL     OW23944   3.790   2.165   0.222  0.3246 -0.1780 -0.5648
 4161SOL    HW123945   3.735   2.095   0.257  0.3586 -0.8673 -1.9073
 4161SOL    HW223946   3.866   2.175   0.280 -1.8168  1.7668  1.9305
 4162SOL     OW23947   2.896   4.082   9.890  0.2820  0.1081  0.2857
 4162SOL    HW123948   2.902   4.161   9.944  0.8956 -2.0529  3.3952
 4162SOL    HW223949   2.802   4.065   9.884  0.3521 -0.1635 -0.0501
 4163SOL     OW23950   3.330   0.339   1.014 -0.0663 -0.8821  0.0566
 4163SOL    HW123951   3.420   0.368   1.032  0.9546 -3.9323 -0.2330
 4163SOL    HW223952   3.284   0.417   1.047  0.1789 -0.3808 -0.7836
 4164SOL     OW23953   3.545   3.662   6.227  0.2354 -0.1963  0.2953
 4164SOL    HW123954   3.540   3.671   6.322 -1.7995  2.6842 -0.0877
 4164SOL    HW223955   3.471   3.604   6.207  0.2793  0.2738 -1.2172
 4165SOL     OW23956   1.195   4.546   4.786 -0.3240 -0.0959  0.2512
 4165SOL    HW123957   1.115   4.561   4.735 -0.1876  1.2987  0.4302
 4165SOL    HW223958   1.240   4.469   4.751  0.6410 -0.0678  1.4320
 4166SOL     OW23959   2.756   2.633   8.097  0.2161  0.9889 -0.2352
 4166SOL    HW123960   2.807   2.684   8.160  2.2723 -0.5195 -0.6838
 4166SOL    HW223961   2.695   2.589   8.157 -0.1224 -0.8644 -1.9547
 4167SOL     OW23962   3.273   1.424  16.451 -0.7928 -0.2989 -0.2701
 4167SOL    HW123963   3.315   1.407  16.367 -1.4668  0.5582 -0.7814
 4167SOL    HW223964   3.347   1.464  16.496 -1.0401 -0.7344  0.5326
 4168SOL     OW23965   3.421   2.407   4.138  0.3995  0.2881 -0.2216
 4168SOL    HW123966   3.465   2.458   4.206  2.4381  2.5383 -3.2567
 4168SOL    HW223967   3.340   2.379   4.181  0.6693  0.3019  0.2898
 4169SOL     OW23968   4.291   4.605  17.307 -0.4231  0.4717 -0.1849
 4169SOL    HW123969   4.288   4.531  17.246 -1.9438  0.7719 -0.4735
 4169SOL    HW223970   4.382   4.632  17.314 -0.0577 -0.4417 -1.3233
 4170SOL     OW23971   4.366   2.602   8.430 -0.2483  0.2477 -0.2572
 4170SOL    HW123972   4.377   2.695   8.446 -0.0609 -0.1430  1.9022
 4170SOL    HW223973   4.308   2.605   8.354  0.1237  0.1821 -0.5418
 4171SOL     OW23974   2.789   3.165   1.919  0.0322  0.3489 -0.6941
 4171SOL    HW123975   2.702   3.126   1.929 -1.5767  4.1893  0.4770
 4171SOL    HW223976   2.797   3.190   2.011 -2.1598 -0.6354 -0.2499
 4172SOL     OW23977   0.532   1.128  13.751 -0.5467  0.0224  0.2103
 4172SOL    HW123978   0.604   1.182  13.784  0.3263 -1.2708  0.4248
 4172SOL    HW223979   0.563   1.037  13.747  2.9207  1.3954 -3.9273
 4173SOL     OW23980   4.350   2.017   7.012 -0.0014 -0.1756  0.0006
 4173SOL    HW123981   4.424   2.021   7.073 -0.5376 -0.2649  0.6660
 4173SOL    HW223982   4.371   2.091   6.955 -2.8866  1.8819  1.6136
 4174SOL     OW23983   4.265   1.485   3.888  0.2417  0.4002 -0.3761
 4174SOL    HW123984   4.332   1.543   3.852  2.2341 -1.2733  0.6272
 4174SOL    HW223985   4.179   1.515   3.860  1.4637  1.0540 -3.3543
 4175SOL     OW23986   0.009   4.335   2.194 -0.2954 -0.6939  0.1910
 4175SOL    HW123987   0.030   4.243   2.211  0.3550 -0.4362  0.8144
 4175SOL    HW223988   0.063   4.343   2.116 -1.5649  0.7681 -0.5401
 4176SOL     OW23989   0.962   4.188   7.083  0.5733  0.4406 -0.2642
 4176SOL    HW123990   0.960   4.246   7.159  2.5091 -0.1412  0.2228
 4176SOL    HW223991   0.871   4.156   7.079  0.4923  0.8812 -1.8844
 4177SOL     OW23992   0.189   1.136   1.820  0.0659 -0.2946 -0.0941
 4177SOL    HW123993   0.269   1.110   1.867 -0.3222 -1.2140  0.0451
 4177SOL    HW223994   0.229   1.129   1.733  1.6519  1.6064  0.4585
 4178SOL     OW23995   1.269   1.500   5.133 -0.2390  0.1020  0.7202
 4178SOL    HW123996   1.329   1.539   5.196 -0.9218 -0.8785  1.9666
 4178SOL    HW223997   1.310   1.416   5.112  0.4609  0.4785  0.5761
 4179SOL     OW23998   3.301   1.393   5.861  0.1237 -0.1070  0.0002
 4179SOL    HW123999   3.298   1.488   5.853  0.1308 -0.1653 -0.7286
 4179SOL    HW224000   3.344   1.386   5.946  0.8143  0.1439 -0.3294
 4180SOL     OW24001   3.238   2.322   8.705  0.3936 -0.7130 -0.2714
 4180SOL    HW124002   3.184   2.377   8.649  0.5372 -2.0613 -1.7460
 4180SOL    HW224003   3.170   2.291   8.765  0.4365  1.9685  1.1252
 4181SOL     OW24004   3.258   2.419  11.103  0.1080 -0.0889  0.1696
 4181SOL    HW124005   3.216   2.334  11.108 -2.2773  1.1195  0.3491
 4181SOL    HW224006   3.351   2.399  11.116  0.2493  0.3697 -0.1338
 4182SOL     OW24007   0.172   1.892  13.656  0.3006  0.1035 -0.1721
 4182SOL    HW124008   0.182   1.961  13.722 -1.7173 -0.3044  0.5648
 4182SOL    HW224009   0.164   1.815  13.713  0.6034 -0.9333 -1.5312
 4183SOL     OW24010   2.120   2.086   8.410 -0.1894 -0.2197 -0.2939
 4183SOL    HW124011   2.111   2.181   8.400  1.5502 -0.1814 -1.4580
 4183SOL    HW224012   2.097   2.060   8.321 -0.0811 -0.8259 -0.1451
 4184SOL     OW24013   1.667   1.386   2.745  0.8690 -0.4275  0.4178
 4184SOL    HW124014   1.589   1.414   2.699  0.7813  0.7830  1.3122
 4184SOL    HW224015   1.663   1.294   2.718  2.5733  0.0224 -1.4108
 4185SOL     OW24016   1.137   1.436   2.282  0.6160  0.1717  0.0674
 4185SOL    HW124017   1.095   1.482   2.210  1.8884 -0.2080 -0.9125
 4185SOL    HW224018   1.058   1.393   2.315  1.8572 -0.6881  1.9889
 4186SOL     OW24019   4.113   1.736   6.673 -0.2039 -0.2693 -0.2310
 4186SOL    HW124020   4.181   1.768   6.733  0.9732 -0.0305 -1.6880
 4186SOL    HW224021   4.068   1.683   6.739  2.7990  0.3575  2.3042
 4187SOL     OW24022   3.915   1.162   0.254  0.2830 -0.0507  0.2408
 4187SOL    HW124023   3.876   1.235   0.302  2.2718  0.5571  0.9088
 4187SOL    HW224024   3.938   1.202   0.170 -0.2267 -0.2597 -0.0021
 4188SOL     OW24025   0.846   1.637  16.335  0.1952  0.4280  0.8170
 4188SOL    HW124026   0.880   1.717  16.375 -0.3705  1.2449 -0.3246
 4188SOL    HW224027   0.873   1.578  16.405  0.5838 -0.7450 -0.3269
 4189SOL     OW24028   3.132   2.589   8.730 -0.8602  0.4490  0.3348
 4189SOL    HW124029   3.051   2.635   8.752 -1.0233  0.9033 -1.2134
 4189SOL    HW224030   3.150   2.528   8.801 -0.4675  1.6056  1.2036
 4190SOL     OW24031   3.936   0.895   0.256  0.7282 -0.5472  0.1068
 4190SOL    HW124032   4.017   0.866   0.298  2.6572  0.7258 -2.7850
 4190SOL    HW224033   3.934   0.987   0.281 -1.4149 -0.6857  0.5424
 4191SOL     OW24034   0.225   2.830   7.022 -0.0335 -0.3087 -0.0727
 4191SOL    HW124035   0.229   2.903   6.960 -0.7747 -0.8488 -0.7588
 4191SOL    HW224036   0.284   2.768   6.980 -0.6875 -0.8007 -0.2673
 4192SOL     OW24037   2.188   0.281  15.224 -0.0031  0.2407  0.3134
 4192SOL    HW124038   2.211   0.279  15.131 -1.2395 -2.5747  0.0654
 4192SOL    HW224039   2.139   0.199  15.230  2.3647 -1.0473  1.9779
 4193SOL     OW24040   1.970   0.648   9.120 -0.5376 -0.3577 -0.1320
 4193SOL    HW124041   1.960   0.709   9.194  0.2802 -0.2901 -0.0686
 4193SOL    HW224042   2.054   0.682   9.088  0.1003 -1.4534  0.3922
 4194SOL     OW24043   0.740   4.243  10.543 -0.1903  0.3830 -0.5004
 4194SOL    HW124044   0.759   4.149  10.536 -0.4237  0.4152 -1.5721
 4194SOL    HW224045   0.785   4.272  10.622 -1.0684  1.9819 -0.5806
 4195SOL     OW24046   4.593   2.101   6.494  0.1499  0.1192 -0.0346
 4195SOL    HW124047   4.604   2.029   6.432  2.8415 -0.6277  1.3146
 4195SOL    HW224048   4.657   2.077   6.562 -1.6622 -0.9043  1.3278
 4196SOL     OW24049   0.247   0.581   5.131 -0.4043  0.1913  0.0880
 4196SOL    HW124050   0.283   0.520   5.195  0.3411 -0.2740 -0.7695
 4196SOL    HW224051   0.280   0.526   5.060 -1.1340  0.3435 -0.3664
 4197SOL     OW24052   2.163   2.190   3.504 -0.0084  0.3755 -0.1943
 4197SOL    HW124053   2.212   2.270   3.520 -1.5885  1.1155  0.8899
 4197SOL    HW224054   2.120   2.202   3.419  0.5016  0.2606 -0.4658
 4198SOL     OW24055   3.110   0.950   4.650 -0.2823 -0.0253 -0.0054
 4198SOL    HW124056   3.107   0.897   4.570  0.6343  0.8000 -0.5909
 4198SOL    HW224057   3.189   0.914   4.692 -1.0261 -0.7409  0.7836
 4199SOL     OW24058   2.222   4.273   6.872  0.2729 -0.1082 -0.1772
 4199SOL    HW124059   2.283   4.231   6.933 -0.5894  0.2013  0.9042
 4199SOL    HW224060   2.258   4.234   6.792 -0.4457  1.4089 -1.2495
 4200SOL     OW24061   1.365   4.589  10.979 -0.3507 -0.6322 -0.1001
 4200SOL    HW124062   1.431   4.633  10.925 -0.4316 -1.8557 -1.2067
 4200SOL    HW224063   1.295   4.577  10.914  0.0356  2.4136 -1.1006
 4201SOL     OW24064   2.604   0.169   3.604 -0.1676  0.5238 -0.4168
 4201SOL    HW124065   2.696   0.148   3.620 -0.2670  0.1618 -0.3009
 4201SOL    HW224066   2.606   0.222   3.525 -1.1897 -1.3138 -1.6858
 4202SOL     OW24067   1.625   1.935   3.356 -0.1655  0.0125  0.3508
 4202SOL    HW124068   1.630   2.024   3.320 -1.6446  0.6491  1.7511
 4202SOL    HW224069   1.601   1.894   3.273 -0.7094 -1.7928  1.3950
 4203SOL     OW24070   3.996   0.887   5.677 -0.1737 -0.3413  0.3574
 4203SOL    HW124071   4.014   0.975   5.643 -0.2820 -0.4273  0.0841
 4203SOL    HW224072   4.045   0.891   5.760 -0.1891 -1.6353  0.4331
 4204SOL     OW24073   2.922   3.579   1.141  0.3870 -0.6344  0.0587
 4204SOL    HW124074   2.957   3.645   1.081 -2.5837 -1.7403 -2.9103
 4204SOL    HW224075   2.945   3.498   1.096  1.7389  1.1750 -2.4885
 4205SOL     OW24076   3.973   1.219   4.244 -0.3360 -0.4689 -0.0814
 4205SOL    HW124077   3.921   1.258   4.174  1.7105 -1.6950 -2.3021
 4205SOL    HW224078   3.930   1.249   4.323  0.2280  0.3107 -0.0666
 4206SOL     OW24079   4.175   3.358   8.323 -0.1158  0.0283 -0.1326
 4206SOL    HW124080   4.105   3.421   8.308 -0.2269 -0.4875 -1.7913
 4206SOL    HW224081   4.261   3.401   8.323  0.6785 -1.5272 -0.2362
 4207SOL     OW24082   2.199   0.611  12.802 -0.4799  0.7620  0.3943
 4207SOL    HW124083   2.232   0.560  12.876 -1.7671  1.6241  1.5721
 4207SOL    HW224084   2.198   0.545  12.733  1.7243  1.4060 -0.2190
 4208SOL     OW24085   4.495   2.047   5.641 -0.1999  0.5478  0.1306
 4208SOL    HW124086   4.449   2.021   5.561  1.6516  1.0394 -1.1141
 4208SOL    HW224087   4.429   2.093   5.693  0.6255  0.6858  1.0667
 4209SOL     OW24088   0.299   2.208   7.938  0.1572 -0.8754 -0.0673
 4209SOL    HW124089   0.389   2.222   7.910 -0.2121  1.1674 -0.2193
 4209SOL    HW224090   0.265   2.294   7.914 -1.7513 -1.6659 -0.1807
 4210SOL     OW24091   2.107   3.945   4.787 -0.3529  0.6766  0.2881
 4210SOL    HW124092   2.137   4.028   4.751  3.1607 -0.9803 -0.5964
 4210SOL    HW224093   2.082   3.899   4.707 -0.3122  1.2361 -0.0435
 4211SOL     OW24094   3.886   0.653   7.263  0.4366  0.2197  0.0310
 4211SOL    HW124095   3.870   0.653   7.168  0.6862  0.5148 -0.0130
 4211SOL    HW224096   3.978   0.681   7.263  0.1090  1.2745  1.3973
 4212SOL     OW24097   1.432   3.465   3.475  0.2683  0.2552 -0.2751
 4212SOL    HW124098   1.340   3.444   3.462  0.0863  0.9814 -0.1020
 4212SOL    HW224099   1.451   3.497   3.386 -1.1182 -2.0049 -1.3871
 4213SOL     OW24100   4.292   4.511   4.517  0.0853 -0.2718  0.2475
 4213SOL    HW124101   4.243   4.518   4.599 -0.6059 -0.6672 -0.1247
 4213SOL    HW224102   4.305   4.601   4.487 -2.1042  0.1945  0.6996
 4214SOL     OW24103   2.755   2.735  14.940  0.4838 -0.0277  0.2037
 4214SOL    HW124104   2.672   2.690  14.954  0.1879  0.4316 -0.0569
 4214SOL    HW224105   2.738   2.789  14.863  1.9374 -1.1215 -0.8883
 4215SOL     OW24106   1.787   4.324  15.198  0.2657  0.0550 -0.1466
 4215SOL    HW124107   1.800   4.389  15.267 -1.5896 -0.3692  0.5878
 4215SOL    HW224108   1.868   4.339  15.150  0.4225  1.3939  0.5499
 4216SOL     OW24109   0.424   3.197  11.557  0.1374  0.2572 -0.4178
 4216SOL    HW124110   0.463   3.268  11.507  3.4087 -1.0462  0.2899
 4216SOL    HW224111   0.343   3.236  11.590  0.1680 -0.3351  0.3591
 4217SOL     OW24112   1.867   3.305   6.258 -0.5267 -0.1287  0.0374
 4217SOL    HW124113   1.789   3.351   6.290 -0.2375  1.2710 -1.2462
 4217SOL    HW224114   1.916   3.321   6.338 -0.6567  2.1443 -0.3480
 4218SOL     OW24115   4.142   3.266  13.734 -0.4792 -0.7407 -0.3666
 4218SOL    HW124116   4.053   3.253  13.702 -1.6013 -1.4132  3.0026
 4218SOL    HW224117   4.179   3.323  13.667  1.0858  0.1953  1.2969
 4219SOL     OW24118   4.451   2.472  14.917 -0.6292 -0.4922 -0.1658
 4219SOL    HW124119   4.480   2.480  15.008  0.8268  0.2610 -0.6796
 4219SOL    HW224120   4.531   2.425  14.892 -1.6014 -1.2896 -1.7617
 4220SOL     OW24121   1.930   4.706   7.712 -0.2030  0.0544 -0.3332
 4220SOL    HW124122   1.838   4.692   7.736 -0.5311  1.6900 -0.6467
 4220SOL    HW224123   1.924   0.069   7.674 -0.0128  0.1400 -0.1686
 4221SOL     OW24124   3.833   3.423   0.836 -0.0146  0.6287  0.3564
 4221SOL    HW124125   3.855   3.494   0.895  2.1411  0.5683 -0.3573
 4221SOL    HW224126   3.776   3.466   0.773 -0.4893  1.3259  1.2666
 4222SOL     OW24127   0.004   3.691  12.837  0.0347 -0.1009  0.0901
 4222SOL    HW124128   4.705   3.696  12.744 -0.9589  0.7462  0.3814
 4222SOL    HW224129   0.015   3.596  12.833 -0.5015 -0.1752  0.5392
 4223SOL     OW24130   2.693   3.906   5.707  0.9454 -0.6029 -0.4889
 4223SOL    HW124131   2.744   3.974   5.663  0.3868  0.4380  0.4715
 4223SOL    HW224132   2.757   3.851   5.752  0.6786  1.7963  2.7947
 4224SOL     OW24133   0.385   3.026   1.736 -0.7926 -0.3511  0.2605
 4224SOL    HW124134   0.438   2.954   1.771  1.8986  1.2894 -0.3927
 4224SOL    HW224135   0.398   3.013   1.641 -1.6405  0.5908  0.0218
 4225SOL     OW24136   0.063   2.160   0.888  0.5338  0.4896  0.8747
 4225SOL    HW124137   0.081   2.221   0.817 -2.0348 -0.5087 -0.6222
 4225SOL    HW224138   4.723   2.101   0.848  1.0960  0.4034  0.1183
 4226SOL     OW24139   0.888   3.383   4.813  0.3251  0.0344 -0.4002
 4226SOL    HW124140   0.825   3.338   4.869 -0.4479  1.0445 -0.4595
 4226SOL    HW224141   0.855   3.472   4.824 -0.3688 -0.3181  0.3822
 4227SOL     OW24142   0.242   2.569   2.407  0.5093  0.2193  0.4741
 4227SOL    HW124143   0.302   2.524   2.467 -1.3358 -1.7777  0.8281
 4227SOL    HW224144   0.214   2.640   2.465 -1.8592 -0.2544 -0.0998
 4228SOL     OW24145   1.275   3.114   3.763  0.3385 -0.0900  0.3001
 4228SOL    HW124146   1.289   3.019   3.763 -1.5702 -0.3691  0.5680
 4228SOL    HW224147   1.231   3.125   3.847  0.4854  2.7374  0.0128
 4229SOL     OW24148   1.481   3.575   3.143  1.0004  0.7473  0.3036
 4229SOL    HW124149   1.548   3.642   3.154  0.6375  1.2659 -0.6198
 4229SOL    HW224150   1.535   3.498   3.161 -1.1909 -0.3951  1.8931
 4230SOL     OW24151   1.355   0.317  11.970 -0.2874 -0.2071  0.1789
 4230SOL    HW124152   1.360   0.250  12.038 -3.6212  1.7930  2.4016
 4230SOL    HW224153   1.448   0.343  11.972 -0.4677  0.4384  0.5648
 4231SOL     OW24154   3.160   2.735  15.205 -0.0798  0.2887  0.1421
 4231SOL    HW124155   3.100   2.807  15.187  0.4773  1.4970  3.0477
 4231SOL    HW224156   3.248   2.773  15.204 -0.7364  1.8349  0.7798
 4232SOL     OW24157   1.634   0.834   6.451  0.5248  0.4546 -0.7258
 4232SOL    HW124158   1.617   0.883   6.531  0.0973 -1.5517  0.4149
 4232SOL    HW224159   1.695   0.891   6.405 -0.3153 -0.0205 -2.4025
 4233SOL     OW24160   1.893   1.032  14.530  0.0514 -0.4128 -0.1772
 4233SOL    HW124161   1.858   1.068  14.612  2.3248  1.9112 -0.2160
 4233SOL    HW224162   1.961   0.971  14.558 -0.1160 -0.9321 -0.9025
 4234SOL     OW24163   1.464   1.270   4.131 -0.1706 -0.2017  0.2615
 4234SOL    HW124164   1.382   1.318   4.117 -0.0188 -0.6899 -2.3535
 4234SOL    HW224165   1.455   1.190   4.078  1.7709 -0.3300  0.1482
 4235SOL     OW24166   0.408   4.544   5.143 -0.6191 -0.5479 -0.1570
 4235SOL    HW124167   0.338   4.514   5.201 -0.4528  0.2965  0.4955
 4235SOL    HW224168   0.361   4.606   5.089  0.7327  1.2495  0.6997
 4236SOL     OW24169   2.051   2.630   0.600  0.3807  0.0674 -0.5300
 4236SOL    HW124170   1.993   2.702   0.575  1.1904  1.7620  2.4464
 4236SOL    HW224171   2.094   2.614   0.516  0.5022  0.4763 -0.5463
 4237SOL     OW24172   0.829   1.851   3.605  0.2385  0.2957  0.6258
 4237SOL    HW124173   0.769   1.923   3.629 -0.0722 -0.5220  2.3404
 4237SOL    HW224174   0.790   1.804   3.531  1.5108 -2.0097  1.4253
 4238SOL     OW24175   2.187   2.191   2.276  0.1503  0.3251 -0.1423
 4238SOL    HW124176   2.113   2.186   2.216 -0.0147  1.4499 -0.0481
 4238SOL    HW224177   2.252   2.139   2.230 -0.0325  0.1021 -0.1460
 4239SOL     OW24178   2.585   1.322   8.163 -0.0675 -0.3909 -0.4215
 4239SOL    HW124179   2.599   1.389   8.096 -2.3907  0.6465  0.1192
 4239SOL    HW224180   2.667   1.318   8.213  0.1432  1.1564 -0.6419
 4240SOL     OW24181   0.100   1.472   4.591 -0.0633 -0.1714  0.3470
 4240SOL    HW124182   0.035   1.515   4.647  1.3095 -0.9297  2.4974
 4240SOL    HW224183   0.176   1.502   4.640  0.0083  1.1449 -0.5473
 4241SOL     OW24184   3.289   3.934   9.699 -0.2030  0.6078 -0.4289
 4241SOL    HW124185   3.353   3.964   9.764 -2.3342 -0.3535  2.0790
 4241SOL    HW224186   3.319   3.974   9.617  3.3398 -2.6869 -0.7342
 4242SOL     OW24187   1.874   1.017   3.510 -0.1746 -0.7917 -0.3653
 4242SOL    HW124188   1.958   1.055   3.485  1.7520 -4.2148  0.8571
 4242SOL    HW224189   1.841   0.983   3.427 -2.4805  1.5971 -0.4476
 4243SOL     OW24190   0.322   4.696  10.156 -0.0276 -0.1062  0.0364
 4243SOL    HW124191   0.257   4.625  10.153 -1.7973  1.5139  0.4940
 4243SOL    HW224192   0.370   4.658  10.231  1.0139 -0.5057 -0.8294
 4244SOL     OW24193   0.023   3.823   5.161 -0.3861 -0.2008  0.3235
 4244SOL    HW124194   4.705   3.769   5.094 -3.1026 -0.2129  2.0191
 4244SOL    HW224195   0.083   3.870   5.103  0.3803 -2.3519 -0.6288
 4245SOL     OW24196   4.559   1.837   1.005 -0.0285  0.0253  0.5805
 4245SOL    HW124197   4.649   1.822   1.033  0.9849  2.3808 -1.3532
 4245SOL    HW224198   4.572   1.908   0.941 -1.1399  0.4548  0.8205
 4246SOL     OW24199   4.676   3.616   2.725  0.2268 -0.0318 -0.4014
 4246SOL    HW124200   4.635   3.664   2.654  1.1311  3.3162  1.3465
 4246SOL    HW224201   0.014   3.562   2.676  0.1006  1.7362 -2.4905
 4247SOL     OW24202   2.213   3.288  14.357 -0.2522 -0.4435 -0.4507
 4247SOL    HW124203   2.296   3.274  14.404  1.4111  2.3428 -2.5468
 4247SOL    HW224204   2.156   3.228  14.404  0.2600 -0.7042 -0.1598
 4248SOL     OW24205   0.498   0.230   7.762 -0.1968 -0.2361 -0.2493
 4248SOL    HW124206   0.579   0.194   7.725  0.5905 -1.2182  2.3884
 4248SOL    HW224207   0.472   0.154   7.814 -0.0859 -1.2463 -1.6753
 4249SOL     OW24208   3.513   4.041   6.694 -0.1699 -0.2641 -0.0244
 4249SOL    HW124209   3.474   3.957   6.670  0.7359 -0.9923  1.0894
 4249SOL    HW224210   3.475   4.097   6.626  0.8704 -1.8138 -1.8898
 4250SOL     OW24211   2.346   4.015  16.054 -0.3752  0.3681 -0.1345
 4250SOL    HW124212   2.406   4.076  16.096 -1.9555  2.2034 -0.5430
 4250SOL    HW224213   2.297   3.989  16.132  0.4906  1.2784  0.7022
 4251SOL     OW24214   3.470   0.821   8.849  0.2001 -0.1910  0.0204
 4251SOL    HW124215   3.457   0.727   8.844 -1.6139  0.0142  0.8081
 4251SOL    HW224216   3.534   0.827   8.778  0.4887  2.1707  0.4657
 4252SOL     OW24217   0.249   0.396   3.568 -0.2205 -0.1264  0.3504
 4252SOL    HW124218   0.177   0.356   3.617 -0.5136  0.8884  0.7455
 4252SOL    HW224219   0.315   0.399   3.637  0.5700  0.3212 -0.4343
 4253SOL     OW24220   0.150   3.494   3.649  0.3858 -0.0560  0.1407
 4253SOL    HW124221   0.170   3.400   3.656 -4.7673 -1.3846 -3.1101
 4253SOL    HW224222   0.140   3.517   3.557 -2.0392 -0.9423  0.1841
 4254SOL     OW24223   1.351   4.523   2.867 -0.6993  0.4706  0.7323
 4254SOL    HW124224   1.370   4.446   2.813  0.8801  1.0854  0.4090
 4254SOL    HW224225   1.373   4.593   2.805 -1.6626  0.2170  0.0989
 4255SOL     OW24226   1.756   4.283   9.949  0.0806  0.2974 -0.3070
 4255SOL    HW124227   1.808   4.324   9.880 -0.0344 -2.8871 -2.3073
 4255SOL    HW224228   1.672   4.273   9.904  0.6379 -4.8908 -0.2594
 4256SOL     OW24229   2.232   1.384   5.706 -0.2448  0.3345 -0.4007
 4256SOL    HW124230   2.163   1.330   5.746 -1.2349  1.5082 -0.5383
 4256SOL    HW224231   2.311   1.353   5.750 -0.4427 -0.8395 -0.8845
 4257SOL     OW24232   0.685   3.470   4.286 -0.5851 -0.3197  0.4782
 4257SOL    HW124233   0.691   3.556   4.329 -1.6638 -0.5734  1.1409
 4257SOL    HW224234   0.590   3.459   4.296 -0.7731  0.0007 -0.9947
 4258SOL     OW24235   3.814   4.619  11.529  0.2223  0.2460 -0.1278
 4258SOL    HW124236   3.874   4.568  11.474  1.7904  1.1484  0.7536
 4258SOL    HW224237   3.752   4.642  11.460 -1.2691  1.1242  1.4986
 4259SOL     OW24238   1.770   1.012   5.625 -0.0066  0.2948 -0.3152
 4259SOL    HW124239   1.675   1.018   5.620 -0.0520 -0.8734 -0.8733
 4259SOL    HW224240   1.779   0.927   5.583 -2.2107 -0.4902  0.8111
 4260SOL     OW24241   3.208   0.968   5.951 -0.4559  0.4053 -0.5684
 4260SOL    HW124242   3.200   1.039   5.887 -2.5660  1.0848  0.4649
 4260SOL    HW224243   3.135   0.920   5.912  0.9771 -1.5185 -0.9045
 4261SOL     OW24244   2.005   2.615   8.096 -0.3593  0.3535 -0.2910
 4261SOL    HW124245   2.098   2.632   8.078  0.0988 -2.8988 -1.0806
 4261SOL    HW224246   1.961   2.684   8.047 -0.0409  0.0831 -0.9560
 4262SOL     OW24247   1.800   2.887  16.617  0.5055  0.1102  0.3765
 4262SOL    HW124248   1.760   2.971  16.594  0.8123  0.5013  1.2496
 4262SOL    HW224249   1.808   2.906  16.711  1.0541  2.2399 -0.1019
 4263SOL     OW24250   3.288   0.586   6.203 -0.0765 -0.3695  0.2104
 4263SOL    HW124251   3.298   0.494   6.227 -1.2702 -0.3100  0.8773
 4263SOL    HW224252   3.238   0.629   6.272 -2.3900  0.1289 -1.7771
 4264SOL     OW24253   0.937   1.151   6.685 -0.1756 -0.3442 -0.1495
 4264SOL    HW124254   0.906   1.134   6.774 -1.4816  2.4217 -0.0823
 4264SOL    HW224255   0.885   1.085   6.640  1.0747 -1.7786  0.5119
 4265SOL     OW24256   1.456   0.201   0.973  0.0158  0.0519 -0.4873
 4265SOL    HW124257   1.385   0.136   0.976  2.0237 -2.1199 -0.1131
 4265SOL    HW224258   1.421   0.265   0.911 -0.0685 -1.3244 -1.8629
 4266SOL     OW24259   1.587   1.624   7.700 -0.0873 -0.2824 -0.3327
 4266SOL    HW124260   1.582   1.705   7.752  0.0215 -0.0077 -0.7568
 4266SOL    HW224261   1.568   1.672   7.620  0.4581 -0.1405 -0.3760
 4267SOL     OW24262   1.511   4.562   6.104  0.3558  0.5981 -0.7250
 4267SOL    HW124263   1.580   4.600   6.158 -0.3421  0.2385  0.4229
 4267SOL    HW224264   1.450   4.526   6.169 -0.2679  0.7565 -1.2160
 4268SOL     OW24265   0.205   0.968  12.665  0.0013  0.2030  0.7950
 4268SOL    HW124266   0.152   0.900  12.708  0.3397 -1.4594 -1.3902
 4268SOL    HW224267   0.186   1.036  12.729  1.8729  1.3993  0.0613
 4269SOL     OW24268   1.993   3.219   7.737 -0.5351  0.5364  0.3363
 4269SOL    HW124269   2.087   3.201   7.745 -1.1936 -2.7400  0.7641
 4269SOL    HW224270   1.960   3.200   7.825  0.0064 -0.5600  0.3035
 4270SOL     OW24271   0.897   3.272  13.038 -0.6194  0.5895  0.7172
 4270SOL    HW124272   0.919   3.218  12.962  0.3155  1.5560  0.2945
 4270SOL    HW224273   0.827   3.226  13.084 -0.1183 -0.3751  0.5185
 4271SOL     OW24274   3.439   0.696   6.496  0.6025  0.8993  0.6870
 4271SOL    HW124275   3.376   0.713   6.566 -2.2331 -0.7810 -1.4244
 4271SOL    HW224276   3.413   0.762   6.431 -2.9406 -1.1108  0.0249
 4272SOL     OW24277   2.900   1.257   1.567 -0.1655 -0.1329  0.1745
 4272SOL    HW124278   2.908   1.166   1.596  0.3924  0.7697  2.8451
 4272SOL    HW224279   2.941   1.251   1.480  1.5575 -0.8464  1.0325
 4273SOL     OW24280   0.613   0.176  14.158  0.9814  0.0882 -0.0618
 4273SOL    HW124281   0.636   0.204  14.247 -0.3609  1.8681 -0.2582
 4273SOL    HW224282   0.545   0.116  14.187 -0.8510  2.3729  0.4290
 4274SOL     OW24283   0.290   3.577   6.771 -0.2032 -0.5715 -0.3540
 4274SOL    HW124284   0.220   3.627   6.730 -1.5968  0.1425  2.9210
 4274SOL    HW224285   0.257   3.567   6.861 -0.9839  1.7815 -0.3768
 4275SOL     OW24286   2.855   0.537   7.306  0.7273 -0.4014  0.0139
 4275SOL    HW124287   2.935   0.534   7.254  1.1607 -1.1770  0.7202
 4275SOL    HW224288   2.800   0.483   7.249 -0.5017  1.0575 -0.1777
 4276SOL     OW24289   0.963   1.005   5.057  0.0613  0.3942 -0.1342
 4276SOL    HW124290   1.047   1.001   5.010 -0.5380 -3.3912 -0.8764
 4276SOL    HW224291   0.896   0.994   4.990  0.6224  0.6800 -0.7515
 4277SOL     OW24292   2.707   3.525   2.082  0.2675 -0.3754  0.2636
 4277SOL    HW124293   2.721   3.434   2.107  0.8293 -0.5836 -0.8089
 4277SOL    HW224294   2.731   3.526   1.990 -2.6851  1.0675 -0.4946
 4278SOL     OW24295   3.442   0.458   8.519  0.2105 -0.1218  0.4638
 4278SOL    HW124296   3.409   0.368   8.519 -0.3837  0.0975 -0.0382
 4278SOL    HW224297   3.367   0.509   8.550 -0.8419 -1.4957  0.1797
 4279SOL     OW24298   0.101   0.273   0.780  0.0087  0.5053  0.1132
 4279SOL    HW124299   0.067   0.184   0.771 -0.5391  0.8153 -0.9350
 4279SOL    HW224300   0.060   0.314   0.856 -0.6942  0.9690 -0.5111
 4280SOL     OW24301   0.864   1.721   4.947 -0.3266  0.2023 -0.0210
 4280SOL    HW124302   0.941   1.712   4.890 -1.1365  2.1315 -1.4069
 4280SOL    HW224303   0.804   1.673   4.891 -0.2180 -0.2586  0.2534
 4281SOL     OW24304   0.097   4.151  14.807 -0.0541  0.0020 -0.7528
 4281SOL    HW124305   0.027   4.088  14.793  0.4519 -0.2307 -2.2762
 4281SOL    HW224306   0.164   4.106  14.858 -0.4547  0.1463 -0.1037
 4282SOL     OW24307   2.435   1.888   5.298  0.3188 -0.1235  0.3799
 4282SOL    HW124308   2.379   1.899   5.221 -1.2733  0.3011  1.5865
 4282SOL    HW224309   2.368   1.911   5.363  0.1768  2.7156 -0.7702
 4283SOL     OW24310   2.402   4.005   9.597 -0.3488 -0.1473  0.0714
 4283SOL    HW124311   2.308   4.020   9.605 -0.3762 -0.0139 -0.4584
 4283SOL    HW224312   2.405   3.917   9.635 -0.5140 -1.3170 -2.5646
 4284SOL     OW24313   1.075   3.000   7.203 -0.5038  0.4223 -0.5115
 4284SOL    HW124314   0.985   2.979   7.229 -0.0270  0.5856  1.2778
 4284SOL    HW224315   1.103   2.910   7.190  2.8864  1.4893 -0.5893
 4285SOL     OW24316   2.219   0.920   7.206 -0.2288 -0.1011 -0.0234
 4285SOL    HW124317   2.209   0.891   7.115 -0.6649 -1.8974  0.6039
 4285SOL    HW224318   2.190   1.010   7.190 -2.2475 -0.3777  2.0557
 4286SOL     OW24319   1.138   0.361  15.744  0.0764 -0.0097 -0.2460
 4286SOL    HW124320   1.072   0.415  15.700  0.7751  0.5730 -0.5826
 4286SOL    HW224321   1.130   0.281  15.693  2.0286 -1.4233  1.6744
 4287SOL     OW24322   0.353   1.422   7.019  0.1942 -0.1889 -0.1256
 4287SOL    HW124323   0.336   1.509   7.054  0.8688  0.0833 -0.4774
 4287SOL    HW224324   0.269   1.379   7.033 -0.6588  0.6553 -2.7612
 4288SOL     OW24325   0.066   0.856   3.486  0.9631 -0.0491 -0.3401
 4288SOL    HW124326   0.154   0.867   3.522  1.5242 -0.9792 -1.4323
 4288SOL    HW224327   0.024   0.808   3.556  0.2654  2.8798  1.2331
 4289SOL     OW24328   1.813   0.847   5.862 -0.1011  0.1375 -0.7186
 4289SOL    HW124329   1.842   0.757   5.847  0.9354 -0.1043  2.7372
 4289SOL    HW224330   1.820   0.884   5.774  0.1110  0.5825 -0.5156
 4290SOL     OW24331   0.474   0.659  12.660 -0.4955  0.3112  0.3186
 4290SOL    HW124332   0.452   0.599  12.731 -1.1647  2.1951  1.7128
 4290SOL    HW224333   0.565   0.635  12.641 -0.9712 -0.6883 -0.7221
 4291SOL     OW24334   2.256   0.481  15.426  0.1664  0.2958  0.0011
 4291SOL    HW124335   2.237   0.568  15.391 -0.5366  0.2278  0.2189
 4291SOL    HW224336   2.211   0.418  15.370 -1.4330  1.9896 -0.6214
 4292SOL     OW24337   0.771   3.345  12.487  0.4852 -0.0970  0.1028
 4292SOL    HW124338   0.729   3.391  12.413 -0.6533 -0.3426  0.5872
 4292SOL    HW224339   0.709   3.353  12.559  0.6150  0.8737  0.1060
 4293SOL     OW24340   2.145   1.854   4.638 -0.2101 -0.2460 -0.3874
 4293SOL    HW124341   2.087   1.909   4.587 -1.7087 -1.5674 -0.1245
 4293SOL    HW224342   2.155   1.775   4.584  1.5870  0.0953 -0.5450
 4294SOL     OW24343   0.511   1.796   0.539 -0.3675 -0.0511 -0.4738
 4294SOL    HW124344   0.422   1.764   0.550 -1.3802  1.8789 -2.9632
 4294SOL    HW224345   0.527   1.859   0.610  0.3028  1.9923 -2.4236
 4295SOL     OW24346   3.371   1.068   2.775 -0.5681 -0.3521  0.2601
 4295SOL    HW124347   3.324   1.002   2.825 -1.0201  0.0856  0.4070
 4295SOL    HW224348   3.325   1.148   2.798 -1.1028 -0.5924  0.0279
 4296SOL     OW24349   3.517   4.011   5.862 -0.2864  0.0153  0.0596
 4296SOL    HW124350   3.607   4.022   5.830 -0.2678 -0.6367 -0.1150
 4296SOL    HW224351   3.485   3.937   5.810  0.5823  0.2461 -0.8217
 4297SOL     OW24352   4.137   2.396   5.543 -0.0765 -0.2917  0.2222
 4297SOL    HW124353   4.120   2.489   5.557 -0.5781 -0.0028 -2.3250
 4297SOL    HW224354   4.227   2.373   5.566 -0.3103  0.7503  2.1245
 4298SOL     OW24355   2.809   1.130  12.938 -0.7661  0.1380 -0.1668
 4298SOL    HW124356   2.903   1.122  12.947 -0.8789 -0.5462  0.3778
 4298SOL    HW224357   2.783   1.086  13.018  2.1478 -0.2068  0.5722
 4299SOL     OW24358   2.696   4.037  14.947 -0.2827  0.1271  0.3458
 4299SOL    HW124359   2.752   4.111  14.926 -0.5960  0.2187 -0.1755
 4299SOL    HW224360   2.622   4.094  14.928  0.5361  0.4583 -1.9357
 4300SOL     OW24361   3.361   0.770   6.790  0.6068  0.1174 -0.3174
 4300SOL    HW124362   3.308   0.739   6.864  0.2460 -0.8647 -0.9800
 4300SOL    HW224363   3.439   0.728   6.827  0.7136 -1.1912 -1.9640
 4301SOL     OW24364   0.492   0.399   2.902 -0.6659  0.2303  0.3525
 4301SOL    HW124365   0.532   0.382   2.817  0.3433 -1.3302  1.1433
 4301SOL    HW224366   0.470   0.309   2.925 -1.8505  0.0665 -1.4755
 4302SOL     OW24367   1.748   2.641   5.794  0.1371  0.3654  0.1078
 4302SOL    HW124368   1.769   2.688   5.713 -2.8396  1.2437 -0.1461
 4302SOL    HW224369   1.796   2.561   5.771  1.2619  0.5261  1.8567
 4303SOL     OW24370   1.772   1.774  11.265  0.2002  0.1364  0.4245
 4303SOL    HW124371   1.858   1.783  11.308  1.1041 -0.4521 -1.2584
 4303SOL    HW224372   1.762   1.862  11.228  1.3024 -0.5369 -1.4762
 4304SOL     OW24373   1.307   1.717   4.553 -0.2294 -0.2251 -0.3069
 4304SOL    HW124374   1.342   1.761   4.475 -2.0067  0.3971 -0.7603
 4304SOL    HW224375   1.372   1.740   4.619 -2.2342 -0.2857  1.6609
 4305SOL     OW24376   4.626   3.440   8.769  0.1258 -0.4232  0.3177
 4305SOL    HW124377   4.547   3.388   8.755 -0.9986  1.2695  0.4327
 4305SOL    HW224378   4.598   3.526   8.738  1.7640  0.0482  0.1157
 4306SOL     OW24379   0.842   1.459  12.661  0.3969 -0.7753 -0.0107
 4306SOL    HW124380   0.866   1.525  12.595 -2.9715 -0.0774 -0.5199
 4306SOL    HW224381   0.776   1.407  12.615 -1.1853  2.4255 -1.3862
 4307SOL     OW24382   3.637   2.743   4.166  0.1621  0.9216  0.1804
 4307SOL    HW124383   3.592   2.776   4.088 -2.2569  0.0048  1.1960
 4307SOL    HW224384   3.676   2.667   4.124  0.1857 -0.2175  2.2800
 4308SOL     OW24385   1.832   1.935   0.396 -0.1961 -0.0711  0.1111
 4308SOL    HW124386   1.753   1.972   0.436  0.6931  1.3489  0.5718
 4308SOL    HW224387   1.797   1.883   0.324  1.2360 -0.9529  0.0641
 4309SOL     OW24388   0.567   3.182   9.153  0.7669 -0.0517 -0.3999
 4309SOL    HW124389   0.597   3.175   9.063 -2.6044  0.5157 -1.5922
 4309SOL    HW224390   0.549   3.091   9.177  0.6488  0.8466  2.9357
 4310SOL     OW24391   0.627   2.567  12.564  0.9346  0.6465 -0.5279
 4310SOL    HW124392   0.548   2.513  12.573  0.1361  1.8452 -0.2401
 4310SOL    HW224393   0.636   2.554  12.470  0.4006  2.2380 -0.8010
 4311SOL     OW24394   3.243   0.103   7.733  0.0030  0.1853  0.0909
 4311SOL    HW124395   3.232   0.153   7.652  2.0003  0.3430 -0.0789
 4311SOL    HW224396   3.335   0.082   7.713  0.7135  1.1227  2.4257
 4312SOL     OW24397   3.516   4.675   7.886  0.9590 -0.2348  0.0708
 4312SOL    HW124398   3.475   0.025   7.932  1.0489  0.2624 -0.6427
 4312SOL    HW224399   3.495   4.689   7.793  0.9424  1.5987  0.3574
 4313SOL     OW24400   2.643   2.858  14.732  0.3151  0.0528  0.6882
 4313SOL    HW124401   2.691   2.863  14.649  0.7006  1.5284  1.0083
 4313SOL    HW224402   2.562   2.907  14.722  0.3915  0.0764  0.1670
 4314SOL     OW24403   3.036   4.711   4.515  0.2823  0.8260  0.2898
 4314SOL    HW124404   3.038   4.615   4.519 -0.9138  0.8096  0.2587
 4314SOL    HW224405   2.984   0.010   4.438 -0.5966  0.5458  0.8088
 4315SOL     OW24406   0.404   2.084   2.189  0.3535 -0.4889 -0.3449
 4315SOL    HW124407   0.427   2.177   2.187 -1.4337  0.0027  1.7615
 4315SOL    HW224408   0.350   2.067   2.267 -3.0188 -0.0909 -2.5825
 4316SOL     OW24409   2.888   3.744  16.616 -0.6902 -0.5120 -0.6820
 4316SOL    HW124410   2.948   3.758  16.543 -2.0549  0.8924 -1.5322
 4316SOL    HW224411   2.949   3.707  16.680 -1.0889  0.6830  0.3828
 4317SOL     OW24412   2.123   4.176  13.146  0.3615 -0.5169 -0.0756
 4317SOL    HW124413   2.084   4.221  13.221  0.1524 -1.8560  0.6068
 4317SOL    HW224414   2.216   4.172  13.169 -0.1590 -1.6535  1.8241
 4318SOL     OW24415   4.657   3.687   5.351 -0.0992 -0.2683 -0.0278
 4318SOL    HW124416   4.701   3.730   5.425 -1.9857 -1.4595  1.8049
 4318SOL    HW224417   4.673   3.745   5.277 -0.5020  0.7051  0.6558
 4319SOL     OW24418   1.041   1.309   8.103 -0.6941  0.0476 -0.0623
 4319SOL    HW124419   1.134   1.333   8.098 -0.5247 -0.4472  0.7545
 4319SOL    HW224420   1.022   1.339   8.191  0.2384 -0.1462  0.2073
 4320SOL     OW24421   2.367   4.536   3.856  0.1029 -0.2364 -0.1998
 4320SOL    HW124422   2.292   4.594   3.864  0.0376 -0.4921  0.9430
 4320SOL    HW224423   2.319   4.454   3.840  0.2616 -0.2456 -0.6359
 4321SOL     OW24424   3.546   3.181   9.838  0.3115  0.3180 -0.7131
 4321SOL    HW124425   3.562   3.163   9.746  0.1022  0.9815 -0.8834
 4321SOL    HW224426   3.456   3.213   9.833  0.5224  1.6140  3.8148
 4322SOL     OW24427   1.379   4.039   0.564  0.2950  0.4351 -0.8983
 4322SOL    HW124428   1.358   4.094   0.489  1.1059  0.7689 -0.8772
 4322SOL    HW224429   1.384   3.952   0.525  0.6250 -0.2605  0.6983
 4323SOL     OW24430   2.693   0.848   6.738  0.0081  0.4350 -0.8307
 4323SOL    HW124431   2.602   0.823   6.724 -0.2013  0.6197  0.1585
 4323SOL    HW224432   2.723   0.803   6.817  0.9580  2.4746 -0.0280
 4324SOL     OW24433   2.459   0.954   7.512  0.1644  0.1324 -0.0256
 4324SOL    HW124434   2.386   0.997   7.557  1.0123  0.6576  0.8447
 4324SOL    HW224435   2.533   0.969   7.570  0.2119 -0.3119  0.0264
 4325SOL     OW24436   2.644   4.181   3.115  0.8473  0.1312 -0.2210
 4325SOL    HW124437   2.635   4.276   3.122  3.9693  0.3133  1.4855
 4325SOL    HW224438   2.721   4.183   3.057 -0.7782 -0.0682 -2.3731
 4326SOL     OW24439   2.228   3.182   1.749 -0.4343 -0.6653 -0.2819
 4326SOL    HW124440   2.238   3.213   1.839  2.1114  2.5897 -1.6570
 4326SOL    HW224441   2.239   3.088   1.763  0.6627 -0.5814 -0.5278
 4327SOL     OW24442   2.300   2.118   1.973 -0.5696  0.0566 -0.1660
 4327SOL    HW124443   2.374   2.068   1.941 -1.2075 -0.7333 -0.4012
 4327SOL    HW224444   2.268   2.051   2.033 -2.0465  0.8849 -0.0106
 4328SOL     OW24445   2.184   1.358   4.487 -0.4615 -0.0436 -0.2621
 4328SOL    HW124446   2.223   1.445   4.497  0.1183 -0.3266 -0.0420
 4328SOL    HW224447   2.201   1.320   4.573  3.2478  2.4678  0.1621
 4329SOL     OW24448   4.660   2.939   7.530 -0.4602 -0.4063 -1.2518
 4329SOL    HW124449   4.681   3.030   7.508  0.5497 -0.6369 -1.2568
 4329SOL    HW224450   0.022   2.898   7.522  0.7964  1.9633  0.0078
 4330SOL     OW24451   0.418   4.671  12.904  0.8061 -0.6335  0.8970
 4330SOL    HW124452   0.505   4.669  12.943  2.2440 -0.7534 -2.2830
 4330SOL    HW224453   0.398   4.577  12.909 -0.0821 -0.2760  3.6778
 4331SOL     OW24454   1.565   0.719  12.782 -0.0309  0.0017 -0.1426
 4331SOL    HW124455   1.529   0.770  12.854  0.7386 -1.6093  1.3785
 4331SOL    HW224456   1.562   0.785  12.713  1.5319  0.5228  0.2688
 4332SOL     OW24457   4.256   2.423  15.426 -0.0148 -0.0156  0.5366
 4332SOL    HW124458   4.205   2.346  15.402  0.3754 -0.5244  1.3098
 4332SOL    HW224459   4.318   2.383  15.488  0.9915  1.3169  0.3976
 4333SOL     OW24460   1.560   4.114   6.313  0.2929  0.6218 -0.3198
 4333SOL    HW124461   1.513   4.041   6.354  0.7406 -0.1099 -1.0994
 4333SOL    HW224462   1.499   4.186   6.325 -0.5089 -0.3126  1.2219
 4334SOL     OW24463   1.878   2.794   9.026 -0.5844 -0.2327 -0.1461
 4334SOL    HW124464   1.973   2.797   9.039 -0.7528  0.5243  0.8956
 4334SOL    HW224465   1.847   2.723   9.081 -0.2768  0.5473  1.0461
 4335SOL     OW24466   3.227   1.180  11.934 -0.5821  0.3919  0.5948
 4335SOL    HW124467   3.276   1.110  11.889  1.2025  1.4405  0.9270
 4335SOL    HW224468   3.232   1.245  11.864  3.5262  1.7741  2.1707
 4336SOL     OW24469   3.531   4.044   3.632 -0.0268  0.4836 -0.4978
 4336SOL    HW124470   3.475   4.099   3.577  0.6093 -0.0084 -1.6419
 4336SOL    HW224471   3.476   3.967   3.649 -0.5734  0.9164 -0.3063
 4337SOL     OW24472   0.743   1.215   1.932 -0.0788  0.6060 -0.5488
 4337SOL    HW124473   0.817   1.182   1.881  1.5384  1.3539  1.3072
 4337SOL    HW224474   0.722   1.144   1.993  0.0381  0.6350 -0.4753
 4338SOL     OW24475   0.727   4.520   1.607  0.7648 -0.0325 -0.3573
 4338SOL    HW124476   0.770   4.435   1.596  2.4300  0.5867  1.5969
 4338SOL    HW224477   0.729   4.529   1.702 -0.3937  0.4785 -0.3853
 4339SOL     OW24478   0.937   1.281   6.976 -0.3989  0.4466 -0.0138
 4339SOL    HW124479   0.844   1.304   6.978 -0.3145  0.7255  0.8294
 4339SOL    HW224480   0.956   1.308   6.886  1.6201  0.0918  0.3239
 4340SOL     OW24481   0.817   3.553  10.989  0.4505 -0.0793 -0.3997
 4340SOL    HW124482   0.885   3.505  10.941 -0.1629 -0.0168 -1.3174
 4340SOL    HW224483   0.817   3.641  10.951  4.3624  0.1305  0.0670
 4341SOL     OW24484   4.194   2.771  13.541 -0.7409  0.0197 -0.1139
 4341SOL    HW124485   4.168   2.855  13.505  0.5311  0.7016  0.5657
 4341SOL    HW224486   4.165   2.785  13.631  0.6187  2.8745 -0.1272
 4342SOL     OW24487   2.004   1.825   5.797 -0.0933  0.1750  0.0324
 4342SOL    HW124488   2.062   1.890   5.836  0.4958 -0.9910  1.1209
 4342SOL    HW224489   2.044   1.744   5.829  0.1799  0.0503 -0.6141
 4343SOL     OW24490   0.173   4.142   6.073  0.2122 -0.3837  0.0734
 4343SOL    HW124491   0.261   4.174   6.093  0.4604 -0.2143 -1.2568
 4343SOL    HW224492   0.119   4.220   6.059  2.0038  0.6112 -1.1816
 4344SOL     OW24493   1.889   3.154   0.926 -0.2104 -0.1092 -0.2282
 4344SOL    HW124494   1.941   3.231   0.949 -1.2584  1.5024 -3.1790
 4344SOL    HW224495   1.803   3.184   0.956 -1.0516 -2.5922 -0.2143
 4345SOL     OW24496   4.666   3.738   9.745 -0.0148  0.3909 -0.1203
 4345SOL    HW124497   0.014   3.772   9.797 -0.0287 -0.2168  0.2827
 4345SOL    HW224498   4.722   3.699   9.678 -1.1348  1.6143 -1.7872
 4346SOL     OW24499   2.547   2.766   0.715  0.1614  0.9889 -0.0130
 4346SOL    HW124500   2.455   2.753   0.694  0.5992 -0.4090 -1.0654
 4346SOL    HW224501   2.579   2.677   0.697 -0.9345  0.8651 -1.3349
 4347SOL     OW24502   0.955   0.903   3.632 -0.1889  0.3848  0.5382
 4347SOL    HW124503   0.872   0.861   3.612 -0.3532  1.6893 -1.4763
 4347SOL    HW224504   0.936   0.992   3.605 -1.7777 -0.7987 -2.2631
 4348SOL     OW24505   2.255   4.478   8.856  0.4099  0.8778 -0.2205
 4348SOL    HW124506   2.170   4.471   8.901  0.8615 -0.6145  0.3967
 4348SOL    HW224507   2.228   4.458   8.766  1.9046  2.0811 -0.9328
 4349SOL     OW24508   0.824   0.054  14.714 -0.1656  0.1210  0.6312
 4349SOL    HW124509   0.862   4.691  14.730  1.3331  0.5488 -0.6151
 4349SOL    HW224510   0.839   0.067  14.621 -0.9573  0.1576  0.5142
 4350SOL     OW24511   2.907   1.939   0.625 -0.4699  0.5256 -0.0164
 4350SOL    HW124512   2.850   1.986   0.564 -0.9056 -2.9468 -2.2495
 4350SOL    HW224513   2.902   1.853   0.585 -0.2444  0.7725 -0.5748
 4351SOL     OW24514   3.192   1.864  14.018 -0.4778 -0.4680 -0.0666
 4351SOL    HW124515   3.122   1.924  13.993 -0.5867 -0.8089 -0.5922
 4351SOL    HW224516   3.144   1.782  14.032  2.3909 -2.2236 -0.4482
 4352SOL     OW24517   3.785   1.323   8.919  0.2890  0.2476 -0.9040
 4352SOL    HW124518   3.767   1.275   8.839 -2.0070  0.3612 -0.4444
 4352SOL    HW224519   3.700   1.365   8.907  0.2836  0.5566  0.1851
 4353SOL     OW24520   1.613   4.597   5.569  0.3351  0.2273 -0.4231
 4353SOL    HW124521   1.653   4.676   5.605 -3.0294  0.5742  2.5353
 4353SOL    HW224522   1.574   4.562   5.649 -1.3611  0.4119 -1.1460
 4354SOL     OW24523   0.779   1.498   7.656 -0.0155  0.4378 -0.0143
 4354SOL    HW124524   0.852   1.542   7.612  0.7196 -0.9338 -0.1691
 4354SOL    HW224525   0.827   1.435   7.709 -1.1468  0.4188  0.9678
 4355SOL     OW24526   1.151   3.417   6.252  0.4568 -0.2282  0.1723
 4355SOL    HW124527   1.097   3.477   6.201  0.3791 -0.0049  0.5186
 4355SOL    HW224528   1.194   3.359   6.189 -1.4432 -0.9112 -0.4994
 4356SOL     OW24529   4.306   4.551  11.113  0.3094  0.0028 -0.4400
 4356SOL    HW124530   4.353   4.614  11.168 -0.5842  1.3009 -1.1751
 4356SOL    HW224531   4.377   4.509  11.063 -0.4599  1.1462 -2.5024
 4357SOL     OW24532   1.869   0.505   7.989 -0.0965 -0.0535  0.4074
 4357SOL    HW124533   1.892   0.592   7.955 -0.1021 -0.4692 -0.6800
 4357SOL    HW224534   1.945   0.448   7.978 -0.6684 -0.9838  1.3441
 4358SOL     OW24535   3.751   1.098  16.844 -0.2614 -0.7170 -0.4703
 4358SOL    HW124536   3.782   1.147  16.768 -1.0847 -0.1375 -0.4303
 4358SOL    HW224537   3.837   1.097  16.885 -0.1384  0.5517 -0.7050
 4359SOL     OW24538   0.544   2.439   3.010  0.6565  0.4227 -0.2107
 4359SOL    HW124539   0.500   2.511   2.965  0.8241  0.3124 -0.5520
 4359SOL    HW224540   0.629   2.432   2.966  0.5592  3.1642 -0.8419
 4360SOL     OW24541   4.095   0.582  15.185 -0.0986  0.1726 -0.1573
 4360SOL    HW124542   4.051   0.661  15.215  1.6102  1.0094  0.1624
 4360SOL    HW224543   4.142   0.555  15.264 -1.0826 -1.1534 -0.0196
 4361SOL     OW24544   4.178   1.205   8.764  0.4892  0.1655  0.4484
 4361SOL    HW124545   4.162   1.299   8.775 -1.7019 -0.0355 -1.0732
 4361SOL    HW224546   4.268   1.205   8.796  1.1316  0.0700 -1.3475
 4362SOL     OW24547   3.824   1.173   3.634  0.2512 -0.3183 -0.1333
 4362SOL    HW124548   3.728   1.171   3.637  0.2530 -1.0716 -0.6925
 4362SOL    HW224549   3.837   1.246   3.573 -1.7716  2.1841  2.3727
 4363SOL     OW24550   4.418   4.194   2.767 -0.0670  0.6492 -0.1443
 4363SOL    HW124551   4.437   4.199   2.860  3.9941 -0.2394 -0.9415
 4363SOL    HW224552   4.324   4.176   2.770  0.1428 -0.5973 -0.9801
 4364SOL     OW24553   0.734   1.085  12.684 -0.2541 -0.2408  0.3960
 4364SOL    HW124554   0.672   1.012  12.690  0.0174 -0.5930 -1.0336
 4364SOL    HW224555   0.818   1.042  12.694  1.8982  3.2028 -2.8889
 4365SOL     OW24556   1.002   0.619   7.453  0.6122  0.4221 -0.2411
 4365SOL    HW124557   1.016   0.659   7.539 -1.9230  2.6754 -0.9087
 4365SOL    HW224558   1.086   0.575   7.438  0.8532  0.2307  1.6040
 4366SOL     OW24559   1.364   3.489   7.680  0.2363 -0.3136  0.3355
 4366SOL    HW124560   1.319   3.437   7.746  1.8190 -1.8072  0.2251
 4366SOL    HW224561   1.372   3.562   7.741 -2.3836  1.7653 -1.7886
 4367SOL     OW24562   1.299   2.489  12.788 -0.3900  0.1984  0.0659
 4367SOL    HW124563   1.236   2.426  12.755  1.0695 -0.9889 -0.4521
 4367SOL    HW224564   1.295   2.550  12.714 -2.0024  0.4012  0.3283
 4368SOL     OW24565   4.125   4.168   9.565 -0.0324 -0.0714  0.0161
 4368SOL    HW124566   4.072   4.228   9.512  0.9705  1.7159  1.0654
 4368SOL    HW224567   4.129   4.211   9.650 -1.9946  0.6579 -0.2609
 4369SOL     OW24568   4.696   4.325   5.456  0.3427  0.3542  0.2307
 4369SOL    HW124569   0.015   4.275   5.526 -0.2145 -2.6247 -1.5478
 4369SOL    HW224570   4.654   4.400   5.497 -0.5637  0.1626 -0.3513
 4370SOL     OW24571   4.285   4.693   6.963 -0.2048 -0.4745  0.0396
 4370SOL    HW124572   4.212   0.004   7.014  2.2163  1.9064  1.8697
 4370SOL    HW224573   4.357   0.029   6.987  1.0389 -0.9974 -2.3437
 4371SOL     OW24574   1.363   3.854   7.437  0.4968  0.0921  0.1748
 4371SOL    HW124575   1.326   3.769   7.463  1.9530 -0.3954  0.6742
 4371SOL    HW224576   1.436   3.853   7.499  0.1940 -2.3669  0.4982
 4372SOL     OW24577   0.441   4.708  14.202  0.0683  0.1175 -0.0918
 4372SOL    HW124578   0.361   0.002  14.252 -1.1292 -0.0910 -1.9316
 4372SOL    HW224579   0.482   4.647  14.263  1.1447  2.2208  1.2581
 4373SOL     OW24580   3.749   0.546   3.063 -0.5299  0.3121 -0.2741
 4373SOL    HW124581   3.842   0.541   3.041  0.0073 -0.9568  2.3107
 4373SOL    HW224582   3.735   0.625   3.115  1.1549  1.6394 -1.8310
 4374SOL     OW24583   2.901   4.428  15.789 -0.2805  0.2583  0.1149
 4374SOL    HW124584   2.807   4.444  15.782 -0.5665 -2.3029 -1.9674
 4374SOL    HW224585   2.902   4.337  15.758 -0.9202  0.2431  0.1499
 4375SOL     OW24586   2.419   1.207  14.169  0.5735 -0.2133 -0.6123
 4375SOL    HW124587   2.457   1.195  14.081  2.3509 -2.2440  0.4321
 4375SOL    HW224588   2.401   1.301  14.175  1.2386 -0.0115 -1.6218
 4376SOL     OW24589   3.073   2.721  14.154  0.1230  0.4496 -0.1893
 4376SOL    HW124590   2.994   2.669  14.138  1.9906 -1.4358 -3.3413
 4376SOL    HW224591   3.127   2.713  14.075  0.4278 -1.3584  0.1969
 4377SOL     OW24592   1.217   3.171   3.369  0.1344 -0.3961 -0.1872
 4377SOL    HW124593   1.162   3.110   3.320 -1.7962  1.2481 -0.0737
 4377SOL    HW224594   1.238   3.239   3.305  2.6411 -0.3772  0.6457
 4378SOL     OW24595   2.940   3.420   1.584 -0.1096  0.3214 -0.0051
 4378SOL    HW124596   2.907   3.333   1.607 -1.8273  1.5665  2.2439
 4378SOL    HW224597   2.896   3.434   1.500 -3.3668  0.1453  1.6590
 4379SOL     OW24598   4.283   1.421   9.115 -0.1548  0.2399  0.3445
 4379SOL    HW124599   4.374   1.449   9.116 -0.2981  0.7334 -0.8575
 4379SOL    HW224600   4.293   1.332   9.150  1.3823 -0.0708 -0.9187
 4380SOL     OW24601   4.356   4.222   9.213  0.0795  0.7394 -0.1016
 4380SOL    HW124602   4.396   4.224   9.300 -1.3007  1.3124  0.5375
 4380SOL    HW224603   4.370   4.130   9.194 -0.3320  1.0064 -1.6601
 4381SOL     OW24604   0.217   3.084   9.351 -0.2053 -0.7168 -0.8579
 4381SOL    HW124605   0.303   3.061   9.385 -0.8752  0.8644  1.9047
 4381SOL    HW224606   0.237   3.168   9.310  0.0582 -0.1257  0.4630
 4382SOL     OW24607   2.269   1.511   4.959 -0.2964 -0.0692  0.4992
 4382SOL    HW124608   2.208   1.444   4.928 -1.5170  1.4546 -0.4462
 4382SOL    HW224609   2.279   1.489   5.052  0.6944 -1.2342  0.1047
 4383SOL     OW24610   4.221   4.446   0.938 -0.2843  0.3087  0.0511
 4383SOL    HW124611   4.214   4.370   0.881 -2.8913  0.0721  0.6643
 4383SOL    HW224612   4.153   4.510   0.915  0.7230  0.0340 -3.7444
 4384SOL     OW24613   2.381   3.784   1.735  0.0452  0.4453 -0.2190
 4384SOL    HW124614   2.359   3.741   1.818 -0.7806 -1.1598 -1.2651
 4384SOL    HW224615   2.396   3.875   1.761 -2.9603  0.3197  1.9370
 4385SOL     OW24616   1.615   3.769   1.545  0.0512 -0.9241  0.1138
 4385SOL    HW124617   1.626   3.680   1.577  1.5581 -0.7972 -0.0639
 4385SOL    HW224618   1.699   3.771   1.500 -0.7330  0.0713 -1.2997
 4386SOL     OW24619   0.650   2.890   6.321  0.0296 -0.2838  0.0910
 4386SOL    HW124620   0.703   2.872   6.243 -1.6386 -0.9158 -0.8984
 4386SOL    HW224621   0.653   2.985   6.325 -1.1155 -0.2422  0.0115
 4387SOL     OW24622   3.983   2.191  13.692 -0.6087  0.0874  0.4783
 4387SOL    HW124623   3.928   2.116  13.712 -1.3180  0.7985  1.2029
 4387SOL    HW224624   3.949   2.254  13.756 -0.0121  2.0692 -1.1254
 4388SOL     OW24625   0.140   4.412  11.284  0.1012  0.2526  0.0134
 4388SOL    HW124626   0.097   4.450  11.207 -1.9236 -0.9034  0.5791
 4388SOL    HW224627   0.085   4.335  11.297  0.9028  0.5763  5.2425
 4389SOL     OW24628   3.464   3.176   5.420  0.0535  0.7161 -0.1979
 4389SOL    HW124629   3.446   3.139   5.333  0.7731 -0.3092  0.1007
 4389SOL    HW224630   3.387   3.232   5.429  0.0639  0.4501  1.4597
 4390SOL     OW24631   0.162   2.547  11.918 -0.4101 -0.0353  0.6137
 4390SOL    HW124632   0.133   2.526  12.006  0.4239 -1.0059  0.6587
 4390SOL    HW224633   0.235   2.485  11.922  2.2487  3.0303 -0.2482
 4391SOL     OW24634   1.885   2.501   2.709 -0.1338 -0.4891 -0.4642
 4391SOL    HW124635   1.878   2.452   2.628  0.4918 -0.4713 -0.5317
 4391SOL    HW224636   1.805   2.552   2.706  0.1947  0.1523  1.7041
 4392SOL     OW24637   3.727   0.342  16.164 -0.0788  0.2718 -0.0532
 4392SOL    HW124638   3.653   0.401  16.179  0.2116  0.7958 -0.7151
 4392SOL    HW224639   3.745   0.345  16.070 -0.5465  0.4927 -0.1330
 4393SOL     OW24640   3.890   0.934   3.526 -0.2028  1.0236 -0.8533
 4393SOL    HW124641   3.967   0.951   3.473  0.5284 -0.5071 -0.2829
 4393SOL    HW224642   3.885   1.019   3.571 -2.9195  0.3500  0.1471
 4394SOL     OW24643   2.972   0.798   3.989  0.6711  0.2996  1.1752
 4394SOL    HW124644   2.931   0.884   3.981  0.0003 -0.0510  0.9128
 4394SOL    HW224645   3.034   0.803   3.917  0.6100 -1.1320  1.0315
 4395SOL     OW24646   3.738   1.132  12.632  0.5213  0.1132 -0.3008
 4395SOL    HW124647   3.754   1.189  12.557  0.1866 -0.5459 -0.8680
 4395SOL    HW224648   3.795   1.183  12.690 -0.8911  0.1888  1.0162
 4396SOL     OW24649   2.391   3.248   5.058 -0.3963  0.3355  0.5119
 4396SOL    HW124650   2.449   3.320   5.034  0.6245 -1.4453 -2.2542
 4396SOL    HW224651   2.376   3.259   5.152  0.7926 -0.7470  0.8300
 4397SOL     OW24652   1.694   1.509   5.344 -0.0598 -0.2596 -0.4253
 4397SOL    HW124653   1.616   1.540   5.297 -1.0545 -0.1970  1.2844
 4397SOL    HW224654   1.761   1.498   5.276  0.1084  1.9212 -0.6287
 4398SOL     OW24655   1.766   3.654   6.821  0.3994 -0.5007  0.3774
 4398SOL    HW124656   1.805   3.581   6.871  1.6363  0.6160  1.0530
 4398SOL    HW224657   1.679   3.614   6.823  0.6190 -0.8863  2.5105
 4399SOL     OW24658   4.321   4.185   6.911 -0.0172  0.3249 -0.2381
 4399SOL    HW124659   4.303   4.163   6.820  2.0683  1.8822 -1.0317
 4399SOL    HW224660   4.343   4.278   6.904  0.2907  0.3007  0.4046
 4400SOL     OW24661   3.431   2.038   6.799  0.1209 -0.0454 -0.3783
 4400SOL    HW124662   3.492   2.085   6.742  0.0805  1.8404  1.1405
 4400SOL    HW224663   3.345   2.068   6.771 -0.9768 -3.0829 -0.2748
 4401SOL     OW24664   4.039   0.764  14.306 -0.2552 -0.4383 -0.3694
 4401SOL    HW124665   4.114   0.820  14.285 -2.2408  2.5445  0.4503
 4401SOL    HW224666   4.069   0.684  14.264 -1.9829 -2.2301  1.8534
 4402SOL     OW24667   0.691   2.436   4.753 -0.7104 -0.4155  0.4892
 4402SOL    HW124668   0.682   2.488   4.673 -0.0562 -0.5476  0.3303
 4402SOL    HW224669   0.657   2.501   4.815 -0.6679  2.7820 -2.8577
 4403SOL     OW24670   3.750   0.193   5.272 -0.3717 -0.7256 -0.5313
 4403SOL    HW124671   3.801   0.135   5.214  0.7624  0.0224 -0.2868
 4403SOL    HW224672   3.753   0.278   5.227  0.8808  0.2850  1.4784
 4404SOL     OW24673   3.840   1.352   4.734 -0.5237  0.3473  0.0851
 4404SOL    HW124674   3.917   1.299   4.755  0.0606  1.3865  0.5897
 4404SOL    HW224675   3.860   1.424   4.794 -1.1083  0.8119 -0.2823
 4405SOL     OW24676   2.360   3.973   4.904 -0.1364  0.0369 -0.4177
 4405SOL    HW124677   2.265   3.956   4.900  0.0634 -0.3681 -3.3512
 4405SOL    HW224678   2.380   3.948   4.994 -1.4862  2.0706  0.4423
 4406SOL     OW24679   3.892   0.141  12.615 -0.0944 -0.2232 -0.0565
 4406SOL    HW124680   3.975   0.139  12.568  0.0890 -2.0607  0.3312
 4406SOL    HW224681   3.872   0.234  12.611  4.0039  0.7370  1.8767
 4407SOL     OW24682   4.306   3.647  12.683 -0.0788  0.3838 -0.0619
 4407SOL    HW124683   4.242   3.645  12.612  1.7556  0.8765 -1.7251
 4407SOL    HW224684   4.317   3.741  12.694 -0.5344  0.4249 -0.0002
 4408SOL     OW24685   0.534   0.765   7.896 -0.4882  0.1859  0.6963
 4408SOL    HW124686   0.456   0.790   7.945 -0.1063  0.8182  0.9811
 4408SOL    HW224687   0.599   0.787   7.963 -1.1022  1.8981  0.7220
 4409SOL     OW24688   2.673   0.580   4.074  0.2661  0.2913  0.5022
 4409SOL    HW124689   2.745   0.564   4.135 -0.1431 -2.4527  0.2520
 4409SOL    HW224690   2.630   0.653   4.118  0.6734  0.3286  0.8369
 4410SOL     OW24691   4.575   2.356   4.889  0.0230 -0.7395 -0.3921
 4410SOL    HW124692   4.604   2.416   4.820 -2.4669  1.2474  0.2853
 4410SOL    HW224693   4.503   2.400   4.934  1.9905  0.8360  1.2636
 4411SOL     OW24694   2.149   1.115   2.424 -0.6032  0.1020 -0.4083
 4411SOL    HW124695   2.140   1.050   2.354  0.3032  0.5171 -0.9263
 4411SOL    HW224696   2.233   1.088   2.462 -1.4175 -2.5329 -0.5052
 4412SOL     OW24697   2.613   0.902   8.624 -0.0570  0.4458 -0.2843
 4412SOL    HW124698   2.587   0.974   8.567 -0.9667 -0.3617 -0.8911
 4412SOL    HW224699   2.596   0.828   8.565 -0.7359 -0.5501  1.1575
 4413SOL     OW24700   3.766   1.092   5.530  0.1942  0.3008 -0.2998
 4413SOL    HW124701   3.691   1.041   5.560  0.6590 -2.6151 -4.1094
 4413SOL    HW224702   3.823   1.017   5.512 -1.2108 -0.8291 -0.0230
 4414SOL     OW24703   4.199   3.669   9.644 -0.0313  0.4304 -0.2483
 4414SOL    HW124704   4.134   3.712   9.590  0.7948 -0.4367 -1.9455
 4414SOL    HW224705   4.204   3.724   9.722 -0.2491  0.4917 -0.2789
 4415SOL     OW24706   0.920   2.232   2.615  0.1472 -0.1778 -0.3613
 4415SOL    HW124707   0.952   2.142   2.624 -0.7010 -0.4028  0.4733
 4415SOL    HW224708   0.841   2.210   2.565  0.9661  1.5801 -2.4154
 4416SOL     OW24709   2.333   2.353  11.139  0.0160  0.7780  0.5038
 4416SOL    HW124710   2.398   2.292  11.173  0.2721  0.8160  0.0830
 4416SOL    HW224711   2.279   2.371  11.217 -1.4656  0.0257 -0.3446
 4417SOL     OW24712   1.652   2.742  10.675  0.2879 -0.7088 -0.0152
 4417SOL    HW124713   1.625   2.744  10.584  0.4540 -4.0758 -0.1122
 4417SOL    HW224714   1.638   2.650  10.699 -2.6199 -0.1039  0.6606
 4418SOL     OW24715   3.110   2.979  16.585 -0.0272 -0.0104 -0.3033
 4418SOL    HW124716   3.100   2.934  16.669 -3.2815 -3.9107 -2.8415
 4418SOL    HW224717   3.030   2.950  16.541  0.1011 -2.5805  1.2110
 4419SOL     OW24718   3.860   3.588   0.459  0.3995  0.7808  0.0223
 4419SOL    HW124719   3.951   3.557   0.465 -0.6756 -2.4513 -0.4274
 4419SOL    HW224720   3.858   3.655   0.528 -0.0056 -0.2099  0.9748
 4420SOL     OW24721   2.304   1.006   8.774  0.0845  0.4365 -0.0034
 4420SOL    HW124722   2.382   1.044   8.814 -0.5042  1.1243  0.4937
 4420SOL    HW224723   2.323   0.997   8.681 -1.5502  1.3168 -0.4256
 4421SOL     OW24724   4.335   4.305   0.304  0.4170 -0.5196  0.2952
 4421SOL    HW124725   4.352   4.224   0.352 -1.0840 -1.2670 -0.4543
 4421SOL    HW224726   4.421   4.344   0.322  0.5570 -0.6079 -0.1651
 4422SOL     OW24727   3.965   1.332   3.923  0.5844  0.1568  0.2304
 4422SOL    HW124728   4.015   1.252   3.906  0.0310  0.1824 -1.5180
 4422SOL    HW224729   4.007   1.398   3.868 -0.0506  0.1001 -0.3167
 4423SOL     OW24730   2.237   0.069   6.824 -0.0352 -0.2274 -0.0895
 4423SOL    HW124731   2.309   0.006   6.815  0.4320  0.4593 -1.1337
 4423SOL    HW224732   2.248   0.092   6.917  1.5429 -3.5725  0.5543
 4424SOL     OW24733   3.199   1.239   0.887 -0.3240  0.2665 -0.4035
 4424SOL    HW124734   3.200   1.230   0.982  1.2937  1.0668 -0.3328
 4424SOL    HW224735   3.113   1.203   0.865 -1.1545  0.9123  1.8164
 4425SOL     OW24736   0.145   0.353   2.712 -0.0595 -0.0765 -0.0207
 4425SOL    HW124737   0.194   0.351   2.630 -0.1764  0.7896 -0.1064
 4425SOL    HW224738   0.107   0.266   2.702  2.2819 -1.0033 -0.8571
 4426SOL     OW24739   2.324   3.272   5.342  0.3872 -0.0436 -0.5583
 4426SOL    HW124740   2.379   3.286   5.420 -0.1103 -3.8468  0.4855
 4426SOL    HW224741   2.288   3.183   5.348 -1.0021  0.6905  2.2341
 4427SOL     OW24742   3.078   1.188   5.552  0.3189 -0.0617  0.1525
 4427SOL    HW124743   3.102   1.210   5.642  0.0287 -1.8635  0.6653
 4427SOL    HW224744   2.984   1.171   5.562 -0.3459  0.9289 -4.4601
 4428SOL     OW24745   3.429   4.252   9.738  0.0286 -0.1577  0.1026
 4428SOL    HW124746   3.439   4.193   9.664  1.4716 -0.8051  0.8013
 4428SOL    HW224747   3.443   4.335   9.694 -1.8826 -0.2774 -0.7184
 4429SOL     OW24748   1.219   2.708   4.509 -0.3098  0.1604 -0.3986
 4429SOL    HW124749   1.176   2.670   4.585  2.3723 -1.2453  0.4146
 4429SOL    HW224750   1.145   2.727   4.451 -2.3132 -0.1119  2.0392
 4430SOL     OW24751   3.042   1.615   4.960  0.6928 -0.0965  0.3605
 4430SOL    HW124752   3.057   1.702   4.997  0.4913 -0.0627  0.3632
 4430SOL    HW224753   2.952   1.608   4.992  1.4125 -3.4539  1.6339
 4431SOL     OW24754   1.934   2.153  16.199  0.1476  0.3146 -0.0732
 4431SOL    HW124755   1.886   2.071  16.193  0.4936  0.0929  0.2046
 4431SOL    HW224756   2.017   2.130  16.239 -0.2697 -0.5548  0.2870
 4432SOL     OW24757   1.517   2.675   2.748  0.0873 -0.2788  0.2649
 4432SOL    HW124758   1.552   2.754   2.790 -2.9991  1.5348 -0.5862
 4432SOL    HW224759   1.572   2.674   2.670  0.8343  1.3772  0.7607
 4433SOL     OW24760   0.282   3.587   2.815 -0.1684  0.1238 -0.5013
 4433SOL    HW124761   0.223   3.650   2.856 -0.9790 -0.8201 -0.1989
 4433SOL    HW224762   0.242   3.559   2.732 -0.8251 -2.2507  0.6345
 4434SOL     OW24763   1.143   3.877   3.775 -0.4885 -0.1158 -0.0630
 4434SOL    HW124764   1.134   3.801   3.719 -2.0925 -0.0135  0.0706
 4434SOL    HW224765   1.191   3.835   3.847 -2.9327  0.1245  1.7128
 4435SOL     OW24766   3.363   2.935  14.171 -0.3920 -0.1312  0.0611
 4435SOL    HW124767   3.271   2.912  14.159 -0.0285 -0.3824 -2.2704
 4435SOL    HW224768   3.362   3.027  14.145  1.3031  0.3186  1.5527
 4436SOL     OW24769   4.716   2.747   2.478 -0.3985 -0.4795 -0.0835
 4436SOL    HW124770   4.711   2.791   2.562 -0.6601 -1.1733  0.2648
 4436SOL    HW224771   4.632   2.700   2.481  0.7885 -2.4808  1.8406
 4437SOL     OW24772   0.215   3.274   7.889 -0.1818 -0.1253  0.6145
 4437SOL    HW124773   0.166   3.200   7.853 -0.8496 -0.5202  2.3360
 4437SOL    HW224774   0.269   3.294   7.813  0.4729 -0.1796  1.0695
 4438SOL     OW24775   3.902   0.362   4.595 -0.2625  0.0145 -0.1153
 4438SOL    HW124776   3.960   0.337   4.667 -0.3702  1.0074  0.3155
 4438SOL    HW224777   3.973   0.356   4.531 -0.0855  1.3147 -0.0527
 4439SOL     OW24778   2.866   1.275  16.506 -0.4084 -0.3884  0.2120
 4439SOL    HW124779   2.813   1.195  16.511 -1.4515  0.2388 -0.9346
 4439SOL    HW224780   2.954   1.237  16.504  0.4529  1.5844  0.7807
 4440SOL     OW24781   1.975   4.638   1.698 -0.3758 -0.4089 -0.2741
 4440SOL    HW124782   2.062   4.660   1.663 -1.3662  0.8622 -1.8988
 4440SOL    HW224783   1.926   4.651   1.617  0.6675  1.6512 -0.5629
 4441SOL     OW24784   4.240   0.002   1.857 -0.0500 -0.1737  0.0073
 4441SOL    HW124785   4.279   4.655   1.804 -0.2025 -0.6233  0.4961
 4441SOL    HW224786   4.147   4.709   1.845 -0.2603 -0.1835  1.6197
 4442SOL     OW24787   1.210   0.912   6.203  0.6592 -0.1249 -0.3375
 4442SOL    HW124788   1.300   0.882   6.187  0.0395 -1.8688 -0.5259
 4442SOL    HW224789   1.230   0.971   6.275 -1.2207  0.3313 -0.2018
 4443SOL     OW24790   3.761   0.555   1.657  0.6053  0.7079  0.3011
 4443SOL    HW124791   3.846   0.599   1.650  0.7926  0.0880 -1.1887
 4443SOL    HW224792   3.741   0.525   1.569  1.9296  3.1442 -0.8258
 4444SOL     OW24793   0.163   1.032   0.111  0.2328 -0.4769  0.2879
 4444SOL    HW124794   0.221   1.042   0.187 -1.3473  1.0950  1.2918
 4444SOL    HW224795   0.075   1.035   0.148  0.9254  0.1215  1.9206
 4445SOL     OW24796   2.862   0.072   3.613 -0.2732  0.6780 -0.0009
 4445SOL    HW124797   2.853   4.707   3.648  0.0059  1.0561  1.0359
 4445SOL    HW224798   2.934   0.102   3.669 -1.5137  0.2332  1.8519
 4446SOL     OW24799   4.618   1.435   7.865  0.1828 -0.1692  0.1120
 4446SOL    HW124800   4.648   1.420   7.776 -0.3057 -0.8158  0.0597
 4446SOL    HW224801   4.530   1.403   7.883 -0.3580  1.1039 -0.2069
 4447SOL     OW24802   1.935   3.980   2.533 -0.0203 -0.1620 -0.0260
 4447SOL    HW124803   2.029   3.995   2.521 -0.1231  2.5267  2.7092
 4447SOL    HW224804   1.922   4.045   2.601  2.5644  1.2101 -0.8314
 4448SOL     OW24805   2.160   2.125  15.894  0.1849 -0.2303  0.2096
 4448SOL    HW124806   2.121   2.191  15.951  0.2750 -0.0439  0.0557
 4448SOL    HW224807   2.113   2.147  15.813 -0.2048 -2.7839 -0.2782
 4449SOL     OW24808   2.998   3.837   4.156  0.5219  0.1274 -0.3102
 4449SOL    HW124809   3.059   3.885   4.211 -1.2749  2.0274  0.0359
 4449SOL    HW224810   3.064   3.788   4.107  0.3399  2.0519 -2.4767
 4450SOL     OW24811   1.369   0.918   1.216  0.1516 -0.1768 -0.0535
 4450SOL    HW124812   1.292   0.975   1.220 -0.5993 -1.0514 -2.2904
 4450SOL    HW224813   1.431   0.962   1.158 -0.3375  0.8661  0.2037
 4451SOL     OW24814   0.782   0.465  12.263  0.7547  0.7514  0.5424
 4451SOL    HW124815   0.778   0.412  12.343  0.7622 -0.1053 -0.0291
 4451SOL    HW224816   0.734   0.540  12.299  0.1216  0.5375  0.1397
 4452SOL     OW24817   1.774   4.181   2.232  0.0171 -0.3526 -0.1954
 4452SOL    HW124818   1.697   4.231   2.258  0.1680  0.2137 -0.8599
 4452SOL    HW224819   1.786   4.194   2.138 -0.9183  1.0358 -0.1210
 4453SOL     OW24820   1.165   0.183   5.656  1.0355 -0.7476  0.1025
 4453SOL    HW124821   1.106   0.229   5.716  1.6680 -0.4995  0.5262
 4453SOL    HW224822   1.247   0.230   5.671 -0.6932  2.3029 -0.0372
 4454SOL     OW24823   4.327   3.629   2.852  0.2566  0.0330  0.2379
 4454SOL    HW124824   4.288   3.693   2.793  2.2573 -0.0082 -1.1320
 4454SOL    HW224825   4.258   3.562   2.856  0.7638 -0.4124  1.7329
 4455SOL     OW24826   3.822   1.436   6.463  0.0206 -0.2861 -0.0306
 4455SOL    HW124827   3.790   1.510   6.515  0.8306 -0.5069  0.7902
 4455SOL    HW224828   3.837   1.379   6.539  0.6333 -2.0121 -1.4481
 4456SOL     OW24829   1.992   2.446   1.085  1.1066 -0.7170 -0.2531
 4456SOL    HW124830   1.902   2.429   1.058  1.0769 -0.2166 -0.4749
 4456SOL    HW224831   2.021   2.497   1.009 -1.4200 -2.7537 -2.5649
 4457SOL     OW24832   1.976   3.297   5.007 -0.0216  0.0139  0.3895
 4457SOL    HW124833   1.974   3.358   4.933 -2.6964  0.1366  0.5765
 4457SOL    HW224834   1.996   3.221   4.952  1.1390  0.5396  0.0687
 4458SOL     OW24835   2.091   3.787   8.564 -0.0574 -0.0287  0.2722
 4458SOL    HW124836   2.181   3.755   8.565 -0.4147 -1.0034  1.2474
 4458SOL    HW224837   2.093   3.842   8.643 -1.1853 -0.4079  0.5677
 4459SOL     OW24838   3.113   3.697   6.994 -0.1617  0.4436  0.0522
 4459SOL    HW124839   3.160   3.781   6.991  2.8057 -1.2582 -0.7491
 4459SOL    HW224840   3.181   3.632   6.979 -0.9992 -0.6793  1.0690
 4460SOL     OW24841   2.517   2.337   6.618  0.6350 -0.3974 -0.6700
 4460SOL    HW124842   2.533   2.316   6.710  1.1971 -2.0514 -1.1488
 4460SOL    HW224843   2.540   2.256   6.573  0.9312  0.1982 -1.6094
 4461SOL     OW24844   1.199   1.666  13.635  0.1141 -0.0516 -0.2472
 4461SOL    HW124845   1.253   1.614  13.694  1.1751 -1.4706 -2.4542
 4461SOL    HW224846   1.201   1.612  13.556 -1.3003 -0.1415 -0.2236
 4462SOL     OW24847   1.089   3.698   2.961 -0.0661  0.3614 -0.0384
 4462SOL    HW124848   1.147   3.629   2.928  1.4906  1.1408  1.0617
 4462SOL    HW224849   1.152   3.760   2.998 -0.3122  0.4505  0.2297
 4463SOL     OW24850   2.643   2.960   7.511 -0.1138 -0.8010  0.6192
 4463SOL    HW124851   2.701   2.965   7.435 -1.2124  0.0847 -0.1733
 4463SOL    HW224852   2.629   3.054   7.527  1.8810 -0.0920 -1.7509
 4464SOL     OW24853   0.197   2.617   1.519  0.3540  0.0666  0.2411
 4464SOL    HW124854   0.177   2.525   1.537  2.6336 -0.6324 -0.7383
 4464SOL    HW224855   0.181   2.621   1.425 -1.6828  2.3952  0.6947
 4465SOL     OW24856   4.650   3.668   7.230  0.2298  0.1404  0.1035
 4465SOL    HW124857   4.682   3.651   7.319 -1.3089 -1.3897  0.3640
 4465SOL    HW224858   4.719   3.725   7.195 -0.4931  0.9068 -0.0787
 4466SOL     OW24859   2.480   0.109   4.383 -0.4462  0.9856  0.2842
 4466SOL    HW124860   2.479   0.184   4.443 -0.6799  1.9310 -0.8928
 4466SOL    HW224861   2.448   0.161   4.309  2.2450 -1.1832 -2.3981
 4467SOL     OW24862   0.985   3.649   2.550  0.1966  0.4755  0.2752
 4467SOL    HW124863   0.901   3.682   2.518  0.0210 -1.4739 -1.2744
 4467SOL    HW224864   1.036   3.642   2.469 -1.3079 -2.4782 -0.3917
 4468SOL     OW24865   4.286   0.206   2.068  0.2876  0.6427  0.3021
 4468SOL    HW124866   4.297   0.205   2.163  0.8857  2.4170  0.2539
 4468SOL    HW224867   4.276   0.112   2.058  0.3122  0.7185 -0.5045
 4469SOL     OW24868   2.607   1.136   4.207  0.2061  0.0759  0.1418
 4469SOL    HW124869   2.562   1.172   4.284 -0.9808  0.5800 -0.7830
 4469SOL    HW224870   2.638   1.210   4.155 -3.0728  1.8093  0.6361
 4470SOL     OW24871   3.395   4.157   6.311 -0.4038 -0.1139 -0.1439
 4470SOL    HW124872   3.463   4.133   6.247  0.2856 -0.2107  0.6317
 4470SOL    HW224873   3.324   4.179   6.250  0.3137 -1.3322 -1.4283
 4471SOL     OW24874   4.495   3.466  13.292  0.4160 -0.6108 -0.0782
 4471SOL    HW124875   4.576   3.475  13.341  0.4356  1.3250 -0.4642
 4471SOL    HW224876   4.507   3.520  13.214  0.8511 -3.1471 -1.8052
 4472SOL     OW24877   3.110   3.046   4.280 -0.3127 -0.2562 -0.2662
 4472SOL    HW124878   3.088   2.956   4.305  2.6485 -1.3236 -1.5442
 4472SOL    HW224879   3.021   3.069   4.253 -1.3152 -4.1020 -0.3751
 4473SOL     OW24880   0.179   2.179   8.690 -0.3408  0.1734 -0.2551
 4473SOL    HW124881   0.103   2.194   8.634 -0.6680 -1.1761 -0.1857
 4473SOL    HW224882   0.223   2.121   8.627 -2.5055 -0.6307 -1.0294
 4474SOL     OW24883   2.408   2.184   8.543 -0.2520  0.9763 -0.2542
 4474SOL    HW124884   2.320   2.208   8.569 -1.5056 -1.1271 -2.5209
 4474SOL    HW224885   2.392   2.094   8.514  1.4438  0.5340  0.1731
 4475SOL     OW24886   0.686   1.015   2.101 -0.3157  0.4629 -0.8642
 4475SOL    HW124887   0.753   0.982   2.161 -0.3863  0.1445 -0.9651
 4475SOL    HW224888   0.627   0.940   2.097 -0.6096  0.6329  0.1043
 4476SOL     OW24889   0.870   0.672   2.190 -0.1106 -0.0202 -0.2470
 4476SOL    HW124890   0.775   0.671   2.179  0.1685  1.3244 -2.8702
 4476SOL    HW224891   0.901   0.738   2.128 -0.7425  0.7733  0.2795
 4477SOL     OW24892   1.060   0.322   9.161 -0.0501 -0.0981 -0.3490
 4477SOL    HW124893   1.054   0.264   9.237 -2.1800 -0.0991 -0.5169
 4477SOL    HW224894   1.145   0.298   9.125 -0.3605  0.4888 -1.4589
 4478SOL     OW24895   2.292   3.356   6.490 -0.0406 -0.3842  0.0264
 4478SOL    HW124896   2.332   3.406   6.561 -1.2268  1.7206 -0.8179
 4478SOL    HW224897   2.360   3.352   6.423 -0.6500  2.8555 -0.7758
 4479SOL     OW24898   4.562   3.672   6.024 -0.5670 -0.2703  0.3274
 4479SOL    HW124899   4.583   3.756   6.066 -2.2202 -0.2141  1.0697
 4479SOL    HW224900   4.629   3.665   5.956 -1.3549  0.7959 -0.5520
 4480SOL     OW24901   2.016   0.458  11.140  0.1698  0.6108 -0.0035
 4480SOL    HW124902   2.054   0.436  11.225 -0.0768  0.1566 -0.0149
 4480SOL    HW224903   2.078   0.444  11.069 -0.0945 -0.8980  0.0643
 4481SOL     OW24904   4.287   1.097   7.301  0.2418 -0.5303  0.2791
 4481SOL    HW124905   4.360   1.156   7.320  0.1279 -0.9105  1.8797
 4481SOL    HW224906   4.312   1.079   7.211 -0.1281  1.8695 -0.3123
 4482SOL     OW24907   1.415   2.409  10.397 -0.6068 -0.0723  0.3598
 4482SOL    HW124908   1.502   2.444  10.378 -1.4931  1.7622 -0.3042
 4482SOL    HW224909   1.434   2.354  10.473  2.7611  2.1259  1.1123
 4483SOL     OW24910   2.666   3.916   7.546  0.7376 -0.5234  0.2274
 4483SOL    HW124911   2.673   3.984   7.479  1.3355  1.3796  2.2354
 4483SOL    HW224912   2.637   3.966   7.622  0.7144  0.3344 -0.3413
 4484SOL     OW24913   0.925   3.946  13.065  0.2082 -0.1358  0.4767
 4484SOL    HW124914   0.897   4.008  13.133  1.6790  1.8351 -0.7277
 4484SOL    HW224915   0.961   3.871  13.112  0.7798  0.4216  0.9247
 4485SOL     OW24916   2.052   0.735  11.288 -0.3964  0.0772  0.2706
 4485SOL    HW124917   2.050   0.640  11.279 -1.6662  0.0377  0.8540
 4485SOL    HW224918   2.061   0.759  11.196  1.6758 -1.1357  0.1616
 4486SOL     OW24919   3.897   4.497  17.475 -0.0333  0.3342 -0.5244
 4486SOL    HW124920   3.925   4.480  17.564  0.0771 -0.1788 -0.6587
 4486SOL    HW224921   3.945   4.578  17.457 -1.4962  1.2104 -0.4409
 4487SOL     OW24922   1.624   3.443   6.361  0.0723  0.1633  0.1295
 4487SOL    HW124923   1.565   3.394   6.419 -0.5849 -0.8858 -1.4041
 4487SOL    HW224924   1.566   3.506   6.318  0.8885  0.8758  0.0901
 4488SOL     OW24925   3.244   3.877   8.624 -0.1470 -1.1359  0.0066
 4488SOL    HW124926   3.273   3.818   8.555  1.8506  1.5853 -1.5085
 4488SOL    HW224927   3.268   3.963   8.589 -1.1157 -0.4254  1.0573
 4489SOL     OW24928   2.450   2.471   7.269  0.2867  0.5249 -0.0833
 4489SOL    HW124929   2.462   2.529   7.344 -3.5014  0.2840  0.7151
 4489SOL    HW224930   2.356   2.475   7.251  0.3368 -0.9037 -0.7015
 4490SOL     OW24931   2.585   1.198  11.120  0.6201  0.5963  0.0678
 4490SOL    HW124932   2.534   1.276  11.143 -0.2101 -0.1880  0.8710
 4490SOL    HW224933   2.510   1.147  11.089 -0.1024  1.6211  0.1270
 4491SOL     OW24934   1.466   4.389   7.366 -0.3253  0.4190  0.1348
 4491SOL    HW124935   1.374   4.371   7.347 -0.3089 -0.7279  1.1255
 4491SOL    HW224936   1.460   4.481   7.391  1.3842  0.4268  0.5625
 4492SOL     OW24937   3.690   4.713   2.985  0.2191  0.6945  0.1830
 4492SOL    HW124938   3.770   0.028   3.018  0.4305  1.3456 -1.0925
 4492SOL    HW224939   3.686   0.023   2.895  1.7121  1.5254  0.4319
 4493SOL     OW24940   1.585   0.973  15.925  0.4692  0.6913  0.2403
 4493SOL    HW124941   1.524   0.906  15.957 -0.4037  0.7721 -1.2492
 4493SOL    HW224942   1.623   0.927  15.850 -2.4726 -1.0142 -0.2155
 4494SOL     OW24943   0.846   2.369   2.127 -0.5674  0.6119  0.2475
 4494SOL    HW124944   0.864   2.307   2.056  0.5419  0.1737  0.9088
 4494SOL    HW224945   0.892   2.327   2.199 -1.9640 -1.8866 -0.3374
 4495SOL     OW24946   4.232   0.460  13.942 -0.0344  0.3863  0.1534
 4495SOL    HW124947   4.156   0.476  13.886 -0.3145 -1.2288  0.0874
 4495SOL    HW224948   4.304   0.438  13.883 -0.6482  0.0213 -0.4758
 4496SOL     OW24949   0.494   1.799   6.111 -0.0256 -0.1593 -0.3559
 4496SOL    HW124950   0.548   1.847   6.048 -1.7537 -1.4668 -2.8510
 4496SOL    HW224951   0.548   1.769   6.184  0.1063 -3.9363 -1.9654
 4497SOL     OW24952   0.584   2.948   2.225 -0.7296  0.4766 -0.4163
 4497SOL    HW124953   0.513   2.947   2.288  1.5481 -1.3872  2.1001
 4497SOL    HW224954   0.562   3.030   2.180  1.7716  1.4771  0.1623
 4498SOL     OW24955   2.808   1.102   8.099  0.3383 -0.2516 -0.5800
 4498SOL    HW124956   2.809   1.165   8.171  1.6977  3.2310 -3.6686
 4498SOL    HW224957   2.892   1.116   8.057 -0.0036 -1.0478 -1.5270
 4499SOL     OW24958   2.896   3.621  11.758  0.0508 -0.0056  0.4504
 4499SOL    HW124959   2.814   3.628  11.808 -1.6935 -1.0526 -2.2059
 4499SOL    HW224960   2.872   3.555  11.693 -0.5984  0.6875 -0.0257
 4500SOL     OW24961   2.338   3.109   3.981 -0.1841  0.0732  0.0284
 4500SOL    HW124962   2.320   3.056   3.904  0.4322  0.1521 -0.1621
 4500SOL    HW224963   2.391   3.170   3.930  1.2120 -1.1975 -0.0260
 4501SOL     OW24964   1.343   0.663   7.639 -0.3171 -0.1214 -0.0306
 4501SOL    HW124965   1.382   0.751   7.637  1.0093 -0.6756  0.8497
 4501SOL    HW224966   1.414   0.619   7.686  1.0936  1.5817 -0.5884
 4502SOL     OW24967   3.669   4.012   1.198 -0.1082  0.1226  0.0750
 4502SOL    HW124968   3.754   4.049   1.173  1.1322 -2.2720  0.7731
 4502SOL    HW224969   3.665   3.942   1.133 -1.2477 -0.4166  0.7269
 4503SOL     OW24970   4.130   3.028  10.759  0.5056  0.3757 -0.0560
 4503SOL    HW124971   4.072   3.090  10.803 -1.8449 -3.7451  2.5791
 4503SOL    HW224972   4.208   3.084  10.753 -0.4516  1.7665  0.6281
 4504SOL     OW24973   3.314   4.139   4.741  0.1492  0.3195 -0.1466
 4504SOL    HW124974   3.258   4.121   4.816 -0.3841 -2.8971 -1.2920
 4504SOL    HW224975   3.402   4.156   4.777 -0.8754 -0.7296  2.8711
 4505SOL     OW24976   0.056   2.791   3.055 -0.0934  0.1347 -0.3515
 4505SOL    HW124977   0.116   2.725   3.020 -0.1431 -0.1072  0.0153
 4505SOL    HW224978   0.112   2.868   3.053 -0.5824  0.4609 -1.3048
 4506SOL     OW24979   3.213   4.410   1.897  0.5281 -0.1450 -0.0960
 4506SOL    HW124980   3.256   4.430   1.980  0.1272  0.5723 -0.0669
 4506SOL    HW224981   3.138   4.358   1.926  1.3453  0.3049  2.8425
 4507SOL     OW24982   0.571   0.315   4.193 -0.0764 -0.1176  0.0710
 4507SOL    HW124983   0.542   0.356   4.275 -0.6658  1.2996 -0.8642
 4507SOL    HW224984   0.657   0.356   4.183 -0.3622  0.2186 -0.9569
 4508SOL     OW24985   3.997   1.977   4.405  0.1739 -0.4302 -0.3455
 4508SOL    HW124986   4.011   2.069   4.382  0.1593 -0.5808 -0.9716
 4508SOL    HW224987   3.980   1.940   4.318  1.8538 -1.4448 -0.2267
 4509SOL     OW24988   0.489   1.587   4.436  0.2862  0.0306 -0.5186
 4509SOL    HW124989   0.459   1.514   4.490  1.9587  0.2798  0.7476
 4509SOL    HW224990   0.490   1.657   4.501  0.9969  0.5353 -1.0685
 4510SOL     OW24991   0.378   2.381   4.761 -0.3101 -0.4560 -0.0168
 4510SOL    HW124992   0.361   2.475   4.770  0.2302 -0.5312  1.7163
 4510SOL    HW224993   0.419   2.375   4.675  1.9589 -0.8619  1.1111
 4511SOL     OW24994   3.987   2.321   7.413  0.6307 -0.7501  0.5005
 4511SOL    HW124995   4.076   2.356   7.422  0.6549 -0.1191 -2.5036
 4511SOL    HW224996   3.948   2.352   7.495 -1.3961 -0.5830 -0.5516
 4512SOL     OW24997   4.073   0.837  14.788 -0.0957  0.4234  0.3429
 4512SOL    HW124998   4.014   0.781  14.737  0.3564  1.1680 -0.9913
 4512SOL    HW224999   4.090   0.911  14.729  0.3721 -0.0519 -0.1138
 4513SOL     OW25000   3.789   3.909  15.269  1.0944 -0.8482 -0.0547
 4513SOL    HW125001   3.736   3.946  15.198 -1.7794  0.4519  2.7186
 4513SOL    HW225002   3.858   3.866  15.219 -0.5145 -1.4473 -1.7892
 4514SOL     OW25003   0.442   2.966   7.885 -0.3065 -0.8894  0.3040
 4514SOL    HW125004   0.371   2.956   7.822  0.1989  0.5787 -0.4962
 4514SOL    HW225005   0.465   2.873   7.892 -0.4918 -0.8639  1.2958
 4515SOL     OW25006   1.066   2.906   4.326 -0.6299 -0.6489  0.1725
 4515SOL    HW125007   1.045   2.996   4.349  1.1612 -0.9685  3.0397
 4515SOL    HW225008   1.159   2.908   4.305 -0.4976  1.7724  1.0546
 4516SOL     OW25009   2.146   2.813   9.087 -0.0756 -0.1152 -0.1618
 4516SOL    HW125010   2.204   2.829   9.162  0.3056  0.0470 -0.4859
 4516SOL    HW225011   2.179   2.858   9.009  0.3220  0.8503  0.5581
 4517SOL     OW25012   2.094   4.234   5.990  0.3950  0.3150 -0.4420
 4517SOL    HW125013   2.138   4.293   6.052 -0.8694  1.3572 -0.5350
 4517SOL    HW225014   2.142   4.248   5.908  0.0090  0.8709 -0.5744
 4518SOL     OW25015   2.853   2.677  13.217  0.0191 -0.0676  0.7106
 4518SOL    HW125016   2.838   2.583  13.206 -0.8791  0.3795 -1.9801
 4518SOL    HW225017   2.869   2.709  13.128  2.4254  0.5974  1.3906
 4519SOL     OW25018   1.622   2.547   0.772 -0.3746 -0.0499  0.2064
 4519SOL    HW125019   1.636   2.599   0.851 -2.1460 -1.1419  1.2706
 4519SOL    HW225020   1.602   2.611   0.704  0.2855  2.1307  2.0766
 4520SOL     OW25021   1.584   0.261   8.445 -0.4909 -0.3540  0.0930
 4520SOL    HW125022   1.496   0.285   8.473 -0.1032  1.1536 -0.0072
 4520SOL    HW225023   1.636   0.280   8.522 -0.7494  1.7571 -0.2670
 4521SOL     OW25024   0.098   2.299   1.127 -0.1506  0.2332 -0.2128
 4521SOL    HW125025   0.110   2.224   1.070 -2.0252  0.3348 -0.7628
 4521SOL    HW225026   0.004   2.314   1.118  0.1016  1.2773 -1.1625
 4522SOL     OW25027   1.577   1.044   8.642 -0.2389 -0.5367  0.0620
 4522SOL    HW125028   1.651   1.096   8.674 -0.3463 -0.4724  0.2041
 4522SOL    HW225029   1.545   1.003   8.722 -1.6821  0.9515  0.2334
 4523SOL     OW25030   3.407   4.658   4.173 -0.3726 -0.2107 -0.0177
 4523SOL    HW125031   3.468   4.595   4.211 -0.3414 -0.3835 -0.3510
 4523SOL    HW225032   3.381   4.704   4.252 -0.4755 -0.0368 -0.1536
 4524SOL     OW25033   2.122   3.797   1.183 -0.1277  0.0726 -0.4401
 4524SOL    HW125034   2.109   3.726   1.247 -2.3568 -2.1559 -3.4067
 4524SOL    HW225035   2.171   3.746   1.119  0.9858 -0.5460  0.8878
 4525SOL     OW25036   4.664   3.296   9.080 -0.4850  0.2368  0.3644
 4525SOL    HW125037   4.584   3.318   9.032 -0.3553 -0.5945 -0.2404
 4525SOL    HW225038   4.629   3.298   9.170 -1.1277 -2.7066  0.1816
 4526SOL     OW25039   0.874   2.218   5.041  0.1135  0.7083  0.4883
 4526SOL    HW125040   0.824   2.139   5.059  0.8628  0.6532  2.3554
 4526SOL    HW225041   0.939   2.192   4.975  0.6394  2.3856  0.3318
 4527SOL     OW25042   4.329   4.465   3.610  0.1313  0.6124  0.4251
 4527SOL    HW125043   4.314   4.557   3.630 -1.4342  0.3255  0.6491
 4527SOL    HW225044   4.314   4.455   3.516  2.5380 -1.1801  0.2308
 4528SOL     OW25045   0.161   4.247  16.431  0.1707  0.8264 -0.1226
 4528SOL    HW125046   0.216   4.198  16.369 -2.0732  0.3931 -1.7799
 4528SOL    HW225047   0.077   4.251  16.385  0.0061 -1.4673 -0.0197
 4529SOL     OW25048   1.394   4.381   8.571 -0.0770 -0.0907  0.3756
 4529SOL    HW125049   1.389   4.342   8.484  1.5229  1.4856 -0.4001
 4529SOL    HW225050   1.404   4.475   8.563 -0.5820  0.0698  1.6193
 4530SOL     OW25051   3.832   4.022   2.286  0.0806 -0.0085  0.2468
 4530SOL    HW125052   3.894   4.014   2.358  0.2740  1.1143  0.2129
 4530SOL    HW225053   3.803   3.934   2.262 -0.1422  0.0852  0.1728
 4531SOL     OW25054   2.999   0.534   4.534 -0.3075  0.9619 -0.0966
 4531SOL    HW125055   3.023   0.599   4.468 -1.5231  2.6346  1.1085
 4531SOL    HW225056   2.921   0.575   4.571  0.3190  3.3158 -1.4265
 4532SOL     OW25057   1.775   0.260   8.230 -0.9478  0.3901 -0.6970
 4532SOL    HW125058   1.742   0.316   8.300 -0.0200 -0.2175  0.2495
 4532SOL    HW225059   1.867   0.250   8.256 -2.1476 -1.5975  2.8699
 4533SOL     OW25060   2.767   3.778   0.132 -0.1328  0.3246 -0.2668
 4533SOL    HW125061   2.792   3.692   0.098 -0.5908 -0.5641  1.6304
 4533SOL    HW225062   2.784   3.758   0.224 -1.0291 -1.0675 -0.4028
 4534SOL     OW25063   2.112   3.666  12.697  0.1558 -0.0828  0.2981
 4534SOL    HW125064   2.159   3.663  12.614  0.0138  2.6089  0.1033
 4534SOL    HW225065   2.171   3.714  12.756 -1.2792 -1.5972  2.9764
 4535SOL     OW25066   2.757   4.260  17.075 -0.3325 -0.0812 -0.4129
 4535SOL    HW125067   2.851   4.246  17.063  0.2559  4.2309 -0.7216
 4535SOL    HW225068   2.760   4.324  17.146  1.0002 -2.3630  1.5830
 4536SOL     OW25069   3.687   3.260   9.189  0.2474  0.5402  0.4959
 4536SOL    HW125070   3.721   3.295   9.107 -3.1551  0.2738 -1.0304
 4536SOL    HW225071   3.595   3.247   9.166  0.3705  0.7123 -0.1127
 4537SOL     OW25072   3.696   1.652   3.522  0.8893  0.0297  0.1232
 4537SOL    HW125073   3.621   1.665   3.464  0.6766 -3.0430 -0.2598
 4537SOL    HW225074   3.648   1.589   3.576  0.3362  2.8885  2.9665
 4538SOL     OW25075   3.891   1.610   5.629 -0.2053 -0.5803  0.4023
 4538SOL    HW125076   3.964   1.605   5.692 -0.1591  0.7539  0.4598
 4538SOL    HW225077   3.903   1.524   5.588 -1.3467 -0.9574  0.8896
 4539SOL     OW25078   0.168   3.721   1.850 -0.1956 -0.0676  0.1834
 4539SOL    HW125079   0.179   3.816   1.857  1.7527 -0.0941 -2.3604
 4539SOL    HW225080   0.101   3.710   1.918 -0.0165  0.8021  0.5027
 4540SOL     OW25081   2.219   2.969  12.884  0.1486 -0.2575  0.0048
 4540SOL    HW125082   2.282   2.934  12.947 -1.4799 -0.9483  1.2400
 4540SOL    HW225083   2.225   3.063  12.899  0.0625 -0.3160  0.4124
 4541SOL     OW25084   2.161   4.136   9.618  0.3951 -0.0252  0.7069
 4541SOL    HW125085   2.226   4.204   9.636  0.5991  0.3496 -1.4210
 4541SOL    HW225086   2.083   4.182   9.649  0.3996  1.4381 -1.4534
 4542SOL     OW25087   3.773   3.063   4.609 -0.4794 -0.1440 -0.3079
 4542SOL    HW125088   3.851   3.042   4.557 -0.6613  1.1280 -1.1064
 4542SOL    HW225089   3.742   2.981   4.647  0.8853 -0.4102  0.2264
 4543SOL     OW25090   1.220   3.275   6.572 -0.2381 -0.5378  0.1216
 4543SOL    HW125091   1.204   3.365   6.598 -0.6206 -0.4859 -0.2912
 4543SOL    HW225092   1.315   3.268   6.580 -0.0467  1.3166 -0.7371
 4544SOL     OW25093   4.149   1.488   4.288  0.4347  0.7102  0.6818
 4544SOL    HW125094   4.140   1.573   4.330  1.7294 -0.1427  2.6624
 4544SOL    HW225095   4.073   1.496   4.230 -0.0705 -0.8042  1.1387
 4545SOL     OW25096   4.555   3.158   2.224  0.0013 -0.0091  0.3085
 4545SOL    HW125097   4.459   3.163   2.230 -0.0995 -1.3975 -0.0912
 4545SOL    HW225098   4.576   3.076   2.268  0.7737 -0.9927 -1.8889
 4546SOL     OW25099   3.219   4.300   3.776  0.7743 -0.3076 -0.2890
 4546SOL    HW125100   3.192   4.366   3.839 -1.2284 -1.5808  0.2107
 4546SOL    HW225101   3.204   4.217   3.822 -1.0332  0.2260  0.0896
 4547SOL     OW25102   2.891   3.578   4.803 -0.1860 -0.8052 -0.4346
 4547SOL    HW125103   2.852   3.630   4.733 -0.3978  2.1468  1.8861
 4547SOL    HW225104   2.929   3.643   4.861  1.3542 -0.8384 -1.4086
 4548SOL     OW25105   0.869   3.530   9.863 -0.2958 -0.1333 -0.2282
 4548SOL    HW125106   0.813   3.457   9.888 -0.6726 -0.8481 -3.1769
 4548SOL    HW225107   0.869   3.514   9.769  1.0049  1.5295 -0.5343
 4549SOL     OW25108   1.413   3.152   4.329 -0.1062 -0.2076  0.4208
 4549SOL    HW125109   1.485   3.197   4.374 -1.1662  1.9159 -0.0121
 4549SOL    HW225110   1.359   3.135   4.406  0.9328 -2.9214  0.5417
 4550SOL     OW25111   3.987   3.036   4.028  0.2649 -0.6136  0.6820
 4550SOL    HW125112   3.906   3.087   4.030 -0.0607 -1.0347 -1.4707
 4550SOL    HW225113   3.963   2.973   3.960  0.1796  2.0105 -1.7178
 4551SOL     OW25114   0.872   0.165   9.031  0.3518  0.1820 -0.1520
 4551SOL    HW125115   0.906   0.188   8.944 -1.9599  0.8669 -0.8889
 4551SOL    HW225116   0.915   0.227   9.089  0.9491  0.4281 -0.8476
 4552SOL     OW25117   2.698   0.228   6.665 -0.1319 -0.0527  0.1723
 4552SOL    HW125118   2.702   0.206   6.572  0.0886  2.3977 -0.4106
 4552SOL    HW225119   2.604   0.233   6.681 -0.2895 -0.7357 -0.5301
 4553SOL     OW25120   3.090   1.836  11.457  0.5841 -0.2247  0.1377
 4553SOL    HW125121   3.016   1.897  11.462  2.3369  1.6868  2.7747
 4553SOL    HW225122   3.121   1.816  11.545 -1.2452 -1.5717  0.4832
 4554SOL     OW25123   3.932   4.291   8.429  0.3246  0.3843  0.5607
 4554SOL    HW125124   3.852   4.258   8.471  0.1159  2.3970  1.7498
 4554SOL    HW225125   3.914   4.269   8.338  1.7809 -0.2267  0.4257
 4555SOL     OW25126   0.356   3.065   0.893 -0.2449  0.7394  0.3444
 4555SOL    HW125127   0.417   3.098   0.959 -0.3884 -0.5880  1.1481
 4555SOL    HW225128   0.341   2.980   0.935  2.8280 -0.6339 -1.3194
 4556SOL     OW25129   1.279   0.204  13.648 -0.7101 -0.7121  0.1641
 4556SOL    HW125130   1.286   0.204  13.553 -3.8807 -2.5192 -0.0586
 4556SOL    HW225131   1.188   0.178  13.663 -1.4131  2.5393  1.7678
 4557SOL     OW25132   3.410   4.500   5.980  0.2686 -0.0187 -0.3908
 4557SOL    HW125133   3.472   4.429   5.963 -0.5860 -1.2280  1.5600
 4557SOL    HW225134   3.445   4.568   5.923 -1.3147  0.5190 -0.7132
 4558SOL     OW25135   1.567   3.790   7.627  0.3775 -0.4782  0.2062
 4558SOL    HW125136   1.627   3.807   7.699  0.3278  1.8716 -0.3153
 4558SOL    HW225137   1.633   3.785   7.558 -1.1470 -0.4907 -1.2491
 4559SOL     OW25138   4.619   1.166   3.002  0.3655 -0.1102  0.0410
 4559SOL    HW125139   4.662   1.129   3.079  0.3286 -2.5327 -1.0908
 4559SOL    HW225140   4.578   1.247   3.032 -0.7185 -0.3890 -0.6925
 4560SOL     OW25141   1.622   1.287   6.759  0.1598  0.1291 -0.0087
 4560SOL    HW125142   1.655   1.364   6.804  2.9352 -1.0163 -0.0781
 4560SOL    HW225143   1.703   1.239   6.740  0.1083  0.2888 -0.6177
 4561SOL     OW25144   2.077   1.157   7.163 -0.0892  0.3702  0.0891
 4561SOL    HW125145   2.082   1.244   7.202  1.3206  0.3401 -0.0299
 4561SOL    HW225146   1.989   1.170   7.127  0.7472  0.6387 -1.8770
 4562SOL     OW25147   0.782   2.743   3.866  0.1784 -0.0744  0.5715
 4562SOL    HW125148   0.862   2.782   3.902 -0.0078  0.0209  0.8727
 4562SOL    HW225149   0.806   2.666   3.814 -0.0594 -1.3817  2.4243
 4563SOL     OW25150   0.843   3.360   6.308 -0.3819 -0.1387  0.2264
 4563SOL    HW125151   0.821   3.453   6.306 -1.0919 -0.3263 -0.5512
 4563SOL    HW225152   0.939   3.357   6.309 -0.4177 -1.4268 -1.8945
 4564SOL     OW25153   3.919   3.422  12.618  0.4554 -0.6524  0.3902
 4564SOL    HW125154   3.957   3.334  12.616 -2.8133 -2.0595  0.7198
 4564SOL    HW225155   3.919   3.445  12.526  1.5419  1.1833  0.8609
 4565SOL     OW25156   1.726   1.303   0.352 -0.2048 -0.2587 -0.5114
 4565SOL    HW125157   1.634   1.326   0.363 -0.6830 -2.4330 -0.0798
 4565SOL    HW225158   1.718   1.210   0.329  3.5343 -1.1033  1.7122
 4566SOL     OW25159   4.170   3.519   3.626  0.4273 -0.2505  0.2585
 4566SOL    HW125160   4.204   3.565   3.549  0.3383  1.9329  1.5403
 4566SOL    HW225161   4.165   3.429   3.594  0.0688 -0.3681  0.6535
 4567SOL     OW25162   3.641   1.173  11.005  0.0585  0.1458  0.1890
 4567SOL    HW125163   3.719   1.222  10.981 -0.9612  1.5945 -0.1693
 4567SOL    HW225164   3.590   1.245  11.042 -0.1967 -0.9254  1.9104
 4568SOL     OW25165   0.632   2.150   8.343 -0.1849 -0.4890  0.7602
 4568SOL    HW125166   0.599   2.104   8.266  0.9946  1.7007 -1.0860
 4568SOL    HW225167   0.659   2.081   8.404 -0.1233 -1.3936 -0.2936
 4569SOL     OW25168   2.983   4.242   1.490 -0.0240  0.4419 -0.0405
 4569SOL    HW125169   3.065   4.202   1.464 -0.8446 -0.6813 -0.8950
 4569SOL    HW225170   2.947   4.286   1.412 -2.3842  0.3107  0.9531
 4570SOL     OW25171   1.817   1.515   7.662  0.3417 -0.3199  0.0892
 4570SOL    HW125172   1.736   1.565   7.670  1.4689  1.1955  1.9858
 4570SOL    HW225173   1.819   1.469   7.745  3.5985 -0.7471 -0.2246
 4571SOL     OW25174   1.033   1.522   5.646 -0.1538 -0.6946  0.3238
 4571SOL    HW125175   1.068   1.563   5.725  1.9464 -1.1715 -0.3487
 4571SOL    HW225176   1.003   1.443   5.692  1.9618 -1.7384 -0.0743
 4572SOL     OW25177   1.631   2.703   7.423 -0.1509 -0.3354  0.0886
 4572SOL    HW125178   1.555   2.739   7.376 -0.1133 -0.1190  0.1930
 4572SOL    HW225179   1.636   2.761   7.499  1.1939 -0.2523 -0.0653
 4573SOL     OW25180   1.724   1.940  16.302 -0.7536 -0.2046  0.1191
 4573SOL    HW125181   1.789   1.881  16.264 -1.6782 -1.1055 -0.0901
 4573SOL    HW225182   1.642   1.906  16.265  0.1789 -2.2717 -0.0481
 4574SOL     OW25183   0.050   3.760  17.276  0.0192  0.1300 -0.2371
 4574SOL    HW125184   0.025   3.841  17.231  1.6477  0.2294 -0.9416
 4574SOL    HW225185   0.053   3.701  17.201  1.4282  0.4359 -0.4261
 4575SOL     OW25186   3.307   2.311   2.608 -0.2363  0.6722 -0.4962
 4575SOL    HW125187   3.236   2.298   2.545 -2.4858  0.3790  2.1300
 4575SOL    HW225188   3.388   2.280   2.565 -1.9953 -0.8630 -2.7157
 4576SOL     OW25189   3.871   2.963   5.241 -0.2997  0.4671 -0.4064
 4576SOL    HW125190   3.949   2.991   5.288 -0.6847 -0.1130  0.5970
 4576SOL    HW225191   3.912   2.923   5.164 -2.4423  5.3086 -4.0295
 4577SOL     OW25192   2.634   2.844  17.181  0.0305  0.1901  0.0245
 4577SOL    HW125193   2.718   2.801  17.194 -0.1611 -0.6833 -1.6235
 4577SOL    HW225194   2.602   2.785  17.113 -1.8868 -0.2990  1.3335
 4578SOL     OW25195   1.224   3.237   8.140 -0.4350  0.0970 -0.1453
 4578SOL    HW125196   1.172   3.308   8.176 -0.5732  0.2715 -0.6918
 4578SOL    HW225197   1.205   3.168   8.204 -1.4881 -0.4471 -1.0405
 4579SOL     OW25198   0.070   3.088  14.097 -1.0614 -0.5388 -0.2562
 4579SOL    HW125199   0.117   3.061  14.176 -0.5372 -0.0036 -0.3802
 4579SOL    HW225200   0.134   3.150  14.061 -0.6399 -0.3640  0.7897
 4580SOL     OW25201   1.489   2.428   7.307  0.3090 -0.4559  0.1278
 4580SOL    HW125202   1.530   2.454   7.224 -2.8016  1.0211 -0.9846
 4580SOL    HW225203   1.545   2.478   7.366  0.2845 -1.5116  1.0267
 4581SOL     OW25204   2.274   0.802  17.166 -0.2729 -0.4713  0.0931
 4581SOL    HW125205   2.211   0.814  17.095 -2.5954 -0.7768  2.1094
 4581SOL    HW225206   2.311   0.717  17.139  1.6982  0.3163  0.2658
 4582SOL     OW25207   0.356   2.853   9.119  0.2001  0.3102 -0.6148
 4582SOL    HW125208   0.271   2.832   9.082  1.1457  0.3930 -2.8177
 4582SOL    HW225209   0.416   2.823   9.051  1.8219 -0.3551  1.1297
 4583SOL     OW25210   4.276   2.751   4.836 -0.2134  0.5503 -0.3293
 4583SOL    HW125211   4.294   2.682   4.772  0.7755  0.4180  0.1023
 4583SOL    HW225212   4.187   2.736   4.868 -0.4502  0.3406 -1.0931
 4584SOL     OW25213   4.126   0.165  11.777  0.6553 -0.4119 -0.7927
 4584SOL    HW125214   4.030   0.165  11.782  0.7744  2.3227  1.6961
 4584SOL    HW225215   4.148   0.257  11.764 -0.3981 -0.1517 -0.7124
 4585SOL     OW25216   1.650   0.976   4.862  0.3955  0.1842  0.5724
 4585SOL    HW125217   1.730   0.943   4.821 -0.4235 -0.4077 -0.5415
 4585SOL    HW225218   1.654   0.929   4.945  1.0380  0.2990  0.6054
 4586SOL     OW25219   0.416   2.754  14.738 -0.0193  0.5176 -0.3596
 4586SOL    HW125220   0.474   2.826  14.715  2.2108 -0.5818  1.8480
 4586SOL    HW225221   0.454   2.677  14.696 -0.8229 -0.0464 -0.0511
 4587SOL     OW25222   2.100   4.609   5.294  0.0193  0.1224  0.4243
 4587SOL    HW125223   2.042   4.658   5.352 -0.4576 -1.3904  1.2118
 4587SOL    HW225224   2.040   4.556   5.243 -1.1374  0.8673  1.0068
 4588SOL     OW25225   3.108   4.370  11.854  0.7439 -0.2660 -0.6284
 4588SOL    HW125226   3.026   4.379  11.902  1.1949  0.9727 -0.0954
 4588SOL    HW225227   3.153   4.309  11.913 -1.3784 -0.7387  0.4930
 4589SOL     OW25228   4.394   1.418   5.185 -0.6599  0.4823  0.1178
 4589SOL    HW125229   4.331   1.430   5.257 -0.2790 -0.5435  0.6239
 4589SOL    HW225230   4.358   1.335   5.154 -2.3660  1.5089 -0.6278
 4590SOL     OW25231   0.495   3.032   2.732  0.3162 -0.3565  0.0587
 4590SOL    HW125232   0.453   2.976   2.667 -0.6072 -0.3775  0.6799
 4590SOL    HW225233   0.479   3.119   2.696  0.1387 -1.3012 -2.1355
 4591SOL     OW25234   3.706   2.117   2.166  0.4328  0.3522  0.1399
 4591SOL    HW125235   3.664   2.033   2.184  0.4755 -0.0760 -1.6922
 4591SOL    HW225236   3.657   2.181   2.217  0.6932  0.4182  0.3036
 4592SOL     OW25237   4.454   4.181   3.419  0.1181 -0.2301 -0.4583
 4592SOL    HW125238   4.455   4.125   3.341  1.8264  1.8809 -1.9330
 4592SOL    HW225239   4.391   4.248   3.391 -0.9871  0.3020  3.4077
 4593SOL     OW25240   1.083   3.769   5.604  0.1991  0.4704  0.0717
 4593SOL    HW125241   1.079   3.727   5.519 -0.5698  0.8194 -0.0690
 4593SOL    HW225242   1.077   3.862   5.583 -0.2709  0.3478 -0.3394
 4594SOL     OW25243   2.181   0.461   7.014  0.1181  0.4019  0.1622
 4594SOL    HW125244   2.139   0.432   7.095  0.6292  1.8231  0.9327
 4594SOL    HW225245   2.238   0.386   6.997 -2.0353 -0.8531 -1.4702
 4595SOL     OW25246   0.821   0.144  15.672  0.0650 -0.4528 -0.3631
 4595SOL    HW125247   0.750   0.081  15.667 -1.0614  0.7568  0.4390
 4595SOL    HW225248   0.891   0.098  15.626 -0.0798 -0.6327 -0.4011
 4596SOL     OW25249   1.594   0.407   9.849  0.1967  0.0697  0.4778
 4596SOL    HW125250   1.585   0.441   9.937 -1.1889  0.3373  0.2368
 4596SOL    HW225251   1.501   0.398   9.829  0.1522 -0.7427  1.0283
 4597SOL     OW25252   1.247   0.041   2.554 -0.5585  0.3760 -0.1106
 4597SOL    HW125253   1.184   4.706   2.596 -1.0119 -0.4750 -1.9566
 4597SOL    HW225254   1.222   0.024   2.463  2.7084 -0.3434 -0.8785
 4598SOL     OW25255   1.555   2.653   1.105 -0.3766  0.7038  0.3534
 4598SOL    HW125256   1.642   2.641   1.143 -0.7346 -0.0844  0.8969
 4598SOL    HW225257   1.497   2.649   1.181 -1.9267  2.4078 -0.7251
 4599SOL     OW25258   1.158   2.446  11.659  0.3768  0.3034  0.5663
 4599SOL    HW125259   1.253   2.454  11.668  0.2304  1.0669  1.3978
 4599SOL    HW225260   1.146   2.430  11.565 -2.2578 -4.5687  1.7553
 4600SOL     OW25261   2.978   4.480   2.213  0.0944 -0.2082 -0.4261
 4600SOL    HW125262   3.071   4.477   2.236 -0.1993 -0.0891  0.7790
 4600SOL    HW225263   2.944   4.480   2.303 -0.8002  4.4969 -0.8066
 4601SOL     OW25264   1.889   0.473   2.928  0.0182 -0.4130 -0.2942
 4601SOL    HW125265   1.922   0.544   2.872  1.2613  1.5726  2.9100
 4601SOL    HW225266   1.927   0.397   2.885  2.5070 -0.6340  2.2594
 4602SOL     OW25267   2.144   2.225   4.642 -0.0981  0.0289  0.0389
 4602SOL    HW125268   2.065   2.243   4.693  0.9085  1.7585  0.9971
 4602SOL    HW225269   2.116   2.165   4.573  2.2710 -0.3908 -0.5568
 4603SOL     OW25270   3.492   3.905   8.984  0.0766 -0.1843 -0.1799
 4603SOL    HW125271   3.505   3.955   9.064  0.8148  0.1435 -0.5039
 4603SOL    HW225272   3.487   3.976   8.920 -0.6100 -0.6069 -0.5974
 4604SOL     OW25273   0.305   0.872   5.101 -0.3997  0.5023  0.5358
 4604SOL    HW125274   0.380   0.889   5.158 -0.5882 -1.2024  1.2883
 4604SOL    HW225275   0.297   0.778   5.116  0.7292  0.3117 -0.0425
 4605SOL     OW25276   1.244   0.049  11.829 -0.0013  0.2401 -0.1644
 4605SOL    HW125277   1.221   0.131  11.786  0.1558  1.6175  2.3658
 4605SOL    HW225278   1.338   0.063  11.842 -0.3669  0.4503  2.1864
 4606SOL     OW25279   3.770   2.624   6.130  0.1555 -0.6142  0.0852
 4606SOL    HW125280   3.765   2.588   6.219 -0.8229  1.9740  1.0806
 4606SOL    HW225281   3.811   2.704   6.164  0.1252 -0.1543 -0.9669
 4607SOL     OW25282   1.839   3.829   9.778 -0.5736 -0.7377 -0.4104
 4607SOL    HW125283   1.823   3.741   9.742 -0.3750 -0.7347 -0.5074
 4607SOL    HW225284   1.813   3.877   9.700 -0.3113  1.9846  1.2047
 4608SOL     OW25285   4.151   1.877   8.569 -0.1735  0.0057  0.4407
 4608SOL    HW125286   4.164   1.823   8.491 -2.9306 -2.0804  1.4077
 4608SOL    HW225287   4.067   1.919   8.554  0.0254 -0.2811 -1.4395
 4609SOL     OW25288   1.137   1.386   4.607 -0.2758 -0.6139  0.0285
 4609SOL    HW125289   1.222   1.343   4.610  0.9499  1.9489  1.9805
 4609SOL    HW225290   1.135   1.409   4.700  1.1356  0.4876 -0.2081
 4610SOL     OW25291   1.054   1.662   9.029 -0.2952  0.0171  0.0388
 4610SOL    HW125292   1.066   1.628   8.940  0.8878  0.1188  0.1630
 4610SOL    HW225293   1.060   1.586   9.086  3.3755  2.2826  2.6995
 4611SOL     OW25294   1.835   1.696   2.062  0.1591 -0.1634  0.0222
 4611SOL    HW125295   1.862   1.664   1.976 -1.9069 -1.7884 -0.0123
 4611SOL    HW225296   1.754   1.646   2.064 -0.5827  1.0773  1.1307
 4612SOL     OW25297   1.229   3.327   2.595 -0.6116 -0.0096  0.3540
 4612SOL    HW125298   1.220   3.400   2.656 -0.2283 -1.1409  1.7680
 4612SOL    HW225299   1.223   3.381   2.516 -1.9594 -1.0439 -0.2518
 4613SOL     OW25300   3.665   0.266  13.202  0.3593  0.2807 -0.1422
 4613SOL    HW125301   3.593   0.315  13.242 -0.4858  0.1423 -1.5104
 4613SOL    HW225302   3.729   0.297  13.266 -0.1983  0.8064  0.1589
 4614SOL     OW25303   3.343   2.928  15.176 -0.2684  0.3645  0.6508
 4614SOL    HW125304   3.320   2.966  15.091  1.6185 -0.5320 -0.2564
 4614SOL    HW225305   3.437   2.910  15.170 -0.4329  0.0731 -1.1752
 4615SOL     OW25306   1.154   1.737   7.767  0.4732 -0.0993 -0.1094
 4615SOL    HW125307   1.156   1.697   7.680  1.9543 -0.2174 -0.0052
 4615SOL    HW225308   1.204   1.816   7.748 -0.4383  0.5190  0.0464
 4616SOL     OW25309   3.952   0.431   5.080 -0.0527  0.1578  0.1927
 4616SOL    HW125310   3.878   0.439   5.140 -0.9550 -0.6753 -0.8195
 4616SOL    HW225311   3.914   0.474   5.003  0.8324 -0.4954 -0.6103
 4617SOL     OW25312   1.149   4.286   8.147 -0.2062 -0.3148 -0.2869
 4617SOL    HW125313   1.169   4.225   8.076  0.6067 -0.4235  0.0370
 4617SOL    HW225314   1.230   4.276   8.198 -0.7142  2.0537  0.9458
 4618SOL     OW25315   1.400   1.045   4.454 -0.5892  0.2152  0.0169
 4618SOL    HW125316   1.314   1.038   4.412 -0.3063  2.4537 -0.9380
 4618SOL    HW225317   1.389   1.137   4.477 -1.4374 -0.3649  1.9816
 4619SOL     OW25318   4.470   2.047  15.017  0.1141  0.4779 -0.2905
 4619SOL    HW125319   4.537   2.074  14.955  0.6109 -1.6366 -0.6731
 4619SOL    HW225320   4.430   1.983  14.959  1.2728  1.3219 -2.0150
 4620SOL     OW25321   3.698   3.430   6.551 -0.1096  0.1206 -0.3502
 4620SOL    HW125322   3.758   3.505   6.549 -1.2752  1.1067  1.4377
 4620SOL    HW225323   3.675   3.428   6.644  0.0766 -0.4431 -0.3167
 4621SOL     OW25324   1.692   2.118   7.121  0.0358 -0.1829 -0.9551
 4621SOL    HW125325   1.752   2.180   7.162 -0.2222 -0.5465 -0.0227
 4621SOL    HW225326   1.724   2.113   7.031  2.9317  1.8396 -0.0360
 4622SOL     OW25327   2.159   1.687   8.045 -0.7966  0.3060  0.8754
 4622SOL    HW125328   2.183   1.771   8.085  0.7716  0.6074 -0.6508
 4622SOL    HW225329   2.194   1.624   8.107  0.0853  0.5102  0.5895
 4623SOL     OW25330   1.081   0.322   2.539 -0.2256  0.4893  0.1461
 4623SOL    HW125331   1.165   0.319   2.584 -0.3986 -1.5994  0.3382
 4623SOL    HW225332   1.023   0.333   2.614  0.4371  1.5454  0.5080
 4624SOL     OW25333   4.421   1.719   5.202  0.0051  0.3918 -0.0552
 4624SOL    HW125334   4.357   1.789   5.215  1.3022  1.2785  1.4837
 4624SOL    HW225335   4.435   1.690   5.292  1.8555  2.3741  0.2788
 4625SOL     OW25336   0.327   1.088   0.329 -0.3545 -0.1171  0.5823
 4625SOL    HW125337   0.319   1.005   0.377  3.8113 -0.9336 -0.0954
 4625SOL    HW225338   0.396   1.132   0.379  0.8292 -1.4742  0.1761
 4626SOL     OW25339   0.447   1.563   2.532  0.2301 -0.2151  0.3810
 4626SOL    HW125340   0.442   1.641   2.477  0.0420  0.1006  0.8441
 4626SOL    HW225341   0.399   1.499   2.479  1.4619  1.0744 -2.2566
 4627SOL     OW25342   1.046   0.425   4.854 -0.1004  0.2426 -0.3906
 4627SOL    HW125343   1.086   0.505   4.821  2.3084 -0.5686  0.5698
 4627SOL    HW225344   1.076   0.370   4.781 -0.7093  2.4878 -2.3336
 4628SOL     OW25345   4.372   3.305   8.735  0.4347  0.5941 -0.0831
 4628SOL    HW125346   4.385   3.222   8.689  0.4277 -0.3127  1.5660
 4628SOL    HW225347   4.351   3.268   8.821 -1.2376 -0.8056 -1.0708
 4629SOL     OW25348   2.521   4.293   2.656 -0.2787  0.4625  0.0494
 4629SOL    HW125349   2.483   4.377   2.682 -0.6937  0.3167 -0.0707
 4629SOL    HW225350   2.529   4.306   2.562  1.6523 -1.6356 -0.0635
 4630SOL     OW25351   0.224   0.518   4.240  0.0614 -0.2915 -0.0717
 4630SOL    HW125352   0.315   0.530   4.213 -0.0470 -0.0462 -0.3282
 4630SOL    HW225353   0.237   0.453   4.309  1.3289 -3.1948 -3.0557
 4631SOL     OW25354   0.185   0.713   6.531 -0.0945  0.4437  0.4108
 4631SOL    HW125355   0.093   0.698   6.553 -0.4086  1.9869  0.0807
 4631SOL    HW225356   0.177   0.807   6.517  2.4091  1.0800  3.1923
 4632SOL     OW25357   2.049   4.548   5.874 -0.2528 -0.5603 -1.0745
 4632SOL    HW125358   2.080   4.610   5.808  1.4992  1.4283  1.5821
 4632SOL    HW225359   1.955   4.548   5.859 -0.3494  2.2571 -0.4077
 4633SOL     OW25360   3.258   0.123   1.165  0.0056  0.0299  0.0357
 4633SOL    HW125361   3.282   0.167   1.084  1.4479 -0.0852  0.3973
 4633SOL    HW225362   3.264   0.199   1.223 -1.8063 -0.3264  0.7063
 4634SOL     OW25363   0.061   3.566  10.538 -0.0582 -0.3872 -0.2883
 4634SOL    HW125364   0.030   3.534  10.453 -1.6782  0.8377 -0.1758
 4634SOL    HW225365   0.028   3.492  10.588 -2.4534  0.3842 -0.7274
 4635SOL     OW25366   0.801   1.682   2.531 -0.1015 -0.4007 -0.3717
 4635SOL    HW125367   0.822   1.661   2.622 -0.0255 -0.4304 -0.3967
 4635SOL    HW225368   0.818   1.598   2.488 -1.8047  0.4877 -2.7761
 4636SOL     OW25369   2.167   4.537  11.324  0.3046 -0.5321 -0.2503
 4636SOL    HW125370   2.095   4.476  11.343  0.1071 -0.1730  0.1601
 4636SOL    HW225371   2.171   4.574  11.412  1.1134  0.4663 -0.6993
 4637SOL     OW25372   1.549   0.405   3.000  0.5449 -0.7095 -0.7407
 4637SOL    HW125373   1.550   0.311   2.986  2.5456 -0.5043 -2.0730
 4637SOL    HW225374   1.605   0.408   3.078  1.6186  1.5858 -1.5730
 4638SOL     OW25375   3.520   1.617   6.279  0.3339  0.2337 -0.1423
 4638SOL    HW125376   3.486   1.597   6.367 -1.2043 -1.5417 -1.1522
 4638SOL    HW225377   3.546   1.708   6.296  2.4349 -0.2577 -0.8108
 4639SOL     OW25378   3.548   1.338  15.643 -0.2315  0.0166  0.2029
 4639SOL    HW125379   3.581   1.392  15.571  0.5330  0.8242  1.1732
 4639SOL    HW225380   3.513   1.405  15.701  0.6165 -0.1363  0.8915
 4640SOL     OW25381   1.393   1.542  13.818  0.1624 -0.4249 -0.1287
 4640SOL    HW125382   1.424   1.625  13.780 -1.1514  1.2325  2.4075
 4640SOL    HW225383   1.472   1.488  13.813  0.6697  0.2603  0.3797
 4641SOL     OW25384   0.698   2.336   9.721  0.2375  0.4436  0.6307
 4641SOL    HW125385   0.735   2.253   9.690  0.1506  0.2446  1.0676
 4641SOL    HW225386   0.769   2.384   9.763  0.2192  0.8725  0.1817
 4642SOL     OW25387   4.665   0.058   6.840 -0.3284 -0.1747 -0.0859
 4642SOL    HW125388   4.636   0.129   6.783  0.6670  1.4966  1.5013
 4642SOL    HW225389   0.031   0.090   6.831  0.0635 -0.3503  3.2202
 4643SOL     OW25390   1.906   4.155  17.601 -0.2388 -0.2714 -0.2927
 4643SOL    HW125391   1.839   4.100  17.561 -0.6219 -1.5344  2.0822
 4643SOL    HW225392   1.986   4.109  17.578 -0.4934 -1.2995  0.8574
 4644SOL     OW25393   0.405   4.391  12.947  0.0250  0.1344  0.2949
 4644SOL    HW125394   0.466   4.371  12.877 -1.1876  1.0673 -1.0269
 4644SOL    HW225395   0.399   4.303  12.984 -1.8591  0.2574  0.2854
 4645SOL     OW25396   0.007   0.125   8.511  0.1924 -0.5047 -0.4507
 4645SOL    HW125397   0.027   0.031   8.516  0.7427 -0.1726  3.3934
 4645SOL    HW225398   0.001   0.151   8.603 -0.2862 -3.0535  0.2478
 4646SOL     OW25399   0.608   0.899   4.513 -0.4260  0.8380  0.1843
 4646SOL    HW125400   0.607   0.992   4.537 -0.3553  0.9862 -0.3879
 4646SOL    HW225401   0.669   0.869   4.580 -1.0361 -3.3551 -1.1766
 4647SOL     OW25402   1.593   2.147  11.861 -1.2835 -0.1242  0.2637
 4647SOL    HW125403   1.650   2.203  11.913 -0.6209 -0.5643  0.0191
 4647SOL    HW225404   1.563   2.088  11.930 -0.7583 -0.5308  0.1460
 4648SOL     OW25405   2.359   1.649   5.903  0.2576  0.5849  0.7893
 4648SOL    HW125406   2.358   1.716   5.835 -0.2894 -1.4609 -1.2269
 4648SOL    HW225407   2.269   1.637   5.932  0.3120 -3.1608 -0.6761
 4649SOL     OW25408   1.078   2.786   8.520  0.3253 -0.6198 -0.5850
 4649SOL    HW125409   1.039   2.825   8.441 -1.1855  0.4454  0.6881
 4649SOL    HW225410   1.056   2.694   8.508  0.5348 -0.3926 -2.7076
 4650SOL     OW25411   0.954   3.471   1.567  0.2762 -0.2193  0.3586
 4650SOL    HW125412   0.971   3.399   1.505 -0.2063  0.9008 -1.0714
 4650SOL    HW225413   0.899   3.528   1.514 -0.6737 -2.0950 -0.6951
 4651SOL     OW25414   1.400   1.955   4.053 -0.6154  0.6517 -0.3406
 4651SOL    HW125415   1.358   1.916   3.977 -1.2906  0.0209  0.3658
 4651SOL    HW225416   1.407   2.048   4.031 -0.4547  0.1787 -2.2950
 4652SOL     OW25417   3.661   0.212   9.782 -0.3834  0.6172  0.3900
 4652SOL    HW125418   3.679   0.283   9.843  4.0663 -0.1826 -0.0022
 4652SOL    HW225419   3.741   0.161   9.793  0.9400  1.9722 -2.8266
 4653SOL     OW25420   4.344   0.036   6.520  0.3172  0.1484 -0.0795
 4653SOL    HW125421   4.304   0.050   6.434 -0.4121 -1.4560  0.0019
 4653SOL    HW225422   4.372   4.669   6.509  0.2036  0.4687 -3.0309
 4654SOL     OW25423   3.443   0.553  17.312 -0.0004 -0.1207 -0.3106
 4654SOL    HW125424   3.370   0.584  17.366 -0.6261 -0.8312 -0.7514
 4654SOL    HW225425   3.505   0.625  17.304  0.8787 -0.8212  0.2008
 4655SOL     OW25426   2.012   2.785   6.499 -0.4772 -0.2621  0.6262
 4655SOL    HW125427   2.087   2.825   6.455 -1.2834  2.5015  1.7856
 4655SOL    HW225428   1.987   2.716   6.438 -0.3822  0.6260 -0.4162
 4656SOL     OW25429   3.664   4.505  14.240  0.1191 -0.0490  0.0083
 4656SOL    HW125430   3.705   4.493  14.154  2.4292  1.0023  0.9768
 4656SOL    HW225431   3.710   4.580  14.278 -2.7226  0.7265  1.8638
 4657SOL     OW25432   1.005   0.272   5.219  0.7917  0.4328 -0.1525
 4657SOL    HW125433   1.093   0.306   5.200  2.2699 -2.8271  0.9147
 4657SOL    HW225434   1.027   0.179   5.223  1.3001  0.5716  0.4623
 4658SOL     OW25435   3.632   2.895  13.986 -0.4628 -0.2067 -0.8326
 4658SOL    HW125436   3.691   2.954  14.032 -0.4454  1.5270 -3.0419
 4658SOL    HW225437   3.557   2.953  13.973  0.7629  1.5038 -0.1906
 4659SOL     OW25438   4.419   0.703  14.021  0.3222  0.6551 -0.8975
 4659SOL    HW125439   4.419   0.614  14.056 -0.2510  0.5602 -1.1537
 4659SOL    HW225440   4.332   0.711  13.983  0.7465  1.2471 -1.7390
 4660SOL     OW25441   0.427   4.177   4.301  0.2271  0.1467 -0.1388
 4660SOL    HW125442   0.478   4.178   4.382 -1.8218 -2.1990  1.1781
 4660SOL    HW225443   0.444   4.270   4.284 -1.8692  0.7270  0.9066
 4661SOL     OW25444   2.509   4.599   5.720 -0.2791  0.4429 -0.0511
 4661SOL    HW125445   2.559   4.527   5.681 -1.2399 -1.3894  2.0938
 4661SOL    HW225446   2.529   4.673   5.662 -0.5563 -0.5256 -1.3868
 4662SOL     OW25447   4.710   4.350   6.049  0.0063  0.3468 -0.1519
 4662SOL    HW125448   4.646   4.284   6.022  1.9955 -2.2471  1.3676
 4662SOL    HW225449   4.671   4.366   6.135 -1.0363 -1.7289 -0.2305
 4663SOL     OW25450   0.683   0.823   8.544  0.3809 -0.0398  0.0325
 4663SOL    HW125451   0.720   0.825   8.632 -0.5688 -0.1359  0.4399
 4663SOL    HW225452   0.690   0.916   8.521 -2.7904  0.2255  0.1720
 4664SOL     OW25453   2.500   1.564   0.389 -0.2006  0.5802  0.0338
 4664SOL    HW125454   2.534   1.643   0.432  0.2325 -0.1016  0.9414
 4664SOL    HW225455   2.456   1.523   0.464  0.6052 -2.2422 -1.0336
 4665SOL     OW25456   1.889   0.863   9.340  0.1481 -0.1422  0.5767
 4665SOL    HW125457   1.890   0.943   9.392  0.4800  0.3943 -0.2465
 4665SOL    HW225458   1.859   0.799   9.405  3.1570 -0.4983  1.5905
 4666SOL     OW25459   3.142   4.267   3.308  0.3508  0.7446 -0.5857
 4666SOL    HW125460   3.136   4.172   3.318 -0.5992  0.3294 -5.0873
 4666SOL    HW225461   3.167   4.296   3.395  2.0232  0.7992 -1.0760
 4667SOL     OW25462   0.942   1.357   6.287 -0.0995  0.0877  0.0615
 4667SOL    HW125463   0.895   1.292   6.234  0.9204 -2.1303  1.8733
 4667SOL    HW225464   0.914   1.437   6.243  1.2415  1.3888  1.6117
 4668SOL     OW25465   3.018   3.330   0.159 -0.6865  0.2043  0.2684
 4668SOL    HW125466   3.046   3.409   0.206 -0.2714  0.1153  0.1716
 4668SOL    HW225467   3.002   3.275   0.235  1.3638 -0.8876 -0.0879
 4669SOL     OW25468   2.593   2.288   4.459 -0.0735  0.0524 -0.3118
 4669SOL    HW125469   2.579   2.367   4.406 -1.3675  0.1137  0.1285
 4669SOL    HW225470   2.658   2.244   4.404 -0.5017  0.5329 -1.2048
 4670SOL     OW25471   3.689   2.901  16.426 -0.0324 -0.2853  0.2248
 4670SOL    HW125472   3.756   2.962  16.397  0.8275 -1.4104 -0.1306
 4670SOL    HW225473   3.624   2.972  16.430  1.4908  1.1362 -0.5642
 4671SOL     OW25474   4.640   3.625   0.561  0.0223  0.8152  0.2035
 4671SOL    HW125475   4.682   3.572   0.628 -0.5274  0.7724  0.5049
 4671SOL    HW225476   4.711   3.686   0.538  1.4910 -0.4828  1.2988
 4672SOL     OW25477   0.523   3.979  13.011 -0.3109 -0.0466 -0.0282
 4672SOL    HW125478   0.599   4.037  13.011 -1.6133  1.6899 -0.3241
 4672SOL    HW225479   0.557   3.900  12.968  0.6431  0.0031  0.6434
 4673SOL     OW25480   0.055   1.119   0.581 -0.2578 -0.2227  0.0704
 4673SOL    HW125481   0.136   1.097   0.627  0.7945  2.5889 -0.4419
 4673SOL    HW225482   0.071   1.202   0.537 -2.2790  0.4000  0.5239
 4674SOL     OW25483   4.316   1.324  10.448 -0.0886 -0.1114  0.1022
 4674SOL    HW125484   4.235   1.301  10.494 -0.6090 -0.5038 -1.0239
 4674SOL    HW225485   4.302   1.287  10.361  2.2773 -1.6796  0.3974
 4675SOL     OW25486   2.115   0.901  13.719  0.1444  0.5965  0.1149
 4675SOL    HW125487   2.151   0.963  13.656 -1.5078  0.6008 -0.8229
 4675SOL    HW225488   2.178   0.905  13.791  1.0686 -0.9743 -0.6027
 4676SOL     OW25489   0.737   1.309  16.678 -0.0697 -0.0094  0.3939
 4676SOL    HW125490   0.704   1.258  16.604  2.4401 -2.5865  1.0615
 4676SOL    HW225491   0.674   1.288  16.746 -0.1976 -3.2430 -0.7458
 4677SOL     OW25492   0.353   3.794   3.342  0.3290 -0.2113 -0.0174
 4677SOL    HW125493   0.437   3.761   3.373  0.1084 -0.1935  0.6090
 4677SOL    HW225494   0.341   3.747   3.259  1.6532  0.5770 -0.6508
 4678SOL     OW25495   4.072   0.335   5.569 -0.1289  0.7347 -0.7596
 4678SOL    HW125496   4.111   0.375   5.491 -3.6368  1.0926 -2.3063
 4678SOL    HW225497   3.983   0.363   5.548 -0.5851 -0.7372 -0.8036
 4679SOL     OW25498   2.270   0.133   1.901 -0.1478 -0.2076  0.0525
 4679SOL    HW125499   2.347   0.088   1.937 -0.4788 -0.3014  0.6545
 4679SOL    HW225500   2.200   0.072   1.926 -1.0641  0.1299 -1.7013
 4680SOL     OW25501   2.565   0.728   2.642  0.0996  0.4055 -0.6230
 4680SOL    HW125502   2.477   0.694   2.631  0.3463 -0.0690 -1.1220
 4680SOL    HW225503   2.602   0.691   2.562 -1.9708  0.8270 -1.7779
 4681SOL     OW25504   3.014   0.311   6.136  0.1350  0.2616 -0.0851
 4681SOL    HW125505   2.979   0.261   6.210 -1.8923  1.8936  0.0482
 4681SOL    HW225506   3.108   0.310   6.155 -0.2324  1.1269  1.7553
 4682SOL     OW25507   3.618   1.790   9.751 -0.2568 -0.2534  0.4589
 4682SOL    HW125508   3.600   1.791   9.657 -0.3027  0.8063  0.4752
 4682SOL    HW225509   3.617   1.885   9.765  0.9376  0.0174 -1.3142
 4683SOL     OW25510   3.415   0.635   4.162 -0.1725 -0.3020 -0.2673
 4683SOL    HW125511   3.444   0.560   4.213  0.0646  0.3807  0.6066
 4683SOL    HW225512   3.414   0.710   4.222  1.1671  0.9312 -1.7929
 4684SOL     OW25513   2.873   1.256   3.813 -0.6883 -0.0027  0.1788
 4684SOL    HW125514   2.927   1.261   3.734 -0.3424  1.6621  0.5333
 4684SOL    HW225515   2.804   1.318   3.788 -1.0725  0.1718  1.6563
 4685SOL     OW25516   1.222   2.019   7.609  0.3715  0.4426 -0.3554
 4685SOL    HW125517   1.254   2.101   7.573  0.0821  0.8369  0.2727
 4685SOL    HW225518   1.276   2.026   7.688 -0.2620 -3.3593  0.3988
 4686SOL     OW25519   4.454   2.307  15.886 -0.1261  0.0630 -0.1864
 4686SOL    HW125520   4.363   2.326  15.907  0.0355  1.6682 -0.9097
 4686SOL    HW225521   4.490   2.392  15.912  0.9328 -0.6452  0.6452
 4687SOL     OW25522   4.540   2.124   8.675  1.1403 -0.0715  0.0927
 4687SOL    HW125523   4.565   2.032   8.675  0.0671 -0.3542 -0.5107
 4687SOL    HW225524   4.602   2.164   8.614  1.7609  1.3643  1.6478
 4688SOL     OW25525   4.598   1.605   7.584 -0.0868 -0.0775 -0.6276
 4688SOL    HW125526   4.654   1.642   7.653  0.2251  0.7417 -1.3195
 4688SOL    HW225527   4.528   1.573   7.641  0.7318 -1.0443 -0.1700
 4689SOL     OW25528   2.019   2.951   3.100  0.1590  0.7739  0.2267
 4689SOL    HW125529   1.930   2.921   3.084  1.3372 -1.1852 -2.7556
 4689SOL    HW225530   2.021   3.018   3.031  1.9891 -0.3163 -0.8065
 4690SOL     OW25531   2.501   1.847   1.148 -0.0561 -0.4730  0.1753
 4690SOL    HW125532   2.446   1.882   1.078  1.3982  1.2695 -0.1042
 4690SOL    HW225533   2.434   1.805   1.201 -0.2516 -0.3587  0.0192
 4691SOL     OW25534   4.718   3.601   0.153 -0.7107  0.1053  0.1985
 4691SOL    HW125535   0.045   3.668   0.200 -1.6580  0.4847  0.6826
 4691SOL    HW225536   4.711   3.646   0.069  0.2464 -0.3359 -0.1159
 4692SOL     OW25537   4.222   1.514   8.310 -0.1584  0.0669  0.6197
 4692SOL    HW125538   4.221   1.606   8.284 -0.3727  0.7191  2.9290
 4692SOL    HW225539   4.215   1.530   8.405  0.3190  0.7242  0.5434
 4693SOL     OW25540   3.639   3.927   7.703  0.7503 -0.1221  0.0945
 4693SOL    HW125541   3.557   3.948   7.658  2.4265 -0.9637 -3.3806
 4693SOL    HW225542   3.660   3.843   7.662  1.0797  0.1585 -0.3152
 4694SOL     OW25543   1.198   1.125  10.797  0.3723  0.5963 -0.1193
 4694SOL    HW125544   1.210   1.152  10.706  0.2261 -1.5570 -0.7788
 4694SOL    HW225545   1.217   1.208  10.842 -2.8062  0.5684  1.2931
 4695SOL     OW25546   0.052   4.032   7.349 -0.0220 -0.3670  0.0035
 4695SOL    HW125547   0.134   4.060   7.308  1.1754 -0.7040  2.1295
 4695SOL    HW225548   0.092   3.982   7.421 -1.0964 -0.6525  0.3991
 4696SOL     OW25549   4.397   3.978   9.098 -0.1628  0.6642 -0.0427
 4696SOL    HW125550   4.490   4.000   9.097 -0.3126  1.4010  1.6135
 4696SOL    HW225551   4.384   4.019   9.013 -0.4430  0.1932 -0.2286
 4697SOL     OW25552   2.178   3.470   7.374 -0.2075 -0.2986  0.2366
 4697SOL    HW125553   2.244   3.537   7.393  0.0825 -0.6597  0.4987
 4697SOL    HW225554   2.196   3.399   7.435  0.3424 -1.3781 -1.1824
 4698SOL     OW25555   4.460   3.194   7.875  0.4719 -0.2636 -0.1024
 4698SOL    HW125556   4.489   3.257   7.940  0.0107  0.8267 -0.9639
 4698SOL    HW225557   4.512   3.119   7.905 -0.5393 -1.0574 -0.3337
 4699SOL     OW25558   1.371   3.440   4.663  0.1055  0.1905  0.8452
 4699SOL    HW125559   1.288   3.416   4.622 -0.0444 -2.4236  2.6650
 4699SOL    HW225560   1.399   3.360   4.709  0.4863 -1.9894 -3.2381
 4700SOL     OW25561   4.472   0.828   7.690 -0.4403 -0.3179 -0.0102
 4700SOL    HW125562   4.391   0.864   7.653  0.2733  1.0282 -0.2342
 4700SOL    HW225563   4.464   0.842   7.784  3.2659  2.6642 -0.1799
 4701SOL     OW25564   3.655   3.504   5.990 -0.3706  0.0808  0.0855
 4701SOL    HW125565   3.642   3.558   6.068  0.8824  0.0852  0.2935
 4701SOL    HW225566   3.680   3.424   6.037  0.4999  0.4869  0.3234
 4702SOL     OW25567   2.496   1.455   6.132  0.1078 -0.0558  0.1978
 4702SOL    HW125568   2.537   1.372   6.155  0.4824  0.5551  1.7473
 4702SOL    HW225569   2.409   1.419   6.120 -1.1125  2.6061  0.9677
 4703SOL     OW25570   3.229   4.153   9.375  0.4666  0.0735 -0.0513
 4703SOL    HW125571   3.230   4.245   9.350  1.3164 -0.2723 -1.2755
 4703SOL    HW225572   3.213   4.109   9.291  0.8345 -0.6054  0.2342
 4704SOL     OW25573   4.097   0.319   0.932 -0.0261 -0.4404 -0.1158
 4704SOL    HW125574   4.126   0.365   0.852 -0.2981 -0.2983 -0.1309
 4704SOL    HW225575   4.161   0.249   0.945 -0.1517 -0.1981  1.7329
 4705SOL     OW25576   2.069   0.312   2.793  0.2402  0.4109 -0.0651
 4705SOL    HW125577   2.103   0.286   2.879 -3.1307  0.6464  1.3698
 4705SOL    HW225578   2.058   0.230   2.746  0.2454 -0.8555  2.1517
 4706SOL     OW25579   1.980   2.171   3.744  0.6700  0.8061  0.4885
 4706SOL    HW125580   2.039   2.133   3.679  0.8903 -0.6653  1.5634
 4706SOL    HW225581   1.899   2.165   3.693  0.9658  0.0211  0.1156
 4707SOL     OW25582   4.340   3.853   6.757  0.0318 -0.7659 -0.7387
 4707SOL    HW125583   4.434   3.856   6.774 -0.0333  0.4036 -0.5830
 4707SOL    HW225584   4.327   3.942   6.724 -0.8142 -1.9039 -3.4466
 4708SOL     OW25585   4.042   0.630   2.746 -0.3431 -0.4028 -0.0832
 4708SOL    HW125586   3.979   0.702   2.737 -0.2289 -0.4205 -1.0771
 4708SOL    HW225587   4.119   0.657   2.697 -2.4550  2.9775 -1.5675
 4709SOL     OW25588   0.237   2.843   0.509 -0.2245 -0.0532 -0.0208
 4709SOL    HW125589   0.304   2.815   0.571 -0.6405 -0.7091  0.1369
 4709SOL    HW225590   0.190   2.915   0.550  1.6953  0.1418  1.8270
 4710SOL     OW25591   4.171   1.587   6.457 -0.7585 -0.1099  0.1791
 4710SOL    HW125592   4.130   1.641   6.524 -0.2579  1.6042 -0.8934
 4710SOL    HW225593   4.096   1.546   6.414 -1.1646  0.4939  0.3202
 4711SOL     OW25594   3.303   4.253   7.193  0.1300  0.3574  0.0533
 4711SOL    HW125595   3.359   4.268   7.269 -0.0031 -0.0614  0.2373
 4711SOL    HW225596   3.361   4.267   7.119 -0.5787 -1.1533 -0.7836
 4712SOL     OW25597   0.049   2.301  15.068 -0.4818 -1.0199 -0.0797
 4712SOL    HW125598   4.700   2.330  15.123 -0.8323  2.0195 -2.1051
 4712SOL    HW225599   0.002   2.322  14.987 -0.3910  1.5061  0.5226
 4713SOL     OW25600   3.288   4.369   2.999  0.1189  0.6621  0.1511
 4713SOL    HW125601   3.340   4.443   2.968 -1.1654  1.1212 -0.8891
 4713SOL    HW225602   3.354   4.300   3.000  0.0584  0.5919 -0.5567
 4714SOL     OW25603   1.698   2.897   7.627 -0.2504  0.0378  0.1886
 4714SOL    HW125604   1.669   2.916   7.716 -2.5647 -0.8126 -0.3804
 4714SOL    HW225605   1.788   2.877   7.652  0.0765 -0.4032 -1.3251
 4715SOL     OW25606   1.291   3.948   8.961 -0.0768 -0.4076  0.3399
 4715SOL    HW125607   1.307   3.959   8.867 -0.4289  1.8000  0.5289
 4715SOL    HW225608   1.372   3.990   8.988  1.2897 -1.1665 -2.5369
 4716SOL     OW25609   3.080   2.424   7.303  0.3485 -0.0014 -0.5943
 4716SOL    HW125610   3.021   2.490   7.265 -3.1964 -2.3577  0.7934
 4716SOL    HW225611   3.117   2.477   7.374 -1.7267  1.3057 -0.4611
 4717SOL     OW25612   1.477   2.424   2.102  0.1545  0.4892 -0.3311
 4717SOL    HW125613   1.429   2.427   2.185  0.4786  1.4862 -0.1736
 4717SOL    HW225614   1.419   2.364   2.056  0.0047  2.2593 -2.4304
 4718SOL     OW25615   1.776   0.656  10.011  0.2277 -0.8764 -0.7425
 4718SOL    HW125616   1.860   0.648  10.058 -0.5326 -0.8423  0.6227
 4718SOL    HW225617   1.727   0.692  10.085 -0.3085 -0.9531 -1.0596
 4719SOL     OW25618   4.401   0.851   3.640  0.4843  0.2950  0.3819
 4719SOL    HW125619   4.442   0.889   3.563  0.1519  0.4010  0.2622
 4719SOL    HW225620   4.454   0.900   3.703  0.8721 -0.5671  0.7319
 4720SOL     OW25621   1.844   0.372  10.628 -0.8265 -0.2859  0.1341
 4720SOL    HW125622   1.758   0.385  10.667  0.0565 -0.9416  2.3060
 4720SOL    HW225623   1.902   0.356  10.702 -0.8751  1.2911  0.5241
 4721SOL     OW25624   3.146   1.771  16.198 -0.0891 -0.0761  0.1524
 4721SOL    HW125625   3.105   1.703  16.252 -0.2872  0.6112  0.8743
 4721SOL    HW225626   3.072   1.783  16.138 -1.4865 -0.9946  1.6882
 4722SOL     OW25627   3.337   3.297   8.727  0.1352 -0.3310 -0.0548
 4722SOL    HW125628   3.271   3.251   8.675 -0.7404 -0.0272  0.7800
 4722SOL    HW225629   3.303   3.384   8.747  0.4145 -0.3561  0.5325
 4723SOL     OW25630   1.253   2.832  12.059  0.0286  0.2400  0.3730
 4723SOL    HW125631   1.332   2.886  12.059  0.6342 -0.6590 -1.3102
 4723SOL    HW225632   1.267   2.773  11.985  0.4335 -0.2967  0.8740
 4724SOL     OW25633   1.274   0.138   5.405 -0.2165  0.5454  0.4215
 4724SOL    HW125634   1.208   0.083   5.363 -0.1513  1.1123 -0.4171
 4724SOL    HW225635   1.265   0.127   5.500  1.0803 -0.5058  0.4165
 4725SOL     OW25636   3.988   0.783  15.312 -0.2997  0.4141 -0.1025
 4725SOL    HW125637   3.908   0.752  15.355 -0.4199  1.3624  0.3558
 4725SOL    HW225638   3.963   0.860  15.261  1.7513  2.6437  2.2407
 4726SOL     OW25639   1.818   1.302  10.056  0.1605 -0.4146  0.5837
 4726SOL    HW125640   1.876   1.353   9.999 -2.3059  0.7844 -0.8143
 4726SOL    HW225641   1.825   1.221  10.005  3.7509 -1.4558  2.6722
 4727SOL     OW25642   0.583   4.577  16.309  0.5604  0.3018  0.0475
 4727SOL    HW125643   0.622   4.587  16.222 -1.4566 -1.1349 -1.0342
 4727SOL    HW225644   0.505   4.529  16.282  0.5902 -0.2826  1.0069
 4728SOL     OW25645   1.436   1.309   1.546  0.5960 -0.1049  0.1213
 4728SOL    HW125646   1.352   1.274   1.576  0.1333  1.5457  0.7097
 4728SOL    HW225647   1.413   1.397   1.516  1.9753  0.2899  0.2206
 4729SOL     OW25648   1.568   0.983   6.710  0.1704 -0.1937  0.0318
 4729SOL    HW125649   1.573   1.079   6.713 -0.5640 -0.1820  0.9314
 4729SOL    HW225650   1.597   0.962   6.799 -1.8878  0.2032  0.8026
 4730SOL     OW25651   3.392   2.175  14.978 -0.3901 -0.0494 -0.1238
 4730SOL    HW125652   3.362   2.096  14.934 -0.3991 -0.8179  1.2626
 4730SOL    HW225653   3.457   2.203  14.914  1.2777 -1.7754  0.8051
 4731SOL     OW25654   4.328   4.144  16.410  0.2986  0.3403  0.2548
 4731SOL    HW125655   4.333   4.112  16.500 -0.0629  3.4671  1.3840
 4731SOL    HW225656   4.357   4.235  16.414 -0.5952  0.7044 -1.7443
 4732SOL     OW25657   3.696   1.138   8.733 -0.0703 -0.2404 -1.0954
 4732SOL    HW125658   3.604   1.144   8.707 -0.4775  1.9499  0.8499
 4732SOL    HW225659   3.737   1.114   8.649  1.2281 -1.5466 -0.0858
 4733SOL     OW25660   3.209   3.024   4.709 -0.2223 -0.2070 -0.1968
 4733SOL    HW125661   3.269   3.077   4.761 -0.1374 -0.5571  0.0671
 4733SOL    HW225662   3.190   3.080   4.634  0.2124 -0.0929 -0.2172
 4734SOL     OW25663   0.356   2.933  10.539 -0.1364 -0.6735  0.2719
 4734SOL    HW125664   0.395   2.845  10.537  2.1672  0.3773 -1.5794
 4734SOL    HW225665   0.264   2.917  10.562 -0.2475 -0.1194  0.1992
 4735SOL     OW25666   1.260   2.467   0.936 -0.3205 -0.1340 -0.3412
 4735SOL    HW125667   1.301   2.551   0.917  1.4339 -0.4908  1.9753
 4735SOL    HW225668   1.292   2.447   1.024 -1.3748  0.9567  0.2884
 4736SOL     OW25669   1.255   1.706   2.987 -0.8884  0.0373  0.4999
 4736SOL    HW125670   1.333   1.653   2.970 -0.8200  0.7497 -1.4111
 4736SOL    HW225671   1.262   1.760   3.066 -0.5821 -0.9038  1.1202
 4737SOL     OW25672   0.017   0.103  13.945  0.4378  0.3716 -0.3073
 4737SOL    HW125673   0.001   0.078  13.854 -0.1346  0.3415 -0.1977
 4737SOL    HW225674   0.099   0.055  13.952 -0.6043 -1.6970 -2.1415
 4738SOL     OW25675   1.235   2.732   1.167  0.5444 -0.0037 -0.2066
 4738SOL    HW125676   1.301   2.702   1.230  0.7488  1.9719  0.5169
 4738SOL    HW225677   1.251   2.825   1.152  0.5031  0.2654  1.3910
 4739SOL     OW25678   3.840   3.759   2.168 -0.4142  0.4663 -0.0498
 4739SOL    HW125679   3.792   3.705   2.231  0.2466  0.4576  0.4533
 4739SOL    HW225680   3.790   3.737   2.090 -0.1746 -0.2597  0.0000
 4740SOL     OW25681   3.099   2.911  10.328  0.1240  0.1533  0.5288
 4740SOL    HW125682   3.069   2.980  10.388 -0.6883  0.2224  0.0468
 4740SOL    HW225683   3.075   2.827  10.367  2.9822 -0.6880  0.4581
 4741SOL     OW25684   0.432   2.427   6.697  0.4912 -0.9766  0.4174
 4741SOL    HW125685   0.380   2.504   6.674  2.2821  0.1400  0.1572
 4741SOL    HW225686   0.507   2.468   6.740  0.7558  2.1986 -2.9927
 4742SOL     OW25687   0.969   1.940   7.558  0.0281 -0.2169  0.1198
 4742SOL    HW125688   1.055   1.981   7.559 -0.2791  0.3897  1.0561
 4742SOL    HW225689   0.973   1.878   7.485  0.4350 -2.5530  2.1352
 4743SOL     OW25690   4.495   0.472  15.280 -0.4388 -0.2936  0.3302
 4743SOL    HW125691   4.408   0.464  15.319 -0.8674  0.0607 -0.5429
 4743SOL    HW225692   4.516   0.557  15.318 -0.3596 -0.6801  1.1430
 4744SOL     OW25693   4.401   4.509   8.511 -0.0484  0.2010 -0.1140
 4744SOL    HW125694   4.314   4.478   8.535  1.3977 -2.8593  1.1589
 4744SOL    HW225695   4.383   4.600   8.488 -0.8018  0.5362  1.8208
 4745SOL     OW25696   0.494   2.602  13.948  1.1781 -0.0297 -0.4753
 4745SOL    HW125697   0.530   2.685  13.980  0.2424 -0.4775  1.7429
 4745SOL    HW225698   0.413   2.594  14.000  1.7032  2.4194  0.7310
 4746SOL     OW25699   2.760   3.378   2.453 -0.2820  0.4296  0.4610
 4746SOL    HW125700   2.793   3.468   2.463  1.7406 -0.1733 -0.7917
 4746SOL    HW225701   2.723   3.370   2.541  0.7626  1.0221  0.9701
 4747SOL     OW25702   0.049   1.534   8.496 -0.4000 -0.0402  0.1816
 4747SOL    HW125703   4.718   1.564   8.424 -0.5875  0.1619  0.4087
 4747SOL    HW225704   4.708   1.544   8.566  0.2810  2.9639  0.3840
 4748SOL     OW25705   3.037   4.590  15.978  0.5228 -0.6305 -1.0169
 4748SOL    HW125706   3.023   4.546  16.061 -1.1658 -0.3703 -1.1539
 4748SOL    HW225707   2.994   4.529  15.918 -0.2652 -0.9257 -0.1511
 4749SOL     OW25708   4.694   0.346   1.002  0.4744  0.2107 -0.5649
 4749SOL    HW125709   4.627   0.397   1.047  1.3642  0.1273  0.8495
 4749SOL    HW225710   0.043   0.384   1.051  1.6399 -1.0517 -1.3017
 4750SOL     OW25711   4.226   4.440  13.935 -0.2059  0.2706 -0.3814
 4750SOL    HW125712   4.318   4.416  13.920  0.5419  1.7625  1.9009
 4750SOL    HW225713   4.218   4.532  13.911 -1.3459  0.0391 -0.9219
 4751SOL     OW25714   1.876   3.363  10.698  0.5641  0.0492 -0.1750
 4751SOL    HW125715   1.893   3.458  10.697 -0.1262  0.1584 -1.7755
 4751SOL    HW225716   1.840   3.353  10.610  1.7376 -0.8940 -0.5484
 4752SOL     OW25717   1.863   0.795   4.533  0.2940 -0.0141 -0.0718
 4752SOL    HW125718   1.790   0.784   4.473  1.2608 -0.1558 -1.2293
 4752SOL    HW225719   1.835   0.742   4.607 -2.3643  0.4257 -0.7684
 4753SOL     OW25720   4.420   2.984   4.910 -0.3024  0.3691  0.2359
 4753SOL    HW125721   4.383   3.048   4.848 -2.1133 -0.8807  0.0463
 4753SOL    HW225722   4.374   2.902   4.893 -0.1466  0.0673  1.3284
 4754SOL     OW25723   0.996   2.552   1.124  0.3403 -0.0558  0.0519
 4754SOL    HW125724   1.017   2.479   1.182 -1.9535 -1.9712 -1.5002
 4754SOL    HW225725   1.076   2.603   1.132  0.0935  0.7912 -2.8227
 4755SOL     OW25726   2.898   2.918  16.424 -0.4879  0.2033 -0.3129
 4755SOL    HW125727   2.924   2.987  16.364 -0.1843  0.3643  0.0074
 4755SOL    HW225728   2.806   2.943  16.436 -0.0653  1.3002  0.6011
 4756SOL     OW25729   1.298   2.595   2.926  0.4443  0.5870  0.1302
 4756SOL    HW125730   1.343   2.512   2.943  0.7054  0.8680  0.8262
 4756SOL    HW225731   1.372   2.631   2.877  1.8811  2.3643  3.5475
 4757SOL     OW25732   2.793   0.215   4.596  0.0820 -0.5472 -0.6803
 4757SOL    HW125733   2.793   0.257   4.510 -1.8772  0.5879 -0.1150
 4757SOL    HW225734   2.725   0.265   4.640  0.9712 -0.5352  0.6881
 4758SOL     OW25735   4.706   1.310   7.571  0.1295  0.0057  0.0469
 4758SOL    HW125736   4.651   1.248   7.523  0.0878  0.0860 -0.0095
 4758SOL    HW225737   0.051   1.323   7.505 -0.0576 -0.7126 -0.2958
 4759SOL     OW25738   4.680   2.377   3.237  0.4136  0.3062  0.1303
 4759SOL    HW125739   4.680   2.470   3.260 -2.0197  0.5581 -0.8599
 4759SOL    HW225740   4.590   2.363   3.208  1.3758 -2.6892 -1.3947
 4760SOL     OW25741   2.535   0.182   7.780 -0.0674 -0.3287  0.3405
 4760SOL    HW125742   2.552   0.249   7.714  3.0438 -2.4531 -0.9813
 4760SOL    HW225743   2.449   0.219   7.802  0.4720  2.3966 -2.0427
 4761SOL     OW25744   3.155   3.707  11.799 -0.1554 -0.0462  0.7345
 4761SOL    HW125745   3.179   3.619  11.772 -2.4824  0.0605 -1.7204
 4761SOL    HW225746   3.059   3.702  11.804 -0.2644  2.2061  0.9658
 4762SOL     OW25747   1.547   1.803  13.731 -0.9091 -0.2252  0.1490
 4762SOL    HW125748   1.632   1.840  13.705 -0.2012 -1.4149  0.7481
 4762SOL    HW225749   1.515   1.765  13.649 -0.3427 -0.7592  0.1767
 4763SOL     OW25750   3.742   0.466   8.909  0.2834 -0.1447 -0.4940
 4763SOL    HW125751   3.795   0.475   8.830  0.8711  1.9668  0.1604
 4763SOL    HW225752   3.793   0.399   8.957 -0.3557 -0.1949  0.1109
 4764SOL     OW25753   3.910   3.643   2.850 -0.0068  0.3461 -0.3361
 4764SOL    HW125754   3.964   3.580   2.897  1.5393  2.0930  0.2529
 4764SOL    HW225755   3.951   3.658   2.765 -0.0036 -0.1692 -0.4220
 4765SOL     OW25756   2.647   2.537  12.934  0.1628  0.2635  0.3637
 4765SOL    HW125757   2.678   2.600  12.869 -3.0120  0.3452 -1.0985
 4765SOL    HW225758   2.552   2.547  12.944  0.0806 -1.9850  1.8441
 4766SOL     OW25759   2.311   1.692   7.791 -0.1891 -0.4433  0.1920
 4766SOL    HW125760   2.341   1.715   7.879 -4.9635  1.5189  1.3194
 4766SOL    HW225761   2.288   1.600   7.803 -1.9382 -0.4743 -3.3801
 4767SOL     OW25762   0.501   1.890  13.393  0.0323 -0.2393  0.7300
 4767SOL    HW125763   0.573   1.849  13.441  1.4328  0.2777 -0.9018
 4767SOL    HW225764   0.462   1.821  13.339 -1.7273  1.8667 -0.6977
 4768SOL     OW25765   1.082   3.262   5.900 -0.4816  0.3492  0.2992
 4768SOL    HW125766   0.994   3.248   5.935 -0.1751 -2.6083 -0.1307
 4768SOL    HW225767   1.138   3.235   5.973  2.6447  2.3282 -1.3644
 4769SOL     OW25768   0.929   4.634   4.225 -0.4554  0.0813 -0.5464
 4769SOL    HW125769   0.921   4.668   4.136 -0.3157 -0.1673 -0.6546
 4769SOL    HW225770   0.892   4.702   4.281 -0.4043  3.0876 -4.2017
 4770SOL     OW25771   1.510   1.489  11.411 -0.2698  0.1578  0.2076
 4770SOL    HW125772   1.461   1.571  11.400 -1.9156 -0.9212 -0.5406
 4770SOL    HW225773   1.589   1.531  11.446 -1.3768  0.6572  2.1129
 4771SOL     OW25774   3.432   4.669   8.809  0.0429 -0.8510  0.1659
 4771SOL    HW125775   3.448   4.654   8.716  2.0233  1.0253  0.2069
 4771SOL    HW225776   3.348   4.629   8.832  0.1445 -1.3787 -0.3843
 4772SOL     OW25777   4.048   0.686   4.447  0.6580 -0.1513  0.4472
 4772SOL    HW125778   3.969   0.726   4.484  0.0046  0.4734 -1.5640
 4772SOL    HW225779   4.062   0.728   4.362  1.7950 -2.2254 -0.3800
 4773SOL     OW25780   2.504   3.223   7.960  0.2139  0.5790  1.3157
 4773SOL    HW125781   2.517   3.315   7.982  0.9315  0.6314  0.6954
 4773SOL    HW225782   2.595   3.202   7.938 -0.8296 -1.3757 -1.2073
 4774SOL     OW25783   2.920   0.095   5.574  0.4720  0.0334  0.6836
 4774SOL    HW125784   2.889   0.008   5.550 -0.4465  0.1964  1.2524
 4774SOL    HW225785   2.875   0.141   5.502  0.6823 -2.3875 -0.9872
 4775SOL     OW25786   1.159   2.268  12.702  0.0205 -0.0694 -0.1169
 4775SOL    HW125787   1.231   2.217  12.667  1.4396  1.3192  0.8121
 4775SOL    HW225788   1.105   2.263  12.623  0.9243 -2.3514 -0.6004
 4776SOL     OW25789   1.651   2.453   1.457  0.4989 -0.1422 -0.4965
 4776SOL    HW125790   1.560   2.427   1.470  0.9081 -1.2446  0.1206
 4776SOL    HW225791   1.665   2.535   1.504 -0.9231 -1.5139  2.2572
 4777SOL     OW25792   0.995   1.439   3.122  0.6243  0.1674 -0.0781
 4777SOL    HW125793   0.946   1.460   3.201 -0.0909  2.0901 -1.0257
 4777SOL    HW225794   0.957   1.357   3.090  1.7462 -0.3921  0.0363
 4778SOL     OW25795   4.250   2.402   8.786  0.2116 -0.0826  0.0294
 4778SOL    HW125796   4.167   2.446   8.805 -0.1885 -0.4033 -0.9434
 4778SOL    HW225797   4.226   2.328   8.730 -1.8090  0.3191  0.3719
 4779SOL     OW25798   1.054   1.091   2.378  0.0497 -0.3400  0.2033
 4779SOL    HW125799   1.136   1.124   2.340  0.2672  2.1208  2.8111
 4779SOL    HW225800   1.005   1.169   2.405 -1.1343 -0.7992 -0.6210
 4780SOL     OW25801   3.840   0.332   0.862 -0.3768  0.2755  0.1966
 4780SOL    HW125802   3.827   0.419   0.823  1.7267  0.8127  0.7240
 4780SOL    HW225803   3.932   0.346   0.884 -0.3648  0.7345 -0.1527
 4781SOL     OW25804   3.544   1.939  16.564 -0.6271  0.5570 -0.1070
 4781SOL    HW125805   3.557   1.927  16.658  0.9950  0.2705 -0.3735
 4781SOL    HW225806   3.618   1.891  16.527 -1.8389 -1.5326  0.2103
 4782SOL     OW25807   0.538   4.707   8.159 -0.2603  0.3730 -0.1919
 4782SOL    HW125808   0.519   4.613   8.151 -1.1697  0.3882  1.7229
 4782SOL    HW225809   0.622   4.702   8.204  0.2338 -0.8493 -1.2582
 4783SOL     OW25810   2.434   0.468   1.059  0.3767  0.1899  0.1863
 4783SOL    HW125811   2.508   0.526   1.038  1.7834 -2.0065 -0.8456
 4783SOL    HW225812   2.474   0.384   1.082 -0.7234 -0.6687 -1.0722
 4784SOL     OW25813   0.419   1.740   5.830  0.4325  0.4304  0.1186
 4784SOL    HW125814   0.390   1.730   5.921 -3.9381 -0.7632 -1.4197
 4784SOL    HW225815   0.498   1.793   5.837  0.8617 -0.2665  0.5079
 4785SOL     OW25816   0.043   2.567   5.177  0.0323 -0.3503  0.0237
 4785SOL    HW125817   0.063   2.649   5.222  0.9322  0.1019 -1.2119
 4785SOL    HW225818   0.084   2.592   5.094 -2.1536  1.1293 -0.6057
 4786SOL     OW25819   1.406   0.565  16.883  0.2093 -0.0204 -0.5499
 4786SOL    HW125820   1.386   0.481  16.926 -1.5408  1.0985  0.8213
 4786SOL    HW225821   1.493   0.547  16.849  0.0588 -1.0894 -0.3869
 4787SOL     OW25822   0.390   2.252  16.703  0.1959  0.2778 -0.3736
 4787SOL    HW125823   0.472   2.281  16.743 -0.6207 -2.3335  3.1947
 4787SOL    HW225824   0.356   2.203  16.779  0.0372 -1.3581 -1.4922
 4788SOL     OW25825   2.490   1.925   7.473  0.1377  0.3291  0.0764
 4788SOL    HW125826   2.435   1.904   7.549  0.3101  1.4660  0.5123
 4788SOL    HW225827   2.483   2.020   7.468 -0.2939  0.3893  1.6396
 4789SOL     OW25828   4.396   2.238  13.372  0.1032  0.3047  0.2354
 4789SOL    HW125829   4.459   2.256  13.302  1.2371 -1.0618  0.8900
 4789SOL    HW225830   4.381   2.144  13.359  0.0169  0.9199 -4.3174
 4790SOL     OW25831   3.715   4.573   1.165  0.9070  0.0179  0.0139
 4790SOL    HW125832   3.698   4.504   1.101 -1.0061  0.7766 -0.2987
 4790SOL    HW225833   3.801   4.611   1.143  0.5598  1.0416  0.4400
 4791SOL     OW25834   2.456   1.247   4.417 -0.0842 -0.1864 -0.4722
 4791SOL    HW125835   2.472   1.241   4.511  2.7138  0.4599 -0.9204
 4791SOL    HW225836   2.361   1.241   4.404 -0.4505 -0.1793  2.1553
 4792SOL     OW25837   1.574   2.964  15.014 -0.2308 -0.4139 -0.2869
 4792SOL    HW125838   1.555   2.927  15.100 -0.9994  0.4483 -0.0956
 4792SOL    HW225839   1.663   2.999  15.013  0.7640 -2.8875  0.3492
 4793SOL     OW25840   4.669   4.039   9.169 -0.3343 -0.3415 -0.2879
 4793SOL    HW125841   4.663   3.957   9.218 -0.8367 -0.0525  0.1302
 4793SOL    HW225842   4.703   4.098   9.236  0.0205 -0.3780 -0.4349
 4794SOL     OW25843   0.278   3.017  12.768  0.3441 -0.5179 -0.1832
 4794SOL    HW125844   0.365   3.002  12.803 -0.1609 -0.3962  1.1297
 4794SOL    HW225845   0.281   2.945  12.706  0.9204  0.2204 -1.0076
 4795SOL     OW25846   3.360   1.048  17.264  0.0189 -0.1765 -0.4473
 4795SOL    HW125847   3.296   1.076  17.199 -1.1589 -0.3229  0.6574
 4795SOL    HW225848   3.445   1.081  17.236  0.9525 -3.4111 -1.4299
 4796SOL     OW25849   1.834   3.208   2.445  0.3608 -0.4681  0.5970
 4796SOL    HW125850   1.793   3.122   2.445  0.9477 -0.7416  2.6293
 4796SOL    HW225851   1.891   3.199   2.521  2.0595  0.9417 -0.5193
 4797SOL     OW25852   4.708   0.146   6.315  0.0711  0.1289  0.9422
 4797SOL    HW125853   0.057   0.122   6.257 -2.3268 -1.9194 -1.1909
 4797SOL    HW225854   0.010   0.233   6.345  0.0866  0.2025  0.7161
 4798SOL     OW25855   2.087   2.421  13.744 -0.5407 -0.2494  0.5314
 4798SOL    HW125856   2.017   2.376  13.791 -1.7760  2.1892  1.0281
 4798SOL    HW225857   2.124   2.463  13.822 -0.1045  2.2131 -1.0013
 4799SOL     OW25858   1.671   0.611   1.958 -0.7632  0.2474  0.6749
 4799SOL    HW125859   1.582   0.603   1.923 -1.3812  0.8144  2.0944
 4799SOL    HW225860   1.719   0.622   1.876 -2.7316 -1.3285 -0.6866
 4800SOL     OW25861   2.529   0.690   5.771 -0.5837  0.1780 -0.1005
 4800SOL    HW125862   2.484   0.629   5.713 -0.4851  0.7079 -0.7471
 4800SOL    HW225863   2.619   0.658   5.775 -0.7776 -0.3589 -0.0974
 4801SOL     OW25864   3.538   0.519  15.980  0.1722 -0.1501  0.2578
 4801SOL    HW125865   3.544   0.455  15.909 -1.3039 -0.9364  0.8444
 4801SOL    HW225866   3.510   0.463  16.052 -0.5086 -2.2793 -1.6388
 4802SOL     OW25867   3.610   3.182   6.525 -0.0217  0.5444 -0.2062
 4802SOL    HW125868   3.639   3.272   6.516 -2.0302  1.0522 -1.4334
 4802SOL    HW225869   3.679   3.132   6.481  0.0498 -0.5643  1.1200
 4803SOL     OW25870   2.987   3.517   8.687  0.0419  0.0067  0.0558
 4803SOL    HW125871   3.015   3.551   8.602  0.7159 -0.4642  0.0865
 4803SOL    HW225872   3.057   3.546   8.745 -0.9643  1.8657  0.3553
 4804SOL     OW25873   0.472   4.137  15.129 -0.1403  0.1718  0.0616
 4804SOL    HW125874   0.540   4.140  15.197 -0.2380 -1.3809  0.2419
 4804SOL    HW225875   0.406   4.201  15.154 -0.5054 -0.2582  0.2063
 4805SOL     OW25876   2.678   0.010   1.189  0.4184  0.0347 -0.2575
 4805SOL    HW125877   2.648   4.646   1.166 -2.3124  0.7432  0.6101
 4805SOL    HW225878   2.685   0.056   1.105  0.0195  0.3489 -0.1181
 4806SOL     OW25879   3.283   2.332   5.740  0.6899 -0.3836 -0.0791
 4806SOL    HW125880   3.285   2.236   5.744  0.4585 -0.3105  1.6609
 4806SOL    HW225881   3.365   2.361   5.780  1.1501 -3.0975  0.9682
 4807SOL     OW25882   3.080   0.739   5.636 -0.3611  0.2930 -0.0509
 4807SOL    HW125883   3.119   0.715   5.720 -0.4839 -0.6928 -0.2755
 4807SOL    HW225884   3.082   0.664   5.576 -1.1548  1.5667 -1.6668
 4808SOL     OW25885   1.190   2.114   5.130  0.1602  0.1093  0.0065
 4808SOL    HW125886   1.095   2.106   5.137  0.3017 -1.5817  0.1611
 4808SOL    HW225887   1.199   2.204   5.162  0.0624 -0.4494  1.6510
 4809SOL     OW25888   4.621   2.471   4.607 -0.6078  0.1031 -0.0428
 4809SOL    HW125889   4.613   2.429   4.521  0.1432 -0.1847  0.0229
 4809SOL    HW225890   4.714   2.495   4.613 -0.3344 -1.3159  1.2856
 4810SOL     OW25891   3.381   4.609  12.481  0.2524  0.5986  0.0533
 4810SOL    HW125892   3.468   4.575  12.503 -0.0829  0.6504  1.5041
 4810SOL    HW225893   3.367   4.566  12.397  0.3143  0.3278  0.1801
 4811SOL     OW25894   0.432   0.168   3.992 -0.6880 -0.6709 -0.0888
 4811SOL    HW125895   0.469   0.215   4.067 -2.1892 -0.6702  0.6453
 4811SOL    HW225896   0.440   0.234   3.923  2.9705  0.2364  1.2176
 4812SOL     OW25897   2.295   2.580   5.232 -0.2131  0.0956 -0.7763
 4812SOL    HW125898   2.333   2.578   5.320  0.0986 -0.8174 -0.9231
 4812SOL    HW225899   2.374   2.571   5.180  0.4574 -1.9912  0.5938
 4813SOL     OW25900   1.465   0.002   4.639  0.0287 -0.0917 -0.3471
 4813SOL    HW125901   1.403   4.705   4.709 -1.1295 -2.0047 -1.9532
 4813SOL    HW225902   1.408   4.700   4.566 -2.1413 -1.3759  1.8016
 4814SOL     OW25903   3.812   3.848   4.653 -0.2334 -0.3235  0.0573
 4814SOL    HW125904   3.816   3.936   4.692 -1.3812 -0.4000  0.3579
 4814SOL    HW225905   3.879   3.865   4.587  0.2138  2.7245  1.2758
 4815SOL     OW25906   3.562   3.890  13.291 -0.4512 -0.1462 -0.0257
 4815SOL    HW125907   3.536   3.966  13.343  0.2211  1.6783 -2.3689
 4815SOL    HW225908   3.525   3.909  13.205 -0.3960  1.7098  0.3660
 4816SOL     OW25909   1.108   0.218   4.684  0.5377  0.3533 -0.2396
 4816SOL    HW125910   1.083   0.142   4.631  0.7547  0.8759 -1.0995
 4816SOL    HW225911   1.141   0.268   4.610 -2.6269 -1.3558 -2.8040
 4817SOL     OW25912   1.160   1.383   3.850 -0.2753  0.0208  0.1979
 4817SOL    HW125913   1.074   1.400   3.812 -1.2265 -0.3330  2.2041
 4817SOL    HW225914   1.121   1.349   3.931  0.5842  1.4246  1.2033
 4818SOL     OW25915   3.204   2.976  10.097 -0.4401  0.3661 -0.9735
 4818SOL    HW125916   3.163   2.962  10.183  0.1321 -0.1079 -0.7778
 4818SOL    HW225917   3.214   2.883  10.075  1.3792 -0.1399  2.0801
 4819SOL     OW25918   0.949   2.023   5.222 -0.5390  0.6940  0.4837
 4819SOL    HW125919   0.900   1.949   5.187  0.7620  0.5164 -0.9559
 4819SOL    HW225920   0.996   1.996   5.301  1.1602 -0.4122 -0.9281
 4820SOL     OW25921   0.423   3.835   7.966  0.0363 -0.1430 -0.2905
 4820SOL    HW125922   0.431   3.891   7.889 -1.0437  2.1056  1.2111
 4820SOL    HW225923   0.472   3.759   7.934 -1.3784 -0.0640 -2.6260
 4821SOL     OW25924   1.929   3.466   2.705  0.1099 -0.3140 -0.0589
 4821SOL    HW125925   1.886   3.512   2.633 -0.2045  0.0905  0.3947
 4821SOL    HW225926   1.956   3.382   2.668  0.3762  0.7869 -2.4083
 4822SOL     OW25927   0.903   0.183   4.152  0.0568 -0.1406 -0.5425
 4822SOL    HW125928   0.857   0.266   4.159  1.9940  1.1287 -2.8265
 4822SOL    HW225929   0.869   0.160   4.066  2.4580 -1.8653 -1.0527
 4823SOL     OW25930   4.642   0.622   5.659 -0.3114 -0.1704 -0.3145
 4823SOL    HW125931   0.013   0.615   5.662 -0.3101  0.2705  0.7726
 4823SOL    HW225932   4.631   0.718   5.661 -1.1634 -0.2797  0.3651
 4824SOL     OW25933   2.201   2.877   7.730 -0.2176 -0.3918 -0.0484
 4824SOL    HW125934   2.244   2.857   7.647  1.7861 -1.2861  1.2010
 4824SOL    HW225935   2.267   2.927   7.778  0.2322  0.9536 -2.0544
 4825SOL     OW25936   3.570   4.123   0.820  0.5726  0.0184  0.2225
 4825SOL    HW125937   3.575   4.058   0.749  0.4297 -1.4529  1.5442
 4825SOL    HW225938   3.534   4.200   0.777  0.5093 -1.3929 -2.2396
 4826SOL     OW25939   0.245   3.829   6.336  0.2699 -0.5557 -0.4914
 4826SOL    HW125940   0.168   3.815   6.391 -0.9721  1.1156 -1.7995
 4826SOL    HW225941   0.273   3.739   6.320  1.1719 -0.3799  0.1454
 4827SOL     OW25942   2.039   3.260  11.055  0.3609  0.2882  0.8500
 4827SOL    HW125943   1.952   3.221  11.058  1.3260 -1.5990  3.5065
 4827SOL    HW225944   2.059   3.283  11.146 -3.1638  0.8104  1.4628
 4828SOL     OW25945   0.622   1.695   6.318 -0.8092 -0.7094  0.0514
 4828SOL    HW125946   0.554   1.635   6.346 -0.0216 -0.4063  2.6045
 4828SOL    HW225947   0.647   1.735   6.401 -0.6394  2.2226 -1.3680
 4829SOL     OW25948   3.291   4.159   5.871 -0.0199  0.4619  0.5818
 4829SOL    HW125949   3.262   4.110   5.794  0.9389  1.5156 -0.4620
 4829SOL    HW225950   3.370   4.107   5.887 -1.1165 -2.2542 -3.0316
 4830SOL     OW25951   4.363   2.857   6.758 -0.1098 -0.1112  0.1571
 4830SOL    HW125952   4.332   2.916   6.827 -0.4358 -2.0550  1.6993
 4830SOL    HW225953   4.409   2.804   6.824  1.2467 -0.0645 -0.7696
 4831SOL     OW25954   2.215   3.727   6.822  0.2668  0.4500  0.1597
 4831SOL    HW125955   2.184   3.807   6.780  0.7696 -0.1912 -1.4390
 4831SOL    HW225956   2.304   3.733   6.786 -0.1213 -0.0619 -0.8924
 4832SOL     OW25957   3.994   0.615   0.307  0.5578  0.3086  0.4474
 4832SOL    HW125958   3.953   0.677   0.247 -0.9711 -0.3583  0.8023
 4832SOL    HW225959   3.933   0.547   0.336  1.4634  1.1619  4.3709
 4833SOL     OW25960   4.571   3.481   9.876 -0.1423  0.2141 -0.5877
 4833SOL    HW125961   4.564   3.560   9.929  0.0600  1.4003 -2.3503
 4833SOL    HW225962   4.500   3.491   9.812 -0.2162 -1.1204 -0.7170
 4834SOL     OW25963   0.860   1.868   7.301  0.1857  0.1610 -0.5206
 4834SOL    HW125964   0.890   1.782   7.272 -0.6100 -0.1782 -0.3406
 4834SOL    HW225965   0.765   1.854   7.302 -0.0392  1.7510  1.0045
 4835SOL     OW25966   2.710   4.383   6.177 -0.3453  0.1326 -0.0789
 4835SOL    HW125967   2.651   4.399   6.105  0.2079  4.0761  0.3547
 4835SOL    HW225968   2.791   4.365   6.129 -2.8175 -1.3788 -3.6149
 4836SOL     OW25969   1.509   3.483   6.811  0.2809 -0.3436 -0.1778
 4836SOL    HW125970   1.535   3.462   6.721  0.1538 -0.5421 -0.1667
 4836SOL    HW225971   1.540   3.410   6.863  1.2132 -0.1850 -0.5135
 4837SOL     OW25972   2.364   3.382   1.893 -0.3800  0.0590  0.2614
 4837SOL    HW125973   2.375   3.475   1.915 -0.3608  0.4791 -1.5057
 4837SOL    HW225974   2.371   3.388   1.798 -2.9008 -0.6651  0.0461
 4838SOL     OW25975   1.875   1.749  16.178 -0.2150  0.5607  0.6124
 4838SOL    HW125976   1.875   1.675  16.117  2.8589  1.4410 -0.4871
 4838SOL    HW225977   1.895   1.696  16.254  1.0612  0.2711  0.0757
 4839SOL     OW25978   2.642   1.915   7.813 -0.7384 -0.2862  0.1592
 4839SOL    HW125979   2.601   2.002   7.817 -1.0931 -0.4998  1.1290
 4839SOL    HW225980   2.638   1.888   7.721  3.2290 -1.2295  0.2721
 4840SOL     OW25981   4.234   2.473   7.390 -0.2286  0.4492 -0.2124
 4840SOL    HW125982   4.246   2.442   7.300 -0.9613  1.0238 -0.5104
 4840SOL    HW225983   4.232   2.568   7.381  0.6738  0.4644 -0.2030
 4841SOL     OW25984   2.583   2.629   2.641 -0.3382 -0.1045 -0.6094
 4841SOL    HW125985   2.632   2.711   2.641  2.9634 -2.0619  2.0169
 4841SOL    HW225986   2.594   2.595   2.552 -0.0304 -0.3559 -0.4774
 4842SOL     OW25987   2.847   1.501   3.182  0.3480 -0.0308 -0.3874
 4842SOL    HW125988   2.891   1.587   3.182  0.5548 -0.1387 -1.1074
 4842SOL    HW225989   2.758   1.526   3.159  0.1795 -0.2393  0.0360
 4843SOL     OW25990   3.390   3.841   7.585  0.4029  0.1194 -0.5574
 4843SOL    HW125991   3.385   3.762   7.638  0.6226  0.4932  0.0176
 4843SOL    HW225992   3.382   3.798   7.500 -0.0122 -0.0462 -0.4304
 4844SOL     OW25993   4.331   0.535   1.849 -0.4790  0.0015 -0.2645
 4844SOL    HW125994   4.408   0.586   1.876 -0.5663 -0.9106  1.7075
 4844SOL    HW225995   4.364   0.483   1.777  2.2362 -1.0913  1.7814
 4845SOL     OW25996   2.244   4.540   6.056 -0.4174 -0.7530  0.1189
 4845SOL    HW125997   2.207   4.592   6.127  1.1520 -1.1220  1.2206
 4845SOL    HW225998   2.167   4.540   6.000 -1.2721 -1.1553  1.3109
 4846SOL     OW25999   2.003   4.143   3.765 -0.1034  0.6536 -0.5423
 4846SOL    HW126000   1.945   4.074   3.732  1.8713 -0.5824 -1.3909
 4846SOL    HW226001   2.086   4.096   3.771 -0.8639 -0.7871 -1.1952
 4847SOL     OW26002   1.161   1.904  12.239 -0.4752  0.2399 -0.0722
 4847SOL    HW126003   1.175   1.986  12.286  1.3781 -0.3940  0.4980
 4847SOL    HW226004   1.236   1.858  12.278  0.1627  0.5570 -0.9406
 4848SOL     OW26005   2.993   1.758   2.847 -0.0580  0.1141  0.2220
 4848SOL    HW126006   2.942   1.831   2.882 -1.0451 -1.4354  2.0200
 4848SOL    HW226007   3.032   1.793   2.767 -1.1563 -0.8660 -0.7610
 4849SOL     OW26008   0.245   0.945   7.770 -0.7096 -0.5369 -0.2865
 4849SOL    HW126009   0.316   1.008   7.779 -0.3196 -1.4551  3.2694
 4849SOL    HW226010   0.292   0.870   7.734 -0.4410  0.0435 -1.1404
 4850SOL     OW26011   0.293   1.621   8.361  0.3148  0.1825 -0.0926
 4850SOL    HW126012   0.359   1.681   8.395  0.4959  0.8823 -1.6833
 4850SOL    HW226013   0.234   1.608   8.436  0.4276 -0.0988 -0.0523
 4851SOL     OW26014   2.938   0.675   6.033 -0.4039 -0.4237  0.1856
 4851SOL    HW126015   3.003   0.673   6.103  1.7695  1.3313 -1.7974
 4851SOL    HW226016   2.882   0.743   6.071 -0.9414 -1.6538  1.6121
 4852SOL     OW26017   4.547   3.738  11.529 -0.2685 -0.3707 -0.0382
 4852SOL    HW126018   4.630   3.763  11.488 -1.1556 -0.4895 -1.9098
 4852SOL    HW226019   4.506   3.695  11.455 -0.0805 -0.9448  0.1907
 4853SOL     OW26020   0.190   4.443   5.281 -0.1568  0.2772  0.0336
 4853SOL    HW126021   0.133   4.499   5.230  1.4704  0.9991 -0.9692
 4853SOL    HW226022   0.134   4.393   5.341  0.8260 -1.6014 -0.5888
 4854SOL     OW26023   1.389   1.583   1.584  0.1194  0.3911 -0.3180
 4854SOL    HW126024   1.378   1.659   1.528  0.7436  1.1702  0.6282
 4854SOL    HW226025   1.467   1.586   1.639  0.0500  1.9931 -0.3266
 4855SOL     OW26026   2.767   0.445   7.881  0.2066  0.0439 -0.1264
 4855SOL    HW126027   2.771   0.352   7.861  0.0543  0.5883 -2.6299
 4855SOL    HW226028   2.813   0.479   7.804 -0.3568 -0.3933 -0.6537
 4856SOL     OW26029   4.477   2.148   7.779 -0.7501 -0.5711  0.0511
 4856SOL    HW126030   4.564   2.108   7.770 -0.3833  0.6168 -1.7429
 4856SOL    HW226031   4.440   2.144   7.691 -1.4113 -1.3121  0.3724
 4857SOL     OW26032   1.712   1.491   7.003  0.5899  0.3960 -0.0625
 4857SOL    HW126033   1.685   1.441   7.080  0.0134  0.7526 -0.0322
 4857SOL    HW226034   1.808   1.492   7.012  0.5368 -1.7386  0.6802
 4858SOL     OW26035   3.317   3.227  16.235 -0.0638  0.0343 -0.1047
 4858SOL    HW126036   3.341   3.256  16.147 -1.3430  1.3916  0.0133
 4858SOL    HW226037   3.257   3.157  16.210  1.2834 -0.4000 -2.0958
 4859SOL     OW26038   0.215   3.933  17.589 -0.0665 -0.2801  0.0094
 4859SOL    HW126039   0.131   3.952  17.546 -0.0827  1.0784  0.6239
 4859SOL    HW226040   0.239   4.026  17.589 -3.3476  0.5808  0.8181
 4860SOL     OW26041   1.230   0.533  13.495  0.1417 -0.0307  0.4440
 4860SOL    HW126042   1.201   0.441  13.490  1.4619 -0.2983 -2.3111
 4860SOL    HW226043   1.284   0.527  13.573 -0.0507  1.8128  0.7154
 4861SOL     OW26044   4.481   0.511   3.023 -0.1769 -0.6257 -0.0390
 4861SOL    HW126045   4.567   0.551   3.033  0.1823 -1.2560 -0.5857
 4861SOL    HW226046   4.465   0.480   3.112 -2.2405 -0.9796 -0.5252
 4862SOL     OW26047   3.081   0.198   1.562 -0.0076 -0.5353 -0.0500
 4862SOL    HW126048   3.064   0.263   1.494  1.6959 -0.1296 -0.0874
 4862SOL    HW226049   3.034   0.232   1.638  2.4203 -0.4760  1.4401
 4863SOL     OW26050   4.376   3.408   3.145  0.2382 -0.2136 -0.0535
 4863SOL    HW126051   4.444   3.444   3.203 -0.9172 -0.2499  1.3059
 4863SOL    HW226052   4.414   3.411   3.057 -0.9803  2.1872 -0.4917
 4864SOL     OW26053   1.201   1.691   7.407  0.4199 -0.7072  0.3369
 4864SOL    HW126054   1.264   1.760   7.385 -2.7017  1.9086 -0.4095
 4864SOL    HW226055   1.234   1.625   7.347  0.5130  0.4225 -0.8723
 4865SOL     OW26056   3.053   3.710   0.955 -0.1717 -0.0399 -0.4672
 4865SOL    HW126057   3.104   3.787   0.929 -0.7643 -0.0472 -1.6753
 4865SOL    HW226058   3.013   3.683   0.873  1.1830 -0.5891 -0.9476
 4866SOL     OW26059   4.287   2.899   9.216  0.2796 -0.0472 -0.4659
 4866SOL    HW126060   4.292   2.965   9.147 -3.3921 -0.2624 -0.9226
 4866SOL    HW226061   4.217   2.848   9.176  0.3137 -3.0222  3.2979
 4867SOL     OW26062   4.365   1.530   6.743  0.9015  0.0151 -0.2293
 4867SOL    HW126063   4.318   1.612   6.758 -0.3866 -0.9903  1.2228
 4867SOL    HW226064   4.441   1.563   6.694  0.9496 -0.1553 -0.2673
 4868SOL     OW26065   4.209   3.488  14.282  0.4363  0.3660  0.2071
 4868SOL    HW126066   4.279   3.443  14.234 -0.5206  0.2110 -1.0622
 4868SOL    HW226067   4.190   3.415  14.341 -0.5649 -0.0944 -0.6743
 4869SOL     OW26068   2.904   1.450   8.710  0.0533  0.6184  0.0225
 4869SOL    HW126069   2.862   1.535   8.703 -1.2433 -0.1374 -1.5141
 4869SOL    HW226070   2.862   1.415   8.788 -1.6503  1.4647 -0.5323
 4870SOL     OW26071   0.275   4.682   4.947 -0.1624 -0.0299 -0.1842
 4870SOL    HW126072   0.194   0.009   4.943  0.9611  1.7490 -0.3009
 4870SOL    HW226073   0.289   4.652   4.857 -0.5963 -0.6035 -0.0636
 4871SOL     OW26074   4.243   3.657   3.367  0.5110 -0.4519 -0.1889
 4871SOL    HW126075   4.321   3.611   3.338  0.4685 -0.9844  0.5292
 4871SOL    HW226076   4.283   3.733   3.409 -2.0649  0.7635  0.0571
 4872SOL     OW26077   3.235   0.938   3.782  0.0667 -0.1169 -0.3031
 4872SOL    HW126078   3.233   0.852   3.741 -1.9677 -0.5749  0.8088
 4872SOL    HW226079   3.327   0.954   3.805 -0.3408  1.0821  0.5056
 4873SOL     OW26080   0.719   1.041   0.437  0.3387 -0.6404 -0.4330
 4873SOL    HW126081   0.804   1.085   0.427  0.1904 -0.0567  0.8278
 4873SOL    HW226082   0.741   0.991   0.516 -0.9057 -2.0675 -1.0007
 4874SOL     OW26083   1.115   3.755   7.517  0.1327 -0.0020 -0.3635
 4874SOL    HW126084   1.110   3.815   7.591 -1.5288 -0.9472  0.2777
 4874SOL    HW226085   1.041   3.698   7.536  0.4523 -0.2718  0.0770
 4875SOL     OW26086   1.631   0.874  15.128 -0.3230 -0.5552 -0.0127
 4875SOL    HW126087   1.554   0.845  15.080  1.4182 -2.1907 -1.7968
 4875SOL    HW226088   1.604   0.854  15.218  2.7981 -1.3592  0.7515
 4876SOL     OW26089   1.164   1.138  12.909  0.3239  0.0554 -0.0690
 4876SOL    HW126090   1.119   1.207  12.862  1.5325 -0.1755 -1.5438
 4876SOL    HW226091   1.105   1.064  12.897  0.2297  0.2579 -0.8441
 4877SOL     OW26092   1.966   4.252  10.206  0.2505  0.2598  0.1203
 4877SOL    HW126093   2.032   4.262  10.137  0.8608  0.1727  0.6901
 4877SOL    HW226094   2.021   4.270  10.282 -0.9244  0.1925  0.9866
 4878SOL     OW26095   2.417   0.164   6.070 -0.1472  0.0698 -0.3773
 4878SOL    HW126096   2.362   0.149   5.993  1.4602  0.7835 -1.6616
 4878SOL    HW226097   2.367   0.221   6.130 -0.3479  0.0656 -0.5409
 4879SOL     OW26098   3.804   3.803   3.216  0.0246 -0.5069  0.2720
 4879SOL    HW126099   3.766   3.843   3.294 -2.1586 -0.3321 -0.8807
 4879SOL    HW226100   3.865   3.736   3.247 -0.8749 -1.3354  0.2495
 4880SOL     OW26101   3.996   1.457   1.667  0.4861 -0.0539 -0.1062
 4880SOL    HW126102   4.026   1.371   1.635  0.3391  0.6274 -2.0465
 4880SOL    HW226103   4.061   1.513   1.624 -0.2637  0.8129 -0.0974
 4881SOL     OW26104   0.031   0.057   2.042  0.7856 -0.2127  0.1361
 4881SOL    HW126105   4.696   4.709   2.017  1.8121 -0.8208 -0.5847
 4881SOL    HW226106   0.112   0.009   2.061 -0.1249 -0.7933  2.4808
 4882SOL     OW26107   2.110   0.777   6.534 -0.2049  0.4781 -0.5151
 4882SOL    HW126108   2.126   0.859   6.580  0.5098 -1.0266  1.9030
 4882SOL    HW226109   2.177   0.784   6.466 -0.6822  1.7429 -0.8664
 4883SOL     OW26110   3.718   1.047   2.020  0.0057  0.1285 -0.3796
 4883SOL    HW126111   3.794   0.990   2.010  1.4613  1.9511  0.3325
 4883SOL    HW226112   3.704   1.036   2.114 -0.2051  3.0324 -0.0714
 4884SOL     OW26113   2.326   4.402   7.264  0.0455 -0.0817 -0.0569
 4884SOL    HW126114   2.384   4.437   7.196 -0.7040 -0.4170 -0.8610
 4884SOL    HW226115   2.379   4.435   7.337 -1.1087 -0.5815  0.9856
 4885SOL     OW26116   0.148   2.286   2.015  0.1573  0.2012  0.0786
 4885SOL    HW126117   0.053   2.273   2.024  0.0584  0.7486 -0.1406
 4885SOL    HW226118   0.180   2.238   1.940  1.2813  1.6720 -0.3884
 4886SOL     OW26119   4.264   1.801   8.312 -0.4402  0.1091 -0.5134
 4886SOL    HW126120   4.233   1.872   8.256 -0.5978  0.3531 -0.1143
 4886SOL    HW226121   4.346   1.843   8.339  0.0180 -1.8608  1.1693
 4887SOL     OW26122   4.226   0.910   8.039 -0.3833  0.0131 -0.5030
 4887SOL    HW126123   4.159   0.973   8.011  0.5922  1.6197  0.7433
 4887SOL    HW226124   4.212   0.925   8.133 -2.4497  1.3942 -1.0280
 4888SOL     OW26125   1.551   3.898   5.497  0.0350  0.3227 -0.1501
 4888SOL    HW126126   1.597   3.940   5.569  2.2662 -1.6071 -0.4700
 4888SOL    HW226127   1.623   3.902   5.435  1.1586  1.6433  1.2514
 4889SOL     OW26128   0.176   2.490   3.784  0.4030 -0.1388 -0.1967
 4889SOL    HW126129   0.201   2.410   3.739  1.4702  0.5198 -0.7819
 4889SOL    HW226130   0.226   2.478   3.864 -1.4653  0.1525  1.0012
 4890SOL     OW26131   3.763   2.111   5.213  0.2143 -0.6298 -0.0685
 4890SOL    HW126132   3.840   2.083   5.163  1.7470 -0.7369  2.3627
 4890SOL    HW226133   3.795   2.105   5.303 -0.3082  3.2483  0.3426
 4891SOL     OW26134   1.966   0.038   7.382  0.4706  0.0140 -0.1772
 4891SOL    HW126135   1.984   4.671   7.409  0.6492 -0.2622 -1.2090
 4891SOL    HW226136   2.052   0.076   7.400 -0.6213  2.4147 -0.0268
 4892SOL     OW26137   2.241   4.723  11.081  0.0903  0.3520 -0.1412
 4892SOL    HW126138   2.314   4.662  11.091  1.9267  2.3855 -1.3077
 4892SOL    HW226139   2.216   0.002  11.174  0.2884 -0.7982 -0.0612
 4893SOL     OW26140   0.135   2.425   3.009  0.0478  0.3024  0.1494
 4893SOL    HW126141   0.189   2.502   3.029  2.0368 -1.1991  0.6352
 4893SOL    HW226142   0.105   2.412   3.099 -0.5529 -0.2923 -0.1357
 4894SOL     OW26143   0.593   2.947   5.744  0.1132 -0.3128  0.1859
 4894SOL    HW126144   0.649   2.930   5.669 -0.9078  2.4086 -1.2194
 4894SOL    HW226145   0.552   3.033   5.730  0.1511  0.0738  2.3228
 4895SOL     OW26146   4.170   2.531  10.566  0.0989 -0.9336 -0.0626
 4895SOL    HW126147   4.265   2.517  10.566  0.2377  0.0012 -0.1039
 4895SOL    HW226148   4.169   2.625  10.546 -0.2805 -0.8116  0.5391
 4896SOL     OW26149   2.528   4.080   4.695 -0.0696 -0.2128 -0.5402
 4896SOL    HW126150   2.462   4.083   4.764  1.0253  1.6713  0.4199
 4896SOL    HW226151   2.595   4.032   4.743  1.3223  1.0766 -1.1577
 4897SOL     OW26152   2.517   0.764   6.236 -0.0050 -0.5262 -0.4337
 4897SOL    HW126153   2.499   0.753   6.142  0.6582  1.8220 -0.8289
 4897SOL    HW226154   2.543   0.677   6.267  1.7775 -0.1914 -1.0083
 4898SOL     OW26155   0.516   2.834   7.162 -0.0047 -0.3937 -0.5419
 4898SOL    HW126156   0.466   2.856   7.241  2.4216  1.6377  0.4152
 4898SOL    HW226157   0.511   2.738   7.167 -2.8270 -0.2217 -0.1892
 4899SOL     OW26158   0.097   3.682  11.681  0.0649  0.3069  0.1652
 4899SOL    HW126159   0.154   3.758  11.668  1.2926 -0.7609 -0.6446
 4899SOL    HW226160   0.090   3.663  11.587  0.8545  1.5194 -0.1469
 4900SOL     OW26161   3.915   3.314   2.504  0.3530 -0.0951 -0.2593
 4900SOL    HW126162   3.897   3.253   2.575 -1.0059  2.1277  1.2924
 4900SOL    HW226163   3.998   3.272   2.480  0.9107 -0.0509  1.6456
 4901SOL     OW26164   3.871   0.435   8.669  0.2042  0.3257  0.2903
 4901SOL    HW126165   3.843   0.345   8.685  2.6717 -0.7239 -1.2338
 4901SOL    HW226166   3.825   0.446   8.586  1.2006 -0.5592 -0.3946
 4902SOL     OW26167   1.996   0.405   1.022 -0.3587 -0.0724  0.1728
 4902SOL    HW126168   2.041   0.322   1.004  1.0199  1.1203 -1.8803
 4902SOL    HW226169   2.029   0.443   1.104 -0.4719 -0.6702  0.4960
 4903SOL     OW26170   0.199   0.061   2.634 -0.1389  0.2298 -0.0335
 4903SOL    HW126171   0.277   0.080   2.582  0.6823  0.9686  1.4630
 4903SOL    HW226172   0.213   4.692   2.650 -0.9889 -0.0079 -0.6975
 4904SOL     OW26173   0.061   3.935   2.535  0.3531 -0.2620 -0.3261
 4904SOL    HW126174   4.716   3.869   2.544  0.7512 -0.8673 -1.8090
 4904SOL    HW226175   0.029   3.997   2.601  4.0464  1.1095  0.1552
 4905SOL     OW26176   2.776   4.189   2.619 -0.1716 -0.3156 -0.1690
 4905SOL    HW126177   2.823   4.272   2.622 -1.0342  0.1583 -0.0139
 4905SOL    HW226178   2.688   4.209   2.649 -0.7737 -1.3893 -1.2035
 4906SOL     OW26179   3.736   3.158   6.926 -0.9724  0.1751  0.3889
 4906SOL    HW126180   3.808   3.200   6.879 -0.1948  0.0830  1.5084
 4906SOL    HW226181   3.720   3.214   7.002  0.6175  0.2056  0.6914
 4907SOL     OW26182   0.578   1.674   2.200 -0.2977  0.4919 -0.6965
 4907SOL    HW126183   0.500   1.720   2.170 -0.4975  0.0424 -0.8610
 4907SOL    HW226184   0.621   1.673   2.115 -0.2329 -4.4194 -0.5707
 4908SOL     OW26185   2.434   0.171   0.082 -0.2497  0.2208  0.7451
 4908SOL    HW126186   2.394   0.160   0.169 -1.4078  1.4555  0.3655
 4908SOL    HW226187   2.462   0.262   0.084 -0.1547  0.2166 -0.3525
 4909SOL     OW26188   1.000   0.647   2.618 -0.2000 -0.3808  0.0192
 4909SOL    HW126189   1.022   0.648   2.711 -1.7376 -1.9297  0.3961
 4909SOL    HW226190   1.092   0.646   2.588 -0.0545 -2.9040  0.5361
 4910SOL     OW26191   2.588   3.676   7.045  0.4892 -0.3342 -0.0528
 4910SOL    HW126192   2.560   3.698   6.956 -0.3427  0.0146  0.3072
 4910SOL    HW226193   2.675   3.637   7.030  0.2952 -0.9279  0.3693
 4911SOL     OW26194   0.991   4.158   6.493 -0.5044  0.1993  0.2230
 4911SOL    HW126195   0.916   4.144   6.436  0.1187  1.1255 -0.8262
 4911SOL    HW226196   1.003   4.253   6.490 -1.4105  0.2981 -0.1570
 4912SOL     OW26197   3.500   3.738   8.781 -0.0531  0.1439  0.0395
 4912SOL    HW126198   3.517   3.797   8.854  0.1449 -1.3275  1.1778
 4912SOL    HW226199   3.489   3.800   8.708 -0.2907 -3.0247 -2.5997
 4913SOL     OW26200   3.939   3.408   4.857  0.1256 -0.4812 -0.1109
 4913SOL    HW126201   3.954   3.408   4.763 -0.4314 -3.0872 -0.1752
 4913SOL    HW226202   3.914   3.499   4.876 -1.7859 -0.8749 -0.6939
 4914SOL     OW26203   2.497   2.748   4.419  0.3280  0.2618  0.9703
 4914SOL    HW126204   2.414   2.709   4.390  0.2959 -1.3675  3.2893
 4914SOL    HW226205   2.557   2.698   4.364 -1.6559  0.8539 -1.7742
 4915SOL     OW26206   3.122   3.477   9.722 -0.7476  0.4347  0.4057
 4915SOL    HW126207   3.096   3.568   9.735 -0.7836  0.4870 -0.0264
 4915SOL    HW226208   3.195   3.468   9.783  0.1921 -3.7503 -1.2970
 4916SOL     OW26209   3.290   3.247  11.582 -0.1381 -0.5679 -0.4697
 4916SOL    HW126210   3.275   3.280  11.493  2.3490  0.2456 -0.6144
 4916SOL    HW226211   3.262   3.156  11.574 -0.1205 -0.4740 -1.6341
 4917SOL     OW26212   3.819   3.296   1.865 -0.5324  0.1784  0.6086
 4917SOL    HW126213   3.764   3.333   1.934 -2.4269 -1.4560 -0.0146
 4917SOL    HW226214   3.755   3.280   1.795 -0.0852  1.2080 -0.0366
 4918SOL     OW26215   1.008   1.786   4.696 -0.2359 -0.0379 -0.2683
 4918SOL    HW126216   0.931   1.835   4.668 -0.7499 -0.0693  1.0968
 4918SOL    HW226217   1.069   1.856   4.718  0.4152 -0.4062 -0.8947
 4919SOL     OW26218   0.614   4.127   3.489  0.4618  0.2262  0.2139
 4919SOL    HW126219   0.663   4.059   3.443 -0.7022 -2.1529  2.4951
 4919SOL    HW226220   0.672   4.162   3.557 -0.3491 -0.8871  1.5047
 4920SOL     OW26221   0.961   1.488   6.551  0.0057 -0.1981 -0.0136
 4920SOL    HW126222   0.967   1.461   6.460 -1.5669  1.2895 -0.5651
 4920SOL    HW226223   0.891   1.551   6.533  1.0347  0.7394 -0.7888
 4921SOL     OW26224   3.325   0.549   7.381 -0.5749  0.4705 -0.0168
 4921SOL    HW126225   3.277   0.631   7.364  2.3967  2.3245  0.5499
 4921SOL    HW226226   3.400   0.551   7.322 -0.8248 -2.0878 -0.4103
 4922SOL     OW26227   1.015   0.079  12.722  0.1545  0.5650  0.2576
 4922SOL    HW126228   0.956   0.027  12.668 -1.1848  0.8707  1.4096
 4922SOL    HW226229   0.964   0.079  12.804  0.4637  0.2239  0.4492
 4923SOL     OW26230   1.622   1.534   3.928 -0.4433 -0.0714 -0.5811
 4923SOL    HW126231   1.616   1.629   3.934 -0.8952 -0.2590  2.0091
 4923SOL    HW226232   1.565   1.515   3.854 -1.6667 -1.8905  0.8141
 4924SOL     OW26233   4.417   2.227   9.327  0.6164 -0.6079  0.0764
 4924SOL    HW126234   4.497   2.266   9.293  0.2182 -0.7040 -0.9707
 4924SOL    HW226235   4.400   2.293   9.394  1.2790  0.1772 -0.5370
 4925SOL     OW26236   2.907   3.428   2.742  0.0612  0.1667  0.0280
 4925SOL    HW126237   2.898   3.512   2.698  2.0750 -0.9392 -2.5045
 4925SOL    HW226238   2.818   3.393   2.737  0.5117 -1.2327  1.6665
 4926SOL     OW26239   3.902   3.802   8.011  0.4582 -0.1397  0.3596
 4926SOL    HW126240   3.884   3.712   8.038  0.3114 -0.8346 -2.0567
 4926SOL    HW226241   3.998   3.806   8.006  0.5036  0.7885  1.8787
 4927SOL     OW26242   1.265   3.382   6.941  0.1046 -0.0438 -0.9902
 4927SOL    HW126243   1.316   3.431   6.876  0.5984 -0.3430 -0.8280
 4927SOL    HW226244   1.335   3.353   7.000 -0.4401  2.4614  0.8826
 4928SOL     OW26245   1.006   2.960   4.831  0.2983 -0.4086  0.0148
 4928SOL    HW126246   0.961   2.950   4.747  1.1073 -0.1679 -0.4497
 4928SOL    HW226247   1.098   2.935   4.817  0.9297  0.0892  3.1880
 4929SOL     OW26248   4.637   0.602   3.947  0.2713 -0.5156  0.6103
 4929SOL    HW126249   4.668   0.681   3.904 -0.2823 -1.2142 -1.0757
 4929SOL    HW226250   4.604   0.556   3.870  1.5556 -1.3834  0.5893
 4930SOL     OW26251   4.459   1.678   6.077  0.1735 -0.6128  0.6271
 4930SOL    HW126252   4.403   1.741   6.032  0.0039 -0.8076  0.5714
 4930SOL    HW226253   4.530   1.688   6.013 -0.6256  1.3646  0.0443
 4931SOL     OW26254   2.761   2.750   4.683 -0.2119 -0.4756 -0.4924
 4931SOL    HW126255   2.788   2.685   4.747 -2.4159  0.1496  1.0795
 4931SOL    HW226256   2.697   2.798   4.735  0.3040 -1.4219  0.9953
 4932SOL     OW26257   4.638   2.642   3.244 -0.4682  0.6127 -0.3467
 4932SOL    HW126258   4.700   2.693   3.193  2.8433 -0.5520  2.5520
 4932SOL    HW226259   4.565   2.699   3.268 -3.1240 -3.3925  1.0765
 4933SOL     OW26260   0.358   1.432   0.664  0.6618  0.0285 -0.2063
 4933SOL    HW126261   0.366   1.337   0.653 -0.9067 -0.1214 -0.1108
 4933SOL    HW226262   0.276   1.435   0.714  0.5801  1.1200 -0.4022
 4934SOL     OW26263   2.969   2.555   6.056  0.1131  0.8930  0.0125
 4934SOL    HW126264   3.055   2.578   6.091  0.5173  1.0748 -1.1105
 4934SOL    HW226265   2.996   2.471   6.018 -0.5798  0.4319  0.5347
 4935SOL     OW26266   4.579   4.219   7.333 -0.1332  0.3038 -0.5449
 4935SOL    HW126267   4.566   4.198   7.241 -2.3613 -2.4820  0.3683
 4935SOL    HW226268   4.641   4.147   7.347 -2.2331 -1.2710  0.7195
 4936SOL     OW26269   0.774   0.075  14.370 -0.4232 -0.1818  0.7283
 4936SOL    HW126270   0.814   0.050  14.287  0.7032 -0.5957  1.3965
 4936SOL    HW226271   0.715   0.001  14.387 -0.2612 -0.7681 -1.2522
 4937SOL     OW26272   1.207   1.191  11.702  0.1784 -0.3398 -0.0760
 4937SOL    HW126273   1.242   1.275  11.675  1.5012 -0.3796  1.4854
 4937SOL    HW226274   1.213   1.140  11.621  2.3057 -1.7780  0.9596
 4938SOL     OW26275   2.148   1.385  11.033 -0.2336 -0.3751  0.5512
 4938SOL    HW126276   2.238   1.417  11.032  0.5437 -2.5206  0.5923
 4938SOL    HW226277   2.109   1.459  11.079  1.7351  1.9930 -1.6154
 4939SOL     OW26278   2.593   2.169   5.241 -0.1538  0.9643 -0.1338
 4939SOL    HW126279   2.570   2.121   5.161  2.4911 -1.7983  0.7857
 4939SOL    HW226280   2.593   2.099   5.305  0.0073  0.5108 -0.6289
 4940SOL     OW26281   1.688   1.786   3.700 -0.3724  0.1379 -0.1110
 4940SOL    HW126282   1.772   1.808   3.661 -0.7289  2.0470  0.1986
 4940SOL    HW226283   1.660   1.716   3.641  0.0120 -0.8049  0.8344
 4941SOL     OW26284   0.338   3.621  16.235 -0.1564 -0.1127  0.0645
 4941SOL    HW126285   0.431   3.645  16.233  0.2801 -1.5703  2.2059
 4941SOL    HW226286   0.297   3.663  16.160  1.4696  0.6861 -0.3852
 4942SOL     OW26287   3.860   0.289  13.420  0.1436 -0.3103  0.0679
 4942SOL    HW126288   3.887   0.232  13.349  1.9426 -2.0204  2.1198
 4942SOL    HW226289   3.897   0.246  13.498 -2.3157  1.1943  2.0820
 4943SOL     OW26290   0.983   0.226  14.521 -0.1036 -0.0696  0.6548
 4943SOL    HW126291   0.903   0.204  14.473 -0.0823 -2.3339  1.6762
 4943SOL    HW226292   1.037   0.256  14.449  0.0178  3.4749  2.1739
 4944SOL     OW26293   3.797   0.510   6.242 -0.4056  0.2369 -0.1349
 4944SOL    HW126294   3.743   0.573   6.290 -1.0309 -0.3869 -0.0225
 4944SOL    HW226295   3.805   0.446   6.313  2.4127  0.1598 -0.5547
 4945SOL     OW26296   2.343   4.184  17.204  0.6943 -0.2564 -0.0291
 4945SOL    HW126297   2.258   4.205  17.165  1.7911 -0.5874 -2.5968
 4945SOL    HW226298   2.380   4.272  17.207  0.0656  0.1066 -2.3690
 4946SOL     OW26299   3.658   4.338  16.288  0.3053 -0.3820  0.1041
 4946SOL    HW126300   3.692   4.253  16.261  0.4953  0.4229 -2.1624
 4946SOL    HW226301   3.584   4.307  16.342 -0.1309  0.8470  0.2117
 4947SOL     OW26302   1.096   3.856   7.174 -0.1905  0.3089  0.1308
 4947SOL    HW126303   1.025   3.797   7.148  1.2332 -1.0323 -0.6823
 4947SOL    HW226304   1.171   3.806   7.143 -1.5987  0.8256 -4.1023
 4948SOL     OW26305   2.627   0.434  14.306 -0.2066 -0.0947 -0.0520
 4948SOL    HW126306   2.552   0.434  14.246 -0.2882 -1.0469  0.0464
 4948SOL    HW226307   2.622   0.527  14.327  0.5813 -0.2052  0.6303
 4949SOL     OW26308   0.589   2.929   8.415 -0.5625  0.1350  0.3860
 4949SOL    HW126309   0.562   2.838   8.428  1.9418 -0.6895 -0.2732
 4949SOL    HW226310   0.571   2.967   8.500  2.9731 -0.3867  1.3590
 4950SOL     OW26311   3.079   4.649   6.530  0.0038  0.3691  0.4226
 4950SOL    HW126312   3.151   4.655   6.593  1.4673  0.6652 -1.2613
 4950SOL    HW226313   3.128   4.595   6.467 -0.1350  0.1154  0.5330
 4951SOL     OW26314   1.244   3.721  16.732 -0.1877  0.4139  0.4853
 4951SOL    HW126315   1.198   3.703  16.814  1.1337 -0.4885  1.0398
 4951SOL    HW226316   1.295   3.640  16.727 -0.0373  0.6503 -2.1589
 4952SOL     OW26317   3.160   3.025   2.736 -0.2753  0.0016  0.6104
 4952SOL    HW126318   3.233   2.994   2.791  0.0044  0.9888  0.7966
 4952SOL    HW226319   3.093   2.972   2.779  0.2143 -1.8452 -0.9080
 4953SOL     OW26320   3.899   1.335   5.520 -0.7563 -0.1850 -0.0436
 4953SOL    HW126321   3.823   1.279   5.534 -1.8405  0.5983 -2.8561
 4953SOL    HW226322   3.963   1.271   5.553 -1.0944 -0.2435  0.5062
 4954SOL     OW26323   2.004   4.153   3.217  0.1554  0.0486  0.1752
 4954SOL    HW126324   2.025   4.191   3.302  0.5991 -0.3372  0.2387
 4954SOL    HW226325   1.914   4.126   3.237  0.0704  0.4190  0.2832
 4955SOL     OW26326   4.449   1.422   3.077 -0.2106 -0.3685  0.4445
 4955SOL    HW126327   4.408   1.448   3.159 -2.7135 -1.8455 -0.3343
 4955SOL    HW226328   4.369   1.396   3.030 -0.6930  0.5975  0.7417
 4956SOL     OW26329   4.477   3.517  17.626 -0.4211  0.2076 -0.2883
 4956SOL    HW126330   4.567   3.548  17.609 -0.0577 -0.6164  0.1518
 4956SOL    HW226331   4.427   3.545  17.549  0.7784  0.5200 -0.9611
 4957SOL     OW26332   4.101   3.810   2.271 -0.0303 -0.2240 -0.2117
 4957SOL    HW126333   4.152   3.735   2.240 -2.3532 -2.3957  1.1160
 4957SOL    HW226334   4.023   3.803   2.215  0.0542  1.6193 -0.5661
 4958SOL     OW26335   2.068   2.352  10.039  0.4521 -0.1528  0.3060
 4958SOL    HW126336   2.006   2.306   9.982 -0.1394  0.6775  0.2845
 4958SOL    HW226337   2.078   2.434   9.991 -1.6990  1.3930  2.4957
 4959SOL     OW26338   0.722   1.225   4.899  0.1961 -0.4579 -0.8576
 4959SOL    HW126339   0.681   1.139   4.903  0.3058 -0.4551  0.3262
 4959SOL    HW226340   0.662   1.275   4.954 -1.3572  0.2425 -3.2083
 4960SOL     OW26341   4.547   3.009   0.652 -0.6729 -0.0795 -0.1235
 4960SOL    HW126342   4.493   2.931   0.644  0.0452 -0.7225  1.3177
 4960SOL    HW226343   4.475   3.071   0.659  0.4301  0.8720  2.6097
 4961SOL     OW26344   4.398   2.581   4.649 -0.0534 -0.2577  0.2512
 4961SOL    HW126345   4.371   2.490   4.658 -0.9229  0.0345  0.5601
 4961SOL    HW226346   4.489   2.559   4.628  0.1909  1.7087 -0.7322
 4962SOL     OW26347   2.642   2.461   7.648  0.6136 -0.2650  0.5883
 4962SOL    HW126348   2.681   2.547   7.665  0.8787  0.4409 -3.7865
 4962SOL    HW226349   2.575   2.495   7.590 -1.3905  0.1672  3.1348
 4963SOL     OW26350   2.376   0.868  10.737  0.2902 -0.4390  0.0205
 4963SOL    HW126351   2.307   0.893  10.799 -0.3375 -0.3865 -0.7075
 4963SOL    HW226352   2.458   0.880  10.785  0.5603  0.9552 -0.7797
 4964SOL     OW26353   3.093   4.288   5.030 -0.5689 -0.3065 -0.1634
 4964SOL    HW126354   3.086   4.209   5.084  2.4159 -0.2743  0.2992
 4964SOL    HW226355   3.026   4.270   4.964 -1.0607  0.2006  0.2014
 4965SOL     OW26356   2.897   2.724   7.856 -0.9706 -0.0029 -0.1274
 4965SOL    HW126357   2.815   2.724   7.807 -2.3689  0.1667  2.2163
 4965SOL    HW226358   2.868   2.682   7.937  0.0558 -1.7343 -0.6408
 4966SOL     OW26359   2.759   4.302  10.950 -0.2812  0.3143  0.2414
 4966SOL    HW126360   2.683   4.260  10.910  0.3254 -0.3062 -0.2556
 4966SOL    HW226361   2.778   4.364  10.880  0.4958 -0.5553 -0.3250
 4967SOL     OW26362   4.454   3.846  17.477  0.3007  0.1914 -0.2606
 4967SOL    HW126363   4.546   3.869  17.483  0.5867 -0.9984 -0.0415
 4967SOL    HW226364   4.407   3.927  17.495  0.5695 -0.3984  3.0196
 4968SOL     OW26365   2.488   2.599   2.931 -0.2533  0.1902 -0.0192
 4968SOL    HW126366   2.463   2.579   2.840 -1.5269 -2.7381  0.9526
 4968SOL    HW226367   2.413   2.559   2.976  0.4877 -0.7047  0.4049
 4969SOL     OW26368   3.301   4.499  10.980 -0.2063  0.5013  0.4656
 4969SOL    HW126369   3.396   4.511  10.978 -0.2202  0.5339 -0.0573
 4969SOL    HW226370   3.295   4.407  11.007 -2.0753  0.4474 -0.1256
 4970SOL     OW26371   1.773   1.646   2.714 -0.2367 -0.2862  0.1871
 4970SOL    HW126372   1.749   1.554   2.725 -1.4091  0.3695  3.0994
 4970SOL    HW226373   1.744   1.662   2.624  1.2056  1.0333 -0.0518
 4971SOL     OW26374   0.095   2.869  10.599  0.3376 -0.1525 -0.1404
 4971SOL    HW126375   0.015   2.855  10.548  0.3321  0.7675 -0.3862
 4971SOL    HW226376   0.133   2.782  10.600  0.5983 -0.0297  0.4821
 4972SOL     OW26377   3.679   1.558  14.226  0.6678  0.4593 -0.7420
 4972SOL    HW126378   3.739   1.511  14.168  1.0280 -0.1760  0.1382
 4972SOL    HW226379   3.672   1.641  14.178 -1.3842  0.9340  0.3766
 4973SOL     OW26380   2.462   2.026   6.638  0.0068  0.1540  0.1466
 4973SOL    HW126381   2.367   2.031   6.640  0.0950  1.3478  1.2486
 4973SOL    HW226382   2.484   2.035   6.731 -1.5119 -0.7514  0.5999
 4974SOL     OW26383   0.339   3.121   6.021 -0.1709  1.1129  0.0636
 4974SOL    HW126384   0.371   3.170   6.097 -0.2477 -1.6035  1.8339
 4974SOL    HW226385   0.339   3.179   5.945  2.1385  0.2976 -0.5335
 4975SOL     OW26386   0.141   3.903  14.939 -0.6342 -0.1121  0.3949
 4975SOL    HW126387   0.164   3.870  15.026  2.9479  0.5717 -0.3276
 4975SOL    HW226388   0.226   3.944  14.924 -2.6018  2.3892 -3.9595
 4976SOL     OW26389   0.792   3.678   4.470 -0.2452 -0.0867 -0.2496
 4976SOL    HW126390   0.879   3.686   4.510 -0.5633  1.3465  0.1726
 4976SOL    HW226391   0.747   3.745   4.521 -1.0014  2.3071 -4.0117
 4977SOL     OW26392   0.745   1.009   7.764  0.1504 -0.1431  0.0926
 4977SOL    HW126393   0.832   0.971   7.750  0.4352  1.1372 -1.5777
 4977SOL    HW226394   0.761   1.066   7.840 -2.4150 -0.8309  1.1522
 4978SOL     OW26395   3.770   3.780  10.798 -0.7132 -0.1235 -0.1010
 4978SOL    HW126396   3.853   3.827  10.803 -1.0145  0.4664 -0.7708
 4978SOL    HW226397   3.789   3.689  10.821 -0.0782 -0.2172 -0.9880
 4979SOL     OW26398   3.231   4.019   9.147 -0.3953  0.0578  0.5252
 4979SOL    HW126399   3.325   4.037   9.134 -0.1874 -0.4859  1.2945
 4979SOL    HW226400   3.198   4.003   9.058 -1.3778  2.6318  0.4296
 4980SOL     OW26401   0.826   0.161  16.653 -0.6847 -0.0573 -0.3341
 4980SOL    HW126402   0.875   0.142  16.573 -0.9385 -1.5564 -0.1261
 4980SOL    HW226403   0.738   0.169  16.616 -1.0107  1.0339  0.6936
 4981SOL     OW26404   3.813   3.840  14.886  0.0572  0.5668  0.3599
 4981SOL    HW126405   3.861   3.921  14.870 -0.9758  1.3859  1.4149
 4981SOL    HW226406   3.845   3.818  14.973 -0.8310 -0.9710  0.3002
 4982SOL     OW26407   0.548   0.623   6.743  0.1994 -0.6957 -0.0515
 4982SOL    HW126408   0.501   0.703   6.722  0.1393 -0.4306  1.0764
 4982SOL    HW226409   0.637   0.643   6.716 -0.0016 -1.1781 -1.0683
 4983SOL     OW26410   3.217   4.000   1.186 -0.1879  0.5499  0.0773
 4983SOL    HW126411   3.141   4.022   1.134  0.9856  2.5629 -0.7893
 4983SOL    HW226412   3.281   4.036   1.124 -2.4447  2.3602 -1.1630
 4984SOL     OW26413   2.251   0.764   4.167 -0.0987  0.3551  0.2492
 4984SOL    HW126414   2.214   0.676   4.162  0.6327  0.0885 -0.3986
 4984SOL    HW226415   2.303   0.757   4.247  3.2937 -2.1848 -2.2014
 4985SOL     OW26416   4.513   3.467   5.288 -0.0406 -0.0430  0.1149
 4985SOL    HW126417   4.513   3.422   5.372 -0.4113 -0.2228  0.0165
 4985SOL    HW226418   4.553   3.549   5.318 -1.4818  0.5403  0.4580
 4986SOL     OW26419   1.235   0.667   9.005  0.6100 -0.4396  0.3774
 4986SOL    HW126420   1.208   0.757   8.994  3.6630  0.2040 -2.0019
 4986SOL    HW226421   1.331   0.673   9.000  0.4592  1.7157  0.2896
 4987SOL     OW26422   0.423   2.144  13.192 -0.2609  0.0939 -0.3788
 4987SOL    HW126423   0.513   2.177  13.189  0.6932 -2.2785  2.1589
 4987SOL    HW226424   0.444   2.052  13.203 -0.4573  0.1782  0.7161
 4988SOL     OW26425   4.275   2.864  11.018 -0.5092  0.2751 -0.2554
 4988SOL    HW126426   4.292   2.812  10.940 -0.0920  0.4038 -0.2500
 4988SOL    HW226427   4.320   2.810  11.083  0.0622 -0.1105 -0.9719
 4989SOL     OW26428   0.173   4.463   2.615  0.1168 -0.1229  0.4192
 4989SOL    HW126429   0.096   4.488   2.666  0.3064  0.2701  0.5137
 4989SOL    HW226430   0.219   4.414   2.682 -0.9462  0.1669  1.3673
 4990SOL     OW26431   3.422   1.600  16.261 -0.0545 -0.9464 -0.0869
 4990SOL    HW126432   3.416   1.509  16.232 -0.4463 -1.0804  0.4191
 4990SOL    HW226433   3.338   1.639  16.236  0.0790 -0.7652 -0.2517
 4991SOL     OW26434   2.884   3.688  14.099 -0.2437 -0.2748  0.0403
 4991SOL    HW126435   2.905   3.721  14.012  0.2065  3.5748  1.6130
 4991SOL    HW226436   2.877   3.592  14.094 -2.3871 -0.1053 -0.3770
 4992SOL     OW26437   4.550   0.644   8.601 -0.3443  0.5331  0.1040
 4992SOL    HW126438   4.492   0.718   8.617 -0.4184  0.2269  1.2427
 4992SOL    HW226439   4.533   0.572   8.662 -0.2410 -1.3780 -2.1107
 4993SOL     OW26440   0.781   0.578  10.723  0.4929 -0.5089 -0.6267
 4993SOL    HW126441   0.865   0.544  10.753 -0.8673 -4.7627 -1.6376
 4993SOL    HW226442   0.819   0.629  10.651 -0.9064  1.0335 -0.2804
 4994SOL     OW26443   2.408   3.500   3.739 -0.1969  0.0808 -0.2484
 4994SOL    HW126444   2.443   3.416   3.768 -0.2793 -0.4829 -1.7682
 4994SOL    HW226445   2.450   3.502   3.653  1.0040  1.4289  0.3664
 4995SOL     OW26446   1.403   1.468   2.642 -0.5632  0.3877  0.0650
 4995SOL    HW126447   1.334   1.515   2.688  0.5838  1.8270  0.3455
 4995SOL    HW226448   1.397   1.511   2.557 -0.4545  0.7265  0.2247
 4996SOL     OW26449   3.774   0.199  10.092  0.7980  0.4256 -0.6388
 4996SOL    HW126450   3.740   0.274  10.044 -1.2202 -0.5242 -0.7041
 4996SOL    HW226451   3.690   0.154  10.105  0.3147  1.0687 -1.5727
 4997SOL     OW26452   2.264   4.707   3.521  0.1478  0.5922 -0.0882
 4997SOL    HW126453   2.341   4.651   3.515 -0.9425 -1.0717  1.4814
 4997SOL    HW226454   2.208   4.647   3.571  1.7149  0.5232  1.5930
 4998SOL     OW26455   1.691   3.314   7.268 -0.2023  0.1275  0.1913
 4998SOL    HW126456   1.642   3.373   7.324 -1.4388 -0.8840  0.1671
 4998SOL    HW226457   1.734   3.258   7.333 -0.7244 -1.0090 -0.4441
 4999SOL     OW26458   1.341   3.587  12.818 -0.0764 -0.2739  0.1887
 4999SOL    HW126459   1.359   3.493  12.813 -3.3444 -0.6724 -3.3402
 4999SOL    HW226460   1.253   3.601  12.783  0.7139  1.4976 -1.1214
 5000SOL     OW26461   1.331   3.774   1.007  0.3540  0.3886 -0.3838
 5000SOL    HW126462   1.367   3.832   0.940 -2.0358  1.7928 -0.4504
 5000SOL    HW226463   1.408   3.770   1.064 -1.3583  1.7696  2.0046
 5001SOL     OW26464   0.431   4.716   5.336  0.1971  0.0926  0.0130
 5001SOL    HW126465   0.346   0.023   5.304 -0.3516 -0.9749  0.4532
 5001SOL    HW226466   0.453   4.641   5.280  0.9082 -0.5399  1.1343
 5002SOL     OW26467   1.069   2.848   3.703 -0.2965  0.7704 -0.1397
 5002SOL    HW126468   1.072   2.824   3.610 -2.7214 -3.3056  0.8609
 5002SOL    HW226469   1.154   2.819   3.737 -0.9369 -0.9590 -0.0421
 5003SOL     OW26470   4.379   4.157  12.035 -0.0699  0.9652  0.4252
 5003SOL    HW126471   4.334   4.149  12.119 -2.2251 -1.0266 -0.9174
 5003SOL    HW226472   4.308   4.205  11.992 -0.3149  0.9293  0.7907
 5004SOL     OW26473   2.196   1.166  13.478  0.1608  0.0854 -0.0753
 5004SOL    HW126474   2.267   1.112  13.443  0.2154  0.4245 -0.4896
 5004SOL    HW226475   2.131   1.130  13.418 -0.1466  1.2859 -0.4654
 5005SOL     OW26476   2.060   4.528   2.711 -0.1580  0.3480  0.4883
 5005SOL    HW126477   2.078   4.463   2.779 -0.9441  0.7126  1.0457
 5005SOL    HW226478   2.107   4.603   2.747  2.8480 -1.5110  0.5099
 5006SOL     OW26479   0.021   2.649  10.886  0.3430  0.5486  0.3299
 5006SOL    HW126480   0.068   2.627  10.806 -1.1595  0.3194 -0.4915
 5006SOL    HW226481   4.679   2.710  10.853  0.9253  0.4664 -0.9726
 5007SOL     OW26482   0.081   0.717  13.923  0.0853 -0.2048 -0.0550
 5007SOL    HW126483   0.000   0.758  13.953 -0.5005 -2.3031  1.2683
 5007SOL    HW226484   0.047   0.632  13.896  2.4881 -0.0432 -3.5780
 5008SOL     OW26485   3.406   2.929   7.808  0.0634  0.2332  0.5640
 5008SOL    HW126486   3.330   2.881   7.775  0.7498  0.2014 -0.9722
 5008SOL    HW226487   3.393   3.017   7.774  1.0726 -0.4855 -1.6822
 5009SOL     OW26488   2.535   1.082   2.355  0.8051  0.1727 -0.3110
 5009SOL    HW126489   2.475   1.047   2.421 -0.5565  1.3062 -0.9593
 5009SOL    HW226490   2.621   1.071   2.396  0.7103 -0.7441 -0.3542
 5010SOL     OW26491   0.597   2.276   3.906  0.2982 -0.2448 -0.3133
 5010SOL    HW126492   0.599   2.273   4.002 -0.0420  0.0161 -0.2947
 5010SOL    HW226493   0.628   2.366   3.895  1.1684 -0.6770 -1.3546
 5011SOL     OW26494   0.659   4.491   6.914 -0.3073 -0.2759 -0.2015
 5011SOL    HW126495   0.671   4.507   6.820 -0.4036 -2.0815 -0.5299
 5011SOL    HW226496   0.564   4.487   6.918 -0.2976 -0.0266  0.1870
 5012SOL     OW26497   4.707   0.013   0.739  0.1009  0.1176 -0.3319
 5012SOL    HW126498   4.645   4.664   0.746  2.8130 -2.0680  0.5038
 5012SOL    HW226499   0.069   4.696   0.750 -0.4822 -0.7467  0.8843
 5013SOL     OW26500   1.153   2.326  12.059 -0.5469  0.8273 -0.5305
 5013SOL    HW126501   1.113   2.373  11.985 -0.5702 -1.5665 -2.0542
 5013SOL    HW226502   1.145   2.233  12.038  1.7834 -0.4324  4.1375
 5014SOL     OW26503   2.980   3.619   0.212  0.9009 -0.5898  0.5100
 5014SOL    HW126504   3.000   3.653   0.299  0.3962  0.4744  0.2128
 5014SOL    HW226505   3.056   3.656   0.167 -1.0330 -0.5806 -2.7535
 5015SOL     OW26506   2.765   4.198  14.034  0.3447 -0.4715  0.5977
 5015SOL    HW126507   2.831   4.184  14.101 -0.0877  0.4807  1.2339
 5015SOL    HW226508   2.828   4.203  13.962  1.7826 -1.8963  1.7697
 5016SOL     OW26509   1.700   0.744   9.751  0.0749  0.3182  0.2753
 5016SOL    HW126510   1.743   0.714   9.831 -2.8230  0.1704  1.7868
 5016SOL    HW226511   1.609   0.731   9.778 -0.0231  0.0006 -0.2137
 5017SOL     OW26512   2.986   3.615  15.118  0.0978 -0.3083 -0.0956
 5017SOL    HW126513   2.981   3.611  15.213  0.2636  1.5517 -0.0177
 5017SOL    HW226514   3.077   3.644  15.106  0.0474  0.3304  1.1007
 5018SOL     OW26515   3.417   1.697   4.909  0.7368  0.1226  0.5742
 5018SOL    HW126516   3.333   1.692   4.955 -0.5817  0.6183 -1.7935
 5018SOL    HW226517   3.471   1.743   4.974 -0.9327  2.6661  0.1707
 5019SOL     OW26518   0.002   0.460  13.846  0.1675 -0.1902  0.3071
 5019SOL    HW126519   0.049   0.447  13.763  0.8006  1.1792  0.4522
 5019SOL    HW226520   0.038   0.392  13.903  0.9358  0.7025  0.8979
 5020SOL     OW26521   2.767   0.099   5.082 -0.1618 -0.3216 -0.0988
 5020SOL    HW126522   2.697   0.162   5.098  0.0722  0.3954 -1.8945
 5020SOL    HW226523   2.789   0.124   4.992  0.3677  2.7482  0.9237
 5021SOL     OW26524   0.625   0.255   4.644  0.1968 -0.3738  0.4877
 5021SOL    HW126525   0.537   0.277   4.676  1.0782 -0.8176  3.1676
 5021SOL    HW226526   0.674   0.223   4.719  0.9761  0.8170  0.4955
 5022SOL     OW26527   3.953   4.393   1.853  0.3823  0.0167 -0.1939
 5022SOL    HW126528   3.950   4.486   1.833 -2.1823 -0.2566 -1.1124
 5022SOL    HW226529   3.884   4.368   1.791 -2.1122 -0.7821  2.8981
 5023SOL     OW26530   2.000   3.793   5.006  0.4479 -0.7298 -0.4130
 5023SOL    HW126531   1.973   3.872   5.054  1.0420 -1.0679  0.4789
 5023SOL    HW226532   2.026   3.838   4.926 -0.3728  1.2273  0.4089
 5024SOL     OW26533   2.757   2.794  17.563  0.1585 -0.4829  0.2133
 5024SOL    HW126534   2.820   2.742  17.614  0.3617 -0.5421 -0.0993
 5024SOL    HW226535   2.808   2.806  17.483 -2.2413 -0.6558 -1.3221
 5025SOL     OW26536   1.438   1.419   7.851 -0.2895  0.0421 -0.1820
 5025SOL    HW126537   1.397   1.421   7.764 -1.1553 -0.5120  0.2084
 5025SOL    HW226538   1.485   1.501   7.841 -0.3661  0.2485  1.1196
 5026SOL     OW26539   3.938   0.044  16.931 -0.1134 -0.3554 -0.2665
 5026SOL    HW126540   3.887   0.118  16.963 -0.7898 -0.1233 -1.9401
 5026SOL    HW226541   3.944   0.001  17.017  0.3913  0.1795 -0.0375
 5027SOL     OW26542   4.519   4.467  16.710 -0.4454  0.6319 -0.0351
 5027SOL    HW126543   4.462   4.484  16.784  1.6914 -0.6232  1.9134
 5027SOL    HW226544   4.589   4.436  16.768 -0.4388 -1.6917 -1.2731
 5028SOL     OW26545   2.295   1.570   7.268 -0.1871  0.0804  0.3265
 5028SOL    HW126546   2.219   1.627   7.278  0.0467 -0.0331  2.6236
 5028SOL    HW226547   2.267   1.502   7.329 -0.4127 -1.9898 -2.0652
 5029SOL     OW26548   0.848   0.468  14.045  0.9214 -0.0207 -0.1341
 5029SOL    HW126549   0.771   0.523  14.055  0.9800 -0.0048  0.2247
 5029SOL    HW226550   0.877   0.458  14.135 -0.8859  0.0122  0.4434
 5030SOL     OW26551   4.328   2.564  15.197  0.0616  0.0616  0.5424
 5030SOL    HW126552   4.276   2.517  15.262 -0.3092  1.7572  1.4644
 5030SOL    HW226553   4.372   2.635  15.243  0.8443 -0.1462  0.1081
 5031SOL     OW26554   4.367   4.640  15.034 -0.1846  0.2517 -0.1934
 5031SOL    HW126555   4.310   4.643  15.110 -1.0365 -1.9601 -0.7493
 5031SOL    HW226556   4.320   4.704  14.980 -2.6479  0.5593  2.3322
 5032SOL     OW26557   4.109   0.657  11.084 -0.2833 -0.0362 -0.3225
 5032SOL    HW126558   4.058   0.577  11.096 -0.8355  0.6262  1.6839
 5032SOL    HW226559   4.177   0.639  11.019 -1.5405 -0.8736 -1.4111
 5033SOL     OW26560   4.652   0.285   7.715 -0.4215 -0.0095 -0.0677
 5033SOL    HW126561   4.666   0.376   7.741  0.2185 -0.4040  1.0038
 5033SOL    HW226562   4.656   0.239   7.799 -2.3650  2.9249  1.6206
 5034SOL     OW26563   3.099   1.238  15.696 -0.8518 -0.0930 -0.3541
 5034SOL    HW126564   3.193   1.234  15.712 -0.6359 -1.1420 -1.8778
 5034SOL    HW226565   3.101   1.209  15.604 -0.7515 -0.5816 -0.2003
 5035SOL     OW26566   1.336   4.032   6.474 -0.4358  0.9531  0.0258
 5035SOL    HW126567   1.368   4.122   6.474  0.4632  0.6263  0.7730
 5035SOL    HW226568   1.353   4.011   6.566  2.0466  1.0514 -0.4026
 5036SOL     OW26569   2.004   2.070   5.075  0.2222  0.6933 -0.2564
 5036SOL    HW126570   2.016   2.162   5.051  0.1018  0.7686 -0.0319
 5036SOL    HW226571   1.933   2.091   5.136 -0.7603  2.7139 -2.0805
 5037SOL     OW26572   2.100   1.872  14.593 -0.4743  0.3703 -1.0860
 5037SOL    HW126573   2.158   1.797  14.583  1.4619  1.5440  1.4440
 5037SOL    HW226574   2.018   1.834  14.560 -2.3364  2.3471  1.3083
 5038SOL     OW26575   1.303   0.846   3.092  0.4437  0.4107  0.0589
 5038SOL    HW126576   1.396   0.823   3.102  0.3845 -0.1378 -0.6961
 5038SOL    HW226577   1.269   0.757   3.081 -0.2931  0.6835  0.1801
 5039SOL     OW26578   3.929   4.044   7.606  0.0893 -0.2260  0.3501
 5039SOL    HW126579   3.941   4.069   7.514  0.0419 -2.8675 -0.3780
 5039SOL    HW226580   3.842   4.005   7.607  0.7229 -1.6545  0.4954
 5040SOL     OW26581   2.532   2.301   2.030  0.2310 -0.1976  0.2649
 5040SOL    HW126582   2.558   2.294   1.938  1.6901 -1.0747  0.7472
 5040SOL    HW226583   2.445   2.262   2.020  0.2205  0.1862 -1.0807
 5041SOL     OW26584   1.440   2.458  14.619 -0.0848  0.1133 -0.3150
 5041SOL    HW126585   1.523   2.415  14.597 -0.1129  0.9000 -1.9488
 5041SOL    HW226586   1.444   2.449  14.714  2.0230 -2.3702 -0.6437
 5042SOL     OW26587   0.384   0.846   6.730  0.7842  0.5716 -0.0513
 5042SOL    HW126588   0.338   0.861   6.812 -0.2161 -0.8742 -0.3545
 5042SOL    HW226589   0.308   0.858   6.673  0.7704  1.8966  0.2434
 5043SOL     OW26590   2.181   2.262   6.823 -0.0882  0.2166 -0.1381
 5043SOL    HW126591   2.101   2.252   6.875  0.2940  2.3578  0.8651
 5043SOL    HW226592   2.202   2.169   6.817 -0.8981  0.0914 -0.9771
 5044SOL     OW26593   1.663   1.104   0.739  0.0741 -0.3088 -0.6649
 5044SOL    HW126594   1.647   1.182   0.791  2.5627 -0.0796 -0.2858
 5044SOL    HW226595   1.590   1.050   0.770 -0.5177  1.2061  0.5614
 5045SOL     OW26596   3.816   3.349   3.211  0.0446 -0.1493 -0.9620
 5045SOL    HW126597   3.831   3.367   3.118  1.1145  0.3189 -0.6959
 5045SOL    HW226598   3.772   3.430   3.238 -1.5990 -1.3022 -0.1408
 5046SOL     OW26599   4.557   0.289  12.628 -0.1359 -0.2275 -0.1031
 5046SOL    HW126600   4.624   0.225  12.655  0.0345  1.1940  2.9006
 5046SOL    HW226601   4.515   0.306  12.713 -0.0664 -0.0633 -0.1025
 5047SOL     OW26602   2.020   2.102  13.596  0.1755  0.0553  0.1580
 5047SOL    HW126603   1.970   2.080  13.675  0.1320 -1.8767 -0.4006
 5047SOL    HW226604   2.082   2.029  13.589 -0.0540 -0.0240 -0.9190
 5048SOL     OW26605   0.279   2.448   5.275  0.5911  0.1030  0.5226
 5048SOL    HW126606   0.296   2.442   5.181  2.4943 -2.1099  1.0151
 5048SOL    HW226607   0.211   2.382   5.289 -0.6982  1.0194 -1.3996
 5049SOL     OW26608   1.113   4.362   5.217 -0.3280 -0.3067 -0.4906
 5049SOL    HW126609   1.054   4.373   5.290  0.2526 -0.8845  0.0662
 5049SOL    HW226610   1.063   4.320   5.146 -1.3300 -1.3494  0.8458
 5050SOL     OW26611   2.899   0.745   7.489 -0.2101 -0.6383  0.7629
 5050SOL    HW126612   2.927   0.833   7.463 -2.1473 -0.5703 -1.1326
 5050SOL    HW226613   2.876   0.699   7.408  0.7224  0.7587 -0.2901
 5051SOL     OW26614   2.935   4.093   6.269 -0.0181 -0.4281 -0.4058
 5051SOL    HW126615   2.923   4.164   6.332 -2.7337 -0.8955 -0.3663
 5051SOL    HW226616   2.910   4.024   6.330  1.7386 -0.7129 -0.0042
 5052SOL     OW26617   3.116   3.243   4.488 -0.0461  0.9916 -0.1228
 5052SOL    HW126618   3.096   3.220   4.397  0.2006 -1.9224  0.5369
 5052SOL    HW226619   3.123   3.336   4.469 -0.0517  0.6860 -1.7031
 5053SOL     OW26620   1.068   3.925   6.698  0.0928 -0.0161 -0.0151
 5053SOL    HW126621   1.096   4.005   6.653  3.0721 -0.2310  1.4589
 5053SOL    HW226622   0.973   3.927   6.692  0.0106 -0.7302  1.1834
 5054SOL     OW26623   4.140   4.156   1.815 -0.0764  0.7730 -0.1105
 5054SOL    HW126624   4.108   4.099   1.746  2.6641 -1.2664  0.2960
 5054SOL    HW226625   4.232   4.129   1.820 -1.0464 -2.1919  1.2371
 5055SOL     OW26626   4.702   1.673   8.977 -0.1032 -0.0729  0.4541
 5055SOL    HW126627   0.040   1.741   9.004 -1.2721  1.7475 -1.4953
 5055SOL    HW226628   0.027   1.612   8.921 -2.0316 -1.9844  0.8238
 5056SOL     OW26629   1.554   4.697   5.314 -0.0592  0.0589  0.1063
 5056SOL    HW126630   1.589   4.655   5.392  2.1787 -0.8651 -1.3892
 5056SOL    HW226631   1.477   0.012   5.355 -0.6951 -1.8190  0.6776
 5057SOL     OW26632   3.809   4.225  11.620  0.5952  0.0813 -0.1672
 5057SOL    HW126633   3.748   4.292  11.649  0.5894  0.3345 -0.7782
 5057SOL    HW226634   3.887   4.244  11.673  1.8195 -0.5591 -1.7328
 5058SOL     OW26635   3.988   4.004   2.511 -0.2629 -0.4297 -0.2813
 5058SOL    HW126636   4.079   4.012   2.485  0.5134 -0.5752  2.3747
 5058SOL    HW226637   3.981   3.909   2.525 -1.8258 -0.4388 -1.0775
 5059SOL     OW26638   4.461   2.005   8.340 -0.2989  0.0024 -0.3117
 5059SOL    HW126639   4.509   2.085   8.321 -0.9146  0.0030 -1.9018
 5059SOL    HW226640   4.492   1.976   8.425  0.5525  2.0134  0.0581
 5060SOL     OW26641   1.635   1.745  11.826  0.1874  0.0504 -0.4037
 5060SOL    HW126642   1.668   1.660  11.855  0.1923  0.0568 -0.3901
 5060SOL    HW226643   1.663   1.797  11.901  0.4926 -0.3479 -0.2412
 5061SOL     OW26644   0.665   3.605   3.975 -0.4159 -0.2731 -0.3185
 5061SOL    HW126645   0.725   3.672   3.945 -2.1464  0.5133 -1.9757
 5061SOL    HW226646   0.598   3.654   4.022  0.5847  0.9094 -0.1324
 5062SOL     OW26647   2.430   1.318   7.796 -0.0059 -0.0045 -0.5035
 5062SOL    HW126648   2.503   1.361   7.750  0.4699 -0.9766 -0.6512
 5062SOL    HW226649   2.481   1.257   7.849  0.5541 -0.6661 -1.8001
 5063SOL     OW26650   3.095   3.740  15.955  0.1580  0.0745 -0.2262
 5063SOL    HW126651   3.149   3.666  15.927 -0.0725 -0.9738  2.1096
 5063SOL    HW226652   3.023   3.716  15.897 -1.1481  0.3289  1.3123
 5064SOL     OW26653   4.485   1.597  13.671  0.0004  0.3377 -0.0373
 5064SOL    HW126654   4.397   1.624  13.695 -0.3623 -4.0296  3.6014
 5064SOL    HW226655   4.518   1.674  13.625  1.0186  0.2439  0.5325
 5065SOL     OW26656   4.000   3.014   0.320 -0.0486 -0.2521 -0.4799
 5065SOL    HW126657   3.935   3.011   0.390  1.0505  0.3282  0.5451
 5065SOL    HW226658   3.955   3.084   0.272 -1.7329 -1.1946 -0.2878
 5066SOL     OW26659   3.285   1.250   3.064  0.5758  0.0130 -0.0150
 5066SOL    HW126660   3.200   1.250   3.109 -0.6955 -0.2931 -2.3763
 5066SOL    HW226661   3.292   1.340   3.035  0.4938  0.0257  0.0047
 5067SOL     OW26662   0.786   0.124   3.296 -0.3205 -0.0245  0.1976
 5067SOL    HW126663   0.881   0.133   3.287 -0.1026 -3.8841 -1.2063
 5067SOL    HW226664   0.768   0.123   3.390 -0.6347  1.0146  0.1468
 5068SOL     OW26665   2.328   3.727  12.528 -0.0674 -0.2539 -0.5447
 5068SOL    HW126666   2.383   3.743  12.605 -1.1976 -0.2603  0.2632
 5068SOL    HW226667   2.380   3.658  12.488 -0.0064 -0.3244 -0.3452
 5069SOL     OW26668   4.460   3.945   7.424 -0.0841 -0.3155 -0.1543
 5069SOL    HW126669   4.427   4.032   7.400 -2.3430 -1.9352 -3.0037
 5069SOL    HW226670   4.474   3.909   7.336  0.9194  0.9740 -0.5276
 5070SOL     OW26671   2.503   1.463  10.045 -0.1619 -0.2690 -0.6301
 5070SOL    HW126672   2.552   1.539  10.012 -1.1769  0.3407 -0.7278
 5070SOL    HW226673   2.513   1.398   9.976 -0.2648 -1.7929  0.8015
 5071SOL     OW26674   4.577   1.014   0.972  0.9156 -0.1024 -0.1060
 5071SOL    HW126675   4.553   0.942   1.030 -0.2892 -1.2043 -1.9962
 5071SOL    HW226676   4.671   1.003   0.956  0.8005  1.1496 -1.6100
 5072SOL     OW26677   2.275   0.668   5.578 -0.2063  0.5040  0.1647
 5072SOL    HW126678   2.243   0.758   5.577  1.2221  0.9918 -1.7619
 5072SOL    HW226679   2.307   0.662   5.489  1.7423 -1.0519  0.9824
 5073SOL     OW26680   4.256   4.013  15.372  0.0677 -0.1877  0.9615
 5073SOL    HW126681   4.166   3.996  15.399 -0.1849 -0.0505  0.1910
 5073SOL    HW226682   4.283   3.928  15.407  1.1423 -0.1595  0.2004
 5074SOL     OW26683   1.341   2.561   5.469 -0.2229 -0.2916 -0.3326
 5074SOL    HW126684   1.316   2.650   5.492 -2.0750 -1.5026  2.3166
 5074SOL    HW226685   1.263   2.513   5.496  0.2658 -0.4445  0.8243
 5075SOL     OW26686   1.201   4.254   5.615 -0.1306  0.0960 -0.1327
 5075SOL    HW126687   1.247   4.321   5.564 -0.5538  0.7411  0.3311
 5075SOL    HW226688   1.254   4.175   5.597 -0.6974 -0.6865  1.7017
 5076SOL     OW26689   1.330   2.816   3.788 -0.0087 -0.0361  0.2033
 5076SOL    HW126690   1.358   2.803   3.878  0.2168  1.6593  0.3831
 5076SOL    HW226691   1.405   2.792   3.735 -0.4526 -1.0377  0.0289
 5077SOL     OW26692   2.486   4.105   7.686  0.0309  0.0677 -0.3344
 5077SOL    HW126693   2.466   4.159   7.609  0.2554 -1.2716 -1.3433
 5077SOL    HW226694   2.510   4.179   7.741  1.5987 -1.0832  0.5308
 5078SOL     OW26695   4.211   2.901   9.502 -0.0139 -0.3505  0.4166
 5078SOL    HW126696   4.266   2.931   9.429  0.8041  0.1119  1.2169
 5078SOL    HW226697   4.191   2.814   9.468  0.4276 -0.9786  1.7817
 5079SOL     OW26698   1.068   2.919   2.329  0.0447 -0.2138  0.3072
 5079SOL    HW126699   1.113   3.004   2.330 -1.8895  0.7976  1.5420
 5079SOL    HW226700   0.981   2.958   2.332  1.1902  2.3807 -0.2749
 5080SOL     OW26701   0.388   2.004   0.323 -0.1834  0.2459  0.1712
 5080SOL    HW126702   0.329   1.932   0.346  1.5641 -1.1529  0.2726
 5080SOL    HW226703   0.324   2.073   0.306 -1.0093 -0.5122  0.2037
 5081SOL     OW26704   0.040   2.595  11.690  0.7742 -0.1972 -0.3642
 5081SOL    HW126705   0.023   2.501  11.696  0.4636 -0.1909 -1.2554
 5081SOL    HW226706   0.086   2.608  11.773  0.4069 -0.3800 -0.1340
 5082SOL     OW26707   3.002   3.657   3.881  0.1795 -0.1339  0.2140
 5082SOL    HW126708   2.920   3.682   3.923  0.4380  0.2035  0.5187
 5082SOL    HW226709   3.059   3.648   3.958 -2.1847 -0.6647  1.8958
 5083SOL     OW26710   0.616   0.462  16.762  0.2506  0.2232 -0.3960
 5083SOL    HW126711   0.525   0.480  16.741 -0.0901 -2.1682 -0.9590
 5083SOL    HW226712   0.609   0.422  16.849 -1.2110  0.0885 -0.5748
 5084SOL     OW26713   0.123   2.242  17.383  0.3132  0.4055 -0.9764
 5084SOL    HW126714   0.058   2.276  17.444  1.6064  2.2283 -0.6361
 5084SOL    HW226715   0.124   2.313  17.318 -1.2573 -0.6865 -2.2091
 5085SOL     OW26716   2.173   4.253  10.393 -0.5845  0.4624  0.1450
 5085SOL    HW126717   2.193   4.190  10.462  0.0632  1.8585  1.2246
 5085SOL    HW226718   2.261   4.286  10.376 -0.5622  2.0482  3.4462
 5086SOL     OW26719   0.518   3.344  13.452 -0.1749  0.3855  0.9382
 5086SOL    HW126720   0.551   3.255  13.457  1.4729  0.8883 -0.9528
 5086SOL    HW226721   0.592   3.389  13.491 -0.9968  1.5452  1.1728
 5087SOL     OW26722   3.617   2.152   4.783  0.2486  0.9232 -0.1468
 5087SOL    HW126723   3.668   2.215   4.833 -0.6523  2.2549 -0.8848
 5087SOL    HW226724   3.647   2.171   4.694  1.3299  0.4825  0.1353
 5088SOL     OW26725   0.895   0.346   7.927 -0.5399 -0.4203  0.1303
 5088SOL    HW126726   0.877   0.295   7.849 -2.1924 -1.1792  1.0184
 5088SOL    HW226727   0.854   0.431   7.911  0.9889  0.9255  3.1803
 5089SOL     OW26728   3.456   1.009   9.954 -0.4374  0.6814 -0.0419
 5089SOL    HW126729   3.431   0.997   9.862 -1.9335 -0.0135  0.4581
 5089SOL    HW226730   3.402   1.081   9.986 -1.3301 -0.1184  0.2717
 5090SOL     OW26731   2.999   2.493   3.205 -0.2826  0.7798 -0.0001
 5090SOL    HW126732   3.068   2.463   3.264  1.0528 -0.2176 -2.0736
 5090SOL    HW226733   2.983   2.412   3.156 -1.9055  0.0955  1.6709
 5091SOL     OW26734   0.383   4.412  16.238 -0.0575 -0.3223  0.1442
 5091SOL    HW126735   0.293   4.425  16.206  0.0106 -1.9472 -0.6888
 5091SOL    HW226736   0.373   4.321  16.266 -0.0443 -0.6177 -0.8043
 5092SOL     OW26737   2.711   4.120   5.986  0.1543  0.2386 -0.1540
 5092SOL    HW126738   2.801   4.153   5.990 -0.2640  1.4734 -0.6787
 5092SOL    HW226739   2.722   4.032   5.951 -3.3468 -0.0189 -0.6114
 5093SOL     OW26740   3.430   1.389   6.760  0.1117 -0.1571 -0.3010
 5093SOL    HW126741   3.351   1.343   6.734 -1.5689  2.5383  0.0614
 5093SOL    HW226742   3.490   1.314   6.770 -0.2493 -0.2797  1.0220
 5094SOL     OW26743   0.461   2.551   5.983  0.5278  0.0338  0.2661
 5094SOL    HW126744   0.420   2.523   5.901  0.3189 -0.5438  0.5686
 5094SOL    HW226745   0.527   2.482   5.985 -1.8435 -2.2309  0.0639
 5095SOL     OW26746   0.916   2.299  13.140 -0.0972 -0.6528  0.5074
 5095SOL    HW126747   0.872   2.378  13.171 -1.8462 -0.5790 -2.1698
 5095SOL    HW226748   0.983   2.346  13.089  1.1388 -1.0721  1.7396
 5096SOL     OW26749   1.553   4.147  14.864 -0.0968  0.0072  0.2868
 5096SOL    HW126750   1.497   4.157  14.787  0.2794 -1.4357 -0.1884
 5096SOL    HW226751   1.637   4.154  14.818  1.0425 -1.2654  2.2044
 5097SOL     OW26752   3.558   0.981  13.650 -0.5865  0.5425 -0.1738
 5097SOL    HW126753   3.535   0.986  13.557 -0.0085 -3.4594 -0.5459
 5097SOL    HW226754   3.538   1.069  13.682 -0.3858  0.0264  1.3416
 5098SOL     OW26755   0.246   2.122   3.239  1.1853 -0.1280 -0.6970
 5098SOL    HW126756   0.332   2.096   3.271  1.0403 -0.8604 -0.8984
 5098SOL    HW226757   0.241   2.061   3.165 -0.6639 -2.1586  1.0901
 5099SOL     OW26758   0.438   0.724   5.482  0.3095 -0.1759  0.0227
 5099SOL    HW126759   0.500   0.760   5.546  1.4303 -1.1607 -0.4995
 5099SOL    HW226760   0.475   0.770   5.407  1.8458 -0.4623  0.5999
 5100SOL     OW26761   4.109   1.122   5.552  0.2103 -0.0116  0.3137
 5100SOL    HW126762   4.150   1.088   5.472  2.0078  2.6464  0.1005
 5100SOL    HW226763   4.189   1.126   5.605  0.8940  0.3444 -0.7424
 5101SOL     OW26764   0.372   3.303  15.435  0.5434  0.3878  0.0086
 5101SOL    HW126765   0.463   3.313  15.463  0.2762 -2.3887  1.9432
 5101SOL    HW226766   0.387   3.267  15.348  2.4131 -1.2583  1.0011
 5102SOL     OW26767   0.468   1.983   1.792  0.0107  0.1734  0.4390
 5102SOL    HW126768   0.466   2.031   1.709  3.0126  0.4767  0.5546
 5102SOL    HW226769   0.385   1.935   1.794  1.0295 -1.6833 -2.3542
 5103SOL     OW26770   0.583   4.241  11.433 -0.1497 -0.7040 -0.0726
 5103SOL    HW126771   0.529   4.232  11.355 -2.3060 -0.0218  1.3664
 5103SOL    HW226772   0.570   4.332  11.460  1.0090 -0.7208  0.5862
 5104SOL     OW26773   3.047   1.999  13.286  0.4647 -0.1703  0.0690
 5104SOL    HW126774   2.970   1.980  13.340 -0.1307 -0.5328 -0.9129
 5104SOL    HW226775   3.014   2.062  13.222 -0.6441 -0.5602  0.2573
 5105SOL     OW26776   2.525   1.881  15.289 -0.2262 -0.0500  0.0083
 5105SOL    HW126777   2.604   1.913  15.246 -0.9475 -0.0048 -1.2886
 5105SOL    HW226778   2.555   1.795  15.316  1.5302  0.3951 -0.5506
 5106SOL     OW26779   3.667   2.523   2.496 -0.2580 -0.3163  0.2224
 5106SOL    HW126780   3.621   2.558   2.420 -0.5981 -0.9005  0.1631
 5106SOL    HW226781   3.746   2.478   2.464  0.5369  0.5537  0.9823
 5107SOL     OW26782   1.981   1.348  15.010  0.0390  0.3959  0.0287
 5107SOL    HW126783   1.971   1.394  15.093  0.8748  4.0287 -1.8821
 5107SOL    HW226784   1.988   1.257  15.039 -0.2040  1.0670  2.2213
 5108SOL     OW26785   4.594   4.393   6.292  0.0001  0.2846  0.2760
 5108SOL    HW126786   4.530   4.461   6.272 -0.7243  0.1571  2.2113
 5108SOL    HW226787   4.623   4.435   6.372  2.1097  1.0213 -0.8930
 5109SOL     OW26788   1.460   0.397   8.873 -0.1362 -0.0954 -0.5538
 5109SOL    HW126789   1.487   0.481   8.836 -2.4005  0.7260 -0.3530
 5109SOL    HW226790   1.519   0.386   8.948  0.0966 -1.6294 -0.9684
 5110SOL     OW26791   3.884   4.219   3.618 -0.1169 -0.0345 -0.1094
 5110SOL    HW126792   3.926   4.305   3.620  1.4464 -0.7923 -0.8988
 5110SOL    HW226793   3.961   4.163   3.626  0.9980  1.7679  2.1009
 5111SOL     OW26794   0.083   3.609   8.494  0.2151  0.8333  0.8033
 5111SOL    HW126795   0.122   3.694   8.475  0.8064  0.6505  1.2276
 5111SOL    HW226796   0.003   3.628   8.544  0.1560  0.1846  0.9513
 5112SOL     OW26797   3.875   1.626   3.049 -0.4779 -0.2831  0.6187
 5112SOL    HW126798   3.875   1.531   3.051  0.4507 -0.2745  0.9029
 5112SOL    HW226799   3.857   1.658   3.137  0.8039  0.9021  0.4569
 5113SOL     OW26800   1.542   2.123   2.010  0.1912  0.0883  0.1943
 5113SOL    HW126801   1.614   2.130   2.073  0.5613 -0.0357 -0.2200
 5113SOL    HW226802   1.589   2.110   1.928 -2.5740 -1.1565 -1.2174
 5114SOL     OW26803   0.907   1.515   0.955  0.3905 -0.2632  0.2821
 5114SOL    HW126804   0.853   1.491   0.879 -0.1855 -0.0477  0.6180
 5114SOL    HW226805   0.992   1.527   0.914  0.3990  0.8621  0.6269
 5115SOL     OW26806   3.864   1.246   2.776  0.3527  0.1032 -0.0108
 5115SOL    HW126807   3.775   1.237   2.741  0.1426  2.4985 -0.0946
 5115SOL    HW226808   3.902   1.301   2.708  0.8008  2.2399  1.9554
 5116SOL     OW26809   0.113   1.857   1.061  0.0580  0.2563  0.0678
 5116SOL    HW126810   0.139   1.923   0.997 -0.2930 -0.8131 -1.2026
 5116SOL    HW226811   0.130   1.781   1.005 -1.0352  0.4542 -0.5350
 5117SOL     OW26812   0.437   1.009   3.990  0.2634  0.3436 -0.0606
 5117SOL    HW126813   0.445   1.059   4.072  1.9574  1.0732 -0.6718
 5117SOL    HW226814   0.419   1.081   3.930 -2.3070 -1.0058 -0.8922
 5118SOL     OW26815   3.799   3.221   5.057 -0.2062 -0.1370 -0.6751
 5118SOL    HW126816   3.795   3.250   4.966  0.1682 -0.6346 -0.8515
 5118SOL    HW226817   3.752   3.138   5.055 -0.6813  0.1690 -2.1152
 5119SOL     OW26818   2.715   0.741   5.282 -0.1700  0.2216  0.0010
 5119SOL    HW126819   2.759   0.715   5.363 -0.5030 -0.2726  0.0215
 5119SOL    HW226820   2.630   0.765   5.321  0.2492 -1.9000  2.1835
 5120SOL     OW26821   4.292   2.531   6.106  0.2061 -0.1605 -0.0503
 5120SOL    HW126822   4.208   2.542   6.061  0.5198 -0.2237 -0.6596
 5120SOL    HW226823   4.341   2.491   6.033 -0.1972  2.0390 -1.5226
 5121SOL     OW26824   2.503   1.241   5.781  0.8075 -0.1815 -0.1299
 5121SOL    HW126825   2.488   1.179   5.853 -1.4611  0.9658  0.3943
 5121SOL    HW226826   2.569   1.182   5.745  0.1452 -0.2331 -1.2462
 5122SOL     OW26827   2.841   2.330   7.034 -0.5803 -0.6166  0.3332
 5122SOL    HW126828   2.936   2.335   7.042 -0.3850  2.9720 -3.8681
 5122SOL    HW226829   2.816   2.388   7.105  1.2189 -1.3783  1.5802
 5123SOL     OW26830   1.152   3.124   8.358 -0.2385  0.0877 -0.0667
 5123SOL    HW126831   1.122   3.161   8.441 -0.6362 -1.7249  0.5918
 5123SOL    HW226832   1.083   3.063   8.331 -2.9611  3.1663 -0.0634
 5124SOL     OW26833   1.271   2.011  15.343 -0.6016 -0.0835 -0.1864
 5124SOL    HW126834   1.347   1.960  15.374  1.2802  1.6912 -1.8842
 5124SOL    HW226835   1.199   1.989  15.402  0.6524 -1.7686  0.7240
 5125SOL     OW26836   1.510   2.299   5.190  0.0183  0.3445  0.2872
 5125SOL    HW126837   1.466   2.274   5.271 -3.6634  2.1504 -1.1535
 5125SOL    HW226838   1.506   2.394   5.200  1.1987  0.5747 -1.4902
 5126SOL     OW26839   2.796   0.760  14.526  0.3145  0.1241 -0.2272
 5126SOL    HW126840   2.856   0.686  14.519 -0.1082  0.0576 -3.2830
 5126SOL    HW226841   2.719   0.723  14.483  1.1090 -1.3809 -0.3560
 5127SOL     OW26842   4.546   2.814  16.823 -0.3814  0.3087  0.6706
 5127SOL    HW126843   4.529   2.841  16.913 -0.4285  0.4472  0.6197
 5127SOL    HW226844   4.503   2.884  16.775  0.7790 -0.5118 -1.6161
 5128SOL     OW26845   0.850   0.977   1.017 -0.0746  0.4245  0.3801
 5128SOL    HW126846   0.897   1.048   1.061 -1.8184  1.8453 -0.0477
 5128SOL    HW226847   0.757   0.991   1.034 -0.0936 -0.8808  1.2914
 5129SOL     OW26848   0.060   4.064  16.025 -0.3328  0.6572 -0.0485
 5129SOL    HW126849   4.711   4.031  15.973  1.5851 -0.8818 -1.7274
 5129SOL    HW226850   0.012   4.094  16.102 -1.2700 -1.8138  0.3069
 5130SOL     OW26851   3.999   1.699   4.672 -0.4953 -0.3643 -0.2325
 5130SOL    HW126852   3.904   1.706   4.659 -0.5112 -0.8560 -0.3832
 5130SOL    HW226853   3.998   1.749   4.753  0.6930  1.3013 -1.2375
 5131SOL     OW26854   2.730   4.104   4.204  0.3081 -0.1797  0.7949
 5131SOL    HW126855   2.772   4.044   4.265  0.1071 -0.5341  0.5863
 5131SOL    HW226856   2.650   4.054   4.188  1.6150 -0.9739 -3.1713
 5132SOL     OW26857   0.476   3.726   9.742 -0.1154 -0.6556  0.1759
 5132SOL    HW126858   0.565   3.750   9.768 -1.0505  0.7295  2.1491
 5132SOL    HW226859   0.467   3.785   9.668 -2.7957 -0.8953  0.3051
 5133SOL     OW26860   2.605   1.959   2.252  0.6504  0.1873  0.5973
 5133SOL    HW126861   2.691   1.939   2.214 -0.3197  0.5594 -1.8156
 5133SOL    HW226862   2.632   1.992   2.337  0.9975  1.4654 -0.0026
 5134SOL     OW26863   2.896   0.250   0.519  0.0826  0.3635  0.1359
 5134SOL    HW126864   2.882   0.177   0.580 -0.0475  1.6590  1.6672
 5134SOL    HW226865   2.925   0.319   0.578 -0.0898 -0.0131  0.6650
 5135SOL     OW26866   1.630   2.827   3.418  0.2411  0.3167  0.0811
 5135SOL    HW126867   1.576   2.842   3.340  2.4761  0.7239 -1.3762
 5135SOL    HW226868   1.623   2.911   3.462 -1.7041  0.0059  0.3863
 5136SOL     OW26869   1.308   4.207   9.480  0.1684  0.0582  0.0556
 5136SOL    HW126870   1.284   4.292   9.441  3.2380  1.2117  0.6696
 5136SOL    HW226871   1.339   4.150   9.411 -0.8719 -0.9624  0.4292
 5137SOL     OW26872   1.471   0.819   6.163 -0.0097  0.2566  0.3172
 5137SOL    HW126873   1.526   0.815   6.241  0.0126  1.4379  0.3618
 5137SOL    HW226874   1.529   0.854   6.095  1.0673 -0.3478  0.9282
 5138SOL     OW26875   4.353   2.165  10.978 -0.2314  0.0055 -0.1007
 5138SOL    HW126876   4.430   2.192  10.928  0.0554 -1.9854 -0.7312
 5138SOL    HW226877   4.369   2.071  10.992  0.6038  0.0899 -0.4922
 5139SOL     OW26878   4.306   3.511   5.128  0.2896 -0.2857 -0.1261
 5139SOL    HW126879   4.326   3.566   5.052  1.4769 -1.0233 -0.3427
 5139SOL    HW226880   4.378   3.536   5.186 -0.9077  3.6932 -0.3260
 5140SOL     OW26881   2.970   2.201   7.833 -0.2902  0.3827 -0.1155
 5140SOL    HW126882   2.949   2.247   7.752  1.7525  1.2914 -0.1233
 5140SOL    HW226883   2.949   2.270   7.896 -2.3297 -1.1209  0.8698
 5141SOL     OW26884   0.798   1.948   6.939 -0.1982  0.4967 -0.0239
 5141SOL    HW126885   0.834   2.001   7.011  1.3673 -0.6765  0.0309
 5141SOL    HW226886   0.843   1.864   6.936  0.4572  0.8668 -0.4585
 5142SOL     OW26887   3.331   3.555   9.891 -0.4592  0.4731 -0.4533
 5142SOL    HW126888   3.378   3.554   9.974  0.9309  1.4389 -1.2271
 5142SOL    HW226889   3.402   3.552   9.827 -1.6331 -0.0482 -1.7362
 5143SOL     OW26890   3.637   1.990  14.452  0.4403 -0.2407 -0.2302
 5143SOL    HW126891   3.672   2.051  14.517  0.1654  0.7873 -1.0477
 5143SOL    HW226892   3.651   2.037  14.370 -3.9669 -0.0003 -0.8745
 5144SOL     OW26893   0.081   2.922   4.098 -0.0336 -0.0755  0.2943
 5144SOL    HW126894   4.714   2.951   4.085  0.7301  2.4144  0.5311
 5144SOL    HW226895   0.105   2.874   4.018  0.7303  1.4076 -0.3584
 5145SOL     OW26896   3.699   4.140   5.088  0.1051 -0.4685  0.6572
 5145SOL    HW126897   3.792   4.163   5.094  0.0216 -0.5094  2.1955
 5145SOL    HW226898   3.696   4.057   5.135  0.9833 -1.6769 -1.3898
 5146SOL     OW26899   4.334   0.762   2.718  0.5276 -0.2361  0.3329
 5146SOL    HW126900   4.343   0.844   2.766  0.4952  0.1891 -0.3958
 5146SOL    HW226901   4.320   0.700   2.790 -1.5898 -2.6551 -2.1602
 5147SOL     OW26902   2.240   2.259   6.147  0.1235 -0.0537 -0.1271
 5147SOL    HW126903   2.197   2.233   6.228 -0.8576  1.2932 -0.2257
 5147SOL    HW226904   2.326   2.218   6.149 -0.0432 -0.3187  1.4099
 5148SOL     OW26905   1.980   2.532   5.640 -0.5387  0.4366  0.3525
 5148SOL    HW126906   2.013   2.606   5.691 -1.1649 -0.1870  1.6564
 5148SOL    HW226907   2.028   2.525   5.557  0.2934  0.1336  0.8573
 5149SOL     OW26908   0.125   1.894   5.555 -0.6505 -0.1028  0.5171
 5149SOL    HW126909   0.133   1.952   5.631 -0.4389 -0.2610  0.6178
 5149SOL    HW226910   0.217   1.903   5.528 -0.4849 -0.1904  1.0423
 5150SOL     OW26911   1.022   0.884   3.130 -0.0532  0.3345 -0.4421
 5150SOL    HW126912   1.103   0.902   3.082  1.5499 -3.1722  0.9473
 5150SOL    HW226913   1.052   0.833   3.205  0.1093  1.9330  0.5843
 5151SOL     OW26914   3.978   1.771  12.137  0.2605 -0.5724  0.2053
 5151SOL    HW126915   3.992   1.862  12.113  0.0934 -0.7180 -0.4464
 5151SOL    HW226916   3.894   1.783  12.182  0.8718  0.6210  1.0188
 5152SOL     OW26917   2.802   0.945  14.743  0.2510 -0.4929 -0.3605
 5152SOL    HW126918   2.717   0.915  14.775 -0.3123  0.4304 -1.0057
 5152SOL    HW226919   2.806   0.887  14.667 -1.2883 -0.0432 -0.7884
 5153SOL     OW26920   2.368   2.442   9.455 -0.1747  0.0873 -0.5370
 5153SOL    HW126921   2.280   2.435   9.493  1.1632 -0.8398  2.3667
 5153SOL    HW226922   2.370   2.363   9.401  0.2806 -0.2457 -0.0283
 5154SOL     OW26923   1.244   3.013   1.144  0.2111 -0.5638 -0.0181
 5154SOL    HW126924   1.245   3.006   1.239  1.0445 -1.3889 -0.0826
 5154SOL    HW226925   1.153   3.031   1.119  0.2414  0.6461  0.7160
 5155SOL     OW26926   3.228   3.422  11.765 -0.1377 -0.4139  0.3721
 5155SOL    HW126927   3.151   3.383  11.805  0.7566 -1.4004  1.1236
 5155SOL    HW226928   3.254   3.354  11.702 -0.9859  0.8106 -1.3023
 5156SOL     OW26929   1.866   2.115   2.116  0.4662  0.0458 -0.1799
 5156SOL    HW126930   1.875   2.038   2.060  3.9621 -0.9375  1.7304
 5156SOL    HW226931   1.817   2.077   2.188  2.7107  0.0026  1.3075
 5157SOL     OW26932   0.731   4.386   2.778  0.2199 -0.2240 -0.2607
 5157SOL    HW126933   0.759   4.414   2.866 -0.0349 -1.1798  0.1223
 5157SOL    HW226934   0.772   4.300   2.782 -2.1784 -1.3389  0.2724
 5158SOL     OW26935   2.214   3.706   0.523 -0.0123 -0.3035 -0.0295
 5158SOL    HW126936   2.269   3.637   0.562  1.2664 -0.3223 -1.8198
 5158SOL    HW226937   2.246   3.719   0.433  0.4449  0.3077  0.2260
 5159SOL     OW26938   4.028   0.543   1.843  0.3507  0.0543 -0.5484
 5159SOL    HW126939   4.036   0.460   1.889 -0.3628  1.9958  3.0247
 5159SOL    HW226940   4.118   0.567   1.825  0.8695 -1.0918  0.5046
 5160SOL     OW26941   2.716   0.455   4.746  0.8039 -0.4762  0.3285
 5160SOL    HW126942   2.757   0.526   4.796  0.5367 -0.0885 -0.0014
 5160SOL    HW226943   2.677   0.512   4.680  2.7174 -1.1279 -1.3652
 5161SOL     OW26944   3.841   2.437   7.191 -0.1752 -0.0002  0.4271
 5161SOL    HW126945   3.868   2.529   7.192 -1.2636  0.3420 -2.9134
 5161SOL    HW226946   3.860   2.419   7.283 -0.3354  0.4935  0.5573
 5162SOL     OW26947   1.539   0.000   1.681  0.5980  0.0334  0.1763
 5162SOL    HW126948   1.512   4.633   1.689 -3.3174  1.0892 -0.8673
 5162SOL    HW226949   1.512   0.039   1.765  1.8872  0.3074  0.4701
 5163SOL     OW26950   1.275   2.394   2.284  0.1993 -0.4671  0.3928
 5163SOL    HW126951   1.227   2.471   2.315 -0.7286 -0.2511 -1.6053
 5163SOL    HW226952   1.242   2.375   2.196 -0.0784  0.5205  0.2768
 5164SOL     OW26953   3.066   2.768   3.259 -0.5736 -0.1855  0.0114
 5164SOL    HW126954   3.046   2.688   3.210  2.2649 -1.5933  1.1586
 5164SOL    HW226955   3.005   2.831   3.221  0.0152  0.4608  0.1372
 5165SOL     OW26956   1.506   3.419   1.944  0.3135 -0.4053  0.0359
 5165SOL    HW126957   1.443   3.378   1.884 -1.8491  3.1083 -0.1354
 5165SOL    HW226958   1.485   3.509   1.919 -0.2150 -0.5849 -0.1679
 5166SOL     OW26959   4.476   4.046   8.799  0.2495  0.0594  0.0035
 5166SOL    HW126960   4.405   4.009   8.747  0.7211 -0.4914 -0.2435
 5166SOL    HW226961   4.468   4.137   8.769 -1.6566 -0.5701 -1.3932
 5167SOL     OW26962   1.463   2.071   0.018  0.1841  0.3380 -0.5912
 5167SOL    HW126963   1.517   2.115   0.083 -0.6415 -0.8463  0.8945
 5167SOL    HW226964   1.413   2.006   0.068 -0.6812  1.6190  0.2005
 5168SOL     OW26965   2.370   0.984  17.348 -0.3384  0.2560  0.0110
 5168SOL    HW126966   2.459   0.990  17.314  0.3931 -1.1197  1.7173
 5168SOL    HW226967   2.330   0.918  17.290 -0.2022  0.5989 -0.4746
 5169SOL     OW26968   4.558   3.602   3.982  0.0707 -0.4372 -0.0697
 5169SOL    HW126969   4.564   3.541   4.055 -0.9149  0.2442  0.5846
 5169SOL    HW226970   4.478   3.564   3.946  2.3124 -3.3863 -1.8591
 5170SOL     OW26971   3.549   2.834  14.320  0.2667 -0.1030 -0.1872
 5170SOL    HW126972   3.488   2.890  14.272 -0.0680 -0.4322 -0.1496
 5170SOL    HW226973   3.624   2.826  14.261  1.2235 -0.9916  1.1520
 5171SOL     OW26974   0.973   1.472   3.672  0.5958  0.2193  0.6550
 5171SOL    HW126975   0.912   1.545   3.681  0.6293  0.2194  0.8804
 5171SOL    HW226976   1.030   1.516   3.609  2.1896 -1.4820  0.9095
 5172SOL     OW26977   1.681   1.132  14.368  0.0197 -0.1289  0.0186
 5172SOL    HW126978   1.760   1.091  14.404 -0.8893  0.0200  2.2229
 5172SOL    HW226979   1.660   1.175  14.451  0.7727 -0.9129  0.6296
 5173SOL     OW26980   3.970   1.850  14.355 -0.2477 -0.6672 -0.5083
 5173SOL    HW126981   4.058   1.840  14.319 -1.1367 -1.7039 -2.3802
 5173SOL    HW226982   3.919   1.900  14.291 -1.5578  0.6027  1.5213
 5174SOL     OW26983   3.375   1.339  16.220 -0.1347  0.5077 -0.4273
 5174SOL    HW126984   3.453   1.301  16.177 -0.3673 -1.2922  0.7440
 5174SOL    HW226985   3.309   1.282  16.180  0.9033 -0.2990 -0.9955
 5175SOL     OW26986   2.418   0.456   2.344 -0.5889 -0.2522  0.2341
 5175SOL    HW126987   2.328   0.479   2.324 -0.2718  0.6018 -0.2066
 5175SOL    HW226988   2.427   0.510   2.422  1.4285  0.0511 -0.2068
 5176SOL     OW26989   3.832   2.751   8.550  0.5931 -0.3365  0.9575
 5176SOL    HW126990   3.762   2.758   8.615 -1.2298  0.0254 -1.0443
 5176SOL    HW226991   3.795   2.809   8.484 -1.4484 -1.8028  0.7958
 5177SOL     OW26992   3.487   4.365  14.430 -0.4205 -0.1541  0.5152
 5177SOL    HW126993   3.493   4.444  14.376  0.4063  0.3663  1.3796
 5177SOL    HW226994   3.394   4.346  14.437 -0.1741 -1.2225  0.8272
 5178SOL     OW26995   2.140   0.903   5.567 -0.2312 -0.1299 -0.1099
 5178SOL    HW126996   2.145   0.912   5.663 -1.8285 -1.7408  0.1143
 5178SOL    HW226997   2.179   0.988   5.544 -0.6806 -0.5221 -2.2877
 5179SOL     OW26998   3.998   2.795  14.137 -0.0993 -0.2628  0.0182
 5179SOL    HW126999   4.001   2.768  14.045  0.8286 -2.0683  0.5813
 5179SOL    HW227000   4.090   2.782  14.161  0.0415 -1.2099 -0.9868
 5180SOL     OW27001   3.494   0.154   8.313 -0.0916 -0.8493 -0.0757
 5180SOL    HW127002   3.418   0.108   8.279  0.0490 -0.4303 -0.9602
 5180SOL    HW227003   3.464   0.166   8.403 -0.3983  0.6109 -0.3765
 5181SOL     OW27004   2.913   0.789   2.008 -0.2751  0.2961 -0.1268
 5181SOL    HW127005   2.937   0.847   2.080  0.2694  1.8743 -1.6145
 5181SOL    HW227006   2.859   0.849   1.958  0.5705  0.7068 -0.5273
 5182SOL     OW27007   3.443   1.597   6.946  0.4165  0.4435 -0.0106
 5182SOL    HW127008   3.370   1.651   6.918 -0.6669 -0.3792  1.2492
 5182SOL    HW227009   3.438   1.529   6.879  1.1126  1.4092 -1.0507
 5183SOL     OW27010   2.136   0.451  11.409  0.0062 -0.1446 -0.9818
 5183SOL    HW127011   2.086   0.373  11.431  0.4337 -0.1838 -0.1885
 5183SOL    HW227012   2.208   0.456  11.471 -1.7452  0.9829  0.9503
 5184SOL     OW27013   4.705   2.366   6.154 -0.2424  0.4742 -0.0230
 5184SOL    HW127014   4.703   2.461   6.142  1.5660  0.8933  3.0171
 5184SOL    HW227015   0.045   2.372   6.225 -2.3849 -0.8609  1.9926
 5185SOL     OW27016   1.776   4.081   7.312  0.2754 -0.7233 -0.2889
 5185SOL    HW127017   1.852   4.078   7.254 -0.7067  0.5459 -1.6257
 5185SOL    HW227018   1.820   4.038   7.386 -0.9114 -1.0370  0.2424
 5186SOL     OW27019   1.793   4.271   3.664  0.5801 -0.0404 -0.0447
 5186SOL    HW127020   1.787   4.240   3.574  0.7509  1.8042 -0.6915
 5186SOL    HW227021   1.865   4.221   3.703  1.2012 -1.5781 -3.2021
 5187SOL     OW27022   0.322   2.919   9.721 -0.4063 -0.0913  0.1264
 5187SOL    HW127023   0.297   3.009   9.740  0.3480  0.0561  0.4368
 5187SOL    HW227024   0.280   2.867   9.790 -1.1864 -0.3625 -0.5555
 5188SOL     OW27025   2.102   1.592   5.937 -0.1368 -0.1979 -0.3034
 5188SOL    HW127026   2.012   1.561   5.947 -0.2404  0.1437 -0.1913
 5188SOL    HW227027   2.156   1.520   5.971 -1.1721 -1.0933 -0.5290
 5189SOL     OW27028   4.205   2.625   7.813 -0.4604  0.0242  0.0399
 5189SOL    HW127029   4.218   2.690   7.882  1.0438 -1.5151  1.2054
 5189SOL    HW227030   4.155   2.561   7.863 -1.5447  1.4221  0.7555
 5190SOL     OW27031   3.786   0.395   6.805  0.3643 -0.1381 -0.4049
 5190SOL    HW127032   3.843   0.417   6.732 -0.3238 -0.5022 -1.0621
 5190SOL    HW227033   3.846   0.336   6.850  2.3598  1.4421 -0.9869
 5191SOL     OW27034   0.954   2.981   8.266  0.3936  0.2251 -0.0896
 5191SOL    HW127035   0.867   2.992   8.307  0.7126 -1.2201  0.9625
 5191SOL    HW227036   0.924   2.960   8.178  0.3946 -0.7549  0.1499
 5192SOL     OW27037   2.402   2.978   7.881  0.7136 -0.1575 -0.4075
 5192SOL    HW127038   2.365   2.950   7.965 -1.5071 -2.2676 -2.1013
 5192SOL    HW227039   2.454   3.057   7.900  0.0605 -0.0134  0.7685
 5193SOL     OW27040   2.699   0.167   6.400  0.4689  0.2958  0.1018
 5193SOL    HW127041   2.639   0.197   6.331  0.8979 -0.2008 -0.4832
 5193SOL    HW227042   2.726   0.081   6.368 -0.7492  1.0822 -3.0555
 5194SOL     OW27043   1.322   2.823   2.121 -0.1728  0.0465  0.1704
 5194SOL    HW127044   1.285   2.793   2.204  0.9475 -1.9395 -0.0544
 5194SOL    HW227045   1.406   2.853   2.156 -1.2819  1.1049  1.9651
 5195SOL     OW27046   0.011   3.765  10.713  0.3432 -0.2518 -0.1337
 5195SOL    HW127047   4.704   3.839  10.661 -2.7439 -0.0313  2.0185
 5195SOL    HW227048   0.002   3.691  10.652 -0.7205 -1.2685  1.2508
 5196SOL     OW27049   1.023   1.952  11.382 -0.2945  0.1459 -0.3286
 5196SOL    HW127050   1.074   2.025  11.416  0.7012  0.2594 -2.0909
 5196SOL    HW227051   1.024   1.887  11.453 -0.8419 -0.6907 -1.0727
 5197SOL     OW27052   1.627   4.129   5.108  0.3862  1.1008 -0.3913
 5197SOL    HW127053   1.692   4.148   5.040  2.0957 -0.1517  0.9038
 5197SOL    HW227054   1.550   4.125   5.051 -0.9228  2.3262  1.2831
 5198SOL     OW27055   0.434   0.708   1.792  0.0439 -0.1945 -0.0014
 5198SOL    HW127056   0.440   0.613   1.780 -0.4632 -0.3283  0.8216
 5198SOL    HW227057   0.502   0.747   1.737 -0.3166  0.5800  0.1101
 5199SOL     OW27058   0.626   0.943  12.297 -0.2563  0.0880 -0.8084
 5199SOL    HW127059   0.720   0.943  12.315 -0.4176  1.1272  0.0583
 5199SOL    HW227060   0.631   0.916  12.205 -3.0694  0.2404 -0.9867
 5200SOL     OW27061   4.421   3.092   6.579 -0.0029  0.2970 -0.1955
 5200SOL    HW127062   4.371   3.089   6.497  1.0753  0.3309 -0.8530
 5200SOL    HW227063   4.398   3.009   6.621 -1.0053  1.0819  0.7822
 5201SOL     OW27064   3.680   0.386  13.634  0.0364  0.1146  0.1999
 5201SOL    HW127065   3.727   0.364  13.554  0.7559 -0.0563  0.6691
 5201SOL    HW227066   3.723   0.467  13.659  1.1652 -0.5646  0.4788
 5202SOL     OW27067   4.697   1.870   8.578 -0.1457 -0.3372 -0.2889
 5202SOL    HW127068   0.037   1.818   8.627 -0.9990 -0.5358  0.6050
 5202SOL    HW227069   4.620   1.814   8.587  0.9233 -1.6705  0.4636
 5203SOL     OW27070   2.244   3.864   4.503 -0.1962 -0.6036  0.3441
 5203SOL    HW127071   2.222   3.806   4.430  3.7641  1.1144 -2.2052
 5203SOL    HW227072   2.293   3.937   4.465  0.1561 -1.0909 -0.1473
 5204SOL     OW27073   1.365   0.636  14.386 -0.5482 -0.6316 -0.7268
 5204SOL    HW127074   1.449   0.594  14.372 -0.1448  0.3675 -1.2703
 5204SOL    HW227075   1.366   0.722  14.344  1.9529 -0.3498 -0.0634
 5205SOL     OW27076   1.150   4.149  13.008 -0.0191 -0.1927 -0.1774
 5205SOL    HW127077   1.083   4.080  13.013  0.2489 -0.4145  0.3385
 5205SOL    HW227078   1.213   4.135  13.079 -0.8280  0.5967  0.6833
 5206SOL     OW27079   2.217   2.861   4.002  0.0905 -0.1495 -0.0879
 5206SOL    HW127080   2.231   2.869   4.096  0.3588  2.6144 -0.3593
 5206SOL    HW227081   2.290   2.811   3.966  1.7124  0.1949  2.7472
 5207SOL     OW27082   3.347   1.246   8.288  0.0863  0.1650  0.2394
 5207SOL    HW127083   3.257   1.226   8.311 -0.5751  1.5023 -1.1807
 5207SOL    HW227084   3.347   1.339   8.312 -0.2212 -0.2333  1.7712
 5208SOL     OW27085   1.619   4.451  12.290 -0.0500 -0.0862 -0.1564
 5208SOL    HW127086   1.612   4.400  12.371  0.3682  0.4274  0.2012
 5208SOL    HW227087   1.621   4.541  12.322 -1.6552 -0.5985  1.3419
 5209SOL     OW27088   3.708   3.381   2.130  0.1461  0.2860 -0.2631
 5209SOL    HW127089   3.624   3.377   2.084  1.2927  3.3123 -2.6216
 5209SOL    HW227090   3.724   3.287   2.136  0.8163  0.5995  2.6130
 5210SOL     OW27091   0.889   4.401   2.555 -0.0627 -0.3147  0.7418
 5210SOL    HW127092   0.834   4.412   2.633  0.4746 -0.3609  1.1298
 5210SOL    HW227093   0.915   4.309   2.551  0.1299 -0.1452 -1.7956
 5211SOL     OW27094   1.095   4.052   2.945 -0.4230  0.0416 -0.6192
 5211SOL    HW127095   1.092   4.010   2.859  0.9224  1.7735 -1.5089
 5211SOL    HW227096   1.181   4.094   2.939  0.3934 -1.6240 -0.5387
 5212SOL     OW27097   3.583   1.101   7.728  1.0533  0.2942  0.5792
 5212SOL    HW127098   3.675   1.085   7.747  1.2005  0.0505 -0.3433
 5212SOL    HW227099   3.543   1.030   7.779 -0.5388  0.5044 -0.3739
 5213SOL     OW27100   3.113   1.484   2.241  0.4612  0.2572  0.5194
 5213SOL    HW127101   3.025   1.523   2.242  0.5524  0.4988 -3.4769
 5213SOL    HW227102   3.107   1.431   2.162  2.9943 -1.5837  1.5837
 5214SOL     OW27103   2.041   0.507   2.572 -0.1298  0.1465 -0.4063
 5214SOL    HW127104   2.056   0.474   2.661  2.7484 -1.9376 -1.7081
 5214SOL    HW227105   2.000   0.592   2.591 -0.8482 -0.1667 -0.5464
 5215SOL     OW27106   2.966   1.264  15.045  0.3031 -0.1841  0.6754
 5215SOL    HW127107   3.031   1.331  15.023 -0.9417  0.4795 -0.9464
 5215SOL    HW227108   2.892   1.321  15.064  1.0755  0.7958  0.7191
 5216SOL     OW27109   1.813   1.750   4.182 -0.3154 -0.2844  0.1523
 5216SOL    HW127110   1.751   1.775   4.114 -1.6757  0.9319  1.8270
 5216SOL    HW227111   1.845   1.666   4.148 -0.3019  0.6098 -2.0034
 5217SOL     OW27112   2.234   0.183   1.634 -0.6859  0.0880  0.3916
 5217SOL    HW127113   2.252   0.156   1.724 -0.6478  0.5605  0.5253
 5217SOL    HW227114   2.313   0.233   1.613 -0.4098 -1.0144 -1.1526
 5218SOL     OW27115   0.710   0.835   4.264 -0.2745  0.5780  0.2481
 5218SOL    HW127116   0.699   0.826   4.359  0.6966  3.0866  0.6089
 5218SOL    HW227117   0.647   0.904   4.246  0.6368  1.8773  1.9860
 5219SOL     OW27118   1.296   0.830   2.316  0.2587 -0.0855 -0.6386
 5219SOL    HW127119   1.309   0.751   2.369 -0.1747 -0.8458 -1.6532
 5219SOL    HW227120   1.261   0.785   2.239 -0.1192  3.4574 -2.5351
 5220SOL     OW27121   2.185   1.532   2.053  0.0834  0.1997 -0.1661
 5220SOL    HW127122   2.255   1.523   2.118 -1.0007 -1.2251  0.8085
 5220SOL    HW227123   2.136   1.450   2.048 -0.9887  0.6577  3.3135
 5221SOL     OW27124   4.389   2.317   8.172 -0.0827 -0.0472  0.1944
 5221SOL    HW127125   4.324   2.285   8.235 -1.2589  0.2753 -0.8441
 5221SOL    HW227126   4.406   2.232   8.132  1.3439  1.2201 -1.8993
 5222SOL     OW27127   0.021   1.381   6.233  0.5764 -0.6173  0.1602
 5222SOL    HW127128   0.109   1.370   6.270  1.1504 -1.6945 -1.5149
 5222SOL    HW227129   4.695   1.422   6.304 -0.3577  1.3737 -1.6502
 5223SOL     OW27130   0.651   0.536   5.732  0.5528  0.1899 -0.1982
 5223SOL    HW127131   0.596   0.606   5.696  2.4150  1.4504 -0.5962
 5223SOL    HW227132   0.739   0.572   5.719  1.7613 -2.6875  0.0748
 5224SOL     OW27133   0.248   2.690   7.276  0.4109 -0.1878 -0.3958
 5224SOL    HW127134   0.306   2.615   7.274 -1.6602 -1.7943 -0.3104
 5224SOL    HW227135   0.227   2.694   7.182  0.0236 -0.1580 -0.3094
 5225SOL     OW27136   1.355   1.222  13.907 -0.7913 -0.4575  0.0074
 5225SOL    HW127137   1.410   1.155  13.948  0.2284  0.6106  0.3732
 5225SOL    HW227138   1.418   1.292  13.891 -0.9350 -0.2490  0.3597
 5226SOL     OW27139   2.423   0.141   4.984  0.2107  0.4159 -0.2504
 5226SOL    HW127140   2.469   0.225   4.986 -0.6362  0.7808  2.8024
 5226SOL    HW227141   2.331   0.168   4.991 -0.7319 -2.0076 -3.0819
 5227SOL     OW27142   0.732   1.683   6.604  0.5209 -0.2394  0.7032
 5227SOL    HW127143   0.667   1.672   6.673 -0.5204  0.1979 -0.2099
 5227SOL    HW227144   0.753   1.776   6.614  1.4890 -0.4141  0.3235
 5228SOL     OW27145   0.423   2.433   2.562  0.1895  0.5128 -0.6964
 5228SOL    HW127146   0.418   2.337   2.554 -2.3952  0.3992  2.2969
 5228SOL    HW227147   0.513   2.445   2.532  0.8172 -1.0648  0.5602
 5229SOL     OW27148   0.731   1.866   2.340  0.3669  0.6396 -0.5236
 5229SOL    HW127149   0.706   1.803   2.273 -1.7783  0.7806  0.1405
 5229SOL    HW227150   0.749   1.802   2.409 -1.1805  1.7674  0.9524
 5230SOL     OW27151   0.655   3.039   5.037 -0.7963  0.5387 -0.6180
 5230SOL    HW127152   0.579   3.036   5.096  0.7898 -0.5985  1.3953
 5230SOL    HW227153   0.701   2.963   5.074 -2.2896 -0.1630 -0.1706
 5231SOL     OW27154   3.942   0.419  15.418  0.4070 -0.4853 -0.1805
 5231SOL    HW127155   3.891   0.490  15.380  1.9595  2.2510  2.8987
 5231SOL    HW227156   4.002   0.408  15.345  0.8183  0.6715 -0.0158
 5232SOL     OW27157   0.380   1.794   6.755 -0.3220 -0.7497 -0.5941
 5232SOL    HW127158   0.381   1.699   6.747 -1.8815 -0.9116  0.9432
 5232SOL    HW227159   0.346   1.802   6.845  0.3367  0.4406 -0.4517
 5233SOL     OW27160   2.504   2.622  15.004  0.1793  0.0153 -0.0147
 5233SOL    HW127161   2.425   2.641  14.954  1.1658  2.4682 -0.6185
 5233SOL    HW227162   2.486   2.561  15.076  1.9575 -1.2896 -0.6907
 5234SOL     OW27163   3.772   3.805   2.478  0.0530 -0.8221  0.2373
 5234SOL    HW127164   3.728   3.793   2.394 -1.0054 -0.2340  0.7155
 5234SOL    HW227165   3.787   3.714   2.503  0.9466 -0.7530 -0.0202
 5235SOL     OW27166   0.572   1.645   2.767 -0.0614 -0.0047 -0.2685
 5235SOL    HW127167   0.531   1.614   2.686  0.9024 -2.3057  0.1424
 5235SOL    HW227168   0.659   1.607   2.762 -0.3977 -0.4855 -2.5663
 5236SOL     OW27169   2.871   0.572   2.740 -0.3711  0.2255  0.2048
 5236SOL    HW127170   2.804   0.610   2.798  0.1712  0.6413  0.5569
 5236SOL    HW227171   2.821   0.497   2.707 -1.5306  0.4644  1.4049
 5237SOL     OW27172   4.059   4.662   0.831 -0.6180 -0.2118 -0.0516
 5237SOL    HW127173   4.046   4.601   0.759  2.1069  0.5973 -1.2261
 5237SOL    HW227174   4.065   0.022   0.786 -1.6010 -0.1472 -0.0733
 5238SOL     OW27175   1.440   0.248   5.696 -0.1561  0.0652 -1.0473
 5238SOL    HW127176   1.472   0.210   5.777  0.3959  0.2017 -1.2045
 5238SOL    HW227177   1.520   0.299   5.687  2.1280 -3.4149 -0.0759
 5239SOL     OW27178   2.943   2.202  11.841 -0.4254 -0.4488  0.1862
 5239SOL    HW127179   2.862   2.152  11.834 -0.1890 -0.7128 -0.7073
 5239SOL    HW227180   3.001   2.161  11.777  0.5902  1.6198 -0.2334
 5240SOL     OW27181   3.138   3.543   6.728 -0.3500 -0.2490  0.5622
 5240SOL    HW127182   3.119   3.637   6.718 -0.7511 -0.3626  0.2624
 5240SOL    HW227183   3.201   3.523   6.659 -0.0515  1.1110  0.4416
 5241SOL     OW27184   4.524   1.525   6.325 -0.4849  0.0482 -0.3904
 5241SOL    HW127185   4.583   1.595   6.296 -0.3412 -0.9952 -2.5731
 5241SOL    HW227186   4.445   1.571   6.356 -0.6091 -1.5927  1.6330
 5242SOL     OW27187   0.354   2.581   6.377  0.0506  0.4881 -0.2839
 5242SOL    HW127188   0.439   2.558   6.414 -0.1246  3.1593  1.8038
 5242SOL    HW227189   0.376   2.628   6.297  0.7957  1.8285  0.7055
 5243SOL     OW27190   3.285   3.198   2.173  0.3844 -0.2205 -0.5811
 5243SOL    HW127191   3.370   3.158   2.193 -0.6687 -2.4050 -0.4375
 5243SOL    HW227192   3.240   3.126   2.130  0.4967 -0.7828  0.2365
 5244SOL     OW27193   2.268   2.835  10.061  0.0100 -0.2233 -0.3974
 5244SOL    HW127194   2.332   2.791  10.006  0.3721  0.2861 -0.3875
 5244SOL    HW227195   2.300   2.820  10.150 -1.0935 -0.2998 -0.0079
 5245SOL     OW27196   1.603   3.763   8.811  0.3171  0.9714 -0.0058
 5245SOL    HW127197   1.686   3.776   8.765  0.7813  0.4259  0.6735
 5245SOL    HW227198   1.571   3.850   8.835 -2.3163 -0.0785  0.3517
 5246SOL     OW27199   0.769   3.990   4.296 -0.1620 -0.6688  0.4354
 5246SOL    HW127200   0.802   4.067   4.250 -0.1128 -0.5406  0.6818
 5246SOL    HW227201   0.741   3.937   4.222 -0.8873  0.2864  0.0301
 5247SOL     OW27202   3.020   2.159   3.934 -0.5007 -0.6960 -0.2450
 5247SOL    HW127203   2.958   2.105   3.984  2.2705 -2.6877  1.0507
 5247SOL    HW227204   2.980   2.159   3.847  2.6070 -1.0449 -1.6603
 5248SOL     OW27205   1.244   1.961   2.523 -0.0715  0.0787 -0.0326
 5248SOL    HW127206   1.183   1.887   2.526 -0.6326  0.5313 -0.3974
 5248SOL    HW227207   1.284   1.952   2.436 -1.5718  1.3997 -0.8374
 5249SOL     OW27208   0.807   4.645  12.621  0.0675 -0.7844  0.3672
 5249SOL    HW127209   0.743   4.700  12.666 -1.1874 -1.5741 -0.4485
 5249SOL    HW227210   0.821   4.572  12.682  2.6119 -1.4097 -0.9589
 5250SOL     OW27211   4.512   4.292   8.689 -0.0806  0.2861  0.1125
 5250SOL    HW127212   4.537   4.255   8.605  1.9195 -0.3163  0.9481
 5250SOL    HW227213   4.458   4.365   8.661 -2.1911 -1.4794 -0.3824
 5251SOL     OW27214   1.957   4.616   6.702  0.3472  0.0572 -0.5169
 5251SOL    HW127215   1.935   4.527   6.730 -0.8179  0.6451  0.4164
 5251SOL    HW227216   1.909   4.667   6.767  0.1662 -1.9423  0.9056
 5252SOL     OW27217   2.568   3.644   2.902  0.4436  0.1025  0.8090
 5252SOL    HW127218   2.571   3.737   2.880 -1.1594 -0.1567 -0.4512
 5252SOL    HW227219   2.490   3.612   2.858  1.4232 -1.1088 -0.0413
 5253SOL     OW27220   3.803   2.592   5.758  0.3603 -0.3114 -0.6125
 5253SOL    HW127221   3.861   2.616   5.830  0.1257  0.7783 -0.7812
 5253SOL    HW227222   3.721   2.620   5.799 -0.6194 -1.2828 -1.8786
 5254SOL     OW27223   2.326   2.958   9.263  0.2314 -0.3376 -0.5313
 5254SOL    HW127224   2.276   3.031   9.227 -0.0030  0.6930  1.9347
 5254SOL    HW227225   2.342   2.999   9.348  1.7337 -3.3061  0.5954
 5255SOL     OW27226   2.982   4.676   5.948 -0.5927 -0.4333  0.6320
 5255SOL    HW127227   2.935   4.598   5.919  0.9995 -1.2456  0.2542
 5255SOL    HW227228   3.065   4.670   5.901 -2.1611  0.9714 -2.3597
 5256SOL     OW27229   4.483   0.421   7.475 -0.2645  0.5526 -0.3591
 5256SOL    HW127230   4.483   0.380   7.561 -1.6035 -0.3447 -0.7819
 5256SOL    HW227231   4.532   0.499   7.502  0.9369 -0.9837  1.8859
 5257SOL     OW27232   4.473   1.248   2.690  0.6564  0.9388 -0.5002
 5257SOL    HW127233   4.378   1.262   2.687  0.2892 -1.1869  2.0681
 5257SOL    HW227234   4.494   1.241   2.597  2.1789  0.5705 -0.1332
 5258SOL     OW27235   1.479   3.162  12.101  0.3353  0.5084 -0.3301
 5258SOL    HW127236   1.515   3.237  12.148 -0.0153  0.8347 -0.5822
 5258SOL    HW227237   1.402   3.149  12.157  2.0240 -2.8495  1.2109
 5259SOL     OW27238   3.410   2.180   3.374  0.5945  0.1093 -0.0362
 5259SOL    HW127239   3.387   2.272   3.385  1.3787  0.1759  0.9810
 5259SOL    HW227240   3.331   2.134   3.403  0.5107  0.0695 -0.3196
 5260SOL     OW27241   4.029   0.132   6.390  0.3385 -0.8437 -0.7624
 5260SOL    HW127242   3.968   0.204   6.373  2.1468  1.0040  0.5981
 5260SOL    HW227243   3.984   0.106   6.470  2.0969  1.5337  1.0122
 5261SOL     OW27244   0.445   0.171  10.825  0.1761 -0.5943 -0.4678
 5261SOL    HW127245   0.511   0.127  10.772  0.4701  1.1352 -1.5277
 5261SOL    HW227246   0.493   0.251  10.847  0.6710 -1.1813  0.5874
 5262SOL     OW27247   1.992   1.328   1.712 -0.0183 -0.3555  0.4914
 5262SOL    HW127248   2.077   1.299   1.744  0.5871  2.0006  1.0499
 5262SOL    HW227249   1.993   1.288   1.625  0.8822  1.9853 -0.5646
 5263SOL     OW27250   4.457   4.025   0.846  0.5123  0.4392 -0.2225
 5263SOL    HW127251   4.521   4.063   0.906  0.6365  1.5595 -1.0670
 5263SOL    HW227252   4.492   3.936   0.846  2.7121  1.3168 -0.4246
 5264SOL     OW27253   4.489   1.283   7.270 -0.0710 -0.0322 -0.2392
 5264SOL    HW127254   4.517   1.282   7.179 -0.6148  0.2186 -0.4112
 5264SOL    HW227255   4.556   1.231   7.315 -0.5477  0.2825  0.8447
 5265SOL     OW27256   0.793   4.639   5.370 -0.1132  0.1388 -0.5437
 5265SOL    HW127257   0.769   4.646   5.462 -4.4661  0.5427 -1.7072
 5265SOL    HW227258   0.836   4.554   5.368 -1.0915 -0.3706  0.5843
 5266SOL     OW27259   2.303   0.944   8.486  0.9542  0.0649  0.0292
 5266SOL    HW127260   2.254   0.863   8.488 -0.0335  0.5714 -3.1501
 5266SOL    HW227261   2.334   0.951   8.395 -3.0406 -3.3576 -1.5564
 5267SOL     OW27262   0.164   2.610   4.944 -0.2422 -0.0674 -0.1897
 5267SOL    HW127263   0.254   2.639   4.929 -0.5864 -0.1565 -2.3867
 5267SOL    HW227264   0.127   2.669   4.878  1.1767 -0.4086 -1.2873
 5268SOL     OW27265   2.853   1.078  10.377 -0.3600 -0.2192 -0.4980
 5268SOL    HW127266   2.779   1.115  10.425 -0.7949  0.3535 -1.5966
 5268SOL    HW227267   2.912   1.073  10.452 -0.2857  3.0868 -0.3400
 5269SOL     OW27268   0.612   2.847  13.984  0.1121 -0.3671  0.4765
 5269SOL    HW127269   0.557   2.908  13.935  0.9693 -0.6909 -0.9021
 5269SOL    HW227270   0.668   2.907  14.032  0.6706 -0.5236  0.0192
 5270SOL     OW27271   2.638   1.449  16.521  0.2779 -0.0348  0.2408
 5270SOL    HW127272   2.690   1.369  16.524 -1.3717 -1.2446 -2.9757
 5270SOL    HW227273   2.633   1.465  16.615  1.4714 -0.1570  0.3143
 5271SOL     OW27274   0.850   0.073   6.122  0.1682  0.3146 -0.3154
 5271SOL    HW127275   0.771   0.076   6.068 -0.1976  0.5158  0.2208
 5271SOL    HW227276   0.824   0.135   6.191  0.3516  1.9759 -1.7488
 5272SOL     OW27277   1.979   2.391  13.495 -0.6889  0.1760  0.3474
 5272SOL    HW127278   2.010   2.382  13.585  0.4563  1.2728  0.0654
 5272SOL    HW227279   2.047   2.345  13.447 -3.0027 -0.7543 -2.0592
 5273SOL     OW27280   1.373   1.941   4.991 -0.6488 -0.1942 -0.4796
 5273SOL    HW127281   1.445   1.995   4.959 -1.5361 -1.0392 -3.9455
 5273SOL    HW227282   1.316   2.008   5.027  4.0366  2.1980  2.4745
 5274SOL     OW27283   0.866   2.564  12.750  0.2315  0.0576  0.0864
 5274SOL    HW127284   0.902   2.625  12.686  1.5587 -1.2406 -0.4130
 5274SOL    HW227285   0.782   2.539  12.712 -0.0898  2.5564 -0.8338
 5275SOL     OW27286   1.100   3.749   9.035 -0.0558  0.0971  0.2897
 5275SOL    HW127287   1.161   3.813   8.998  0.7305 -1.6585 -1.4324
 5275SOL    HW227288   1.156   3.721   9.107 -2.1515 -0.0157  1.8842
 5276SOL     OW27289   4.665   2.942   4.972 -0.0701  0.2180  0.0173
 5276SOL    HW127290   4.577   2.950   4.935 -0.7062  1.8970  1.8897
 5276SOL    HW227291   4.712   2.891   4.907  1.1380  2.0918 -0.5680
 5277SOL     OW27292   2.518   3.655   0.231 -0.2031  0.1334 -0.2546
 5277SOL    HW127293   2.577   3.635   0.304  1.1701  0.6603 -1.2228
 5277SOL    HW227294   2.576   3.654   0.155 -0.1114  1.0615 -0.1986
 5278SOL     OW27295   2.053   2.564   0.002 -0.1293  0.0461 -0.1443
 5278SOL    HW127296   2.039   2.504   0.075 -1.3766  0.0520 -0.3665
 5278SOL    HW227297   2.148   2.573   0.007 -0.2907  1.3523  0.5000
 5279SOL     OW27298   1.288   3.129   5.222 -0.2440  0.0292 -0.1101
 5279SOL    HW127299   1.202   3.088   5.224  0.1525 -0.7595  1.1413
 5279SOL    HW227300   1.313   3.135   5.314  3.2297 -0.3124 -0.9918
 5280SOL     OW27301   2.473   1.776   2.842 -0.2786 -0.2071  0.4319
 5280SOL    HW127302   2.394   1.721   2.851 -0.7481  0.2822 -0.6735
 5280SOL    HW227303   2.436   1.864   2.834  0.8849  0.1341 -1.2490
 5281SOL     OW27304   3.086   4.647  11.773  0.2169 -0.5018  0.0592
 5281SOL    HW127305   3.024   4.576  11.788 -0.6944  0.1680 -0.6166
 5281SOL    HW227306   3.127   4.643  11.860  0.0372  2.0136  0.2682
 5282SOL     OW27307   0.311   1.234   3.865  0.0782  0.1202  0.0747
 5282SOL    HW127308   0.243   1.247   3.798  1.4621  0.8726 -1.1683
 5282SOL    HW227309   0.257   1.240   3.943 -1.2541  0.6913 -0.8775
 5283SOL     OW27310   2.040   0.297  12.216 -0.7942  0.3724  0.2548
 5283SOL    HW127311   2.057   0.210  12.180 -1.9212  0.8768 -1.5293
 5283SOL    HW227312   2.126   0.338  12.214 -0.0983 -1.0280  1.0268
 5284SOL     OW27313   3.422   2.394  12.287  0.6706 -0.2862  0.1427
 5284SOL    HW127314   3.494   2.392  12.224  2.0788 -0.5228  1.7630
 5284SOL    HW227315   3.452   2.393  12.378  1.9464  1.4666 -0.2489
 5285SOL     OW27316   1.560   1.908   0.467  0.3730 -1.0547  0.3624
 5285SOL    HW127317   1.476   1.862   0.475 -1.4495  2.0599 -0.9510
 5285SOL    HW227318   1.532   1.999   0.469 -0.9705 -1.4567 -0.0224
 5286SOL     OW27319   4.260   3.763  14.360  0.1357 -0.1248  0.4937
 5286SOL    HW127320   4.167   3.784  14.352  0.7879  3.0696  1.2006
 5286SOL    HW227321   4.258   3.668  14.350 -0.3192 -0.2356  1.6759
 5287SOL     OW27322   1.662   1.796   1.348 -0.0454 -0.0065 -0.0571
 5287SOL    HW127323   1.624   1.712   1.323 -0.3158  0.2371 -0.4646
 5287SOL    HW227324   1.689   1.834   1.264  0.7868  1.2440  0.7681
 5288SOL     OW27325   1.059   0.602   9.192  0.8665 -0.2126  0.3588
 5288SOL    HW127326   1.128   0.618   9.128 -0.8502  3.9156 -0.4849
 5288SOL    HW227327   1.051   0.507   9.199  1.6471 -0.3119 -0.1754
 5289SOL     OW27328   1.411   3.860  13.423  0.1396 -0.0503  0.0810
 5289SOL    HW127329   1.318   3.859  13.400 -0.9268  0.8881  4.2319
 5289SOL    HW227330   1.411   3.765  13.429  0.7955 -0.0494  0.0989
 5290SOL     OW27331   0.028   1.697   4.191  0.1687 -0.0550 -0.2777
 5290SOL    HW127332   0.098   1.654   4.240 -0.5018 -1.8124 -0.8617
 5290SOL    HW227333   4.680   1.633   4.196 -0.0981  0.1848 -1.1243
 5291SOL     OW27334   0.246   0.958   2.917  0.2538  0.1524 -0.8864
 5291SOL    HW127335   0.215   0.974   2.828  1.0587 -1.7934 -1.5290
 5291SOL    HW227336   0.338   0.983   2.902  0.2849  0.1866 -0.6507
 5292SOL     OW27337   1.054   3.741   5.315  0.0539 -0.2186 -0.0872
 5292SOL    HW127338   1.010   3.825   5.298  0.0473  0.1088  1.6025
 5292SOL    HW227339   1.133   3.752   5.263  0.7873 -0.6072  0.9460
 5293SOL     OW27340   0.438   3.955   4.879  0.2406  0.2453 -0.1075
 5293SOL    HW127341   0.408   3.943   4.789  1.6406 -0.1161 -0.5259
 5293SOL    HW227342   0.459   3.864   4.900 -0.9272  0.5636  2.3637
 5294SOL     OW27343   3.300   0.865   2.917 -0.6332  0.1361 -0.4056
 5294SOL    HW127344   3.227   0.808   2.889  2.3701 -3.1407 -1.5677
 5294SOL    HW227345   3.359   0.791   2.932  0.3782  0.5231 -2.5884
 5295SOL     OW27346   4.018   1.253   1.460  0.2834  0.0426 -0.2156
 5295SOL    HW127347   4.019   1.207   1.375  2.4996 -1.9040  0.8493
 5295SOL    HW227348   3.933   1.295   1.451  0.6544  0.9780  0.6029
 5296SOL     OW27349   3.055   4.635   7.683  0.8124 -0.0380 -0.3141
 5296SOL    HW127350   3.077   0.003   7.668  1.0007 -0.3835 -2.0619
 5296SOL    HW227351   3.122   4.597   7.627  0.4070 -2.0462  0.5593
 5297SOL     OW27352   1.602   4.037  13.436  0.1415  0.0763 -0.3776
 5297SOL    HW127353   1.570   4.115  13.390  0.6777 -0.8668 -2.3692
 5297SOL    HW227354   1.522   3.984  13.440 -1.4357  2.5209  0.3280
 5298SOL     OW27355   2.129   2.855   8.344 -0.0801 -0.1552  0.8813
 5298SOL    HW127356   2.045   2.808   8.338 -0.3725  0.2962  1.4089
 5298SOL    HW227357   2.178   2.807   8.411  1.1377 -0.7341 -0.4265
 5299SOL     OW27358   2.221   3.326   4.612  0.2359  0.2527  0.5566
 5299SOL    HW127359   2.277   3.270   4.666 -1.1409  0.2829  1.9996
 5299SOL    HW227360   2.202   3.269   4.538  2.1158  1.0285 -0.5363
 5300SOL     OW27361   0.240   4.142   4.534 -0.0736  0.9635 -0.5040
 5300SOL    HW127362   0.241   4.177   4.445 -0.1802 -0.5686 -1.0970
 5300SOL    HW227363   0.322   4.183   4.562 -0.0095  1.0120 -0.7606
 5301SOL     OW27364   2.211   4.715  12.697 -0.4236  0.1756  0.7622
 5301SOL    HW127365   2.196   4.621  12.704  0.9764 -0.0197  1.1380
 5301SOL    HW227366   2.256   0.010  12.615  1.5099  0.0989  1.8089
 5302SOL     OW27367   4.571   2.735   8.930 -0.3708  0.2179  0.4335
 5302SOL    HW127368   4.626   2.801   8.888 -0.0961 -0.6292 -0.5341
 5302SOL    HW227369   4.636   2.673   8.964 -0.9016 -0.2682  0.5614
 5303SOL     OW27370   0.193   1.427   4.895 -0.4945  0.1821  0.5209
 5303SOL    HW127371   0.120   1.484   4.873 -1.0248  0.1769  2.2274
 5303SOL    HW227372   0.256   1.495   4.919 -0.2807  1.0315 -2.5590
 5304SOL     OW27373   1.401   2.999   2.510 -0.4559 -0.0378 -0.7543
 5304SOL    HW127374   1.414   3.066   2.576 -0.0656 -1.5443  0.6933
 5304SOL    HW227375   1.348   3.044   2.444 -0.7776  0.6680 -0.0156
 5305SOL     OW27376   3.719   1.755   5.338 -0.4950  0.5472  0.2672
 5305SOL    HW127377   3.696   1.674   5.384 -2.5714  0.3549 -1.1107
 5305SOL    HW227378   3.764   1.815   5.398  0.1184  0.4777 -0.1267
 5306SOL     OW27379   3.857   4.328  14.312  0.0528 -0.4324 -0.0224
 5306SOL    HW127380   3.919   4.401  14.313 -0.8367  0.3261 -0.2117
 5306SOL    HW227381   3.769   4.361  14.296 -0.2161 -1.9830 -1.7360
 5307SOL     OW27382   2.380   4.049  14.972  0.7900  0.0838 -0.2236
 5307SOL    HW127383   2.413   4.008  15.052  0.5222 -0.9211 -0.6342
 5307SOL    HW227384   2.391   3.973  14.914 -2.6147  1.5501 -2.8002
 5308SOL     OW27385   2.652   2.177   1.742 -0.0705  0.4551  0.3362
 5308SOL    HW127386   2.614   2.092   1.766 -0.1824  0.4789  0.2474
 5308SOL    HW227387   2.709   2.144   1.673 -0.3091 -0.6719  0.6874
 5309SOL     OW27388   1.640   4.016   9.939  0.1410  0.4697  0.3062
 5309SOL    HW127389   1.692   3.977   9.869  0.5097 -1.4159  1.6085
 5309SOL    HW227390   1.547   4.013   9.914 -0.9681  0.0769  4.4593
 5310SOL     OW27391   3.607   3.664   1.714 -0.7640 -0.4364 -0.5412
 5310SOL    HW127392   3.700   3.638   1.716 -0.6046  0.1764 -0.0082
 5310SOL    HW227393   3.613   3.714   1.633  1.4740 -0.2233 -0.2661
 5311SOL     OW27394   1.793   2.851   2.161 -0.3461  0.4265  0.1037
 5311SOL    HW127395   1.868   2.868   2.103 -1.1721  1.3102 -0.7212
 5311SOL    HW227396   1.849   2.823   2.233  1.9638  0.5468 -1.6267
 5312SOL     OW27397   2.958   2.597   2.655 -0.5849  0.2054 -0.5161
 5312SOL    HW127398   3.003   2.601   2.571  1.8005  0.7494  0.7853
 5312SOL    HW227399   2.946   2.689   2.678  2.9674  0.6396 -0.4082
 5313SOL     OW27400   1.092   2.008   2.995  0.0954 -0.3789  0.5547
 5313SOL    HW127401   1.140   2.016   2.913 -1.2802 -0.7869 -0.2849
 5313SOL    HW227402   1.066   2.099   3.008 -0.6115 -0.7170  1.5230
 5314SOL     OW27403   1.523   3.954   4.471 -0.2496  0.7851 -0.1648
 5314SOL    HW127404   1.584   3.883   4.451 -0.3503  0.8801 -0.8274
 5314SOL    HW227405   1.528   3.943   4.566 -0.0119 -1.6297 -0.4629
 5315SOL     OW27406   4.703   2.101   4.860 -0.4169  0.2883  0.0203
 5315SOL    HW127407   0.053   2.118   4.801 -0.9913 -0.7445 -0.9811
 5315SOL    HW227408   4.661   2.186   4.872 -2.2695 -0.2246 -2.7650
 5316SOL     OW27409   0.439   0.453  11.857 -0.3549 -0.1508 -0.3983
 5316SOL    HW127410   0.532   0.475  11.855 -0.3141 -0.3039 -0.1910
 5316SOL    HW227411   0.412   0.396  11.929 -2.8079  0.1230 -1.0997
 5317SOL     OW27412   2.747   3.861   0.916  0.5202 -0.9745  0.4610
 5317SOL    HW127413   2.687   3.798   0.956 -0.8786 -0.0648 -0.2086
 5317SOL    HW227414   2.805   3.885   0.988  1.6902 -2.8026  0.1163
 5318SOL     OW27415   2.834   3.486  11.162  0.2909 -0.0911  0.0748
 5318SOL    HW127416   2.854   3.512  11.252  0.0454 -0.1446  0.1460
 5318SOL    HW227417   2.842   3.565  11.109 -2.2179  0.3562  0.3508
 5319SOL     OW27418   2.288   1.906   6.279 -0.0952  0.9769  0.4103
 5319SOL    HW127419   2.197   1.890   6.254  0.0645  1.3890 -0.4442
 5319SOL    HW227420   2.282   2.002   6.281  0.1193  0.9887  0.4574
 5320SOL     OW27421   4.478   0.464  14.125  0.2072 -0.2758  0.4369
 5320SOL    HW127422   4.434   0.399  14.071  1.5760  0.4952 -1.5814
 5320SOL    HW227423   4.559   0.414  14.139 -0.2671 -0.5366  2.2868
 5321SOL     OW27424   0.486   2.952   9.327 -0.1551  0.8253  0.6948
 5321SOL    HW127425   0.496   2.865   9.364 -0.1469  0.2494 -0.6539
 5321SOL    HW227426   0.419   2.931   9.262 -1.4239  0.9977  1.9336
 5322SOL     OW27427   1.966   1.357  11.319  0.2958 -0.1499  0.3183
 5322SOL    HW127428   1.990   1.437  11.271 -0.0152 -3.2209 -5.0224
 5322SOL    HW227429   1.999   1.388  11.403  1.0202  0.2549 -0.1063
 5323SOL     OW27430   4.702   0.075  16.703  0.3452  0.1186  0.1378
 5323SOL    HW127431   4.644   0.002  16.679 -2.4476  3.3994 -3.1282
 5323SOL    HW227432   4.709   0.131  16.626 -0.2762  1.9462  1.4204
 5324SOL     OW27433   0.525   4.308   2.290 -0.3809 -0.9408  0.1014
 5324SOL    HW127434   0.446   4.331   2.339 -0.0347 -1.7878  1.0547
 5324SOL    HW227435   0.504   4.260   2.210 -0.8098  1.1711 -1.0467
 5325SOL     OW27436   3.548   2.855   7.131  0.0186 -0.2287  0.2010
 5325SOL    HW127437   3.524   2.769   7.166  0.6398  0.3469  2.0847
 5325SOL    HW227438   3.510   2.840   7.045  0.9888  0.6736 -0.3893
 5326SOL     OW27439   4.333   0.273   6.795 -0.2114 -0.3573 -0.4336
 5326SOL    HW127440   4.421   0.249   6.763 -0.1286  0.8529 -1.0910
 5326SOL    HW227441   4.353   0.261   6.888 -2.4251 -1.2163 -0.0752
 5327SOL     OW27442   0.286   1.415   2.346 -0.3866  0.7883  0.0765
 5327SOL    HW127443   0.233   1.374   2.414 -0.6568 -0.9342 -1.1667
 5327SOL    HW227444   0.221   1.438   2.280 -0.1450  0.8990 -0.1220
 5328SOL     OW27445   0.051   2.527   8.758 -0.1786  0.0567  0.1357
 5328SOL    HW127446   0.053   2.561   8.848  0.7221 -2.1764  0.9682
 5328SOL    HW227447   0.002   2.447   8.778 -1.6014  1.0428  0.5373
 5329SOL     OW27448   1.837   1.126   9.834 -0.0494 -0.3705 -0.0548
 5329SOL    HW127449   1.825   1.073   9.755  2.5020 -0.4166 -0.4128
 5329SOL    HW227450   1.873   1.057   9.890  0.2023  1.0005  1.4664
 5330SOL     OW27451   3.049   4.524   1.045  0.2359 -0.0525 -0.0007
 5330SOL    HW127452   3.023   4.447   1.095  2.2316 -2.3277 -2.4709
 5330SOL    HW227453   3.066   4.504   0.953 -1.8150  1.6722 -0.7690
 5331SOL     OW27454   2.870   0.696   5.062  0.5667 -0.0503  0.7094
 5331SOL    HW127455   2.899   0.777   5.021  1.0984 -1.4643 -1.7333
 5331SOL    HW227456   2.829   0.731   5.141 -0.7428  0.4530 -0.1933
 5332SOL     OW27457   4.469   1.830   7.787 -0.4821 -0.1172  0.2191
 5332SOL    HW127458   4.533   1.898   7.766 -1.6729  0.7930 -0.4432
 5332SOL    HW227459   4.431   1.816   7.700  0.3357  0.2599 -0.1995
 5333SOL     OW27460   2.323   1.448   6.790  0.4154 -0.2888  0.1241
 5333SOL    HW127461   2.339   1.432   6.697 -0.8750 -0.0439 -0.1493
 5333SOL    HW227462   2.326   1.544   6.787 -0.3718 -0.2786 -0.4303
 5334SOL     OW27463   3.156   4.594   5.417  0.3169 -1.2880 -0.6542
 5334SOL    HW127464   3.165   4.537   5.493  1.6005  0.6265  0.6370
 5334SOL    HW227465   3.127   4.534   5.348  0.9631 -1.6307 -0.6227
 5335SOL     OW27466   4.020   0.163   7.336 -0.2587  0.1555 -0.3062
 5335SOL    HW127467   4.061   0.193   7.418 -0.8858  0.3629 -0.0694
 5335SOL    HW227468   3.967   0.237   7.306 -0.5062  0.2141  0.2797
 5336SOL     OW27469   2.635   0.264   5.645 -0.5666  0.1425 -0.0875
 5336SOL    HW127470   2.722   0.225   5.660 -0.5724 -0.8060 -2.4667
 5336SOL    HW227471   2.597   0.185   5.606  1.1829 -1.0919  0.6753
 5337SOL     OW27472   2.699   0.005   7.439 -0.1289 -0.1534  0.2549
 5337SOL    HW127473   2.728   4.662   7.377  0.0396  1.4139 -1.3252
 5337SOL    HW227474   2.757   4.718   7.515  0.4910 -0.8092 -0.3101
 5338SOL     OW27475   2.037   2.669  17.209 -0.4101  0.2394 -0.5511
 5338SOL    HW127476   2.010   2.695  17.297 -0.6272  0.5476 -0.7112
 5338SOL    HW227477   1.947   2.650  17.181  0.6070 -3.3695 -1.3989
 5339SOL     OW27478   2.255   0.415   1.959 -0.1850  0.0549  0.1104
 5339SOL    HW127479   2.161   0.395   1.954 -0.0246 -0.5875 -0.5013
 5339SOL    HW227480   2.274   0.323   1.938  1.9324  0.1015  1.9129
 5340SOL     OW27481   2.349   0.597   3.812  0.0873  0.3237  0.2336
 5340SOL    HW127482   2.353   0.664   3.743  0.1120  0.0994  0.0177
 5340SOL    HW227483   2.444   0.597   3.828  0.3286  1.8187 -1.1547
 5341SOL     OW27484   2.111   2.077  16.659 -0.1023 -0.5485 -0.0485
 5341SOL    HW127485   2.183   2.046  16.604 -0.0792 -0.8499  0.1507
 5341SOL    HW227486   2.032   2.049  16.614  1.0433 -2.8538 -0.6163
 5342SOL     OW27487   2.381   3.906  17.211  0.1907 -0.1497 -0.3110
 5342SOL    HW127488   2.381   4.001  17.201  1.6996 -0.0619  0.5723
 5342SOL    HW227489   2.468   3.886  17.244  0.1578  0.8446  0.3701
 5343SOL     OW27490   2.266   2.519   3.064  0.5579 -0.4155  0.1556
 5343SOL    HW127491   2.232   2.583   3.127  0.9457  0.1809 -0.2428
 5343SOL    HW227492   2.188   2.493   3.015 -1.1024  1.2659  1.9287
 5344SOL     OW27493   4.446   0.854   7.939  0.1190 -0.1978 -0.1971
 5344SOL    HW127494   4.504   0.800   7.994 -0.4042  1.8145  2.3196
 5344SOL    HW227495   4.367   0.858   7.992  1.7656 -1.5134  2.4196
 5345SOL     OW27496   2.850   4.466   1.294 -0.1544  0.1458  0.2517
 5345SOL    HW127497   2.769   4.493   1.336 -0.6939  1.1966 -1.4664
 5345SOL    HW227498   2.907   4.538   1.323 -1.6759  1.9306 -1.1980
 5346SOL     OW27499   1.781   0.076   6.847  0.2737 -0.1881  0.1797
 5346SOL    HW127500   1.767   0.158   6.894  0.0931 -2.4892  4.1786
 5346SOL    HW227501   1.775   0.007   6.913  1.2856  0.3259  0.8039
 5347SOL     OW27502   3.072   4.362   8.414  0.0161 -0.2555  0.4082
 5347SOL    HW127503   3.083   4.351   8.320  0.0095  1.5466  0.1818
 5347SOL    HW227504   2.983   4.334   8.436 -0.6395  0.2093 -1.6100
 5348SOL     OW27505   0.594   3.734   8.427 -0.3420 -0.1753  0.1593
 5348SOL    HW127506   0.589   3.806   8.491  0.2202 -1.6744  1.8934
 5348SOL    HW227507   0.680   3.698   8.447 -0.3944  0.1699  1.0232
 5349SOL     OW27508   3.453   2.020   6.129 -0.0515 -0.1163  0.0682
 5349SOL    HW127509   3.419   2.097   6.173 -1.8246  0.6906 -2.6970
 5349SOL    HW227510   3.478   1.968   6.206 -1.7726 -1.2636 -0.1582
 5350SOL     OW27511   4.573   0.741   7.467  0.3346  1.1833  0.0406
 5350SOL    HW127512   4.540   0.778   7.548 -0.6683  1.0782 -0.3199
 5350SOL    HW227513   4.666   0.744   7.488  0.4096 -2.2671  0.1740
 5351SOL     OW27514   3.332   0.703   2.094  0.4023 -0.0042  0.8678
 5351SOL    HW127515   3.368   0.725   2.008 -1.8934 -1.4280 -0.4410
 5351SOL    HW227516   3.413   0.721   2.142  1.1208 -2.6587  0.6395
 5352SOL     OW27517   2.034   2.348   5.001  0.8791 -0.0836  0.1600
 5352SOL    HW127518   2.011   2.438   5.024  0.1536 -0.1804 -0.1778
 5352SOL    HW227519   2.123   2.361   4.968  0.6867  0.3212 -0.1944
 5353SOL     OW27520   4.706   4.341   3.852  0.8684  0.3746  0.8349
 5353SOL    HW127521   0.002   4.352   3.759 -0.6519 -1.0695  0.3479
 5353SOL    HW227522   4.613   4.358   3.861  0.4673 -0.6680 -1.4766
 5354SOL     OW27523   0.299   1.683   9.561  0.6840 -0.3185 -0.1900
 5354SOL    HW127524   0.352   1.668   9.483  0.4600  0.6479 -0.5323
 5354SOL    HW227525   0.308   1.593   9.594 -1.8743 -0.7242 -0.6163
 5355SOL     OW27526   1.140   3.632   4.818  0.0708  0.0126  0.2896
 5355SOL    HW127527   1.223   3.585   4.825 -1.4538 -2.4809  1.6491
 5355SOL    HW227528   1.153   3.667   4.730  0.3159  1.0142  0.7264
 5356SOL     OW27529   2.984   2.489   3.813 -0.2119 -0.0140  0.6258
 5356SOL    HW127530   2.972   2.394   3.811  2.2947 -0.3131  0.6921
 5356SOL    HW227531   2.999   2.512   3.904  0.6445 -0.2765  0.5517
 5357SOL     OW27532   0.554   4.441   8.048 -0.1164 -0.2365 -0.0316
 5357SOL    HW127533   0.546   4.401   7.962  1.6024  1.9529 -1.2075
 5357SOL    HW227534   0.482   4.397   8.094  1.7718 -0.1148  3.0483
 5358SOL     OW27535   4.545   0.217  15.120 -0.0868 -0.5552  0.4288
 5358SOL    HW127536   4.485   0.287  15.143  0.6219  0.5835 -1.2266
 5358SOL    HW227537   4.602   0.276  15.072 -1.4707 -1.0005 -1.7518
 5359SOL     OW27538   2.567   4.343   5.650 -0.4400  0.0205 -0.3336
 5359SOL    HW127539   2.636   4.279   5.634 -0.9953 -1.1581  1.9809
 5359SOL    HW227540   2.496   4.305   5.599 -2.4214  1.0354  1.6686
 5360SOL     OW27541   2.244   4.391  15.926  0.3414  0.1219  0.0734
 5360SOL    HW127542   2.174   4.393  15.861  1.8178 -0.6620 -1.5621
 5360SOL    HW227543   2.289   4.310  15.901  0.7888 -0.1097  1.6492
 5361SOL     OW27544   0.737   3.304  10.792 -0.1367  0.1489  0.7228
 5361SOL    HW127545   0.811   3.346  10.836  0.4241 -0.1829  0.1075
 5361SOL    HW227546   0.757   3.211  10.803 -0.4511 -0.1396 -1.0261
 5362SOL     OW27547   1.937   0.046   8.804  0.1135 -0.6475 -0.1951
 5362SOL    HW127548   1.866   4.708   8.821 -2.6614  3.6147  3.6172
 5362SOL    HW227549   1.971   0.058   8.893 -0.0848 -0.7662 -0.1024
 5363SOL     OW27550   3.248   2.599   3.597 -0.2271 -0.2152  0.6543
 5363SOL    HW127551   3.209   2.684   3.614 -1.1874 -0.5701  0.2377
 5363SOL    HW227552   3.321   2.620   3.538  0.2495 -0.8372  1.0138
 5364SOL     OW27553   3.548   3.134   7.170 -0.7754  0.2455  0.5755
 5364SOL    HW127554   3.470   3.153   7.119 -0.5296  1.6158  0.7075
 5364SOL    HW227555   3.576   3.046   7.142 -2.7811 -0.4306  0.7161
 5365SOL     OW27556   1.890   3.484   7.819 -0.1861 -0.1073  0.5097
 5365SOL    HW127557   1.924   3.404   7.780 -0.6794 -0.1299  0.1310
 5365SOL    HW227558   1.795   3.480   7.810 -0.0970 -1.5450  0.1661
 5366SOL     OW27559   0.646   1.098   0.772 -0.3148  0.1645  0.0093
 5366SOL    HW127560   0.612   1.047   0.845 -0.7505  2.4237  1.3764
 5366SOL    HW227561   0.696   1.155   0.830  1.4538  0.2965 -1.6346
 5367SOL     OW27562   3.333   3.661   4.479  0.3090  0.1190  0.1513
 5367SOL    HW127563   3.316   3.753   4.495 -0.0379  0.2657 -1.0054
 5367SOL    HW227564   3.394   3.639   4.549  0.2133  1.4567  0.6522
 5368SOL     OW27565   0.621   0.097   4.395 -0.4106 -0.0058  0.0910
 5368SOL    HW127566   0.620   0.148   4.476 -0.2770 -0.3579  0.3119
 5368SOL    HW227567   0.680   0.148   4.339 -0.2317  0.1394  0.4083
 5369SOL     OW27568   2.106   4.480  14.480  0.2129 -0.2740  0.2924
 5369SOL    HW127569   2.154   4.508  14.402  0.1078 -1.2793 -0.1379
 5369SOL    HW227570   2.142   4.391  14.482  1.4718  0.2174 -0.2461
 5370SOL     OW27571   0.006   0.056  13.667  0.0336 -0.0568  0.1271
 5370SOL    HW127572   4.647   0.102  13.681 -0.7657 -0.8775 -1.9168
 5370SOL    HW227573   0.015   0.058  13.571  0.1923 -4.3070  0.0326
 5371SOL     OW27574   4.107   4.471   4.271 -0.2824  0.3909  0.7448
 5371SOL    HW127575   4.141   4.535   4.333 -2.8607  1.0897  1.4076
 5371SOL    HW227576   4.017   4.453   4.298  0.3461 -0.8468  2.0140
 5372SOL     OW27577   4.113   2.483   3.527  0.3099  0.4718  0.2699
 5372SOL    HW127578   4.153   2.434   3.600  0.8833  1.4077  0.5825
 5372SOL    HW227579   4.021   2.467   3.547  0.2611 -1.5606 -1.5879
 5373SOL     OW27580   3.730   2.342   5.402  0.0378 -0.4219 -0.0616
 5373SOL    HW127581   3.791   2.380   5.339 -2.5993  0.0749 -2.3687
 5373SOL    HW227582   3.789   2.315   5.472 -0.1948 -3.4337 -1.0358
 5374SOL     OW27583   3.307   3.680   8.438 -0.2032 -0.1142 -0.0068
 5374SOL    HW127584   3.216   3.649   8.435  0.4456 -1.9343 -0.5745
 5374SOL    HW227585   3.350   3.594   8.444  2.2935  1.1611  0.3264
 5375SOL     OW27586   1.700   2.450   6.143 -0.0156 -0.5009 -0.9376
 5375SOL    HW127587   1.656   2.396   6.078  1.2392 -0.9561 -1.3998
 5375SOL    HW227588   1.676   2.538   6.113 -0.0821 -0.2449 -0.1376
 5376SOL     OW27589   4.531   2.688   2.163 -0.1522 -0.0568  0.3865
 5376SOL    HW127590   4.565   2.685   2.073  2.6722  0.7333  1.4454
 5376SOL    HW227591   4.516   2.597   2.190  0.4345 -0.1725  0.3053
 5377SOL     OW27592   2.256   0.636   6.274 -0.4277  0.2513 -0.0637
 5377SOL    HW127593   2.329   0.695   6.293 -1.2322  1.7684 -1.6338
 5377SOL    HW227594   2.299   0.554   6.300  1.8172  1.3492 -0.2484
 5378SOL     OW27595   1.647   1.672   1.686  0.2982 -0.0743  0.2282
 5378SOL    HW127596   1.677   1.666   1.595  1.1524 -0.9912  0.5644
 5378SOL    HW227597   1.728   1.640   1.727 -0.8797 -1.0352  1.8041
 5379SOL     OW27598   0.349   2.120   4.338 -0.5593 -0.0234  0.0822
 5379SOL    HW127599   0.439   2.094   4.353 -0.5135 -0.2619 -0.6295
 5379SOL    HW227600   0.304   2.050   4.385  0.9318 -0.5697  0.6900
 5380SOL     OW27601   3.323   1.550   2.957  0.2935 -0.4491  0.3513
 5380SOL    HW127602   3.392   1.508   3.008 -0.1732 -2.1843 -0.4717
 5380SOL    HW227603   3.347   1.642   2.970 -2.0345  0.1722  0.3144
 5381SOL     OW27604   4.139   0.890   9.349 -0.3497 -0.2825  0.2308
 5381SOL    HW127605   4.144   0.837   9.269  0.7071  1.0107 -0.5716
 5381SOL    HW227606   4.069   0.838   9.390 -0.9431  0.1906 -0.1907
 5382SOL     OW27607   2.013   0.085  10.956  0.5174  0.4048 -0.6260
 5382SOL    HW127608   2.095   0.052  10.992  1.6066  2.3030 -1.3858
 5382SOL    HW227609   1.946   0.039  11.008  1.9120 -0.1406  0.6988
 5383SOL     OW27610   3.864   3.316  10.793 -0.2442  0.3363 -0.4997
 5383SOL    HW127611   3.786   3.326  10.847 -1.5231 -0.3839 -2.2096
 5383SOL    HW227612   3.908   3.399  10.810 -0.3424  0.0242  1.2601
 5384SOL     OW27613   1.348   2.780   6.261 -0.3635  0.1056 -0.6134
 5384SOL    HW127614   1.295   2.858   6.279  1.4528  1.0593  0.6002
 5384SOL    HW227615   1.432   2.803   6.300 -1.5022  4.0635 -0.4909
 5385SOL     OW27616   1.448   2.229   7.149 -0.1150  0.5433 -0.0802
 5385SOL    HW127617   1.453   2.303   7.209  1.5530 -0.6910  1.2777
 5385SOL    HW227618   1.530   2.182   7.158 -1.2826 -1.3844  0.2908
 5386SOL     OW27619   1.782   0.965   9.616  0.5420 -0.0257 -0.3133
 5386SOL    HW127620   1.752   0.875   9.631 -0.3377  0.3228 -0.0199
 5386SOL    HW227621   1.712   0.996   9.560 -0.6962 -0.5675  0.9420
 5387SOL     OW27622   3.785   1.875   0.109 -0.0037  0.4667  0.2281
 5387SOL    HW127623   3.701   1.838   0.082 -0.0823  1.4312 -0.8514
 5387SOL    HW227624   3.805   1.944   0.046  1.0714  0.4692  0.5589
 5388SOL     OW27625   4.058   0.638   4.001  0.2624  0.3569  0.2911
 5388SOL    HW127626   3.969   0.671   4.017 -1.0091 -2.6866 -0.5786
 5388SOL    HW227627   4.086   0.697   3.931 -1.4836  0.0569 -0.6634
 5389SOL     OW27628   2.436   1.205   3.684  0.1620 -0.1438 -0.3916
 5389SOL    HW127629   2.456   1.297   3.668  0.5759  0.0486  1.3253
 5389SOL    HW227630   2.447   1.185   3.777 -2.1138 -0.5443 -0.2195
 5390SOL     OW27631   4.012   2.428   6.944 -0.1612 -0.1055  0.6686
 5390SOL    HW127632   3.962   2.420   7.025 -0.0021 -0.8174  0.6970
 5390SOL    HW227633   4.096   2.457   6.980  0.3761 -1.5404  0.5603
 5391SOL     OW27634   1.299   3.016  14.411 -0.4239 -0.3589 -0.6599
 5391SOL    HW127635   1.272   3.042  14.499  0.1421  0.1159 -0.6318
 5391SOL    HW227636   1.345   2.932  14.420  0.8965  0.5403  0.8954
 5392SOL     OW27637   1.408   1.967   8.152  0.0093 -0.1396  0.7278
 5392SOL    HW127638   1.314   1.960   8.170  0.2870  0.6953  2.6107
 5392SOL    HW227639   1.450   1.970   8.238  0.8951  0.6389  0.2550
 5393SOL     OW27640   3.780   0.666  17.065  0.0877  0.0336  0.5246
 5393SOL    HW127641   3.754   0.735  17.125 -0.1583 -0.0895  0.5597
 5393SOL    HW227642   3.813   0.721  16.994  1.7204 -0.9326  0.5214
 5394SOL     OW27643   0.683   1.798   5.368  0.1397 -0.7539 -0.3319
 5394SOL    HW127644   0.613   1.739   5.396  1.2219 -1.5591  0.7097
 5394SOL    HW227645   0.747   1.783   5.438  2.5274  2.2410 -1.8567
 5395SOL     OW27646   2.105   0.933   4.500 -0.4121  0.5550  0.6630
 5395SOL    HW127647   2.086   0.986   4.422 -0.1336 -3.0660 -1.8748
 5395SOL    HW227648   2.018   0.908   4.530  0.0395 -0.9206  0.7352
 5396SOL     OW27649   4.110   0.415   8.039  0.3486 -0.2946 -0.1877
 5396SOL    HW127650   4.056   0.365   8.101 -0.6714 -0.5363 -1.2682
 5396SOL    HW227651   4.080   0.506   8.046  1.0524 -0.2143  1.7888
 5397SOL     OW27652   0.758   2.457  11.497  0.4092  0.5262 -0.0294
 5397SOL    HW127653   0.756   2.489  11.587 -1.8257  1.9394 -0.5881
 5397SOL    HW227654   0.827   2.509  11.455 -0.4949  0.7645 -1.2177
 5398SOL     OW27655   2.227   2.445   5.854 -0.1524  0.4921 -0.4354
 5398SOL    HW127656   2.185   2.468   5.937 -0.6824 -1.3175 -0.2193
 5398SOL    HW227657   2.321   2.451   5.872 -0.1243 -0.8537 -0.1970
 5399SOL     OW27658   3.009   0.068   5.179  0.5827  0.4172 -0.2763
 5399SOL    HW127659   3.046   4.710   5.144 -0.7408  0.6812 -2.2630
 5399SOL    HW227660   2.919   0.048   5.151  0.4088 -1.5704  1.6229
 5400SOL     OW27661   1.801   3.155  11.099  0.6379  0.3398 -0.1032
 5400SOL    HW127662   1.765   3.232  11.142  1.6021  1.0855 -0.6344
 5400SOL    HW227663   1.721   3.111  11.072  1.1181 -0.2740 -0.5287
 5401SOL     OW27664   3.699   2.993  11.730 -0.5075  0.3197 -0.3880
 5401SOL    HW127665   3.635   3.057  11.697  2.9048  2.8441 -2.1836
 5401SOL    HW227666   3.768   3.045  11.771  0.6106  0.1234 -1.9933
 5402SOL     OW27667   2.768   3.472   1.337  0.0779  0.1849 -0.3070
 5402SOL    HW127668   2.830   3.491   1.267  1.0598  2.3401  1.1330
 5402SOL    HW227669   2.704   3.415   1.295 -0.7327 -0.6408  2.0355
 5403SOL     OW27670   1.682   3.239   3.493  0.4092  0.1889  0.6569
 5403SOL    HW127671   1.763   3.263   3.537  0.6847 -1.1939  0.8903
 5403SOL    HW227672   1.618   3.222   3.562  0.8034 -0.1353  0.9402
 5404SOL     OW27673   4.282   0.834   2.241  0.5050 -0.5459 -0.0649
 5404SOL    HW127674   4.341   0.774   2.197  0.3570 -0.8805  0.1912
 5404SOL    HW227675   4.284   0.901   2.173  0.5494 -1.7126 -1.2174
 5405SOL     OW27676   4.684   0.294  14.121 -0.0646  0.4376  0.0748
 5405SOL    HW127677   4.666   0.221  14.061 -0.1260 -0.2792  0.9529
 5405SOL    HW227678   0.056   0.295  14.122 -0.0178 -1.5731 -1.2202
 5406SOL     OW27679   1.972   0.638   3.636  0.1575 -0.1435 -0.4175
 5406SOL    HW127680   1.971   0.567   3.700  0.9173 -0.6693 -0.9854
 5406SOL    HW227681   2.055   0.618   3.593 -0.3449 -2.0810 -0.4921
 5407SOL     OW27682   0.499   0.386   6.858 -0.4593 -0.3717  0.1686
 5407SOL    HW127683   0.512   0.474   6.823 -0.8286  0.2011  1.4765
 5407SOL    HW227684   0.428   0.388   6.922 -0.4393  1.0957  0.1425
 5408SOL     OW27685   3.605   1.534   0.473  0.2445 -0.8198  0.2436
 5408SOL    HW127686   3.583   1.623   0.447 -0.0115 -0.2114  2.5218
 5408SOL    HW227687   3.552   1.522   0.552  0.7106  0.9217  0.8433
 5409SOL     OW27688   3.754   3.927   6.450 -0.1076 -0.4288 -0.1180
 5409SOL    HW127689   3.806   4.007   6.450 -0.8705  0.0642 -1.6618
 5409SOL    HW227690   3.714   3.930   6.363 -1.2916  2.7492  0.5379
 5410SOL     OW27691   1.141   3.922  12.699 -0.2042  0.2612 -0.5463
 5410SOL    HW127692   1.127   3.829  12.719 -1.1215  0.1647 -1.6437
 5410SOL    HW227693   1.225   3.935  12.743  0.3966 -1.4196 -1.1821
 5411SOL     OW27694   2.422   3.165  16.151  0.1895 -0.6784 -0.3824
 5411SOL    HW127695   2.414   3.160  16.056 -0.9656  1.9274 -0.4263
 5411SOL    HW227696   2.509   3.137  16.177 -0.4741 -0.3027  2.2549
 5412SOL     OW27697   3.280   0.912  17.479 -0.6103 -0.2098 -0.2063
 5412SOL    HW127698   3.303   0.960  17.399 -0.0576  0.6959  0.4952
 5412SOL    HW227699   3.217   0.972  17.518  0.0031  0.7127 -0.6455
 5413SOL     OW27700   3.199   1.085   4.011  0.1766 -0.5452  0.3455
 5413SOL    HW127701   3.188   1.041   3.926 -1.2288  0.5043 -0.0065
 5413SOL    HW227702   3.214   1.177   3.990  1.0826 -1.0614 -1.2801
 5414SOL     OW27703   1.323   1.921   9.599  0.2857 -0.5398 -0.4985
 5414SOL    HW127704   1.325   2.007   9.640 -2.1410 -1.5179  1.7014
 5414SOL    HW227705   1.276   1.941   9.518  3.3731  0.2285 -2.0734
 5415SOL     OW27706   0.669   3.274   2.223  0.5013  0.1209  0.0271
 5415SOL    HW127707   0.623   3.301   2.301 -0.7387 -0.4672 -0.5035
 5415SOL    HW227708   0.601   3.246   2.162  0.4341 -0.4070  0.3407
 5416SOL     OW27709   0.740   4.287   3.938  0.4173  0.0364 -0.7476
 5416SOL    HW127710   0.771   4.319   4.023  0.0584 -1.0293 -0.2106
 5416SOL    HW227711   0.672   4.223   3.961  0.1224  0.9397  0.9199
 5417SOL     OW27712   4.387   4.094   4.708  0.0262 -0.2392 -0.0647
 5417SOL    HW127713   4.386   4.173   4.762  1.0902  1.4036 -2.4722
 5417SOL    HW227714   4.477   4.096   4.675 -0.8406 -3.5255 -2.5718
 5418SOL     OW27715   2.476   4.180  12.194 -0.2340  0.0763  0.3773
 5418SOL    HW127716   2.526   4.209  12.271 -0.0994  2.9146 -0.7910
 5418SOL    HW227717   2.487   4.085  12.206 -0.0725 -0.0501 -0.7952
 5419SOL     OW27718   1.172   0.915  13.550 -0.1564 -0.2559  0.0595
 5419SOL    HW127719   1.231   0.982  13.583 -0.2501  0.0083 -0.3113
 5419SOL    HW227720   1.105   0.898  13.616  0.1535 -0.5644  0.2961
 5420SOL     OW27721   3.226   4.680  11.536 -0.1723 -0.2717  0.2032
 5420SOL    HW127722   3.310   4.704  11.576  0.0777 -0.1197 -0.3927
 5420SOL    HW227723   3.169   4.684  11.612  2.1105  0.8625  1.8510
 5421SOL     OW27724   2.321   3.927   0.025  0.4715 -0.6672  0.4293
 5421SOL    HW127725   2.410   3.914  17.688  0.8379  0.1963  1.0400
 5421SOL    HW227726   2.305   4.003  17.665 -1.4728 -2.3649 -1.2678
 5422SOL     OW27727   2.845   2.648  14.508 -0.0078 -0.3872 -0.0015
 5422SOL    HW127728   2.890   2.733  14.508 -2.2157  0.7532  2.8166
 5422SOL    HW227729   2.830   2.621  14.417  0.4156 -1.5343  0.2707
 5423SOL     OW27730   1.677   2.067   6.224 -0.3294  0.3744  0.3710
 5423SOL    HW127731   1.600   2.046   6.172 -1.7286  1.6022  1.9648
 5423SOL    HW227732   1.649   2.147   6.268  0.1512  1.3394 -1.0907
 5424SOL     OW27733   1.804   3.099  10.814 -0.1643  0.0980  0.4576
 5424SOL    HW127734   1.738   3.081  10.881 -1.6696  2.6850 -0.2958
 5424SOL    HW227735   1.805   3.194  10.807 -2.3734  0.1542  0.7431
 5425SOL     OW27736   1.406   2.414  14.901 -0.4456 -0.2102 -0.6222
 5425SOL    HW127737   1.419   2.417  14.996 -0.4423  1.3302 -0.6776
 5425SOL    HW227738   1.345   2.341  14.898  0.6258 -1.1288 -0.1490
 5426SOL     OW27739   2.477   2.822   6.361  0.4332  0.4173 -0.2392
 5426SOL    HW127740   2.554   2.796   6.412 -2.5098 -1.6446  3.1483
 5426SOL    HW227741   2.518   2.816   6.274 -2.5056 -1.7259 -1.4405
 5427SOL     OW27742   3.868   4.258  13.982  0.4330 -0.4216  0.3735
 5427SOL    HW127743   3.820   4.244  13.900  0.1033 -0.3844  0.5599
 5427SOL    HW227744   3.831   4.343  14.005 -0.4605 -1.3690  2.4798
 5428SOL     OW27745   4.382   1.098   9.026  0.4073 -0.4679  0.8805
 5428SOL    HW127746   4.380   1.006   9.001  0.4412 -0.2922  0.2228
 5428SOL    HW227747   4.304   1.108   9.080  0.4947  1.7194  0.5957
 5429SOL     OW27748   4.622   0.503   3.364 -0.1783  0.3886 -0.3711
 5429SOL    HW127749   4.604   0.573   3.301  1.4900  0.4734 -0.7425
 5429SOL    HW227750   4.716   0.489   3.354 -0.4509 -1.5357 -0.2037
 5430SOL     OW27751   3.765   0.756   7.022  0.2930 -0.1598 -0.1114
 5430SOL    HW127752   3.729   0.800   6.945  2.5625  1.8586 -0.0236
 5430SOL    HW227753   3.697   0.780   7.085  1.3009  1.3358  0.4169
 5431SOL     OW27754   1.796   0.968  11.593  0.5561  0.5346  0.0276
 5431SOL    HW127755   1.780   0.960  11.499  1.0342 -1.9764  0.1500
 5431SOL    HW227756   1.817   0.877  11.614  1.0679  1.3708  3.0503
 5432SOL     OW27757   0.804   4.555   4.917 -0.0707 -0.1844 -0.1804
 5432SOL    HW127758   0.874   4.584   4.975 -0.3134  0.1471 -0.0519
 5432SOL    HW227759   0.750   4.505   4.977  1.1414 -2.0826 -0.6719
 5433SOL     OW27760   1.924   2.062   2.775  0.3575 -0.0332 -0.0506
 5433SOL    HW127761   2.006   2.018   2.799  0.7224 -0.7444 -2.6784
 5433SOL    HW227762   1.954   2.096   2.691 -0.3598  1.5788  0.3588
 5434SOL     OW27763   1.647   4.265   0.195 -0.5376  0.1930 -0.0229
 5434SOL    HW127764   1.624   4.173   0.211  0.8707 -0.2235 -0.4455
 5434SOL    HW227765   1.648   4.290   0.287  2.1297 -1.3516  0.3749
 5435SOL     OW27766   2.236   4.244   2.521 -0.4725  0.3266 -0.1012
 5435SOL    HW127767   2.143   4.260   2.535  0.0043  1.9663  1.1857
 5435SOL    HW227768   2.272   4.333   2.526 -0.0307  0.2192 -1.6075
 5436SOL     OW27769   3.082   0.569   3.459 -0.0547  0.3402 -0.1751
 5436SOL    HW127770   3.133   0.545   3.382 -0.6611 -2.4097  0.2558
 5436SOL    HW227771   2.995   0.585   3.422  0.4361  0.9488 -1.0410
 5437SOL     OW27772   2.024   4.252   5.448  0.4125 -0.1718 -0.9530
 5437SOL    HW127773   1.943   4.298   5.468 -0.8282 -3.0568  0.7495
 5437SOL    HW227774   2.016   4.166   5.490 -1.2099  1.3006  1.7246
 5438SOL     OW27775   4.407   2.546   5.030  0.0162 -0.0821  0.1355
 5438SOL    HW127776   4.338   2.611   5.019 -0.6148 -0.9067 -0.7772
 5438SOL    HW227777   4.467   2.615   5.059 -0.0797  0.1802 -0.2922
 5439SOL     OW27778   2.837   0.477   6.570  0.0000 -0.1776  0.0808
 5439SOL    HW127779   2.837   0.468   6.475 -3.3840 -0.6210  0.1215
 5439SOL    HW227780   2.827   0.389   6.605 -1.5260 -0.7372 -1.7805
 5440SOL     OW27781   4.023   1.520   2.117  0.2178 -0.1232  0.2600
 5440SOL    HW127782   3.977   1.504   2.034  1.4534  3.2446 -1.0673
 5440SOL    HW227783   4.072   1.441   2.135  0.4456 -0.2504 -0.9530
 5441SOL     OW27784   1.930   0.073   6.406 -0.2936  0.4130 -0.0404
 5441SOL    HW127785   1.966   0.124   6.478 -0.6075  1.2782 -0.4908
 5441SOL    HW227786   2.011   0.035   6.373  0.7777  0.0358  3.0424
 5442SOL     OW27787   1.601   3.754   1.136 -0.2644  0.1563 -0.2394
 5442SOL    HW127788   1.690   3.782   1.155  0.7459 -2.4562 -1.1911
 5442SOL    HW227789   1.559   3.796   1.211  1.0561 -0.5009  0.8554
 5443SOL     OW27790   4.208   0.399   3.459  0.2492  0.3103 -0.0833
 5443SOL    HW127791   4.229   0.485   3.496  0.6939 -0.5190  1.5687
 5443SOL    HW227792   4.177   0.424   3.372  0.8824  0.8004 -0.1685
 5444SOL     OW27793   3.392   0.568  15.200  0.4963  0.6657  0.2840
 5444SOL    HW127794   3.298   0.577  15.215  0.0605  2.6432 -3.6408
 5444SOL    HW227795   3.395   0.473  15.211  3.3781  0.6151 -0.8908
 5445SOL     OW27796   0.615   1.170   6.730 -0.1880 -0.1230 -0.4257
 5445SOL    HW127797   0.662   1.087   6.734 -0.9301 -0.5197  0.1758
 5445SOL    HW227798   0.675   1.237   6.763 -0.4664 -0.2562  0.3562
 5446SOL     OW27799   0.089   2.571   9.019  0.5227 -0.2257 -0.2552
 5446SOL    HW127800   0.182   2.580   9.041  0.4436 -1.5220  0.5721
 5446SOL    HW227801   0.055   2.543   9.104  2.2003  0.2051  0.5465
 5447SOL     OW27802   3.935   1.580   4.122 -0.5690 -0.4898 -0.1809
 5447SOL    HW127803   3.910   1.556   4.033  2.6125 -2.4627 -0.5531
 5447SOL    HW227804   3.858   1.558   4.175 -0.5841 -2.7511 -1.1388
 5448SOL     OW27805   1.857   1.983   4.291  0.6306 -0.0132  0.7386
 5448SOL    HW127806   1.845   1.904   4.239 -2.5361 -0.3432  1.9506
 5448SOL    HW227807   1.791   2.042   4.253 -1.3903 -1.7636  1.5044
 5449SOL     OW27808   2.600   4.469  17.532 -0.2681 -0.1703  0.2057
 5449SOL    HW127809   2.591   4.564  17.534 -0.4724 -0.1774 -0.3814
 5449SOL    HW227810   2.520   4.432  17.495  0.1190 -0.9559  0.1471
 5450SOL     OW27811   4.721   3.552   9.164  0.1263  0.4741 -0.4481
 5450SOL    HW127812   0.001   3.477   9.105  1.7888  0.9006 -0.8732
 5450SOL    HW227813   4.723   3.510   9.250  0.5910 -1.0063 -1.1780
 5451SOL     OW27814   0.760   1.048  16.883 -0.2172  0.2982 -0.1661
 5451SOL    HW127815   0.799   0.977  16.832  0.1754  0.9098 -0.7151
 5451SOL    HW227816   0.811   1.125  16.858  0.7651 -0.1922  0.3141
 5452SOL     OW27817   2.832   0.557   3.641 -0.2050 -0.4548 -1.0163
 5452SOL    HW127818   2.793   0.507   3.712 -0.5940 -0.4466 -1.2234
 5452SOL    HW227819   2.802   0.515   3.560 -0.7376  1.8032 -2.0244
 5453SOL     OW27820   3.892   0.064   4.841 -0.3255 -0.1318 -0.0398
 5453SOL    HW127821   3.946   0.139   4.866 -1.1465  0.7033 -0.7649
 5453SOL    HW227822   3.808   0.077   4.885 -0.6617 -3.9605  0.5062
 5454SOL     OW27823   2.612   4.361   3.949  0.5505  0.5005  0.0849
 5454SOL    HW127824   2.517   4.352   3.960  0.1803  0.8476 -2.7314
 5454SOL    HW227825   2.649   4.400   4.028  0.9808  1.3820 -0.5441
 5455SOL     OW27826   2.436   3.841  11.231 -0.2722  0.1435 -0.0021
 5455SOL    HW127827   2.515   3.842  11.176 -2.0741  0.5127 -2.6193
 5455SOL    HW227828   2.360   3.836  11.172 -0.8215  0.2154  0.7040
 5456SOL     OW27829   2.296   0.601   3.251 -0.4996 -0.2396 -0.0508
 5456SOL    HW127830   2.200   0.606   3.257 -0.1970  1.8787  2.9372
 5456SOL    HW227831   2.315   0.514   3.217 -1.2247 -0.5035  0.2138
 5457SOL     OW27832   0.641   4.546   2.360 -0.1549  0.2359  0.0963
 5457SOL    HW127833   0.647   4.489   2.437 -2.5904  0.1161  0.1847
 5457SOL    HW227834   0.620   4.470   2.306  0.2488  0.6767 -0.6784
 5458SOL     OW27835   0.843   1.194   0.052 -0.1295 -0.0931  0.1526
 5458SOL    HW127836   0.759   1.150   0.067 -0.1032  0.5831  2.2755
 5458SOL    HW227837   0.864   1.213   0.143 -0.9847  2.4824 -0.1953
 5459SOL     OW27838   2.792   2.046   2.627  0.3783 -0.3035  0.0534
 5459SOL    HW127839   2.862   2.059   2.562 -0.3575  1.3710 -0.3962
 5459SOL    HW227840   2.752   1.963   2.603  0.1745 -0.7285  1.8455
 5460SOL     OW27841   4.608   3.251   3.536  0.6116  0.6110  0.5464
 5460SOL    HW127842   4.610   3.345   3.554  0.8435  0.5764  0.7075
 5460SOL    HW227843   4.643   3.248   3.447 -0.3329  1.4250  0.1500
 5461SOL     OW27844   0.168   1.836   7.120 -0.2125 -0.2200 -0.4081
 5461SOL    HW127845   0.159   1.741   7.121 -0.1939 -0.1866  3.4682
 5461SOL    HW227846   0.234   1.851   7.188 -1.2401  2.0504  0.1035
 5462SOL     OW27847   3.749   3.042   2.921  0.4747 -0.6896  0.2022
 5462SOL    HW127848   3.689   2.987   2.871  1.8330 -0.1895 -1.9770
 5462SOL    HW227849   3.693   3.104   2.969  1.5950  0.6906 -0.2717
 5463SOL     OW27850   3.686   0.008  11.917  0.2768  0.2702  0.1693
 5463SOL    HW127851   3.728   4.714  12.000  0.0572 -1.2490 -0.0484
 5463SOL    HW227852   3.659   4.646  11.884 -1.2977 -0.6648  3.8599
 5464SOL     OW27853   2.274   1.178  11.257  0.2150  0.1949  0.5548
 5464SOL    HW127854   2.320   1.130  11.189 -0.5959  1.1146 -0.6603
 5464SOL    HW227855   2.216   1.238  11.209  0.3712  0.1346  0.2910
 5465SOL     OW27856   4.714   2.170   3.396 -0.1317 -0.1709  0.1424
 5465SOL    HW127857   0.083   2.146   3.392  0.8938  4.0466 -0.7161
 5465SOL    HW227858   4.710   2.247   3.341  0.4377  0.1848  0.5973
 5466SOL     OW27859   4.032   3.291   7.433 -0.0867  0.1948 -0.1594
 5466SOL    HW127860   3.952   3.293   7.486  0.4333 -0.7491  0.6404
 5466SOL    HW227861   4.004   3.229   7.366 -1.6963  1.2098 -0.4538
 5467SOL     OW27862   4.264   2.765  12.042  0.5913 -0.1444 -0.4659
 5467SOL    HW127863   4.267   2.784  12.135 -0.9147  2.0676 -0.8719
 5467SOL    HW227864   4.192   2.821  12.012 -0.3560 -1.7481 -1.2010
 5468SOL     OW27865   0.312   0.660   5.881  0.1481  0.0228  0.0514
 5468SOL    HW127866   0.317   0.744   5.836  2.3098 -0.9877 -1.6035
 5468SOL    HW227867   0.280   0.611   5.805  0.7498  0.4658 -0.4897
 5469SOL     OW27868   1.502   3.740  11.799 -0.6887  0.5196  0.0853
 5469SOL    HW127869   1.482   3.721  11.708 -0.6875 -0.1670  0.2278
 5469SOL    HW227870   1.596   3.758  11.798 -0.1046 -2.5871 -1.4417
 5470SOL     OW27871   0.774   4.675  13.912 -0.3604  0.1636  0.1816
 5470SOL    HW127872   0.847   4.720  13.954  0.7691 -0.5637 -1.0000
 5470SOL    HW227873   0.817   4.641  13.833  0.9001  1.7247  0.1799
 5471SOL     OW27874   2.695   3.834   5.425  0.2102 -0.0478  0.4664
 5471SOL    HW127875   2.764   3.855   5.488 -1.0008  1.7341  1.1926
 5471SOL    HW227876   2.694   3.739   5.431 -0.7307 -0.0794 -0.2086
 5472SOL     OW27877   1.472   3.940   8.381  0.9049 -0.5552 -0.3279
 5472SOL    HW127878   1.558   3.975   8.405  0.9570 -0.0617 -1.2235
 5472SOL    HW227879   1.470   3.947   8.285 -1.4926  1.5920 -0.1455
 5473SOL     OW27880   4.712   0.114   8.778  0.7815 -0.2418 -0.2598
 5473SOL    HW127881   0.076   0.098   8.811  0.8875 -0.2617 -0.5539
 5473SOL    HW227882   4.669   0.040   8.821 -1.0770  1.5505  0.9701
 5474SOL     OW27883   4.169   2.578   2.324  0.2477 -0.5926 -0.2819
 5474SOL    HW127884   4.185   2.493   2.366 -1.1793 -0.3159  0.8185
 5474SOL    HW227885   4.257   2.613   2.310  0.1079  0.0910  0.5190
 5475SOL     OW27886   1.845   3.447   1.699 -0.2694 -0.0202  0.6722
 5475SOL    HW127887   1.754   3.464   1.673  0.3169  0.9527 -0.7611
 5475SOL    HW227888   1.867   3.387   1.628  0.0884  1.8185 -0.7745
 5476SOL     OW27889   2.426   0.951   4.996 -0.5514  0.2743  0.0007
 5476SOL    HW127890   2.393   1.020   5.053 -1.1865 -0.0951  0.0753
 5476SOL    HW227891   2.468   1.007   4.931  0.2208  0.2428  0.4708
 5477SOL     OW27892   1.274   0.447  14.552 -0.7506 -0.2018 -0.6145
 5477SOL    HW127893   1.311   0.519  14.500 -1.9843  0.3777 -0.6884
 5477SOL    HW227894   1.198   0.495  14.585 -1.6327 -1.0831 -1.3967
 5478SOL     OW27895   2.506   2.631  14.014 -0.4427 -0.1767 -0.1684
 5478SOL    HW127896   2.456   2.656  14.092 -0.1510  0.3423 -0.1505
 5478SOL    HW227897   2.487   2.537  14.010  2.9518 -0.9133  1.2395
 5479SOL     OW27898   2.549   4.456   4.548  0.2145 -0.0820 -0.4887
 5479SOL    HW127899   2.479   4.487   4.606 -0.7844 -0.3501 -1.5624
 5479SOL    HW227900   2.605   4.534   4.549 -1.3973  1.0789 -0.2034
 5480SOL     OW27901   0.968   4.409   7.757  0.2697 -0.3515 -0.3940
 5480SOL    HW127902   0.935   4.478   7.699  1.2346 -0.0186 -0.5398
 5480SOL    HW227903   0.931   4.434   7.842  0.5849 -0.9465 -0.0797
 5481SOL     OW27904   4.081   2.131   6.692 -0.5904  0.1957  0.3567
 5481SOL    HW127905   4.069   2.212   6.644  0.7873  1.2809  1.8298
 5481SOL    HW227906   4.166   2.100   6.661 -0.0194  1.9826  0.1576
 5482SOL     OW27907   4.468   2.928  14.721 -0.1511  0.0576  0.3656
 5482SOL    HW127908   4.557   2.957  14.741  0.3798  0.3293 -2.2721
 5482SOL    HW227909   4.479   2.835  14.745 -0.0069  0.9489  3.7203
 5483SOL     OW27910   2.827   3.140   6.474  0.5963  0.9835  0.2241
 5483SOL    HW127911   2.825   3.137   6.379  0.4338  0.9277  0.2297
 5483SOL    HW227912   2.898   3.201   6.496 -0.3494  1.3990  2.0936
 5484SOL     OW27913   2.128   1.930   2.890 -0.2666 -0.5000  0.0571
 5484SOL    HW127914   2.147   1.837   2.876  2.1968  0.2400 -1.3606
 5484SOL    HW227915   2.219   1.959   2.885 -1.2297  2.4305 -0.6156
 5485SOL     OW27916   2.685   2.817  13.966  0.2785  0.5361  0.1524
 5485SOL    HW127917   2.629   2.741  13.978  1.3435 -0.2128  0.4079
 5485SOL    HW227918   2.776   2.786  13.959  0.0637  0.8854 -4.1811
 5486SOL     OW27919   3.238   2.732   4.282  0.0083  0.0604  0.0446
 5486SOL    HW127920   3.300   2.661   4.301  0.2235 -0.2507 -1.8490
 5486SOL    HW227921   3.228   2.723   4.187  1.0537 -3.8505  0.2818
 5487SOL     OW27922   0.846   2.132   7.167 -0.0076 -0.6101  0.3485
 5487SOL    HW127923   0.809   2.201   7.222  0.1918 -0.6704  0.5536
 5487SOL    HW227924   0.894   2.086   7.236 -0.5638 -0.0550  1.1059
 5488SOL     OW27925   3.457   0.799   6.248 -0.1796  0.1332  0.4707
 5488SOL    HW127926   3.402   0.722   6.233  0.8974 -0.6843  0.7435
 5488SOL    HW227927   3.525   0.793   6.181 -0.7321 -2.1192  0.0927
 5489SOL     OW27928   4.211   4.026   8.704  0.2478 -0.1495 -0.6976
 5489SOL    HW127929   4.149   4.095   8.682 -0.8137 -0.4914  1.2054
 5489SOL    HW227930   4.154   3.949   8.697 -0.8809  0.7513 -1.4565
 5490SOL     OW27931   1.802   1.239   5.981  0.0863  0.3890 -0.5249
 5490SOL    HW127932   1.883   1.203   5.946  1.0290  0.1627  1.8873
 5490SOL    HW227933   1.807   1.332   5.956  3.8378 -0.5231 -3.1390
 5491SOL     OW27934   4.646   0.858   8.884 -0.5059 -0.2845 -0.0753
 5491SOL    HW127935   4.690   0.862   8.799  0.2852  1.7646  0.4378
 5491SOL    HW227936   4.553   0.850   8.862 -0.5799  2.2624 -0.6117
 5492SOL     OW27937   3.593   2.325   1.908 -0.6074  0.0076  0.0582
 5492SOL    HW127938   3.513   2.353   1.953 -0.5996  1.9163 -1.0984
 5492SOL    HW227939   3.573   2.368   1.825 -1.5879  1.1599  0.8885
 5493SOL     OW27940   1.920   2.186   6.100 -0.0351  0.1068 -0.1695
 5493SOL    HW127941   1.959   2.145   6.023 -1.2440 -0.8553 -0.2659
 5493SOL    HW227942   1.844   2.131   6.118  1.3646 -1.8569 -0.2879
 5494SOL     OW27943   1.127   3.935  11.689  0.0188  0.1166 -0.1072
 5494SOL    HW127944   1.039   3.941  11.726 -0.4146 -0.0152 -1.1278
 5494SOL    HW227945   1.111   3.975  11.604 -0.2394  1.2501  0.4854
 5495SOL     OW27946   1.694   1.811   7.986  0.5628  0.4013 -0.2174
 5495SOL    HW127947   1.752   1.874   7.942  1.8278 -0.6617 -0.0986
 5495SOL    HW227948   1.730   1.735   7.940  1.0374 -0.5164  1.6518
 5496SOL     OW27949   4.240   0.886  12.930  0.2562 -0.1778 -0.2612
 5496SOL    HW127950   4.321   0.901  12.882  0.5660 -0.4666  0.1651
 5496SOL    HW227951   4.184   0.958  12.901  1.2233  1.1110  1.0706
 5497SOL     OW27952   1.004   0.922   7.850  0.3565  0.3559 -0.4437
 5497SOL    HW127953   1.094   0.908   7.880 -0.2287 -0.2959  0.9750
 5497SOL    HW227954   0.966   0.839   7.877 -2.5512  1.6364 -0.6696
 5498SOL     OW27955   3.975   0.977   8.833  0.1432  0.1979 -0.3948
 5498SOL    HW127956   4.041   1.044   8.850  1.9318 -1.1291 -2.0038
 5498SOL    HW227957   3.938   1.009   8.750 -0.7434 -0.7370 -0.3645
 5499SOL     OW27958   4.426   0.265   3.336  0.2417  0.5196 -0.2926
 5499SOL    HW127959   4.347   0.305   3.372  0.2418 -1.2405  1.6567
 5499SOL    HW227960   4.480   0.343   3.348  0.9432 -0.0945  0.6022
 5500SOL     OW27961   2.242   3.762   5.321 -0.0267 -0.5617 -0.1137
 5500SOL    HW127962   2.190   3.687   5.292 -1.0369  0.0844  0.0287
 5500SOL    HW227963   2.272   3.732   5.407  1.0514 -0.6171 -0.5082
 5501SOL     OW27964   2.150   2.357   9.623  0.8607 -0.5769  0.4084
 5501SOL    HW127965   2.089   2.373   9.694  0.2334 -1.1744  0.0013
 5501SOL    HW227966   2.206   2.293   9.667  3.4683  1.9286  0.7948
 5502SOL     OW27967   3.470   3.849   9.975 -0.0332 -0.2672 -0.7998
 5502SOL    HW127968   3.498   3.761   9.949 -0.3273 -0.5431 -0.1751
 5502SOL    HW227969   3.492   3.850  10.068  0.0758  1.3390 -0.8550
 5503SOL     OW27970   4.703   3.769   2.034  0.4558  0.1275 -0.2595
 5503SOL    HW127971   4.665   3.829   2.098  0.0827 -0.0487 -0.3141
 5503SOL    HW227972   4.628   3.763   1.974  0.3713  0.6568 -0.2053
 5504SOL     OW27973   0.349   1.843  12.918  0.5369  0.4474 -0.0727
 5504SOL    HW127974   0.263   1.845  12.876 -0.0374  0.8242  1.1080
 5504SOL    HW227975   0.316   1.823  13.005  0.6393  0.0617 -0.1220
 5505SOL     OW27976   3.982   0.110   5.102 -0.1383  0.0816  0.0869
 5505SOL    HW127977   4.040   0.172   5.146 -0.7029 -0.4881  1.6486
 5505SOL    HW227978   4.036   0.031   5.092  0.3543  0.3230  0.8087
 5506SOL     OW27979   3.669   0.953   3.972  0.1242  0.4109 -0.0956
 5506SOL    HW127980   3.609   0.956   4.047 -0.2378  0.9993 -0.4104
 5506SOL    HW227981   3.744   0.903   4.004 -1.3319 -0.1187  2.4693
 5507SOL     OW27982   1.272   2.279   6.267 -0.8544 -0.6898  0.1975
 5507SOL    HW127983   1.298   2.263   6.176 -0.1769 -2.0463  0.6214
 5507SOL    HW227984   1.279   2.371   6.290 -1.5617 -1.2340  2.5398
 5508SOL     OW27985   2.871   3.674   2.552  0.1577  0.0899  0.2815
 5508SOL    HW127986   2.904   3.677   2.462 -0.1080 -0.0340  0.1794
 5508SOL    HW227987   2.891   3.764   2.577  2.3531 -0.4133  0.3661
 5509SOL     OW27988   2.327   0.810   3.604 -0.0475  0.1538  1.2370
 5509SOL    HW127989   2.313   0.841   3.515 -0.0588 -1.3198  0.7158
 5509SOL    HW227990   2.307   0.888   3.655  0.3767 -0.1499  1.8708
 5510SOL     OW27991   3.487   3.845   7.150 -0.3208  0.0591  0.0038
 5510SOL    HW127992   3.506   3.938   7.142  1.8058 -0.5814 -2.4160
 5510SOL    HW227993   3.572   3.816   7.183  0.2023  0.1484 -1.2667
 5511SOL     OW27994   4.420   1.941   3.131 -0.5630  0.1785 -0.3221
 5511SOL    HW127995   4.507   1.905   3.147 -0.2175  0.4937 -1.5206
 5511SOL    HW227996   4.408   1.999   3.206 -0.6417  1.2121 -1.1451
 5512SOL     OW27997   0.365   2.424   3.226  0.4479 -0.2852  0.1044
 5512SOL    HW127998   0.427   2.424   3.153  2.2480 -1.4644  1.6196
 5512SOL    HW227999   0.313   2.347   3.202  0.2463 -0.2534  0.4493
 5513SOL     OW28000   1.016   1.971   6.068 -0.1342 -0.0526  0.5914
 5513SOL    HW128001   1.016   1.881   6.100 -0.5635 -1.1469 -2.4773
 5513SOL    HW228002   1.056   2.020   6.140  0.3988  0.9835 -0.3886
 5514SOL     OW28003   1.837   2.295   7.264 -0.2858  0.4272  0.2269
 5514SOL    HW128004   1.840   2.390   7.257 -1.5214  0.5204  0.9003
 5514SOL    HW228005   1.843   2.276   7.358 -0.9057  0.4968  0.2843
 5515SOL     OW28006   4.035   3.854   4.471  0.0261  0.0931  0.2695
 5515SOL    HW128007   4.018   3.913   4.398 -1.3275  0.0117  0.5175
 5515SOL    HW228008   4.052   3.769   4.431  0.1121 -0.1760  0.8701
 5516SOL     OW28009   0.774   2.397   5.309  0.1462 -0.0925 -0.3254
 5516SOL    HW128010   0.705   2.341   5.344 -0.6879 -1.5233 -4.2670
 5516SOL    HW228011   0.808   2.334   5.246 -0.3696 -2.1243  1.4309
 5517SOL     OW28012   3.521   2.710   3.487  0.3611  0.3488 -0.2658
 5517SOL    HW128013   3.524   2.633   3.430  2.2795 -1.2760  1.9925
 5517SOL    HW228014   3.471   2.778   3.442 -0.1531 -0.4311 -0.8759
 5518SOL     OW28015   2.939   4.262   6.056 -0.1974  0.3484  0.2784
 5518SOL    HW128016   3.027   4.296   6.046 -0.9039  0.9623 -3.6461
 5518SOL    HW228017   2.948   4.199   6.128  0.2790 -1.9215 -1.7599
 5519SOL     OW28018   1.453   4.544  11.929 -0.3294 -0.0515  0.5159
 5519SOL    HW128019   1.429   4.530  12.021 -0.5013  0.3382  0.5301
 5519SOL    HW228020   1.448   4.460  11.883 -1.6158  1.0668 -1.3820
 5520SOL     OW28021   4.305   2.169   1.891 -0.7954  0.7643 -0.0243
 5520SOL    HW128022   4.318   2.095   1.950 -1.0263  1.4053  0.8306
 5520SOL    HW228023   4.265   2.129   1.814 -0.6604  0.2543  0.1681
 5521SOL     OW28024   1.621   0.687   0.411  0.2511 -0.2201 -0.0565
 5521SOL    HW128025   1.588   0.720   0.327  0.0319 -1.1639 -0.3474
 5521SOL    HW228026   1.626   0.765   0.466 -0.1966 -1.6540  1.9920
 5522SOL     OW28027   3.969   4.394   5.080 -0.3225 -0.0540  0.1330
 5522SOL    HW128028   4.033   4.464   5.064 -0.9773  0.6734  0.6894
 5522SOL    HW228029   3.887   4.432   5.048 -0.4655  0.3190  0.9374
 5523SOL     OW28030   3.199   4.109   2.136  0.4755 -0.3702  0.1721
 5523SOL    HW128031   3.188   4.132   2.229  2.1860  3.3043 -0.5321
 5523SOL    HW228032   3.295   4.110   2.134  0.5159 -0.3848  1.4825
 5524SOL     OW28033   4.277   2.430  13.795  0.0972  0.6051 -0.2828
 5524SOL    HW128034   4.218   2.373  13.844  0.5844 -0.2504 -0.6964
 5524SOL    HW228035   4.247   2.416  13.705  1.2287 -0.8524 -0.4425
 5525SOL     OW28036   3.761   2.915  11.054 -0.0595  0.9798  0.3706
 5525SOL    HW128037   3.757   2.917  10.958 -3.2037 -0.2325  0.4585
 5525SOL    HW228038   3.797   3.003  11.063 -0.6591  1.1538  1.0296
 5526SOL     OW28039   0.259   1.645   4.699 -0.0902  0.0967  0.6979
 5526SOL    HW128040   0.303   1.631   4.782  0.4753 -1.6766  0.0996
 5526SOL    HW228041   0.260   1.740   4.683 -2.6356 -0.0156 -0.2318
 5527SOL     OW28042   1.774   3.384   4.641  0.1159  0.0692 -0.3124
 5527SOL    HW128043   1.847   3.399   4.702  0.5533  1.0370 -1.0749
 5527SOL    HW228044   1.774   3.291   4.622 -0.8751  0.6170 -3.0115
 5528SOL     OW28045   3.264   4.395   1.288 -0.5778 -0.4114  0.3472
 5528SOL    HW128046   3.300   4.313   1.320 -2.3084 -0.9559  0.9006
 5528SOL    HW228047   3.176   4.366   1.264 -0.3766 -2.0517  1.6135
 5529SOL     OW28048   2.769   3.776  15.057 -0.2132 -0.1245  0.0695
 5529SOL    HW128049   2.823   3.709  15.100 -2.2357 -0.7308  1.6958
 5529SOL    HW228050   2.783   3.744  14.968 -1.6990 -0.6992  0.0410
 5530SOL     OW28051   4.695   0.620   4.208 -0.1635  0.0140 -0.4921
 5530SOL    HW128052   0.055   0.580   4.230  0.8302  0.8653 -2.7683
 5530SOL    HW228053   4.676   0.610   4.115 -1.7325 -1.2777 -0.0424
 5531SOL     OW28054   3.341   1.409   9.850  0.6601 -0.1085  0.2670
 5531SOL    HW128055   3.406   1.478   9.860  1.4810 -0.7784 -0.4589
 5531SOL    HW228056   3.394   1.351   9.796  0.7259  1.9654 -1.8611
 5532SOL     OW28057   3.272   2.162  10.475 -0.6138 -0.4759 -0.2920
 5532SOL    HW128058   3.203   2.126  10.530  0.4611 -0.4044  1.1029
 5532SOL    HW228059   3.252   2.117  10.393 -1.0712  0.7721 -0.8620
 5533SOL     OW28060   4.350   3.734   4.356 -0.2294 -0.0060  0.1714
 5533SOL    HW128061   4.354   3.772   4.268  1.3983 -0.4962  0.0344
 5533SOL    HW228062   4.379   3.814   4.400 -1.2238  0.0330  0.7462
 5534SOL     OW28063   3.469   2.934   9.947 -0.3550 -0.2554 -0.3068
 5534SOL    HW128064   3.448   2.941  10.040  1.0905  0.0416  0.0091
 5534SOL    HW228065   3.472   3.022   9.910 -0.2105  0.1533  0.6754
 5535SOL     OW28066   1.937   4.032   6.312 -0.7807 -0.2191  0.1392
 5535SOL    HW128067   1.907   4.059   6.225 -0.0914 -1.6630 -0.5403
 5535SOL    HW228068   1.854   4.021   6.358 -0.7549 -0.1615  0.2002
 5536SOL     OW28069   3.369   2.712  11.653  0.1443 -0.2194 -0.1963
 5536SOL    HW128070   3.343   2.673  11.736  1.2338  0.4140  0.4363
 5536SOL    HW228071   3.283   2.728  11.612  0.5478  1.5255 -0.3748
 5537SOL     OW28072   3.067   1.870   2.595  0.3416 -0.0926 -0.3535
 5537SOL    HW128073   3.094   1.793   2.546  3.2702 -0.7908  2.3448
 5537SOL    HW228074   3.056   1.930   2.521 -0.6098  0.7920  0.5086
 5538SOL     OW28075   3.310   4.155  10.602 -0.2702  0.0832  0.2337
 5538SOL    HW128076   3.299   4.106  10.521  1.8067 -0.9492  0.5683
 5538SOL    HW228077   3.402   4.182  10.601 -1.3177  3.6368  1.1874
 5539SOL     OW28078   0.620   3.618   6.492 -0.2720 -0.2669 -0.1181
 5539SOL    HW128079   0.708   3.613   6.531 -1.1351  0.6663  1.9517
 5539SOL    HW228080   0.586   3.675   6.561 -1.5476  1.0088 -1.8098
 5540SOL     OW28081   2.629   2.991   1.598  0.0523 -0.0054  0.5086
 5540SOL    HW128082   2.593   2.924   1.541 -1.7524  1.5866 -0.1996
 5540SOL    HW228083   2.638   2.942   1.680  2.1971 -0.3542  0.0853
 5541SOL     OW28084   1.384   3.671  16.359 -0.5401  0.5688  0.2168
 5541SOL    HW128085   1.411   3.623  16.437  2.8630  1.7173 -0.2462
 5541SOL    HW228086   1.298   3.632  16.348 -0.9737  2.0833 -1.7879
 5542SOL     OW28087   0.976   2.218   1.883  0.1067 -0.6419  0.6560
 5542SOL    HW128088   0.954   2.131   1.914  1.9427 -0.6658  1.9239
 5542SOL    HW228089   0.951   2.209   1.791 -2.6390 -0.0058  1.3521
 5543SOL     OW28090   0.774   0.754  11.377  0.4859 -0.3780  0.5273
 5543SOL    HW128091   0.679   0.754  11.387  0.3765  0.7806 -0.6308
 5543SOL    HW228092   0.809   0.727  11.462  2.2805 -1.6436 -0.6049
 5544SOL     OW28093   4.154   4.379   8.628  0.2670 -0.6698  0.1184
 5544SOL    HW128094   4.131   4.353   8.717 -0.4670 -2.9576 -0.7520
 5544SOL    HW228095   4.073   4.377   8.577 -0.2501 -1.0087  0.9665
 5545SOL     OW28096   1.075   1.576   8.776  0.3141 -0.3198 -0.0324
 5545SOL    HW128097   1.065   1.481   8.769 -1.1849 -0.0961 -0.7559
 5545SOL    HW228098   1.093   1.593   8.683  0.7922  0.7416  0.2599
 5546SOL     OW28099   0.942   4.503   6.684 -0.0514  0.0720 -0.5597
 5546SOL    HW128100   1.026   4.467   6.654 -0.1519 -0.8099  0.2566
 5546SOL    HW228101   0.914   4.433   6.742 -0.0778  1.2411  0.8389
 5547SOL     OW28102   1.987   1.197   2.621  0.0262  0.2381  0.4820
 5547SOL    HW128103   2.041   1.176   2.545 -0.3184  2.6883 -0.4215
 5547SOL    HW228104   1.899   1.175   2.591 -0.0614  0.0996  0.8335
 5548SOL     OW28105   3.059   2.366   5.896 -0.6757 -0.0207  0.2124
 5548SOL    HW128106   3.129   2.346   5.835  0.7655  0.8909  1.5894
 5548SOL    HW228107   3.051   2.286   5.949  1.0110 -0.9741 -1.0051
 5549SOL     OW28108   3.559   1.211   3.619  0.0446 -0.1476  0.1680
 5549SOL    HW128109   3.542   1.292   3.666  0.1613 -1.0352  1.7500
 5549SOL    HW228110   3.492   1.205   3.551  0.9703  1.8448 -0.8991
 5550SOL     OW28111   2.740   3.304   8.580 -0.4182 -0.3702  0.0748
 5550SOL    HW128112   2.802   3.376   8.569  1.4459 -1.8200  1.1875
 5550SOL    HW228113   2.653   3.343   8.570 -0.8314 -1.1303  0.6994
 5551SOL     OW28114   1.215   2.961   1.411 -0.0524  0.2902  0.3331
 5551SOL    HW128115   1.131   2.917   1.425  0.5367 -1.1202 -0.5961
 5551SOL    HW228116   1.210   3.038   1.468  3.3135 -0.6228  1.8923
 5552SOL     OW28117   3.416   0.405   1.991  0.2536  0.0583 -0.0401
 5552SOL    HW128118   3.487   0.468   1.979  0.8221 -0.5581  0.1370
 5552SOL    HW228119   3.381   0.401   1.901 -0.5522 -0.1251  0.2826
 5553SOL     OW28120   4.525   0.221   4.359 -0.1228  0.2011 -0.0405
 5553SOL    HW128121   4.443   0.178   4.336  0.1482 -0.3045 -0.0623
 5553SOL    HW228122   4.545   0.257   4.272  3.4481 -0.7454  0.3729
 5554SOL     OW28123   2.383   1.078  11.004  0.1673 -0.2697  0.5122
 5554SOL    HW128124   2.369   1.126  10.923 -1.8490 -0.3884  0.7655
 5554SOL    HW228125   2.330   1.001  10.983  1.1321 -0.5358 -0.9321
 5555SOL     OW28126   1.861   0.222   4.387 -0.1864  0.5676 -0.5747
 5555SOL    HW128127   1.943   0.236   4.435  0.3037 -0.2512 -1.1719
 5555SOL    HW228128   1.806   0.168   4.443 -0.6783 -0.0296 -1.6307
 5556SOL     OW28129   2.602   2.805   8.324  0.1208 -0.4594  0.1648
 5556SOL    HW128130   2.573   2.733   8.267 -2.0956  0.3833  0.2432
 5556SOL    HW228131   2.560   2.883   8.288  2.8097  0.5535 -0.7603
 5557SOL     OW28132   3.707   4.156   3.835 -0.2016 -0.4512 -0.1202
 5557SOL    HW128133   3.754   4.159   3.751 -2.1385  1.0472 -1.1431
 5557SOL    HW228134   3.619   4.144   3.802 -0.8619 -1.4100  1.9870
 5558SOL     OW28135   1.749   3.727   5.143  0.4139  0.3177  0.2451
 5558SOL    HW128136   1.823   3.740   5.084  0.4692 -0.4551  0.1404
 5558SOL    HW228137   1.738   3.632   5.150 -1.7047  0.3396 -2.7135
 5559SOL     OW28138   4.477   2.844   7.334 -0.0644  0.5279  0.4477
 5559SOL    HW128139   4.539   2.882   7.273 -0.1330  0.6464  0.4516
 5559SOL    HW228140   4.528   2.858   7.414  0.6953  1.9918 -0.2936
 5560SOL     OW28141   0.037   0.051   0.489 -0.2896  0.7466 -0.5051
 5560SOL    HW128142   4.688   0.067   0.429 -0.4300  0.7022 -0.3493
 5560SOL    HW228143   4.721   0.033   0.575  0.6029 -1.5577 -0.5694
 5561SOL     OW28144   0.370   3.148   8.081  0.5822  0.5029 -0.2684
 5561SOL    HW128145   0.405   3.087   8.016  0.2295  1.7846 -1.6621
 5561SOL    HW228146   0.346   3.218   8.019 -0.2451  0.9763  0.5862
 5562SOL     OW28147   0.862   4.003  11.745 -0.1471 -0.1725  0.3085
 5562SOL    HW128148   0.821   4.040  11.823  1.5678 -0.6058  1.4369
 5562SOL    HW228149   0.828   4.057  11.675  0.0433  0.5524  0.7758
 5563SOL     OW28150   2.265   4.012   1.259  0.5492  0.1639 -0.3466
 5563SOL    HW128151   2.344   3.984   1.212 -0.2223  1.2476 -2.2614
 5563SOL    HW228152   2.208   3.939   1.234  2.3332 -1.9718  1.7252
 5564SOL     OW28153   0.336   2.535   8.082  0.5171  0.3950 -0.2362
 5564SOL    HW128154   0.328   2.619   8.127  2.3964  0.9924 -1.0077
 5564SOL    HW228155   0.250   2.493   8.093  0.1970  1.7093  2.1865
 5565SOL     OW28156   3.265   0.097   6.687 -0.1338 -0.2447  0.3521
 5565SOL    HW128157   3.273   0.094   6.591 -1.6923 -1.4913  0.2777
 5565SOL    HW228158   3.357   0.122   6.702 -0.5624  1.8054 -0.3330
 5566SOL     OW28159   3.316   2.829   9.733  0.4640  0.1184  0.4299
 5566SOL    HW128160   3.379   2.820   9.804  0.2974  1.8438  0.8073
 5566SOL    HW228161   3.236   2.796   9.774  0.3615  1.0728  0.9950
 5567SOL     OW28162   2.972   4.710   9.050  0.0895 -0.2465  0.0391
 5567SOL    HW128163   2.953   0.080   9.040 -1.6533 -0.6537 -0.5418
 5567SOL    HW228164   2.886   4.667   9.052  0.5636 -1.2212 -0.3636
 5568SOL     OW28165   4.333   2.437   7.109  0.6897 -0.1703  0.5057
 5568SOL    HW128166   4.411   2.470   7.152  0.4346 -1.5804  2.0443
 5568SOL    HW228167   4.372   2.415   7.025  0.6761  1.2742  0.1056
 5569SOL     OW28168   0.182   2.945   7.766 -0.4589  0.3794  0.5141
 5569SOL    HW128169   0.141   2.901   7.840  1.9102 -0.5976  1.2337
 5569SOL    HW228170   0.153   2.892   7.692 -0.6292 -0.7325  1.3769
 5570SOL     OW28171   4.485   4.567   0.851 -0.1115 -0.0454  0.2055
 5570SOL    HW128172   4.393   4.582   0.828  0.5551  1.4920 -1.4160
 5570SOL    HW228173   4.492   4.473   0.833 -0.0265  0.1615 -0.8301
 5571SOL     OW28174   0.059   4.675   5.776  0.1951 -0.2717 -0.0448
 5571SOL    HW128175   4.711   4.675   5.839  1.2879  0.4516  1.2077
 5571SOL    HW228176   0.054   0.044   5.753  2.5255 -0.1611 -0.1086
 5572SOL     OW28177   3.077   0.726  15.734 -0.1638  0.4965  0.0379
 5572SOL    HW128178   3.132   0.793  15.774  2.0382 -0.3212 -1.5880
 5572SOL    HW228179   3.098   0.747  15.642  0.3769  1.7177  0.4396
 5573SOL     OW28180   3.033   1.629   8.150 -0.1554 -0.2709 -0.5133
 5573SOL    HW128181   3.116   1.582   8.153  0.5546  0.9354 -1.4088
 5573SOL    HW228182   3.000   1.575   8.079 -2.9172  0.3088  0.3186
 5574SOL     OW28183   4.645   4.036   4.292  0.3196  0.0768 -0.4046
 5574SOL    HW128184   4.616   3.993   4.212  1.5832 -1.7755  0.1110
 5574SOL    HW228185   4.721   4.084   4.261 -0.9838  0.2751 -3.2475
 5575SOL     OW28186   1.548   3.699   4.269  0.0542  0.3315 -0.9011
 5575SOL    HW128187   1.559   3.612   4.309  0.7808  0.7531 -0.1918
 5575SOL    HW228188   1.457   3.694   4.239 -1.1809  0.3176  2.9039
 5576SOL     OW28189   0.124   2.901   1.489 -0.3787 -0.4617 -0.0425
 5576SOL    HW128190   0.117   2.815   1.531 -0.2888 -1.1940 -1.5112
 5576SOL    HW228191   0.218   2.908   1.473 -0.3855 -2.7566 -1.1192
 5577SOL     OW28192   2.742   0.353  16.417 -0.1483  0.8538 -0.3519
 5577SOL    HW128193   2.815   0.414  16.403  0.2869 -0.1895 -2.6527
 5577SOL    HW228194   2.798   0.275  16.421  0.0434  1.1367  3.1959
 5578SOL     OW28195   3.001   1.135   4.187 -0.1543  0.3957 -0.0384
 5578SOL    HW128196   2.946   1.108   4.114 -0.8004  0.6419  0.3626
 5578SOL    HW228197   3.086   1.147   4.143 -1.0393 -3.5658 -2.7950
 5579SOL     OW28198   4.436   3.095   1.385 -0.2642 -0.6659 -0.0168
 5579SOL    HW128199   4.423   3.179   1.430  2.6872 -0.3682  0.2655
 5579SOL    HW228200   4.520   3.074   1.425 -0.2329  1.0123  0.8162
 5580SOL     OW28201   0.707   4.143  15.580  0.4573  0.4761 -0.0255
 5580SOL    HW128202   0.668   4.177  15.661  1.2105 -0.5771  0.7817
 5580SOL    HW228203   0.707   4.049  15.593 -1.8437  0.5818  0.8234
 5581SOL     OW28204   4.412   2.487   6.821  0.9717  0.2964  0.9782
 5581SOL    HW128205   4.391   2.395   6.807  0.2792  0.2720  2.2211
 5581SOL    HW228206   4.406   2.523   6.732  0.6660  2.9275  2.0672
 5582SOL     OW28207   0.340   2.426   7.028  0.1674  0.3087  0.0511
 5582SOL    HW128208   0.404   2.356   7.015  0.0558  0.1527  0.3160
 5582SOL    HW228209   0.378   2.496   6.976 -1.2191  0.9159 -0.1560
 5583SOL     OW28210   0.980   1.105   1.794 -0.0005  0.1142  0.5863
 5583SOL    HW128211   1.053   1.153   1.755  0.6477 -0.1644  1.4502
 5583SOL    HW228212   1.029   1.044   1.850 -0.5416 -0.8657 -0.0048
 5584SOL     OW28213   3.356   3.281  15.957  0.6650  0.4335  0.2596
 5584SOL    HW128214   3.400   3.365  15.968  0.7104  0.3577  0.6446
 5584SOL    HW228215   3.329   3.272  15.866  0.3340 -0.3343  0.4309
 5585SOL     OW28216   1.707   4.685  16.814  0.0301 -0.4840 -0.4581
 5585SOL    HW128217   1.649   0.037  16.821 -0.1043 -0.7160  1.0433
 5585SOL    HW228218   1.656   4.647  16.743  0.4355 -0.2354 -0.8892
 5586SOL     OW28219   3.606   3.149  15.482 -0.5163 -0.0217 -0.0149
 5586SOL    HW128220   3.585   3.219  15.544 -1.3001  1.7145 -2.2389
 5586SOL    HW228221   3.544   3.086  15.518 -0.6841  0.6600  0.9155
 5587SOL     OW28222   4.349   1.541   7.670 -0.5129 -0.4325 -0.1511
 5587SOL    HW128223   4.271   1.597   7.669  0.6994  1.2622  0.6414
 5587SOL    HW228224   4.350   1.486   7.748 -0.3195 -2.2990 -1.4778
 5588SOL     OW28225   0.338   4.072   3.457  0.5034 -0.9350  0.2794
 5588SOL    HW128226   0.366   4.001   3.400  1.8314 -0.7007  0.6481
 5588SOL    HW228227   0.419   4.114   3.485  1.3990 -1.6567 -1.2363
 5589SOL     OW28228   2.717   2.264  14.095  0.4740  0.3167  0.0954
 5589SOL    HW128229   2.655   2.200  14.062  1.9427 -1.6309  1.0750
 5589SOL    HW228230   2.744   2.307  14.014  1.4878  0.5268  0.5407
 5590SOL     OW28231   1.697   4.411   2.000  0.0734 -0.5853 -0.8110
 5590SOL    HW128232   1.616   4.412   1.949 -0.4318 -0.2188  0.0051
 5590SOL    HW228233   1.743   4.427   1.918 -0.4230 -0.5160 -1.0798
 5591SOL     OW28234   0.156   4.653   7.357 -0.4921  0.4179  0.2470
 5591SOL    HW128235   0.135   4.562   7.377  2.2723 -0.0255  1.1303
 5591SOL    HW228236   0.085   4.698   7.404 -0.7300  0.5274 -0.2165
 5592SOL     OW28237   0.001   4.590   6.509  0.8846  0.3715 -0.4933
 5592SOL    HW128238   4.681   4.662   6.464 -1.5837 -0.2674  0.8805
 5592SOL    HW228239   0.084   4.616   6.469  0.9006  1.4618  0.2539
 5593SOL     OW28240   2.563   0.269   1.185 -0.5753 -0.2795 -0.0828
 5593SOL    HW128241   2.646   0.301   1.150 -2.3977  1.5171 -2.7287
 5593SOL    HW228242   2.575   0.174   1.190 -0.7304 -0.2257  1.5097
 5594SOL     OW28243   4.571   3.236  12.504 -0.3449 -0.7646  0.3633
 5594SOL    HW128244   4.547   3.328  12.496  1.1850 -0.2611  1.3751
 5594SOL    HW228245   4.614   3.223  12.420 -0.6691 -1.3855  0.2960
 5595SOL     OW28246   0.152   1.272   3.634 -0.3675 -0.3192 -0.2678
 5595SOL    HW128247   0.137   1.285   3.540 -0.4220  0.2170 -0.1806
 5595SOL    HW228248   0.165   1.364   3.655  1.5043 -0.4871 -0.7438
 5596SOL     OW28249   0.193   2.577   4.083  0.0611  0.1985  0.0433
 5596SOL    HW128250   0.145   2.608   4.007  0.3184  1.1154  0.2597
 5596SOL    HW228251   0.127   2.595   4.151 -1.3773 -0.6525 -1.1204
 5597SOL     OW28252   1.755   0.175   5.008 -0.2108 -0.4958 -0.0795
 5597SOL    HW128253   1.704   0.096   4.989  1.5116 -1.3204 -1.2877
 5597SOL    HW228254   1.835   0.130   5.036  1.4538 -0.8050 -5.2224
 5598SOL     OW28255   0.409   1.091   5.659  0.3128  0.1540 -0.9098
 5598SOL    HW128256   0.487   1.043   5.633  1.0054 -0.3609  2.1458
 5598SOL    HW228257   0.365   1.102   5.575 -0.7773 -1.8953 -0.6173
 5599SOL     OW28258   1.484   3.820   5.135 -0.2195  0.5722  0.1923
 5599SOL    HW128259   1.505   3.863   5.217 -1.9556 -1.0209  1.4582
 5599SOL    HW228260   1.569   3.787   5.104 -0.9697 -0.0013 -1.2380
 5600SOL     OW28261   4.505   3.448   2.887  0.1763  0.5267  0.4953
 5600SOL    HW128262   4.573   3.501   2.847  0.1679 -0.0983 -0.3592
 5600SOL    HW228263   4.436   3.515   2.883 -1.6482 -1.4821 -1.7862
 5601SOL     OW28264   0.637   3.092   7.013  0.0265 -0.8659  0.1994
 5601SOL    HW128265   0.567   3.073   7.076  2.0971  0.8521  3.0227
 5601SOL    HW228266   0.610   3.177   6.979  0.1457 -0.6843  0.5624
 5602SOL     OW28267   1.408   1.819   9.319 -0.3212 -0.1507  0.0645
 5602SOL    HW128268   1.406   1.908   9.353  0.0563 -0.3158  0.5319
 5602SOL    HW228269   1.503   1.814   9.317 -0.4599 -2.1609 -1.3381
 5603SOL     OW28270   2.780   2.236   6.163  0.2336  0.2367  0.0408
 5603SOL    HW128271   2.789   2.225   6.069  0.1506  0.2090  0.0368
 5603SOL    HW228272   2.757   2.150   6.198 -1.6982 -0.0136 -1.8993
 5604SOL     OW28273   2.372   4.227   1.974 -0.4242 -0.1333 -0.2000
 5604SOL    HW128274   2.361   4.239   2.068 -1.4130 -1.6616 -0.1210
 5604SOL    HW228275   2.348   4.311   1.936 -1.5921 -0.5873 -0.5041
 5605SOL     OW28276   3.135   2.669   5.795 -0.0040 -0.6039 -0.2904
 5605SOL    HW128277   3.197   2.718   5.741  1.6137 -1.7646  0.5027
 5605SOL    HW228278   3.116   2.588   5.747  1.5340 -0.2922 -1.4560
 5606SOL     OW28279   0.372   4.463   7.146  0.0784  0.3355  0.3324
 5606SOL    HW128280   0.375   4.412   7.064 -0.0863 -1.2910  1.3328
 5606SOL    HW228281   0.295   4.421   7.185 -0.1376  3.6505  3.4464
 5607SOL     OW28282   2.662   0.036  11.080 -0.4712 -0.4281  0.1915
 5607SOL    HW128283   2.704   4.674  11.087 -1.3332 -1.0364 -2.1822
 5607SOL    HW228284   2.706   0.078  11.007 -2.3812 -0.5523 -1.0475
 5608SOL     OW28285   2.730   3.682   0.406 -0.3679  0.4194 -0.2516
 5608SOL    HW128286   2.799   3.623   0.436 -1.8308 -0.7529  0.7793
 5608SOL    HW228287   2.719   3.735   0.486 -0.5599  0.9800 -0.6485
 5609SOL     OW28288   0.677   4.451  14.632  0.0221  0.3680 -0.7153
 5609SOL    HW128289   0.748   4.387  14.636  0.5988  1.0287 -0.3740
 5609SOL    HW228290   0.654   4.461  14.725 -0.5403 -1.5946 -0.6229
 5610SOL     OW28291   1.581   2.156   3.951 -0.8917  0.5567 -0.4460
 5610SOL    HW128292   1.632   2.210   3.890  0.2534 -0.6993 -0.5877
 5610SOL    HW228293   1.499   2.151   3.900 -1.5855  0.2787  0.7096
 5611SOL     OW28294   2.533   3.305  13.458 -0.6607 -0.2358  0.0855
 5611SOL    HW128295   2.603   3.250  13.491  1.1377  0.9154 -1.8250
 5611SOL    HW228296   2.461   3.242  13.454  0.7729 -1.8892  0.4444
 5612SOL     OW28297   3.365   0.184   3.776 -0.6736 -0.0481 -0.2332
 5612SOL    HW128298   3.349   0.129   3.852  0.4306 -0.2444 -0.1400
 5612SOL    HW228299   3.460   0.177   3.770 -0.7768 -1.8744  0.4408
 5613SOL     OW28300   0.703   2.181   2.464 -0.2737 -0.1196  0.0577
 5613SOL    HW128301   0.711   2.091   2.430 -1.1593  0.2498 -1.1533
 5613SOL    HW228302   0.613   2.177   2.495 -1.3845  1.5094 -2.9145
 5614SOL     OW28303   3.887   1.277   6.713  0.0500  0.2816 -0.0080
 5614SOL    HW128304   3.835   1.215   6.765 -2.0712  1.4406 -0.7483
 5614SOL    HW228305   3.967   1.301   6.760  0.7395 -1.9236 -0.0907
 5615SOL     OW28306   3.811   1.546  16.201  0.6658 -0.3799  0.0775
 5615SOL    HW128307   3.877   1.576  16.139  1.7424 -3.8022 -0.4144
 5615SOL    HW228308   3.735   1.552  16.143  1.2069  1.2557 -0.4659
 5616SOL     OW28309   0.823   1.083   3.977  0.4521 -0.4447 -0.0715
 5616SOL    HW128310   0.812   1.173   4.009 -1.2919 -0.4077 -0.7742
 5616SOL    HW228311   0.912   1.073   4.011  0.9076  0.1480 -1.1025
 5617SOL     OW28312   1.833   0.649  15.798  0.8857 -0.2154  0.0266
 5617SOL    HW128313   1.849   0.555  15.783  0.9854  0.0229 -1.3847
 5617SOL    HW228314   1.844   0.693  15.714  1.7827 -0.5204 -0.0185
 5618SOL     OW28315   2.225   3.678   0.952 -0.2228  0.4794 -0.6264
 5618SOL    HW128316   2.236   3.583   0.947  0.8488  0.5259  1.0223
 5618SOL    HW228317   2.314   3.702   0.925  0.4036 -0.4354  0.6401
 5619SOL     OW28318   4.053   1.268   6.938  0.0534 -0.6531 -0.2095
 5619SOL    HW128319   4.106   1.305   7.009 -2.0538  0.7524  0.6239
 5619SOL    HW228320   4.060   1.175   6.961  2.7077 -0.0853  1.3600
 5620SOL     OW28321   1.696   1.616  11.574  0.4191 -0.1081 -0.1933
 5620SOL    HW128322   1.751   1.691  11.552 -1.5064  1.3805  0.0387
 5620SOL    HW228323   1.643   1.652  11.646  1.4836  2.8399 -0.8999
 5621SOL     OW28324   2.371   3.165   4.777  0.0127 -0.2480  0.0318
 5621SOL    HW128325   2.379   3.188   4.869  1.4084  2.0960 -0.6579
 5621SOL    HW228326   2.460   3.134   4.758 -0.0642 -0.8684  0.6965
 5622SOL     OW28327   4.410   4.232   3.049 -0.1196  0.2167  0.0978
 5622SOL    HW128328   4.408   4.326   3.068 -1.6774 -0.1548  1.6867
 5622SOL    HW228329   4.322   4.204   3.072  0.3908 -1.2691  0.2510
 5623SOL     OW28330   0.799   3.775   5.910 -0.4944 -0.3954  0.1420
 5623SOL    HW128331   0.786   3.760   6.004 -0.1389 -0.6413  0.1520
 5623SOL    HW228332   0.848   3.696   5.888 -0.6097 -0.3904 -0.1309
 5624SOL     OW28333   1.871   0.640   5.013  0.5100 -0.5012  0.2190
 5624SOL    HW128334   1.820   0.703   4.962  1.7649 -1.1158 -1.7984
 5624SOL    HW228335   1.789   0.595   5.031  0.0437 -0.5249 -1.9825
 5625SOL     OW28336   2.737   2.956   6.687  0.5408  0.1467 -0.2467
 5625SOL    HW128337   2.726   2.872   6.642  1.5568  0.5065 -1.1768
 5625SOL    HW228338   2.777   3.007   6.616  0.3742 -0.2664 -0.6361
 5626SOL     OW28339   3.952   3.382   9.807 -0.5361 -0.2626 -0.0224
 5626SOL    HW128340   3.880   3.376   9.745  1.2343 -1.5084 -1.9616
 5626SOL    HW228341   3.952   3.290   9.831 -1.2576  0.0789  1.2849
 5627SOL     OW28342   3.041   2.939   7.502  0.1263  0.0593 -0.8949
 5627SOL    HW128343   3.131   2.926   7.472 -0.0181  1.8760 -2.1000
 5627SOL    HW228344   2.998   2.977   7.426  1.2895  0.8375 -1.1600
 5628SOL     OW28345   1.684   1.448   4.176 -0.2459  0.0995 -0.0165
 5628SOL    HW128346   1.658   1.367   4.134  0.8268 -0.1194 -0.2447
 5628SOL    HW228347   1.671   1.510   4.104 -1.7444  2.3204  2.1550
 5629SOL     OW28348   0.937   4.585   7.550 -0.4448 -0.5126 -0.6784
 5629SOL    HW128349   0.921   4.671   7.511 -0.9631 -0.2179  0.1963
 5629SOL    HW228350   1.032   4.598   7.557 -0.6428 -0.0855  1.2014
 5630SOL     OW28351   2.471   1.089   8.241 -0.0017  0.0522  0.3684
 5630SOL    HW128352   2.502   1.093   8.332 -0.4896 -0.6098  0.5614
 5630SOL    HW228353   2.481   1.179   8.209  1.0121  0.4855  1.9191
 5631SOL     OW28354   2.006   0.490   6.301  0.3496  0.4723 -0.2251
 5631SOL    HW128355   2.086   0.542   6.291 -0.8764  2.0554 -1.8077
 5631SOL    HW228356   2.007   0.471   6.395 -0.9529 -1.2850 -0.5811
 5632SOL     OW28357   1.049   4.658   4.982 -0.4237 -0.0650 -0.5881
 5632SOL    HW128358   1.096   0.018   4.984 -0.6109  0.0372 -0.4242
 5632SOL    HW228359   1.102   4.603   4.925  2.0431  1.8645 -0.1873
 5633SOL     OW28360   0.533   4.419   4.203 -0.4069 -0.3331  0.2713
 5633SOL    HW128361   0.506   4.411   4.112  0.6037  0.3924 -0.0966
 5633SOL    HW228362   0.512   4.508   4.231  1.4202  0.1743  0.0358
 5634SOL     OW28363   1.012   4.573  15.565  0.4760 -0.2780 -0.1953
 5634SOL    HW128364   0.936   4.519  15.588 -0.2392  1.7314  2.2388
 5634SOL    HW228365   1.080   4.509  15.549  1.9000  0.9560  0.9207
 5635SOL     OW28366   1.438   1.305   1.262  0.4844 -0.2490  0.1940
 5635SOL    HW128367   1.374   1.241   1.229  1.8403 -0.3739 -2.1941
 5635SOL    HW228368   1.434   1.283   1.355 -2.4524 -2.5494 -0.4503
 5636SOL     OW28369   0.229   3.852   8.456  0.7274  0.4160  0.2546
 5636SOL    HW128370   0.252   3.879   8.367 -1.6605  1.2697 -0.1132
 5636SOL    HW228371   0.216   3.939   8.494 -0.1919  0.4910 -0.2243
 5637SOL     OW28372   3.372   2.406  10.532  0.5019  0.4731  0.4203
 5637SOL    HW128373   3.368   2.313  10.509 -1.1658  0.1231  2.1746
 5637SOL    HW228374   3.302   2.408  10.597 -0.7549 -1.3451 -0.8772
 5638SOL     OW28375   3.953   0.837  10.961 -0.7805  0.3631  0.2790
 5638SOL    HW128376   4.016   0.789  11.015  0.7365  1.9938 -0.0238
 5638SOL    HW228377   3.925   0.755  10.919  0.8421  0.4188 -0.9570
 5639SOL     OW28378   0.782   2.639   5.754 -0.3697  0.2592  0.2366
 5639SOL    HW128379   0.735   2.708   5.708  1.1124  0.6723 -0.6785
 5639SOL    HW228380   0.733   2.561   5.731  0.7927 -0.3569 -0.1748
 5640SOL     OW28381   1.951   0.185   0.580  0.2878 -0.2221 -0.0931
 5640SOL    HW128382   1.985   0.096   0.567  1.6116  0.2109  0.4302
 5640SOL    HW228383   1.976   0.221   0.495  2.3043 -1.1644  0.0914
 5641SOL     OW28384   0.917   4.412   5.400 -0.4566  0.1551 -0.8503
 5641SOL    HW128385   0.850   4.353   5.365 -0.3031  0.4696 -1.6591
 5641SOL    HW228386   0.909   4.404   5.495  1.6969  2.3243 -0.4751
 5642SOL     OW28387   2.223   1.389  13.289  0.7125 -0.0252  0.1645
 5642SOL    HW128388   2.223   1.341  13.207 -1.2712  0.4043 -0.1078
 5642SOL    HW228389   2.180   1.327  13.349  1.6547 -0.1987  0.6498
 5643SOL     OW28390   3.516   1.130  12.283  0.2395  0.0578  0.1109
 5643SOL    HW128391   3.428   1.153  12.252 -0.1173 -1.0624  0.2809
 5643SOL    HW228392   3.562   1.210  12.258 -0.8631  0.3888 -0.8723
 5644SOL     OW28393   1.068   2.447   1.692  0.3603  0.2925 -0.4154
 5644SOL    HW128394   1.048   2.427   1.783  0.0462 -0.3878 -0.6318
 5644SOL    HW228395   1.151   2.493   1.703 -0.7506  2.9466 -3.1292
 5645SOL     OW28396   3.371   3.941   4.544  0.7143  0.8965 -0.2007
 5645SOL    HW128397   3.342   4.001   4.612 -0.7013  1.9763 -1.7650
 5645SOL    HW228398   3.456   3.979   4.522  2.1343 -2.5256 -0.7647
 5646SOL     OW28399   1.583   0.010   8.269  0.5337 -0.3157 -0.1362
 5646SOL    HW128400   1.649   0.078   8.256 -1.1957  1.1022 -1.4983
 5646SOL    HW228401   1.528   0.062   8.328  0.5586 -0.8474  0.3638
 5647SOL     OW28402   3.537   4.122   9.977 -0.0148  0.5097  0.7756
 5647SOL    HW128403   3.483   4.175   9.919  1.0804 -0.5571 -1.2166
 5647SOL    HW228404   3.495   4.037   9.989  1.2426  0.1142  2.4147
 5648SOL     OW28405   3.375   4.130  13.310 -0.3300 -0.0594 -0.7255
 5648SOL    HW128406   3.387   4.155  13.219 -0.0683  1.3697 -0.2930
 5648SOL    HW228407   3.460   4.138  13.353 -0.4504 -0.9259 -0.3110
 5649SOL     OW28408   1.763   3.592   8.430 -0.4932 -0.4610  0.0801
 5649SOL    HW128409   1.838   3.537   8.451  0.2868  0.0121 -1.4997
 5649SOL    HW228410   1.782   3.678   8.467 -2.1614 -0.7796  1.6677
 5650SOL     OW28411   3.957   4.448   3.349 -0.7036 -0.1281 -0.4750
 5650SOL    HW128412   4.039   4.417   3.388 -0.2835  0.3364 -0.9989
 5650SOL    HW228413   3.978   4.447   3.256 -2.5819 -0.2147 -0.9021
 5651SOL     OW28414   4.552   2.772   5.120 -1.0711 -0.5677  0.6399
 5651SOL    HW128415   4.616   2.713   5.161 -1.3842 -1.0164  0.4871
 5651SOL    HW228416   4.608   2.838   5.080  0.4568 -1.3366  1.5020
 5652SOL     OW28417   0.224   0.886   5.755  0.0422  0.6620 -0.3838
 5652SOL    HW128418   0.247   0.973   5.722  0.0408  1.3586  1.4614
 5652SOL    HW228419   0.131   0.885   5.734  0.1297 -0.1349 -0.7252
 5653SOL     OW28420   1.253   1.376  10.854 -0.1059  0.5633 -0.1305
 5653SOL    HW128421   1.202   1.441  10.805 -1.2649  0.2371  0.6544
 5653SOL    HW228422   1.244   1.410  10.943  0.2293  0.4353 -0.0487
 5654SOL     OW28423   0.259   1.620   6.185  0.1219  0.0366  0.3690
 5654SOL    HW128424   0.312   1.696   6.161  0.0214  0.5100  1.6360
 5654SOL    HW228425   0.303   1.591   6.264  0.2503  1.0823  0.6849
 5655SOL     OW28426   1.295   4.480   8.962  0.5804  0.0455  0.4116
 5655SOL    HW128427   1.334   4.429   9.034 -3.3457 -1.1899  1.6468
 5655SOL    HW228428   1.291   4.564   9.007  3.2006  1.0516 -1.2352
 5656SOL     OW28429   3.737   1.716   7.838 -0.5501  0.2013  0.3994
 5656SOL    HW128430   3.711   1.680   7.754  2.2824 -0.6618 -0.1051
 5656SOL    HW228431   3.831   1.727   7.823 -0.0044 -2.8391  1.6185
 5657SOL     OW28432   0.100   1.642   3.330  0.5971  0.5227 -0.6017
 5657SOL    HW128433   0.121   1.581   3.260  1.2747  1.0059 -0.8184
 5657SOL    HW228434   0.183   1.691   3.323  0.4077  1.2063  1.9222
 5658SOL     OW28435   0.228   1.864   1.894 -0.5841  0.2794  0.0764
 5658SOL    HW128436   0.174   1.939   1.868 -0.0427  0.6393 -0.0202
 5658SOL    HW228437   0.167   1.820   1.953 -0.4085  0.6515  0.5282
 5659SOL     OW28438   4.212   2.194  17.581 -0.2308 -0.6491 -0.4232
 5659SOL    HW128439   4.276   2.136  17.541  0.1354  0.3908 -1.3701
 5659SOL    HW228440   4.268   2.234  17.648  0.8064 -0.8243 -1.1781
 5660SOL     OW28441   1.590   2.287  12.193  0.2486 -0.1793 -0.0517
 5660SOL    HW128442   1.666   2.313  12.140  0.7871 -0.5627  0.5218
 5660SOL    HW228443   1.593   2.344  12.270 -1.2140 -1.0561  0.6500
 5661SOL     OW28444   0.337   2.061  11.740  0.4221 -0.0083 -0.1986
 5661SOL    HW128445   0.258   2.011  11.765 -0.3762  0.3576 -1.9937
 5661SOL    HW228446   0.302   2.137  11.695 -1.6897 -1.4272 -0.9653
 5662SOL     OW28447   0.042   0.937  14.843  0.2637 -0.3965  0.1281
 5662SOL    HW128448   4.723   0.867  14.894 -0.6467  0.2452  0.2480
 5662SOL    HW228449   0.096   0.880  14.788  1.6491  1.7199 -0.6869
 5663SOL     OW28450   0.519   1.642   3.055  0.5899  0.9041  0.5760
 5663SOL    HW128451   0.530   1.734   3.078  0.7708  1.0322 -0.0314
 5663SOL    HW228452   0.546   1.642   2.964 -0.2918 -1.0239  0.3144
 5664SOL     OW28453   2.906   2.120  15.503 -0.0975  0.2351  0.1968
 5664SOL    HW128454   2.953   2.085  15.427  0.6292  3.1272 -0.6793
 5664SOL    HW228455   2.964   2.191  15.528  0.2414 -0.2463  0.7583
 5665SOL     OW28456   1.536   4.125   3.775  0.0799  0.8249 -0.4103
 5665SOL    HW128457   1.573   4.211   3.753 -0.5679  1.1063 -0.4191
 5665SOL    HW228458   1.479   4.116   3.698 -1.4606  0.6140  0.7596
 5666SOL     OW28459   0.813   1.084  13.999  0.3018 -0.7450  0.5558
 5666SOL    HW128460   0.882   1.116  13.941  0.6876  0.5039  1.7106
 5666SOL    HW228461   0.860   1.072  14.082 -0.9278 -0.8618  1.2291
 5667SOL     OW28462   1.616   4.666   5.046 -0.3891 -0.2351  0.1153
 5667SOL    HW128463   1.627   4.662   5.141  1.3410 -2.7211 -0.1931
 5667SOL    HW228464   1.544   0.005   5.050 -1.4691 -1.3667 -1.2389
 5668SOL     OW28465   2.115   4.152  16.989 -0.1854 -0.2430 -0.0715
 5668SOL    HW128466   2.166   4.075  16.963  1.7490 -0.2782  3.7972
 5668SOL    HW228467   2.064   4.112  17.060 -0.5431  2.1151  0.9848
 5669SOL     OW28468   4.020   2.322   8.981 -0.2432  0.0014  0.6108
 5669SOL    HW128469   3.971   2.306   9.062  1.0121 -0.3247  1.3075
 5669SOL    HW228470   4.108   2.302   9.013  1.0349  1.9593 -1.6858
 5670SOL     OW28471   0.414   0.453   3.787 -0.4224  0.5071  1.1881
 5670SOL    HW128472   0.488   0.469   3.846  0.8952 -2.0146  0.2236
 5670SOL    HW228473   0.343   0.507   3.821 -0.0963 -0.0403  2.7121
 5671SOL     OW28474   1.648   1.644  16.406 -0.0397 -0.0306 -0.7783
 5671SOL    HW128475   1.615   1.577  16.467  0.1583  0.5284 -0.0557
 5671SOL    HW228476   1.741   1.633  16.426  0.2224  1.8027 -1.0411
 5672SOL     OW28477   3.612   2.251  16.306  0.1907 -0.1019 -0.2784
 5672SOL    HW128478   3.638   2.276  16.217 -1.4834 -2.5276 -1.4459
 5672SOL    HW228479   3.700   2.232  16.340 -0.4650 -0.7866  1.0128
 5673SOL     OW28480   0.555   4.431  14.035 -0.0616  0.1570  0.1490
 5673SOL    HW128481   0.567   4.357  13.975 -1.0471 -1.0570  1.4196
 5673SOL    HW228482   0.626   4.489  14.009  1.0219 -1.3155 -0.1643
 5674SOL     OW28483   3.516   1.262  16.779 -0.2101  0.0152  0.0852
 5674SOL    HW128484   3.478   1.306  16.855  0.2228 -0.9045  0.8510
 5674SOL    HW228485   3.570   1.197  16.824  0.9085  0.2251 -0.9411
 5675SOL     OW28486   2.142   2.588   9.945  0.3389  0.1561  0.2924
 5675SOL    HW128487   2.237   2.589   9.940  0.3526  0.1371  0.5459
 5675SOL    HW228488   2.117   2.644   9.871  2.3265  1.3666  0.5300
 5676SOL     OW28489   3.275   4.388  11.641 -0.2747 -0.0760  0.2190
 5676SOL    HW128490   3.218   4.386  11.717 -0.2546  1.6868  0.2900
 5676SOL    HW228491   3.254   4.468  11.592 -3.3087 -0.3900  1.0234
 5677SOL     OW28492   2.427   2.125   5.937 -0.5433  0.5090  0.5107
 5677SOL    HW128493   2.475   2.169   6.008  0.0633  1.5878 -0.5774
 5677SOL    HW228494   2.404   2.201   5.884 -1.1646 -0.6668 -0.8808
 5678SOL     OW28495   2.139   3.886   9.701  0.1171 -0.1340 -0.1886
 5678SOL    HW128496   2.098   3.845   9.625 -0.3009 -0.1765  0.0586
 5678SOL    HW228497   2.135   3.978   9.676 -0.1706  0.0768  0.6506
 5679SOL     OW28498   0.697   3.092   7.864 -0.8742  0.2131  0.2480
 5679SOL    HW128499   0.604   3.076   7.882 -0.4060 -1.4724  1.2011
 5679SOL    HW228500   0.708   3.176   7.910  0.6228  0.9457 -1.4986
 5680SOL     OW28501   0.401   2.377   2.211 -0.0249 -0.9755 -0.0408
 5680SOL    HW128502   0.460   2.452   2.217 -0.7480 -0.3299 -0.8428
 5680SOL    HW228503   0.316   2.413   2.185  0.2666 -2.5697 -3.1408
 5681SOL     OW28504   1.220   1.340   3.282  0.0623 -0.2718  0.2070
 5681SOL    HW128505   1.256   1.269   3.228  0.5108 -1.2640  1.8138
 5681SOL    HW228506   1.135   1.351   3.239  0.3212  0.4415 -0.1234
 5682SOL     OW28507   4.394   1.132   7.941  0.0073 -0.4295  0.1945
 5682SOL    HW128508   4.443   1.092   8.013 -0.6911  0.5255  1.2104
 5682SOL    HW228509   4.393   1.056   7.883 -2.1460  0.9360 -1.5425
 5683SOL     OW28510   0.653   1.719  12.968 -0.1380 -0.0698 -0.0303
 5683SOL    HW128511   0.605   1.652  13.017  1.0208  1.1726  2.7944
 5683SOL    HW228512   0.607   1.716  12.884 -1.1105 -0.7777  0.5330
 5684SOL     OW28513   4.077   1.481   6.041  0.0348  0.3901  0.3619
 5684SOL    HW128514   4.022   1.523   6.107  1.1503  0.6634  1.1205
 5684SOL    HW228515   4.006   1.435   5.996 -0.1327  3.4584 -2.4686
 5685SOL     OW28516   3.324   0.829   4.775  0.1406 -0.6578 -0.5103
 5685SOL    HW128517   3.415   0.814   4.749 -0.2703  0.2263 -2.5037
 5685SOL    HW228518   3.311   0.778   4.855 -2.5350 -0.0428 -0.5409
 5686SOL     OW28519   4.272   2.827  17.009  0.0906  0.3096 -0.2113
 5686SOL    HW128520   4.198   2.789  17.057  1.0929 -1.9565 -0.4677
 5686SOL    HW228521   4.233   2.897  16.956 -0.0472  0.9457  0.7178
 5687SOL     OW28522   3.560   1.401   5.407 -0.2337  0.0152 -0.1210
 5687SOL    HW128523   3.609   1.462   5.462  1.1967 -1.9465  0.8134
 5687SOL    HW228524   3.507   1.353   5.471 -0.2759 -1.0021 -0.9218
 5688SOL     OW28525   3.955   4.219   9.053 -0.1042  0.3506  0.0595
 5688SOL    HW128526   3.981   4.216   8.961  0.2240  1.3255  0.1131
 5688SOL    HW228527   3.938   4.127   9.072  1.1569  0.5571  2.0992
 5689SOL     OW28528   2.194   4.644  13.620  0.2424  0.2025  0.1640
 5689SOL    HW128529   2.216   4.618  13.709  0.1212 -1.1603 -0.2044
 5689SOL    HW228530   2.271   4.612  13.573 -0.3341  0.5374 -1.0102
 5690SOL     OW28531   2.307   1.062   2.824 -0.3087 -0.5244 -0.6031
 5690SOL    HW128532   2.300   1.155   2.844 -0.1998 -0.0174 -2.8841
 5690SOL    HW228533   2.366   1.031   2.893  0.7000 -0.6271 -1.5173
 5691SOL     OW28534   4.601   3.077  11.094 -0.5078  0.8444  0.0499
 5691SOL    HW128535   4.622   3.144  11.158 -0.1628  1.2949 -0.5369
 5691SOL    HW228536   4.624   2.999  11.144 -1.7435  1.2499  1.2464
 5692SOL     OW28537   3.971   0.740   0.584 -0.2169 -0.2480 -0.1638
 5692SOL    HW128538   3.924   0.823   0.579 -2.9074 -1.8191 -1.2932
 5692SOL    HW228539   4.021   0.751   0.504 -0.1643 -0.3321 -0.1425
 5693SOL     OW28540   1.631   4.398   6.576  0.9157 -0.0422  0.0101
 5693SOL    HW128541   1.625   4.494   6.571  3.9677  0.1294 -0.2456
 5693SOL    HW228542   1.718   4.382   6.612  0.8151 -0.3976  0.0901
 5694SOL     OW28543   3.228   1.219   5.248  0.4830  0.2014 -0.2742
 5694SOL    HW128544   3.321   1.237   5.257  0.7059 -1.2374  0.1623
 5694SOL    HW228545   3.212   1.151   5.313 -2.6797 -1.4442 -2.7638
 5695SOL     OW28546   3.871   3.677   5.146 -1.0497 -0.1343  0.4323
 5695SOL    HW128547   3.931   3.603   5.143  0.1488  0.8988 -0.7773
 5695SOL    HW228548   3.866   3.685   5.051 -0.8009  0.1282  0.4403
 5696SOL     OW28549   2.407   1.278   5.436  0.0654 -0.8379  0.0325
 5696SOL    HW128550   2.467   1.290   5.362 -2.2069  3.0888 -1.1726
 5696SOL    HW228551   2.435   1.342   5.501 -1.4601  0.0451 -0.1908
 5697SOL     OW28552   2.750   2.076   4.322 -0.9666  1.1971 -0.1961
 5697SOL    HW128553   2.834   2.061   4.366  0.3134 -0.5751 -3.1707
 5697SOL    HW228554   2.782   2.063   4.232  1.3540 -0.0304  0.7932
 5698SOL     OW28555   2.764   4.671   8.706 -0.7185  0.0130 -0.3407
 5698SOL    HW128556   2.746   4.720   8.625  2.1147 -1.3426 -1.7879
 5698SOL    HW228557   2.706   4.595   8.710 -0.5120 -0.0841  0.7268
 5699SOL     OW28558   4.702   0.532  12.568  0.0920 -0.0425 -0.1753
 5699SOL    HW128559   4.682   0.441  12.590  1.1232 -0.7096 -1.9502
 5699SOL    HW228560   4.691   0.572  12.654 -1.5941 -0.4347 -0.2040
 5700SOL     OW28561   0.471   0.544   2.222 -0.7715 -0.8818  0.0087
 5700SOL    HW128562   0.447   0.562   2.313  0.3036  0.1598  0.0768
 5700SOL    HW228563   0.486   0.449   2.223  0.1104 -0.7434 -0.2959
 5701SOL     OW28564   0.076   2.917   8.803  0.2436 -0.2072  0.4251
 5701SOL    HW128565   0.111   2.942   8.889  0.8780  0.0318  0.1010
 5701SOL    HW228566   0.042   2.998   8.765 -0.5580 -0.4046  0.7212
 5702SOL     OW28567   0.661   4.606   6.668  0.6001 -0.3386 -0.0169
 5702SOL    HW128568   0.665   4.674   6.601 -1.5037 -0.1334  0.0752
 5702SOL    HW228569   0.750   4.572   6.660  1.4370  2.0018 -0.6360
 5703SOL     OW28570   2.454   4.330   8.214  0.1803 -0.0384  0.3468
 5703SOL    HW128571   2.369   4.371   8.232  0.8768  1.8153 -0.5915
 5703SOL    HW228572   2.515   4.383   8.265  1.0877 -1.8544  1.1468
 5704SOL     OW28573   2.251   1.327  17.551 -0.3955 -0.3854  0.4280
 5704SOL    HW128574   2.217   1.237  17.556  2.8625 -1.6707 -0.3329
 5704SOL    HW228575   2.344   1.306  17.551 -0.3189 -0.0396 -1.0159
 5705SOL     OW28576   1.001   4.540  14.778 -0.1634  0.1378  0.1973
 5705SOL    HW128577   1.042   4.539  14.865  1.3329  0.0457 -0.5131
 5705SOL    HW228578   0.993   4.445  14.766  0.6752 -0.3016  3.2002
 5706SOL     OW28579   1.491   3.098   8.265  0.2854  0.3540  0.5427
 5706SOL    HW128580   1.424   3.112   8.198  0.7195 -1.9753 -0.3851
 5706SOL    HW228581   1.434   3.058   8.330 -0.5987  0.8684  0.0695
 5707SOL     OW28582   2.235   4.317   7.938 -0.1264 -0.6197 -0.1127
 5707SOL    HW128583   2.171   4.315   7.866  0.5648  1.9554 -0.7813
 5707SOL    HW228584   2.285   4.397   7.922  0.0857 -0.0282  3.5032
 5708SOL     OW28585   3.221   3.520   3.779  0.3212  0.2018 -0.1591
 5708SOL    HW128586   3.154   3.580   3.810  0.3983  0.8595 -1.2567
 5708SOL    HW228587   3.257   3.565   3.703 -0.2557 -1.7613 -1.5960
 5709SOL     OW28588   2.409   0.473  11.498  0.4387 -0.2753 -0.0824
 5709SOL    HW128589   2.428   0.507  11.586  0.7122  1.7223 -0.9050
 5709SOL    HW228590   2.471   0.400  11.494  2.3603  1.2817  1.4830
 5710SOL     OW28591   1.860   4.565   7.011 -0.0399 -0.4276  0.1258
 5710SOL    HW128592   1.794   4.504   6.978  1.2252 -1.0514 -1.2740
 5710SOL    HW228593   1.937   4.508   7.023  1.3554  1.7440  1.3460
 5711SOL     OW28594   4.117   0.260   7.580 -0.7650  0.0821 -0.1590
 5711SOL    HW128595   4.085   0.244   7.669  0.4225  1.3186  0.4848
 5711SOL    HW228596   4.207   0.232   7.595 -0.4080  1.6149  0.4573
 5712SOL     OW28597   0.072   1.328  17.356  0.3923  0.4578  0.2109
 5712SOL    HW128598   0.083   1.238  17.326  0.5821  0.1881  1.0739
 5712SOL    HW228599   0.160   1.363  17.345  0.7277 -0.3057  0.4398
 5713SOL     OW28600   0.933   4.349  11.664  0.2930 -0.0690  0.0641
 5713SOL    HW128601   0.919   4.362  11.758  0.7019 -1.2228  0.2826
 5713SOL    HW228602   1.010   4.405  11.655 -0.0671  0.1948 -1.5045
 5714SOL     OW28603   0.536   2.819   1.799  0.4588 -0.1651  0.3620
 5714SOL    HW128604   0.552   2.807   1.705  1.2189  0.8974  0.3577
 5714SOL    HW228605   0.541   2.726   1.822 -1.7539 -0.6294 -0.9721
 5715SOL     OW28606   3.163   2.132   6.193 -0.3727 -0.0594 -0.5540
 5715SOL    HW128607   3.122   2.055   6.232  1.6744 -0.0339  1.6746
 5715SOL    HW228608   3.179   2.102   6.103  0.7129 -0.1629 -0.3327
 5716SOL     OW28609   1.082   3.454   8.537  0.3224 -0.4277  0.5243
 5716SOL    HW128610   1.113   3.480   8.624  4.3063  0.7977 -1.2192
 5716SOL    HW228611   1.117   3.517   8.473  0.2594 -1.2721 -0.3561
 5717SOL     OW28612   2.801   0.262   4.327 -0.0159 -0.0594 -0.1131
 5717SOL    HW128613   2.838   0.277   4.240  2.1408 -0.9709  0.6342
 5717SOL    HW228614   2.790   0.167   4.333 -0.6753 -0.0316 -0.9037
 5718SOL     OW28615   1.836   3.308   5.979  0.0476 -0.2567  0.5318
 5718SOL    HW128616   1.924   3.345   5.970  0.1585 -0.3922  1.0720
 5718SOL    HW228617   1.829   3.291   6.073 -0.7280  1.3142  0.7516
 5719SOL     OW28618   1.294   3.418   5.151  0.0073 -0.2028 -0.2092
 5719SOL    HW128619   1.378   3.458   5.172 -0.0661  0.9681 -2.0534
 5719SOL    HW228620   1.318   3.325   5.156  3.0866  0.6139  0.2856
 5720SOL     OW28621   2.397   2.218  11.887 -0.1764  0.0479  0.1835
 5720SOL    HW128622   2.480   2.171  11.875 -0.1968 -0.8785  3.5889
 5720SOL    HW228623   2.440   2.285  11.940  0.2168 -0.1619  0.1243
 5721SOL     OW28624   1.070   4.710   7.792 -0.1974 -0.8714 -0.3825
 5721SOL    HW128625   1.099   4.652   7.862 -0.6376 -0.3632  0.2220
 5721SOL    HW228626   1.144   4.705   7.732  0.1747  2.7213 -0.2548
 5722SOL     OW28627   3.489   2.337   5.312 -0.1882 -0.7798 -0.4895
 5722SOL    HW128628   3.509   2.313   5.222  0.4201  1.2815 -0.8963
 5722SOL    HW228629   3.568   2.323   5.365  0.1425 -0.7756 -0.9866
 5723SOL     OW28630   0.273   0.507  16.927 -0.0612 -0.1576 -0.1373
 5723SOL    HW128631   0.299   0.477  17.014 -1.3568 -0.9250 -0.0312
 5723SOL    HW228632   0.335   0.581  16.921 -0.7763  0.4881  0.4107
 5724SOL     OW28633   0.373   0.386   5.254 -0.6491 -0.1895 -0.8558
 5724SOL    HW128634   0.466   0.407   5.262 -0.9590  1.1084 -0.7119
 5724SOL    HW228635   0.346   0.327   5.323  2.9991 -0.7960  0.0432
 5725SOL     OW28636   4.017   2.811   8.810 -0.4691 -0.2567 -0.2335
 5725SOL    HW128637   3.940   2.863   8.790  0.6554  1.3273 -0.4628
 5725SOL    HW228638   3.986   2.727   8.776 -0.1852 -0.0016 -1.1333
 5726SOL     OW28639   3.946   1.314   3.384 -0.4726 -0.3779  0.6960
 5726SOL    HW128640   3.980   1.347   3.301  2.1419 -0.4046  1.7380
 5726SOL    HW228641   3.869   1.272   3.347  0.3229 -0.4190 -0.9298
 5727SOL     OW28642   0.248   2.397   4.348 -0.0741  0.2376  0.1627
 5727SOL    HW128643   0.197   2.378   4.269 -0.3674 -0.7431  0.5793
 5727SOL    HW228644   0.299   2.316   4.355  0.4141  0.7774  2.9384
 5728SOL     OW28645   1.881   1.544   5.088 -0.4763  0.2116  0.3723
 5728SOL    HW128646   1.832   1.542   5.005 -0.1309 -0.7835  0.1912
 5728SOL    HW228647   1.904   1.637   5.097 -1.2156  0.7073 -2.7453
 5729SOL     OW28648   2.482   1.246   7.099  0.1801  0.2594  0.0663
 5729SOL    HW128649   2.440   1.331   7.113  0.4715  0.2129  1.2805
 5729SOL    HW228650   2.466   1.207   7.185 -0.2531  3.0660  1.2438
 5730SOL     OW28651   2.859   0.294   3.031  0.0442  0.1492 -0.3969
 5730SOL    HW128652   2.925   0.243   3.077  0.0153 -0.7176 -1.3198
 5730SOL    HW228653   2.916   0.323   2.960 -1.6217 -0.9516 -2.2143
 5731SOL     OW28654   4.485   4.305  17.122 -0.1390  1.1253  0.0709
 5731SOL    HW128655   4.543   4.267  17.056 -0.2039 -0.4650  0.9295
 5731SOL    HW228656   4.445   4.372  17.068  2.7327  1.8439 -1.1622
 5732SOL     OW28657   2.715   4.141   7.408  0.3846 -0.4948 -0.0854
 5732SOL    HW128658   2.792   4.183   7.446 -0.1181  1.5140 -1.2832
 5732SOL    HW228659   2.690   4.193   7.332  1.2444  0.9815  0.6456
 5733SOL     OW28660   3.325   3.255   6.560 -0.8657 -0.8746  0.5448
 5733SOL    HW128661   3.414   3.222   6.550 -1.0722 -2.1109  2.7878
 5733SOL    HW228662   3.339   3.350   6.561 -1.6855 -0.7359 -1.5542
 5734SOL     OW28663   1.609   0.944   0.516  0.2664  0.4842  0.2075
 5734SOL    HW128664   1.538   0.938   0.579  0.2701 -0.3627  0.1289
 5734SOL    HW228665   1.670   1.003   0.561 -0.6967  1.6429  0.0127
 5735SOL     OW28666   0.670   3.078   8.921 -0.3384 -0.3980 -0.0020
 5735SOL    HW128667   0.707   3.127   8.847 -0.5732 -0.3983 -0.1203
 5735SOL    HW228668   0.735   3.008   8.924  0.2707  0.1707 -0.0147
 5736SOL     OW28669   0.627   4.234   8.779 -0.0145  0.0065 -0.2213
 5736SOL    HW128670   0.693   4.165   8.788 -0.8383 -0.5867  1.2186
 5736SOL    HW228671   0.678   4.307   8.812  0.2709 -1.1605  1.9071
 5737SOL     OW28672   0.183   4.518   6.721  0.7088  0.1145 -0.0519
 5737SOL    HW128673   0.255   4.580   6.734 -0.0534  1.0254 -0.2532
 5737SOL    HW228674   0.136   4.557   6.648 -0.2129 -2.2523 -0.7214
 5738SOL     OW28675   2.932   4.626  17.660  0.2350 -0.1929  1.0780
 5738SOL    HW128676   2.988   4.569   0.017  0.4622 -2.2248 -1.3566
 5738SOL    HW228677   2.866   4.644   0.032  1.7487  2.6927  1.7722
 5739SOL     OW28678   4.203   0.984  11.847  0.1430  0.3485 -0.1997
 5739SOL    HW128679   4.123   1.024  11.813 -1.1682 -2.5982 -0.6532
 5739SOL    HW228680   4.199   1.028  11.931 -0.2154 -0.0476 -0.0116
 5740SOL     OW28681   4.456   2.658  11.097 -0.5750 -0.6781  0.7189
 5740SOL    HW128682   4.454   2.568  11.130  2.0195  0.1042  2.9397
 5740SOL    HW228683   4.423   2.634  11.010  0.1525  0.6819  0.0592
 5741SOL     OW28684   3.378   2.101   7.131  0.0550 -0.2822 -0.3008
 5741SOL    HW128685   3.435   2.024   7.132 -0.6369 -0.7846  0.0634
 5741SOL    HW228686   3.449   2.159   7.102 -1.3965  1.2943 -0.6436
 5742SOL     OW28687   3.654   4.576  12.452  0.3680  0.0926 -0.2598
 5742SOL    HW128688   3.691   4.489  12.436 -0.3876 -0.1702 -0.5643
 5742SOL    HW228689   3.713   4.615  12.517  1.4636 -0.4278 -0.9263
 5743SOL     OW28690   4.007   1.594   7.240 -0.9458 -0.1584  0.5714
 5743SOL    HW128691   4.086   1.647   7.226 -0.5278 -0.8600  0.2289
 5743SOL    HW228692   3.936   1.658   7.239  0.1216  1.0251 -1.1205
 5744SOL     OW28693   1.921   2.264   1.868 -0.1644 -0.6651 -0.1150
 5744SOL    HW128694   1.915   2.203   1.941 -0.6238  0.5588  0.8668
 5744SOL    HW228695   1.988   2.232   1.809  0.0297 -0.1675 -0.1682
 5745SOL     OW28696   1.087   0.359  16.021  0.0555  0.4735 -0.1458
 5745SOL    HW128697   1.108   0.332  15.931  1.2493 -1.9260  0.8543
 5745SOL    HW228698   1.102   0.454  16.025 -0.0928  0.4504  0.8098
 5746SOL     OW28699   0.785   0.678   0.145  0.3077 -0.7739 -0.0652
 5746SOL    HW128700   0.716   0.745   0.152 -1.2843 -2.2698 -1.3925
 5746SOL    HW228701   0.801   0.671   0.239  0.8562  0.3370 -0.0744
 5747SOL     OW28702   3.719   0.691   8.559 -0.2164 -0.6509  0.3132
 5747SOL    HW128703   3.704   0.609   8.511 -1.2984 -0.2105 -0.0920
 5747SOL    HW228704   3.798   0.716   8.512 -0.1394  1.1930  1.4194
 5748SOL     OW28705   1.072   1.910  15.505  0.0668 -0.9620  0.3058
 5748SOL    HW128706   1.136   1.930  15.574 -0.9019 -1.0152  1.2284
 5748SOL    HW228707   1.003   1.973  15.525 -0.1677 -1.6270  1.6035
 5749SOL     OW28708   1.616   4.486   8.199  0.1137 -0.2471 -0.1616
 5749SOL    HW128709   1.668   4.453   8.272 -2.0277 -1.4288  0.8260
 5749SOL    HW228710   1.606   4.579   8.220 -1.4824 -0.7891  1.4264
 5750SOL     OW28711   3.098   2.339   2.412 -0.9852 -0.2376  0.2783
 5750SOL    HW128712   3.027   2.401   2.398 -1.1702 -0.3673  0.6491
 5750SOL    HW228713   3.158   2.364   2.341 -2.1131  0.1503 -0.5455
 5751SOL     OW28714   0.675   0.261   6.271 -0.6231 -0.7257  0.4689
 5751SOL    HW128715   0.705   0.351   6.277 -0.0171 -0.9270  0.4580
 5751SOL    HW228716   0.581   0.275   6.259 -0.3088  0.2147 -0.8164
 5752SOL     OW28717   1.318   1.448  14.073  0.4443  0.3056  0.0258
 5752SOL    HW128718   1.256   1.382  14.040 -0.5302  1.0314  0.4052
 5752SOL    HW228719   1.340   1.499  13.996 -0.9023  2.2815  0.9611
 5753SOL     OW28720   3.896   0.291  15.651  0.0104  0.2302 -0.1260
 5753SOL    HW128721   3.831   0.238  15.605 -0.6292 -1.4670  2.7639
 5753SOL    HW228722   3.939   0.333  15.577 -2.2120  1.0200 -0.9804
 5754SOL     OW28723   4.395   4.218  12.731 -0.2299 -0.1344  0.9018
 5754SOL    HW128724   4.371   4.200  12.821 -1.0565 -2.0323  0.3135
 5754SOL    HW228725   4.364   4.139  12.685  2.5246 -2.1695  2.5714
 5755SOL     OW28726   0.418   3.188   8.480 -0.0922 -0.2611  0.2974
 5755SOL    HW128727   0.363   3.260   8.511  1.2662 -0.0606  2.2232
 5755SOL    HW228728   0.446   3.227   8.398 -0.5257 -0.1247  0.2150
 5756SOL     OW28729   2.602   3.892   7.907  0.2050 -0.5075 -0.2403
 5756SOL    HW128730   2.509   3.900   7.887  0.7170 -0.6708 -2.7324
 5756SOL    HW228731   2.603   3.858   7.997 -0.0038 -1.3186 -0.5418
 5757SOL     OW28732   1.362   1.523   7.252 -0.0678 -0.2007  1.0032
 5757SOL    HW128733   1.456   1.542   7.261 -0.0846 -0.7857  2.2952
 5757SOL    HW228734   1.367   1.461   7.179  0.8616  1.1462 -0.0946
 5758SOL     OW28735   3.270   0.133  12.540  0.4100  0.5065  0.0616
 5758SOL    HW128736   3.195   0.080  12.566  0.7634  0.2953  0.6428
 5758SOL    HW228737   3.334   0.062  12.525  0.2240  0.1468  0.9630
 5759SOL     OW28738   2.899   3.309   7.128 -0.0475  0.4013  0.8126
 5759SOL    HW128739   2.805   3.296   7.139 -0.2153  0.1319 -1.0675
 5759SOL    HW228740   2.900   3.398   7.163  0.6702  0.2853  1.1029
 5760SOL     OW28741   0.177   2.813   9.919  0.5445 -0.2389  0.1785
 5760SOL    HW128742   0.163   2.749   9.989  0.1074 -0.5787 -0.2217
 5760SOL    HW228743   0.226   2.879   9.969  0.2493  0.5899 -0.6229
 5761SOL     OW28744   3.394   1.380  14.539 -0.0436 -0.2859  0.8831
 5761SOL    HW128745   3.312   1.365  14.490  0.5822 -1.4521  0.1985
 5761SOL    HW228746   3.465   1.360  14.479  1.0231 -0.7735  2.3235
 5762SOL     OW28747   0.604   2.014   4.428  0.2362 -0.2437 -0.0452
 5762SOL    HW128748   0.613   1.930   4.473 -0.0499 -0.6905 -0.8470
 5762SOL    HW228749   0.664   1.993   4.357  1.7264  0.1530  1.0968
 5763SOL     OW28750   0.319   2.077  16.329  0.3032  0.4329 -0.0854
 5763SOL    HW128751   0.258   2.034  16.389  0.9204  0.2425  0.4065
 5763SOL    HW228752   0.316   2.012  16.258  0.8353 -0.1131  0.3915
 5764SOL     OW28753   1.101   1.315   5.299  0.6813 -0.5824  0.2933
 5764SOL    HW128754   1.148   1.393   5.271 -1.6310  0.7403  0.1024
 5764SOL    HW228755   1.056   1.295   5.216  2.3855  1.3907 -1.0978
 5765SOL     OW28756   3.930   0.386   9.733 -0.3750 -0.3497 -0.3934
 5765SOL    HW128757   3.929   0.305   9.682  2.5916  1.4043 -3.2562
 5765SOL    HW228758   4.025   0.395   9.735 -0.2138 -2.2010  1.0185
 5766SOL     OW28759   0.164   1.601   5.358 -0.8206 -0.0126 -0.1493
 5766SOL    HW128760   0.186   1.614   5.450 -0.5784  0.7581 -0.3168
 5766SOL    HW228761   0.120   1.685   5.344 -1.1042  0.0461  1.1141
 5767SOL     OW28762   2.825   3.412   7.548 -0.3038  0.0345  0.1383
 5767SOL    HW128763   2.843   3.503   7.525 -0.7842 -0.1850 -1.0839
 5767SOL    HW228764   2.915   3.377   7.550  0.5587  2.3341  2.2677
 5768SOL     OW28765   1.898   4.579   3.465 -0.1767 -0.1359  0.3993
 5768SOL    HW128766   1.851   4.629   3.532  0.9191 -2.5820  3.0139
 5768SOL    HW228767   1.989   4.592   3.490  0.0158 -0.4820 -0.1251
 5769SOL     OW28768   2.792   1.410   7.120 -0.0125  0.2933 -0.3702
 5769SOL    HW128769   2.742   1.404   7.202  0.3345 -0.8363 -0.2478
 5769SOL    HW228770   2.729   1.408   7.049 -0.1570  1.5244 -0.2846
 5770SOL     OW28771   4.710   0.642   2.295  0.3166 -0.2347 -0.4940
 5770SOL    HW128772   0.020   0.554   2.278  0.5943 -0.1931 -0.1561
 5770SOL    HW228773   0.057   0.690   2.251 -0.9489 -1.0073 -3.3733
 5771SOL     OW28774   3.190   0.512   4.739 -0.4286 -0.3232  0.0859
 5771SOL    HW128775   3.203   0.606   4.725  0.5971 -0.9711 -3.4413
 5771SOL    HW228776   3.119   0.498   4.677 -0.4809 -2.3370  0.6191
 5772SOL     OW28777   1.962   3.451  16.145  0.3441 -0.5471 -1.0544
 5772SOL    HW128778   2.041   3.425  16.191 -1.5539 -0.5913  2.1643
 5772SOL    HW228779   1.900   3.380  16.163  3.2159 -2.3173  1.8148
 5773SOL     OW28780   3.939   1.317   7.900  0.3309 -0.5492 -0.1874
 5773SOL    HW128781   4.005   1.374   7.940 -1.5045  0.1288  1.8896
 5773SOL    HW228782   3.860   1.371   7.894  0.8418  0.4324  1.7991
 5774SOL     OW28783   1.921   0.411  16.089 -0.3762  0.1638  0.3864
 5774SOL    HW128784   1.995   0.469  16.106 -1.2633  1.3345  0.2956
 5774SOL    HW228785   1.963   0.326  16.079  0.0072  0.3694  0.2589
 5775SOL     OW28786   1.640   1.861   3.090 -0.2252  0.5292  0.3967
 5775SOL    HW128787   1.689   1.780   3.104 -0.4747 -0.4488 -4.6052
 5775SOL    HW228788   1.653   1.870   2.996 -0.5755  0.7357  0.3686
 5776SOL     OW28789   2.794   1.761   8.283  0.1661  0.4025 -0.4164
 5776SOL    HW128790   2.763   1.686   8.333  0.3910  0.7754  0.2711
 5776SOL    HW228791   2.864   1.724   8.228  0.0219 -0.1277 -0.2423
 5777SOL     OW28792   4.002   1.540   6.837 -0.6623 -0.5682  0.0918
 5777SOL    HW128793   3.919   1.546   6.885 -0.7383  0.8042 -0.2145
 5777SOL    HW228794   4.041   1.477   6.898 -0.1385  0.8090  1.1616
 5778SOL     OW28795   3.814   1.383   3.049 -0.3299 -0.5392 -0.4857
 5778SOL    HW128796   3.826   1.343   2.963 -2.2184 -2.2724  0.0617
 5778SOL    HW228797   3.742   1.331   3.084 -0.8160  0.2191 -0.3738
 5779SOL     OW28798   3.668   3.501  17.681  0.1426 -0.5861 -0.6348
 5779SOL    HW128799   3.731   3.504   0.057 -2.1766 -1.6591  1.4294
 5779SOL    HW228800   3.589   3.467   0.027  0.3243 -0.6122 -0.3149
 5780SOL     OW28801   1.983   1.105   4.734 -0.1486 -0.1267  0.0293
 5780SOL    HW128802   1.943   1.187   4.706  0.5233 -0.7350 -2.7279
 5780SOL    HW228803   2.026   1.073   4.654  1.3604 -1.3689  1.3517
 5781SOL     OW28804   0.030   2.374  16.134  0.1536 -0.7848 -0.5462
 5781SOL    HW128805   4.685   2.431  16.099  0.3291  1.0411  2.1174
 5781SOL    HW228806   0.056   2.324  16.056  0.2222 -3.0864  0.9644
 5782SOL     OW28807   0.598   1.316   4.126  0.2559  0.6476  0.5488
 5782SOL    HW128808   0.551   1.393   4.094 -1.1188 -0.8739 -1.0960
 5782SOL    HW228809   0.673   1.308   4.067  0.5609  0.1208  1.0185
 5783SOL     OW28810   3.788   2.979  15.629 -0.2070  0.0123  0.8459
 5783SOL    HW128811   3.837   3.027  15.695 -1.2739 -0.8099  2.2316
 5783SOL    HW228812   3.812   3.045  15.564 -1.5627 -1.8761 -1.5898
 5784SOL     OW28813   3.153   2.280   4.152 -0.6219  0.3027  0.7076
 5784SOL    HW128814   3.090   2.342   4.189  0.0094  1.6227 -0.4786
 5784SOL    HW228815   3.094   2.250   4.083 -1.0781  0.9698  0.8047
 5785SOL     OW28816   0.483   4.208  17.026 -0.7437  0.8171 -0.0221
 5785SOL    HW128817   0.553   4.147  17.002 -1.3599 -0.1026  0.5113
 5785SOL    HW228818   0.494   4.273  16.958  2.4128 -1.3068 -1.5206
 5786SOL     OW28819   1.523   3.463   7.449 -0.2897 -0.2254  0.2300
 5786SOL    HW128820   1.586   3.535   7.449 -1.7138  1.0575  2.3065
 5786SOL    HW228821   1.467   3.489   7.523  2.2997  1.4707  1.5896
 5787SOL     OW28822   1.650   3.924   3.920  0.1393 -0.5703 -0.2613
 5787SOL    HW128823   1.575   3.961   3.874  1.9229  0.7916 -2.0929
 5787SOL    HW228824   1.713   3.940   3.850  0.6173 -0.6528  0.1542
 5788SOL     OW28825   1.756   3.044   6.293  0.3310  0.3571 -0.1010
 5788SOL    HW128826   1.817   3.017   6.362 -0.6216 -0.0257  0.5871
 5788SOL    HW228827   1.805   3.125   6.278  0.9017 -0.0270 -0.3483
 5789SOL     OW28828   4.132   0.934   4.993 -0.2454  0.2464  0.0929
 5789SOL    HW128829   4.134   1.030   4.986  0.5347  0.2251 -0.0352
 5789SOL    HW228830   4.083   0.901   4.918 -0.9623 -0.0150  0.6764
 5790SOL     OW28831   1.281   4.536   3.309  0.2852  0.2273 -0.0771
 5790SOL    HW128832   1.197   4.534   3.355  0.6187 -0.3974  0.5142
 5790SOL    HW228833   1.338   4.576   3.375  1.8795 -0.2560 -1.1825
 5791SOL     OW28834   2.742   1.021  13.172  0.2089 -0.3389 -0.2590
 5791SOL    HW128835   2.758   1.054  13.260 -2.5110 -1.9773  0.8229
 5791SOL    HW228836   2.737   0.929  13.195  1.6769  0.0356  1.5560
 5792SOL     OW28837   1.360   4.204   2.036  0.1396 -0.1357  0.1213
 5792SOL    HW128838   1.434   4.163   1.991 -0.0658 -1.2013  0.7538
 5792SOL    HW228839   1.357   4.287   1.989 -2.1300  0.3828  1.1908
 5793SOL     OW28840   1.526   3.677   3.645 -0.1854  0.0561 -0.5262
 5793SOL    HW128841   1.452   3.681   3.705 -0.7579  0.5855 -1.2700
 5793SOL    HW228842   1.506   3.590   3.609 -2.1781  0.9992 -1.6726
 5794SOL     OW28843   0.274   4.533   5.619  1.0316  0.0951  0.5873
 5794SOL    HW128844   0.187   4.568   5.640  0.5893 -0.3254 -0.5919
 5794SOL    HW228845   0.281   4.565   5.529  0.4371 -0.3867  0.3713
 5795SOL     OW28846   3.229   4.674  12.084 -0.0853  0.0416  0.0288
 5795SOL    HW128847   3.299   4.715  12.034  1.6943 -1.0620  1.6206
 5795SOL    HW228848   3.290   4.638  12.148  0.5807 -0.4917 -0.9073
 5796SOL     OW28849   1.702   1.959  17.634  0.0516  0.2436 -0.3732
 5796SOL    HW128850   1.630   2.016  17.660 -0.3640 -0.3748 -0.1590
 5796SOL    HW228851   1.679   1.941  17.543 -0.3714  1.2970 -0.4782
 5797SOL     OW28852   0.812   3.637   1.862  0.4792 -0.4440  0.3336
 5797SOL    HW128853   0.844   3.548   1.849 -0.0288 -0.6297  0.3794
 5797SOL    HW228854   0.769   3.631   1.948 -2.1010  0.1769 -0.9266
 5798SOL     OW28855   4.153   0.493   7.779 -0.7950 -0.5883 -0.6590
 5798SOL    HW128856   4.245   0.521   7.776 -1.3116  0.9908 -1.7437
 5798SOL    HW228857   4.159   0.436   7.855 -1.9058 -1.1344 -0.9834
 5799SOL     OW28858   4.191   3.051  16.873 -0.2134 -0.4467  0.1771
 5799SOL    HW128859   4.226   3.132  16.835 -0.3838 -1.2556 -1.7408
 5799SOL    HW228860   4.103   3.045  16.834 -0.4630  1.0578  0.5349
 5800SOL     OW28861   1.825   0.667   6.162  0.1598  0.3198 -0.1139
 5800SOL    HW128862   1.855   0.630   6.245 -1.1485 -0.3288  0.0705
 5800SOL    HW228863   1.851   0.600   6.099  2.6448 -1.8093  3.1653
 5801SOL     OW28864   3.081   1.954  14.408  0.0173  0.4923  0.2415
 5801SOL    HW128865   3.157   2.013  14.407 -1.8464  2.9171  0.6914
 5801SOL    HW228866   3.047   1.963  14.319  0.7945 -0.4946 -0.1619
 5802SOL     OW28867   1.388   2.388   9.241 -0.2442  0.4904 -0.4521
 5802SOL    HW128868   1.464   2.447   9.236  0.8694 -1.1310 -2.6345
 5802SOL    HW228869   1.348   2.418   9.323  1.0026  1.7387 -0.2997
 5803SOL     OW28870   2.685   1.580   5.830 -0.5831  0.4350  0.2842
 5803SOL    HW128871   2.670   1.513   5.763  0.3666 -0.2075  0.7154
 5803SOL    HW228872   2.757   1.633   5.798 -1.0679 -0.4740 -2.2791
 5804SOL     OW28873   3.449   1.885   9.102  0.1992  0.3758 -0.1197
 5804SOL    HW128874   3.473   1.977   9.117 -0.8598  0.5594  0.4148
 5804SOL    HW228875   3.444   1.859   9.194  1.2275  1.1839  0.1689
 5805SOL     OW28876   1.935   0.895   7.629  0.4834  0.8364 -0.3732
 5805SOL    HW128877   2.015   0.890   7.682  0.4642 -2.4196 -0.6140
 5805SOL    HW228878   1.980   0.853   7.556  0.9948  0.6671  0.0400
 5806SOL     OW28879   4.094   2.883   6.057 -0.3390  0.3463 -0.0602
 5806SOL    HW128880   4.115   2.905   5.966  0.7082  1.4105  0.4473
 5806SOL    HW228881   4.177   2.873   6.103 -1.3313 -0.6187  1.4969
 5807SOL     OW28882   2.199   2.264  12.553  0.3842  0.0315  0.6470
 5807SOL    HW128883   2.247   2.298  12.628 -0.9732  2.8716  0.2504
 5807SOL    HW228884   2.109   2.251  12.584  1.0762 -2.3900  1.6329
 5808SOL     OW28885   2.404   4.198   3.270 -0.3427 -0.4073 -0.4031
 5808SOL    HW128886   2.435   4.245   3.347 -0.4648  0.5799 -0.9511
 5808SOL    HW228887   2.486   4.158   3.240  0.4061 -0.1779  1.3656
 5809SOL     OW28888   1.311   1.249   8.337 -0.1685  0.4092 -0.0769
 5809SOL    HW128889   1.269   1.311   8.397  0.6307  1.2207 -0.3605
 5809SOL    HW228890   1.255   1.172   8.345 -1.1727  1.1434 -0.0138
 5810SOL     OW28891   3.333   3.848   3.665 -0.1564  0.4871  0.0718
 5810SOL    HW128892   3.384   3.780   3.709 -2.0214 -0.3017  1.0369
 5810SOL    HW228893   3.282   3.797   3.603  2.1307  0.4305 -1.7362
 5811SOL     OW28894   0.043   0.922  11.592 -0.2579 -0.2784 -0.4297
 5811SOL    HW128895   0.037   0.891  11.683  0.9663  0.6351 -0.0312
 5811SOL    HW228896   0.096   1.002  11.594 -0.2160 -0.3046 -0.4767
 5812SOL     OW28897   0.273   0.847   2.411 -0.0889  0.0689  0.9243
 5812SOL    HW128898   0.242   0.829   2.322  2.8872 -0.5519  0.0106
 5812SOL    HW228899   0.306   0.760   2.433 -1.8058 -0.8023  0.0384
 5813SOL     OW28900   4.671   1.828   2.953  0.0083 -0.1330  0.0439
 5813SOL    HW128901   4.669   1.810   2.859  3.3264 -0.9253  0.1138
 5813SOL    HW228902   4.690   1.743   2.991 -0.6614 -0.2295  0.1598
 5814SOL     OW28903   1.924   3.138   0.650  0.9522 -0.5658 -0.0197
 5814SOL    HW128904   1.931   3.152   0.744  0.1104 -2.8211  0.3742
 5814SOL    HW228905   1.838   3.098   0.639  0.4304  0.5602 -0.0173
 5815SOL     OW28906   2.712   3.673  10.349 -0.0518  0.0527  0.2252
 5815SOL    HW128907   2.775   3.728  10.396 -3.5306  2.3410  2.2355
 5815SOL    HW228908   2.636   3.731  10.347  0.0950  0.2398 -0.0805
 5816SOL     OW28909   1.829   0.159   3.927  0.6435 -0.1924  0.4279
 5816SOL    HW128910   1.819   0.076   3.975  0.7951 -0.7631 -0.5343
 5816SOL    HW228911   1.900   0.137   3.866 -0.0966  2.5454 -1.4119
 5817SOL     OW28912   2.258   2.423   7.624 -0.0153 -0.1135  0.4381
 5817SOL    HW128913   2.249   2.399   7.716 -4.4732 -1.6570 -0.3987
 5817SOL    HW228914   2.195   2.365   7.581 -0.1794 -0.6356  1.3844
 5818SOL     OW28915   0.646   0.408  10.881  0.8561 -0.1213  0.2827
 5818SOL    HW128916   0.675   0.447  10.963  0.0109 -0.1228  0.5730
 5818SOL    HW228917   0.678   0.477  10.822 -0.0699  0.1125  0.0639
 5819SOL     OW28918   1.401   1.598   4.228  0.2823  0.5649  0.1415
 5819SOL    HW128919   1.412   1.687   4.263 -2.5498  0.9692  0.0229
 5819SOL    HW228920   1.360   1.618   4.143  1.0178 -0.5748 -0.4694
 5820SOL     OW28921   2.018   1.464  17.068 -0.1377 -0.1611  0.0436
 5820SOL    HW128922   1.940   1.418  17.097  0.5010 -0.1185  1.8003
 5820SOL    HW228923   2.063   1.466  17.152  0.9755 -2.6647 -0.5185
 5821SOL     OW28924   3.832   2.794   6.672  0.2655  0.8027 -0.0415
 5821SOL    HW128925   3.869   2.709   6.695 -3.0396 -0.2444  1.4765
 5821SOL    HW228926   3.754   2.768   6.623  0.0631  1.5415 -0.1154
 5822SOL     OW28927   2.554   2.577   2.383 -0.9217 -0.8164  0.4636
 5822SOL    HW128928   2.600   2.508   2.334 -0.2243 -1.3805  1.9019
 5822SOL    HW228929   2.470   2.532   2.377 -1.2346 -0.4210  1.8143
 5823SOL     OW28930   4.609   3.309   0.492 -0.4669 -0.2994  0.0634
 5823SOL    HW128931   4.637   3.364   0.565 -0.6572  0.8409 -0.7210
 5823SOL    HW228932   4.626   3.220   0.522  1.7297 -0.0049 -0.3058
 5824SOL     OW28933   1.911   0.023   5.439 -0.4098  0.5769  0.2634
 5824SOL    HW128934   1.871   0.051   5.521  0.6401  0.5344  0.7895
 5824SOL    HW228935   1.921   0.104   5.387  1.8202  0.1474  0.0217
 5825SOL     OW28936   3.374   2.355   4.951 -0.2632 -0.7249  0.4510
 5825SOL    HW128937   3.468   2.338   4.961 -0.0924  0.5995  1.1311
 5825SOL    HW228938   3.364   2.427   5.013  1.6882  2.2088 -2.6740
 5826SOL     OW28939   3.693   3.368   7.202  0.0318 -0.2207  0.0517
 5826SOL    HW128940   3.654   3.281   7.205 -1.8943  0.6848  1.3965
 5826SOL    HW228941   3.640   3.401   7.129  1.3217  0.3642 -0.6364
 5827SOL     OW28942   2.537   3.022  14.044 -0.4569 -0.2183 -0.0245
 5827SOL    HW128943   2.593   2.952  14.013 -0.9391 -0.4746 -0.3174
 5827SOL    HW228944   2.516   3.066  13.961 -0.7293 -0.6396 -0.1761
 5828SOL     OW28945   1.550   2.285   6.336 -0.0400 -0.3032 -0.5269
 5828SOL    HW128946   1.582   2.366   6.298  0.6418 -0.8676 -1.1638
 5828SOL    HW228947   1.457   2.306   6.336  0.3471  1.3700  0.1912
 5829SOL     OW28948   3.246   3.822   5.509 -0.2669  0.6868  0.0727
 5829SOL    HW128949   3.283   3.740   5.541 -0.9130  0.2498 -0.3048
 5829SOL    HW228950   3.316   3.840   5.445  0.0279  0.0093  0.2020
 5830SOL     OW28951   2.521   4.515   2.443  0.5405 -0.1300  0.0288
 5830SOL    HW128952   2.431   4.548   2.431  0.6156  0.1910  0.3423
 5830SOL    HW228953   2.533   4.473   2.358 -0.9271  1.5918 -1.0568
 5831SOL     OW28954   3.125   0.404  11.352  0.1245  0.6846 -0.3804
 5831SOL    HW128955   3.115   0.473  11.287 -3.7401 -0.6315 -1.1438
 5831SOL    HW228956   3.220   0.395  11.360  0.0775  0.9979  0.6446
 5832SOL     OW28957   2.100   1.747   7.323 -0.0218  0.3473 -0.1122
 5832SOL    HW128958   2.059   1.832   7.312  0.5113  0.2621 -2.7470
 5832SOL    HW228959   2.065   1.705   7.402  0.9479 -1.6928 -0.7680
 5833SOL     OW28960   1.264   3.263  14.253 -0.2792  0.5699 -0.4165
 5833SOL    HW128961   1.256   3.324  14.326 -1.0397 -0.5879  0.4803
 5833SOL    HW228962   1.277   3.183  14.303 -0.5116  1.2526  0.7396
 5834SOL     OW28963   0.179   3.507   6.074 -0.3689  0.8388  0.0087
 5834SOL    HW128964   0.267   3.517   6.039  0.2597  0.3726  1.4363
 5834SOL    HW228965   0.194   3.548   6.160 -3.0609 -1.8924  1.7881
 5835SOL     OW28966   2.185   4.303   0.493 -0.1267 -0.5298 -0.6322
 5835SOL    HW128967   2.210   4.354   0.569 -1.0675 -0.0893 -0.6220
 5835SOL    HW228968   2.261   4.245   0.491  0.3302  0.1178 -1.8773
 5836SOL     OW28969   2.034   1.148  11.635  0.0255  0.0209 -0.2612
 5836SOL    HW128970   1.986   1.104  11.565 -0.9232 -0.8818  0.9766
 5836SOL    HW228971   1.962   1.208  11.652 -2.7683 -2.1793 -4.2785
 5837SOL     OW28972   0.742   2.612   1.436  0.1734  0.5582  0.4304
 5837SOL    HW128973   0.829   2.578   1.416 -0.1398  1.1560 -1.9786
 5837SOL    HW228974   0.723   2.647   1.349 -0.0838  1.8126  0.9917
 5838SOL     OW28975   4.640   4.546   3.297  0.2019 -0.5549  0.1812
 5838SOL    HW128976   4.549   4.578   3.295 -0.2242 -1.8210 -0.4495
 5838SOL    HW228977   4.673   4.606   3.364  1.5079 -0.3245 -0.6840
 5839SOL     OW28978   2.224   2.771  10.566 -0.2390  0.4958  0.1360
 5839SOL    HW128979   2.159   2.701  10.556  2.0627 -1.4622 -1.0971
 5839SOL    HW228980   2.241   2.773  10.660 -0.8842 -2.7021  0.3201
 5840SOL     OW28981   2.739   3.371   5.561  0.2584 -0.2445 -0.5036
 5840SOL    HW128982   2.817   3.324   5.531  0.5376  0.0980 -0.3033
 5840SOL    HW228983   2.768   3.461   5.569 -3.2622  0.5550  3.0384
 5841SOL     OW28984   2.766   0.997   5.074 -0.3987 -0.6029 -0.0611
 5841SOL    HW128985   2.707   1.050   5.021  0.1149 -1.6681 -1.7059
 5841SOL    HW228986   2.848   0.992   5.026 -0.0226  1.7681  0.3336
 5842SOL     OW28987   4.169   0.854   9.985  0.0709 -0.7730  0.6799
 5842SOL    HW128988   4.261   0.879   9.997 -0.4891  0.4418  2.5100
 5842SOL    HW228989   4.130   0.929  10.029 -1.0185  0.4294 -2.3108
 5843SOL     OW28990   1.600   3.163   1.981  0.4669 -0.3864 -0.6918
 5843SOL    HW128991   1.579   3.251   1.950  0.3653 -0.3174 -0.4311
 5843SOL    HW228992   1.693   3.164   1.961  1.0990 -0.4571  2.2023
 5844SOL     OW28993   3.403   1.293   3.342 -0.4478  0.3884  0.8830
 5844SOL    HW128994   3.338   1.355   3.378 -1.5198 -0.6786  0.7948
 5844SOL    HW228995   3.340   1.228   3.309 -0.0087  1.3444 -1.8444
 5845SOL     OW28996   3.642   4.685   0.231 -0.1903 -0.5953  0.5581
 5845SOL    HW128997   3.657   4.599   0.271  0.3915  0.4480  2.6106
 5845SOL    HW228998   3.617   4.652   0.145 -0.7914 -0.7256  0.7822
 5846SOL     OW28999   2.761   4.101   7.959  0.1810  0.4041 -0.0793
 5846SOL    HW129000   2.716   4.018   7.943  1.6704 -0.0046 -2.0177
 5846SOL    HW229001   2.690   4.166   7.952 -0.1793 -0.2268 -2.0104
 5847SOL     OW29002   3.316   1.508   1.191  0.7962  0.4517  0.1163
 5847SOL    HW129003   3.343   1.514   1.100  0.6299 -0.2841  0.0135
 5847SOL    HW229004   3.316   1.602   1.208 -0.0065  0.3866  0.5012
 5848SOL     OW29005   2.293   1.930   0.985  0.5606 -0.4282  0.0477
 5848SOL    HW129006   2.242   2.010   0.972  0.3433 -0.6222 -0.3171
 5848SOL    HW229007   2.265   1.880   0.908  0.9620  0.8356 -0.9170
 5849SOL     OW29008   4.045   0.713   2.176  0.2601  0.6593  0.2589
 5849SOL    HW129009   4.088   0.772   2.238 -0.0765 -0.3787  1.4822
 5849SOL    HW229010   4.105   0.640   2.188 -0.8936 -0.5564 -1.4600
 5850SOL     OW29011   4.268   0.276   3.726  0.0441 -0.2155  0.3085
 5850SOL    HW129012   4.228   0.298   3.642  1.1235 -1.0816 -0.4319
 5850SOL    HW229013   4.302   0.362   3.751  1.4187 -0.5914 -0.3040
 5851SOL     OW29014   3.191   1.141   2.180  0.5775  0.2233 -0.1426
 5851SOL    HW129015   3.286   1.139   2.190  0.5465 -0.4027 -0.0019
 5851SOL    HW229016   3.170   1.224   2.223  1.2608  0.8589 -1.0303
 5852SOL     OW29017   2.698   4.326  11.213 -0.0583 -0.0311  0.6989
 5852SOL    HW129018   2.742   4.410  11.205  1.4833 -1.0282 -1.4083
 5852SOL    HW229019   2.708   4.293  11.123  1.2876 -1.4229  1.3653
 5853SOL     OW29020   1.286   2.066   2.805 -0.2625  0.3863 -0.6079
 5853SOL    HW129021   1.244   2.152   2.800 -1.7971 -0.3598 -0.7415
 5853SOL    HW229022   1.278   2.024   2.719  1.6279 -0.0019 -0.5929
 5854SOL     OW29023   4.481   2.636   6.599 -0.4301 -0.5115 -0.1994
 5854SOL    HW129024   4.521   2.676   6.521 -0.9490 -0.2642 -0.3416
 5854SOL    HW229025   4.449   2.713   6.646  0.3548  0.3258 -1.0342
 5855SOL     OW29026   1.657   0.324   9.092 -0.3270 -0.3050 -0.3148
 5855SOL    HW129027   1.706   0.353   9.168  0.2913  0.0291 -0.8387
 5855SOL    HW229028   1.722   0.339   9.024 -2.0368  1.1880 -1.6305
 5856SOL     OW29029   3.530   0.978   4.199  0.6015  0.4349  0.3662
 5856SOL    HW129030   3.446   0.934   4.214  0.3941  0.8740  0.4683
 5856SOL    HW229031   3.588   0.920   4.249  2.0040 -0.4436 -2.2953
 5857SOL     OW29032   0.607   3.580   7.102 -0.2687  0.2946  0.1060
 5857SOL    HW129033   0.669   3.510   7.079  0.7419  0.1670  3.2049
 5857SOL    HW229034   0.581   3.592   7.011 -2.7371  1.1556  0.9366
 5858SOL     OW29035   1.973   0.638   0.671 -0.0908  0.0273 -0.1895
 5858SOL    HW129036   1.987   0.718   0.620  0.8629  0.9150  1.4616
 5858SOL    HW229037   1.893   0.600   0.637  1.2383 -2.4721 -0.4949
 5859SOL     OW29038   0.947   3.801   3.485  0.3187 -0.0132  0.5225
 5859SOL    HW129039   0.935   3.714   3.447 -0.9322 -0.1269  1.2085
 5859SOL    HW229040   0.950   3.784   3.579  0.6818 -0.1958  0.4799
 5860SOL     OW29041   1.507   1.660   1.027 -0.1749  0.2398 -0.8490
 5860SOL    HW129042   1.496   1.738   0.973  0.9929  1.6650  0.9956
 5860SOL    HW229043   1.599   1.642   1.007  0.3097  0.6846  0.9820
 5861SOL     OW29044   1.610   1.890   8.370  0.2962 -0.4939  0.3651
 5861SOL    HW129045   1.653   1.956   8.425 -1.2119  0.5674  0.2735
 5861SOL    HW229046   1.585   1.820   8.431 -1.1591  0.2323  0.5894
 5862SOL     OW29047   2.356   4.642   2.991  0.5757  0.1350  0.0973
 5862SOL    HW129048   2.383   4.702   3.060  1.0157 -0.3865  0.3828
 5862SOL    HW229049   2.309   4.580   3.046 -0.3367  0.9814  0.2653
 5863SOL     OW29050   1.546   4.360   8.821 -0.3286  0.4040  0.3838
 5863SOL    HW129051   1.485   4.351   8.748 -0.0765 -2.5005  0.4958
 5863SOL    HW229052   1.486   4.353   8.895  0.9687 -0.4016  1.3607
 5864SOL     OW29053   3.640   2.280   5.058 -0.4234  0.3431  0.4383
 5864SOL    HW129054   3.723   2.293   5.012  1.0460 -3.4992  2.0134
 5864SOL    HW229055   3.671   2.233   5.136 -1.1962 -2.8451 -1.1497
 5865SOL     OW29056   4.212   3.241   0.401  0.2735 -0.8799 -0.0340
 5865SOL    HW129057   4.249   3.157   0.430 -1.5405 -0.8968  2.1932
 5865SOL    HW229058   4.140   3.265   0.458 -0.2956  0.0569 -1.1512
 5866SOL     OW29059   2.815   2.402   1.766 -0.6726  0.4694 -0.2596
 5866SOL    HW129060   2.794   2.313   1.793  1.5918  0.1116  0.3188
 5866SOL    HW229061   2.734   2.446   1.791  0.9780  2.4476  1.5691
 5867SOL     OW29062   3.165   0.762   5.235  0.3061  0.4497  0.4523
 5867SOL    HW129063   3.126   0.703   5.300  0.6249 -0.0632  0.1809
 5867SOL    HW229064   3.195   0.834   5.290 -1.3989 -0.8282  3.0808
 5868SOL     OW29065   2.563   4.314   1.612 -0.5217 -0.6693 -0.3347
 5868SOL    HW129066   2.634   4.276   1.663 -1.2046 -1.2724  0.1654
 5868SOL    HW229067   2.612   4.383   1.567  0.5809 -0.1524  1.6798
 5869SOL     OW29068   0.786   2.925   7.223  0.0955  0.1271  0.3219
 5869SOL    HW129069   0.777   3.020   7.220  0.0989  0.1102 -0.2815
 5869SOL    HW229070   0.702   2.901   7.186  0.2540 -0.2214  0.1879
 5870SOL     OW29071   4.352   0.527   3.776  0.4276  0.0507 -0.5199
 5870SOL    HW129072   4.358   0.623   3.775  0.2279  0.0666 -0.3762
 5870SOL    HW229073   4.423   0.500   3.718 -0.2489 -0.2183 -1.2277
 5871SOL     OW29074   2.103   2.676   3.214  0.5034 -0.7069 -0.0417
 5871SOL    HW129075   2.057   2.696   3.296  3.1577  2.3096  0.7321
 5871SOL    HW229076   2.094   2.760   3.169  3.1351 -1.0371 -1.1897
 5872SOL     OW29077   0.447   2.946  14.944 -0.1979  0.7793  0.1127
 5872SOL    HW129078   0.483   2.968  14.858 -1.6109  0.7661 -0.4840
 5872SOL    HW229079   0.430   2.855  14.920 -0.0859 -0.0513  3.1686
 5873SOL     OW29080   0.851   3.581   7.632  0.2870 -0.1856  0.0913
 5873SOL    HW129081   0.888   3.494   7.648  1.8364  0.7343  1.5659
 5873SOL    HW229082   0.778   3.565   7.573 -0.1618 -0.0706  0.6197
 5874SOL     OW29083   3.280   0.205  11.770  0.1110  0.3557  0.8534
 5874SOL    HW129084   3.341   0.168  11.707 -0.3848  0.4770  0.3023
 5874SOL    HW229085   3.204   0.203  11.712  1.9922 -2.3773 -1.5275
 5875SOL     OW29086   1.028   2.929   2.862  0.3149  0.5018  0.1254
 5875SOL    HW129087   0.997   2.954   2.775 -0.4567 -2.1173 -0.3675
 5875SOL    HW229088   1.114   2.969   2.865  0.4235  0.3358 -0.7762
 5876SOL     OW29089   0.285   4.342   2.868 -0.0733 -0.3185 -0.8462
 5876SOL    HW129090   0.333   4.333   2.951 -1.5952 -2.5012 -0.1871
 5876SOL    HW229091   0.194   4.338   2.898  0.2266 -0.0189  0.1112
 5877SOL     OW29092   3.516   4.041   2.965 -0.3361  0.4851  0.1174
 5877SOL    HW129093   3.462   4.030   3.043  1.7037  1.2459  1.6500
 5877SOL    HW229094   3.566   3.960   2.956 -0.6569  0.2770  0.2243
 5878SOL     OW29095   4.174   4.268  11.473  0.0894  0.0831 -0.0589
 5878SOL    HW129096   4.115   4.201  11.440  0.5635 -0.5655  0.4181
 5878SOL    HW229097   4.153   4.265  11.566  0.9174  1.9654  0.1985
 5879SOL     OW29098   1.275   1.874   3.213  0.3177 -0.3836  0.2245
 5879SOL    HW129099   1.309   1.956   3.178 -1.1200 -0.4637 -1.3646
 5879SOL    HW229100   1.190   1.908   3.241  1.2841  1.2808  1.1371
 5880SOL     OW29101   0.965   0.811   6.570  0.5473  0.5304 -0.2355
 5880SOL    HW129102   0.944   0.846   6.483  2.6256 -0.6551 -1.2262
 5880SOL    HW229103   1.044   0.762   6.547  0.7359  0.4712  0.5540
 5881SOL     OW29104   2.900   4.268   4.812 -0.5965  0.6963 -0.0802
 5881SOL    HW129105   2.843   4.263   4.889  0.5364 -0.0027  0.7096
 5881SOL    HW229106   2.843   4.245   4.738 -0.8814  0.8719  0.0806
 5882SOL     OW29107   4.025   1.962   8.795 -0.6540 -0.2924  0.0589
 5882SOL    HW129108   4.096   1.985   8.855 -2.3462  0.3608  1.8054
 5882SOL    HW229109   4.065   1.902   8.732  0.3854  0.0600  0.3941
 5883SOL     OW29110   3.703   4.523   2.679 -0.1241  0.5851  0.6310
 5883SOL    HW129111   3.618   4.479   2.687 -0.3087  0.6147 -1.3018
 5883SOL    HW229112   3.689   4.581   2.604 -1.8168  1.1890  1.4054
 5884SOL     OW29113   1.114   0.593   8.770 -0.3675 -0.2969  0.3516
 5884SOL    HW129114   1.167   0.609   8.849  1.0579  0.8625 -0.8449
 5884SOL    HW229115   1.063   0.516   8.796 -1.2444  0.2752  0.3150
 5885SOL     OW29116   1.996   1.484   3.213  0.1170 -0.2872  0.0579
 5885SOL    HW129117   2.030   1.510   3.299  1.6386  3.7475 -1.7534
 5885SOL    HW229118   2.077   1.452   3.174 -0.6575 -1.1308 -0.8503
 5886SOL     OW29119   3.667   2.565   7.023  0.4921  0.0128 -0.1263
 5886SOL    HW129120   3.721   2.498   7.065  0.4249  0.8236  1.2469
 5886SOL    HW229121   3.618   2.599   7.098  0.9557 -0.0172  0.1860
 5887SOL     OW29122   4.490   1.544  10.496  0.0114  0.1995  0.5866
 5887SOL    HW129123   4.445   1.627  10.484  0.7166  0.4335 -0.4034
 5887SOL    HW229124   4.428   1.479  10.465  0.1059  0.4476 -0.1112
 5888SOL     OW29125   2.894   2.907   6.897 -0.0398 -0.2306  0.2647
 5888SOL    HW129126   2.922   2.998   6.902  0.7130 -0.4023 -1.1021
 5888SOL    HW229127   2.833   2.913   6.824 -2.1872 -2.4975  1.8558
 5889SOL     OW29128   2.715   3.197   5.786 -0.0751 -0.1741  0.0084
 5889SOL    HW129129   2.707   3.278   5.735  0.6627 -0.1124 -0.0100
 5889SOL    HW229130   2.766   3.144   5.725  0.9306 -1.3311  1.8398
 5890SOL     OW29131   0.284   0.524   8.209 -0.2647 -0.1752  0.4923
 5890SOL    HW129132   0.226   0.485   8.275 -0.1458 -1.9149 -0.4337
 5890SOL    HW229133   0.296   0.607   8.255  1.7453 -0.3731  0.3161
 5891SOL     OW29134   1.907   1.584  11.824 -0.5263  0.2152 -0.4838
 5891SOL    HW129135   1.939   1.584  11.734 -2.3449 -0.3844 -1.1262
 5891SOL    HW229136   1.937   1.669  11.855  0.3915 -0.4039  0.3387
 5892SOL     OW29137   2.637   3.292   3.377 -0.7317  0.0095  0.0131
 5892SOL    HW129138   2.710   3.303   3.315 -0.5666  2.8337  0.6774
 5892SOL    HW229139   2.655   3.367   3.434 -0.9041  0.5164 -0.5941
 5893SOL     OW29140   1.615   3.901   3.493  0.1250  0.0705  0.0011
 5893SOL    HW129141   1.579   3.823   3.534 -0.1034  0.0750 -0.1955
 5893SOL    HW229142   1.548   3.968   3.507 -0.9249 -0.9585 -0.2095
 5894SOL     OW29143   3.941   1.593   3.506  0.6668 -0.4723  0.0098
 5894SOL    HW129144   3.930   1.526   3.438  2.4464  0.7314 -1.4742
 5894SOL    HW229145   3.850   1.621   3.516  1.2195  1.3330 -0.0728
 5895SOL     OW29146   0.745   0.086   2.642  0.2314  0.4002 -0.4458
 5895SOL    HW129147   0.770   0.176   2.664  0.0008  0.2605  0.3848
 5895SOL    HW229148   0.797   0.025   2.694 -1.8154  0.8104  2.0838
 5896SOL     OW29149   3.491   1.389  12.187 -0.1062 -0.1174  0.1151
 5896SOL    HW129150   3.484   1.467  12.132  0.0542 -0.2235 -0.0563
 5896SOL    HW229151   3.563   1.412  12.246 -0.0623  0.9723 -0.3685
 5897SOL     OW29152   0.905   1.725   5.519  0.8077  0.0721 -0.6760
 5897SOL    HW129153   0.919   1.730   5.613  1.4814 -0.5671 -0.7442
 5897SOL    HW229154   0.961   1.649   5.504  1.1789  0.4082 -0.9781
 5898SOL     OW29155   1.929   4.518  10.036  0.1386  0.6073 -0.1864
 5898SOL    HW129156   1.939   4.498   9.943  0.8431  0.0414  0.0141
 5898SOL    HW229157   1.861   4.459  10.070  0.1724  0.5417 -0.2310
 5899SOL     OW29158   1.701   0.857   5.113  0.1141 -0.0960 -0.2552
 5899SOL    HW129159   1.775   0.865   5.174  0.8212 -4.3292 -0.5925
 5899SOL    HW229160   1.625   0.859   5.171 -0.8115 -0.2970 -1.4684
 5900SOL     OW29161   1.208   1.023   6.843 -0.1039  0.2836 -0.3742
 5900SOL    HW129162   1.131   1.075   6.868  0.7861  1.3970  0.0615
 5900SOL    HW229163   1.173   0.973   6.770  2.4671 -1.2199 -0.5623
 5901SOL     OW29164   0.632   1.957  15.046 -0.1089  0.3511  0.3794
 5901SOL    HW129165   0.641   1.927  15.137  2.1002 -2.6189 -0.8094
 5901SOL    HW229166   0.719   1.996  15.040  0.0382  0.0391  0.4554
 5902SOL     OW29167   0.381   3.578   8.276 -0.1768  0.2517 -0.0267
 5902SOL    HW129168   0.444   3.627   8.328 -0.9688 -0.2820  1.4331
 5902SOL    HW229169   0.353   3.511   8.339 -1.1215 -0.6725 -1.4384
 5903SOL     OW29170   0.460   0.601   4.165  0.3450  0.0258 -0.7879
 5903SOL    HW129171   0.514   0.629   4.090  2.8354  1.8852  1.6955
 5903SOL    HW229172   0.520   0.542   4.210 -0.5113  0.0579  0.3941
 5904SOL     OW29173   1.660   4.362   5.997  0.2255  0.5192  0.2054
 5904SOL    HW129174   1.719   4.406   6.058  0.3107  0.1937  0.3579
 5904SOL    HW229175   1.587   4.419   6.019 -0.0584  0.8535 -1.5898
 5905SOL     OW29176   3.020   3.205  11.763 -0.1300  0.7612 -0.1402
 5905SOL    HW129177   3.047   3.147  11.692 -2.8435 -0.3763 -0.2342
 5905SOL    HW229178   3.018   3.145  11.837  0.0830  1.7863  0.7067
 5906SOL     OW29179   3.741   2.499   8.752 -0.3987 -0.5545 -0.0865
 5906SOL    HW129180   3.667   2.439   8.762 -2.8178  2.4602  0.4017
 5906SOL    HW229181   3.704   2.587   8.758 -0.6321 -0.7423  1.3857
 5907SOL     OW29182   1.697   3.180   2.856  0.5061 -0.3321 -0.1524
 5907SOL    HW129183   1.618   3.188   2.801  0.6191  0.9268 -0.1233
 5907SOL    HW229184   1.699   3.270   2.887  1.2893 -1.1536  2.1474
 5908SOL     OW29185   0.701   0.915   2.502  0.3187  0.4027  0.5408
 5908SOL    HW129186   0.704   0.820   2.494 -1.3959  0.2651  1.7535
 5908SOL    HW229187   0.757   0.937   2.427 -1.2672 -0.7557 -0.9714
 5909SOL     OW29188   0.530   0.180   6.674  0.5895  0.4163 -0.7344
 5909SOL    HW129189   0.532   0.233   6.594 -0.1028 -0.2399 -1.1868
 5909SOL    HW229190   0.516   0.244   6.743  0.5891 -0.5668  0.1672
 5910SOL     OW29191   1.640   0.126   7.532  0.4362  0.3849  0.2538
 5910SOL    HW129192   1.730   0.147   7.559  0.3535  1.8723 -0.6383
 5910SOL    HW229193   1.598   0.167   7.608  2.5636  0.3269  1.4865
 5911SOL     OW29194   3.087   1.100  17.540 -0.2798  0.4457  0.0416
 5911SOL    HW129195   3.160   1.161  17.533 -0.8202  1.0863 -0.0961
 5911SOL    HW229196   3.053   1.117  17.628  0.1927  1.3790  0.0501
 5912SOL     OW29197   4.195   3.054  14.670  0.3350 -0.6855 -0.2597
 5912SOL    HW129198   4.127   2.989  14.690  0.0313  0.2284  1.6984
 5912SOL    HW229199   4.222   3.081  14.758 -1.7763  0.7900 -0.0700
 5913SOL     OW29200   3.896   0.088   1.001  0.5439  0.3816 -0.3802
 5913SOL    HW129201   3.925   0.179   1.016 -2.6703  1.6274 -1.8294
 5913SOL    HW229202   3.965   0.050   0.947  1.1524  1.5782 -0.4426
 5914SOL     OW29203   2.416   1.384   0.617 -0.2352 -0.8008 -0.0632
 5914SOL    HW129204   2.381   1.342   0.696  0.1112  1.3951  1.2520
 5914SOL    HW229205   2.366   1.466   0.626  1.0221 -0.0910  0.3770
 5915SOL     OW29206   2.294   2.592   4.326 -0.4096 -0.3368 -0.3722
 5915SOL    HW129207   2.292   2.503   4.363 -0.7187 -0.1971 -0.0459
 5915SOL    HW229208   2.299   2.553   4.239  1.4233 -0.3002 -0.2748
 5916SOL     OW29209   2.488   0.818  14.087  0.0639  0.1014 -0.2420
 5916SOL    HW129210   2.581   0.810  14.108  0.0238 -0.0599 -0.1242
 5916SOL    HW229211   2.441   0.859  14.160  2.0293  1.3893  0.3141
 5917SOL     OW29212   1.688   1.802   9.231 -0.1601 -0.2611  0.2919
 5917SOL    HW129213   1.732   1.874   9.185  1.5003 -0.3740  1.6968
 5917SOL    HW229214   1.759   1.742   9.252 -0.1540 -0.6036 -0.7108
 5918SOL     OW29215   0.400   0.992   7.399 -0.0481 -0.5464 -0.6615
 5918SOL    HW129216   0.462   0.957   7.464 -0.9648 -2.2004 -0.6748
 5918SOL    HW229217   0.448   0.981   7.317  1.3541  1.7242 -0.1528
 5919SOL     OW29218   3.223   4.674   5.032 -0.8877  0.3354  0.2722
 5919SOL    HW129219   3.258   4.605   5.089  0.5988 -1.4382 -2.7989
 5919SOL    HW229220   3.280   0.023   5.059 -2.9227  1.9077  0.3165
 5920SOL     OW29221   2.297   2.684   7.909  0.6027 -0.2060 -0.7805
 5920SOL    HW129222   2.276   2.758   7.852 -0.3657  1.0690  1.2444
 5920SOL    HW229223   2.352   2.719   7.979  0.5586  0.9859 -1.3329
 5921SOL     OW29224   3.070   3.339   7.439 -0.4769  0.1348 -0.0873
 5921SOL    HW129225   3.139   3.343   7.373 -2.8974  2.2746 -2.5019
 5921SOL    HW229226   2.995   3.314   7.385  1.2578 -0.1995 -2.3538
 5922SOL     OW29227   4.610   2.839  11.233  0.3687  0.1684  0.8231
 5922SOL    HW129228   4.625   2.774  11.302  1.1095  0.1536  0.6446
 5922SOL    HW229229   4.539   2.788  11.193  0.3251  2.0890 -1.4702
 5923SOL     OW29230   1.342   2.185  16.195  0.0359  0.7115 -0.3691
 5923SOL    HW129231   1.399   2.235  16.254 -0.6917 -0.2328  1.1309
 5923SOL    HW229232   1.332   2.249  16.125 -1.4586  1.8440  0.8923
 5924SOL     OW29233   3.327   3.585   5.297 -0.0731 -0.9373 -0.5165
 5924SOL    HW129234   3.413   3.621   5.318 -2.0657  3.0605  0.8258
 5924SOL    HW229235   3.343   3.535   5.217 -0.2189  1.5685 -2.0987
 5925SOL     OW29236   0.997   4.269  14.692 -0.1495  0.1028 -0.2288
 5925SOL    HW129237   0.918   4.216  14.679 -0.3373  0.2972  0.1208
 5925SOL    HW229238   1.042   4.259  14.609  2.9983  1.1520  1.3584
 5926SOL     OW29239   1.107   3.418   3.720 -0.1281  0.4944 -0.6199
 5926SOL    HW129240   1.027   3.429   3.771 -0.4124  2.7073 -1.5471
 5926SOL    HW229241   1.132   3.326   3.728 -0.9066  0.2377 -1.2429
 5927SOL     OW29242   4.196   3.092   2.767  0.2388  0.3365 -0.1490
 5927SOL    HW129243   4.235   3.064   2.850  0.1696  1.1414  0.1595
 5927SOL    HW229244   4.214   3.013   2.716  0.2759  0.2580 -0.0138
 5928SOL     OW29245   4.136   0.656   4.818  0.1486  0.4229 -0.4091
 5928SOL    HW129246   4.094   0.697   4.742  0.2214 -0.6733 -1.0414
 5928SOL    HW229247   4.060   0.622   4.864  0.2902 -2.0721 -2.0373
 5929SOL     OW29248   4.192   2.873   3.150 -0.1698  0.2473 -0.0654
 5929SOL    HW129249   4.268   2.913   3.108  0.8872  0.1073  1.7146
 5929SOL    HW229250   4.138   2.861   3.072 -0.1712 -1.2603  0.1691
 5930SOL     OW29251   3.441   2.167  13.060  0.2816  0.1675  0.1883
 5930SOL    HW129252   3.402   2.128  13.138 -2.4517  0.8020 -0.8488
 5930SOL    HW229253   3.531   2.166  13.092  0.0460  0.1029  0.8569
 5931SOL     OW29254   0.012   3.405   8.036  0.0732 -0.1245  1.1065
 5931SOL    HW129255   0.078   3.342   8.005 -0.6792 -0.0607 -0.6601
 5931SOL    HW229256   0.064   3.482   8.014 -2.2468  1.0781 -0.1584
 5932SOL     OW29257   3.313   0.294   1.714  0.0076  0.2987  0.4987
 5932SOL    HW129258   3.250   0.234   1.675  0.5752 -1.2367  1.9455
 5932SOL    HW229259   3.303   0.380   1.674  2.5801  0.0271 -0.7209
 5933SOL     OW29260   1.616   4.538   4.450 -0.0466 -0.1696  0.1763
 5933SOL    HW129261   1.579   4.457   4.486 -0.1070 -1.7331 -3.3416
 5933SOL    HW229262   1.668   4.499   4.379  1.0936  1.7208 -0.0069
 5934SOL     OW29263   3.520   3.982   2.381  0.0680  0.4815 -0.1264
 5934SOL    HW129264   3.484   3.991   2.292 -1.1345  0.2220  0.3326
 5934SOL    HW229265   3.611   4.011   2.371  0.0367  0.3820 -0.7141
 5935SOL     OW29266   1.518   1.391  14.239 -0.6423 -0.4611 -0.2381
 5935SOL    HW129267   1.442   1.399  14.182 -1.5434  0.3498  1.0655
 5935SOL    HW229268   1.535   1.298  14.222  2.4395  0.4968 -2.4120
 5936SOL     OW29269   4.219   4.447   8.256  0.1428  0.2707 -0.7802
 5936SOL    HW129270   4.233   4.540   8.276 -0.2185  0.5299 -1.7310
 5936SOL    HW229271   4.124   4.439   8.268  0.5007 -1.7151  0.5855
 5937SOL     OW29272   4.642   3.129   8.422 -0.0488  0.0069 -0.6869
 5937SOL    HW129273   4.670   3.213   8.387 -0.9468  0.8757  0.6548
 5937SOL    HW229274   4.690   3.064   8.372  1.3807  0.7193 -0.2397
 5938SOL     OW29275   1.008   3.838   2.027 -0.5648 -0.5392  0.6523
 5938SOL    HW129276   1.001   3.846   2.122  1.0282 -1.7403  0.8588
 5938SOL    HW229277   0.935   3.780   2.004 -0.8177  0.1484 -0.2632
 5939SOL     OW29278   2.209   3.325  16.245 -0.0255  0.0181  0.3611
 5939SOL    HW129279   2.268   3.250  16.233 -3.0371 -2.8207  3.2630
 5939SOL    HW229280   2.232   3.381  16.171  0.2091 -0.6291 -0.0543
 5940SOL     OW29281   1.578   4.697  10.830 -0.4007  0.2188  0.0675
 5940SOL    HW129282   1.492   4.722  10.797  0.1570 -0.9303 -2.2888
 5940SOL    HW229283   1.636   0.029  10.778  1.1419  0.4408  2.0067
 5941SOL     OW29284   3.233   3.394   7.636 -0.2613 -0.4394 -0.3148
 5941SOL    HW129285   3.177   3.343   7.577  2.2005 -3.2748 -0.2263
 5941SOL    HW229286   3.178   3.465   7.667  0.7853  1.3611 -2.5532
 5942SOL     OW29287   4.496   3.550   3.345 -0.4997 -0.3303 -0.1405
 5942SOL    HW129288   4.533   3.549   3.433 -0.1874  2.9249 -0.2362
 5942SOL    HW229289   4.576   3.558   3.292 -1.3696  0.8629 -1.2596
 5943SOL     OW29290   4.179   3.767  12.452 -0.4729  0.7167  0.2096
 5943SOL    HW129291   4.132   3.700  12.403  2.1829  0.1099 -1.5255
 5943SOL    HW229292   4.214   3.827  12.387  0.4201  0.2086  0.2174
 5944SOL     OW29293   3.697   4.243  15.395  0.0950 -0.7017  0.2605
 5944SOL    HW129294   3.672   4.155  15.421 -2.5627 -0.0084  0.0425
 5944SOL    HW229295   3.629   4.263  15.331  1.7315  0.7934 -1.0411
 5945SOL     OW29296   1.544   3.471  17.002 -0.7848  0.0879 -0.2653
 5945SOL    HW129297   1.539   3.563  16.977 -2.5619 -0.4847 -1.9998
 5945SOL    HW229298   1.541   3.489  17.096  0.2316  0.8327 -0.3694
 5946SOL     OW29299   4.197   2.042   8.178  0.8500  0.2700  0.6340
 5946SOL    HW129300   4.212   2.100   8.252  0.6026 -1.0971  1.7568
 5946SOL    HW229301   4.284   2.039   8.138  0.3419 -0.2799 -0.4246
 5947SOL     OW29302   0.935   0.418  11.755 -0.9605  0.0632  0.5540
 5947SOL    HW129303   0.958   0.421  11.848  0.4787 -3.0026  0.3125
 5947SOL    HW229304   0.967   0.333  11.726 -0.4609 -0.1283  1.6725
 5948SOL     OW29305   3.837   1.820   6.308 -1.0361  0.2343 -0.1304
 5948SOL    HW129306   3.838   1.892   6.245 -2.9985 -0.3558 -0.8156
 5948SOL    HW229307   3.921   1.842   6.349 -0.8985  0.0925 -0.3389
 5949SOL     OW29308   2.319   0.468  13.906 -0.0603 -0.1076 -0.4738
 5949SOL    HW129309   2.401   0.501  13.869  0.3419  1.2463  1.6053
 5949SOL    HW229310   2.299   0.408  13.834  0.2333 -1.3246  0.4752
 5950SOL     OW29311   3.245   1.234  12.184  0.0049 -0.0228 -0.1092
 5950SOL    HW129312   3.301   1.311  12.174  0.7950 -0.6857 -0.7641
 5950SOL    HW229313   3.233   1.206  12.093  2.2401 -0.9827 -0.1062
 5951SOL     OW29314   2.300   2.103   0.664  0.3085 -0.2321  0.2848
 5951SOL    HW129315   2.354   2.024   0.651 -0.7966 -1.2173  1.7595
 5951SOL    HW229316   2.220   2.071   0.622  0.7419  0.9339 -1.4162
 5952SOL     OW29317   0.145   2.413  17.186  0.0161  0.6388 -0.6637
 5952SOL    HW129318   0.197   2.487  17.217  0.6994  0.3639 -1.1571
 5952SOL    HW229319   0.135   2.446  17.096  3.4151 -0.9327 -1.6128
 5953SOL     OW29320   1.908   1.823   5.091 -0.4567  0.6153  0.6731
 5953SOL    HW129321   1.931   1.910   5.057  0.1999  1.3872  3.1475
 5953SOL    HW229322   1.965   1.814   5.167  1.0521 -0.4090 -0.5831
 5954SOL     OW29323   3.542   4.432   3.528 -0.4307  0.0820  0.1398
 5954SOL    HW129324   3.604   4.361   3.510 -0.3197 -0.0078  0.8628
 5954SOL    HW229325   3.581   4.503   3.478  0.7614  2.2051  4.0723
 5955SOL     OW29326   3.630   4.142  13.421 -0.5441  0.7983 -0.0143
 5955SOL    HW129327   3.672   4.133  13.335  0.1600 -0.0958  0.4253
 5955SOL    HW229328   3.697   4.109  13.481 -0.3930  0.7526 -0.2096
 5956SOL     OW29329   0.399   2.278   1.784 -0.3559 -0.3453 -0.5091
 5956SOL    HW129330   0.486   2.267   1.823 -0.5733 -1.6804 -0.3881
 5956SOL    HW229331   0.366   2.360   1.821  0.3465 -0.0977 -0.4336
 5957SOL     OW29332   4.288   4.039  16.154  0.0400 -0.5670  0.0721
 5957SOL    HW129333   4.349   3.965  16.158 -0.8404 -1.1804  2.0502
 5957SOL    HW229334   4.300   4.079  16.240  0.1827 -0.4720  0.0073
 5958SOL     OW29335   0.116   3.000   6.411  0.4458 -0.0820  0.2397
 5958SOL    HW129336   0.202   2.958   6.417  0.0285 -1.2710 -2.4519
 5958SOL    HW229337   0.086   2.987   6.321  2.9282 -3.7639 -0.0692
 5959SOL     OW29338   0.743   3.231  13.595 -0.9132 -0.2477 -0.1930
 5959SOL    HW129339   0.830   3.214  13.561 -0.7445  1.3297 -0.5681
 5959SOL    HW229340   0.742   3.205  13.687 -0.2331  0.8741  0.1333
 5960SOL     OW29341   3.765   2.676   2.711 -0.4863 -0.2885 -0.0599
 5960SOL    HW129342   3.730   2.622   2.641  2.0780 -3.6040  1.2396
 5960SOL    HW229343   3.822   2.731   2.657 -0.1715  1.7690  2.3801
 5961SOL     OW29344   2.730   0.081   2.726 -0.1197 -0.1741 -0.3237
 5961SOL    HW129345   2.728   0.020   2.800 -1.3705  0.4079  0.1126
 5961SOL    HW229346   2.771   0.023   2.661  1.6545  0.2014  0.4619
 5962SOL     OW29347   3.206   2.873  11.384  0.7314 -0.0032  0.1200
 5962SOL    HW129348   3.277   2.910  11.436 -0.2122  1.2327  0.5318
 5962SOL    HW229349   3.248   2.799  11.340 -0.9722 -1.1228  0.3539
 5963SOL     OW29350   3.934   1.757  14.721 -0.6978 -0.0888  0.7907
 5963SOL    HW129351   3.973   1.675  14.752 -0.9010 -1.1201 -1.7067
 5963SOL    HW229352   3.871   1.779  14.789 -1.6064 -1.7113  0.4528
 5964SOL     OW29353   3.047   1.182   2.813  0.1611  0.1442 -0.5503
 5964SOL    HW129354   3.053   1.275   2.833 -0.0802  0.1272 -0.3973
 5964SOL    HW229355   3.036   1.183   2.718  1.2940  0.9843 -0.6823
 5965SOL     OW29356   2.570   4.060  14.274  0.1707 -0.2717 -0.0454
 5965SOL    HW129357   2.594   4.153  14.277 -0.2765 -0.1219 -1.2513
 5965SOL    HW229358   2.520   4.052  14.193 -2.5675  1.6533  1.4889
 5966SOL     OW29359   4.545   2.884   5.453  0.6011 -0.0451  0.4380
 5966SOL    HW129360   4.501   2.963   5.422  0.7617  0.8756  2.5399
 5966SOL    HW229361   4.576   2.916   5.538 -0.2829 -1.2922  1.2415
 5967SOL     OW29362   2.391   4.090   2.815  0.2025 -0.3971 -0.3735
 5967SOL    HW129363   2.443   4.152   2.765  0.8121  0.3026  1.1371
 5967SOL    HW229364   2.393   4.128   2.903 -2.5883  1.0877 -0.9339
 5968SOL     OW29365   4.237   2.225   8.369  0.0357  0.0117 -0.0009
 5968SOL    HW129366   4.253   2.203   8.461 -1.8816  0.7908  0.5138
 5968SOL    HW229367   4.166   2.289   8.372  1.0980  1.1059  1.6217
 5969SOL     OW29368   3.545   0.141   3.363  0.0217  0.4823 -0.2057
 5969SOL    HW129369   3.539   0.048   3.386  0.1235  0.3706 -0.6201
 5969SOL    HW229370   3.606   0.130   3.290  1.2517 -1.4749  1.0964
 5970SOL     OW29371   2.438   1.303   3.115 -0.0410  0.0492  0.1264
 5970SOL    HW129372   2.500   1.358   3.164  2.5999 -1.4690 -1.5096
 5970SOL    HW229373   2.434   1.347   3.030  0.1974  1.7862  1.0136
 5971SOL     OW29374   2.060   0.263   4.564 -0.0514  0.2858 -0.1300
 5971SOL    HW129375   2.123   0.195   4.586  0.8150  0.6508 -1.4898
 5971SOL    HW229376   2.051   0.311   4.647 -1.0937  2.3860 -1.4580
 5972SOL     OW29377   2.280   0.701   6.925  0.4003 -0.0177  0.3700
 5972SOL    HW129378   2.195   0.729   6.960  0.1312  0.6300 -0.7935
 5972SOL    HW229379   2.264   0.607   6.927  2.6171 -0.3920 -0.2725
 5973SOL     OW29380   2.749   4.041   0.128  0.3474  0.0138 -0.0478
 5973SOL    HW129381   2.779   3.950   0.134  0.5716  0.1871  1.5364
 5973SOL    HW229382   2.835   4.081   0.117 -1.0339  2.9719 -0.0793
 5974SOL     OW29383   2.564   1.318   6.693  0.2669 -0.5586  0.5257
 5974SOL    HW129384   2.575   1.363   6.777  1.4402  0.5683 -0.2415
 5974SOL    HW229385   2.628   1.247   6.700  2.2487  1.2528  0.9787
 5975SOL     OW29386   3.861   2.318   8.079  0.0349  0.8022 -0.0118
 5975SOL    HW129387   3.884   2.322   8.171  0.0007 -1.6600  0.1221
 5975SOL    HW229388   3.865   2.225   8.056  0.1508  0.4351  1.5035
 5976SOL     OW29389   3.353   4.647  15.148 -0.0045  0.1140 -0.2106
 5976SOL    HW129390   3.386   4.643  15.058  3.8300  1.0609  1.1659
 5976SOL    HW229391   3.266   4.614  15.122 -0.4152  0.9931  0.0571
 5977SOL     OW29392   3.965   1.078  11.763 -0.0183  0.2813 -0.9332
 5977SOL    HW129393   3.939   1.128  11.840  0.0007 -2.9881  1.2095
 5977SOL    HW229394   3.932   1.135  11.693 -0.2022 -0.5208 -1.5094
 5978SOL     OW29395   3.042   1.516   7.073 -0.1573  0.2975 -0.5119
 5978SOL    HW129396   3.030   1.610   7.081  0.1426  0.2515  0.4062
 5978SOL    HW229397   2.956   1.474   7.087 -1.0786  2.5415  0.5112
 5979SOL     OW29398   4.240   2.964   7.563  0.6008 -0.2187  0.3086
 5979SOL    HW129399   4.295   2.915   7.624  0.4034 -0.1848  0.5128
 5979SOL    HW229400   4.166   3.001   7.610  0.5154 -1.0644  0.8329
 5980SOL     OW29401   4.479   2.735   6.126  0.0179 -0.0452 -0.1466
 5980SOL    HW129402   4.535   2.684   6.066 -2.1410 -1.7204 -0.7486
 5980SOL    HW229403   4.414   2.669   6.149  2.1717 -1.5346  1.7189
 5981SOL     OW29404   3.602   1.982   4.471  0.1212 -0.1021  0.0466
 5981SOL    HW129405   3.615   1.925   4.395  0.3560 -0.9718  0.7412
 5981SOL    HW229406   3.573   1.916   4.534  2.0514 -0.7042  0.3160
 5982SOL     OW29407   4.324   3.831  10.495  0.3221  0.0702 -0.6919
 5982SOL    HW129408   4.240   3.795  10.526 -0.1039  1.1640 -0.6008
 5982SOL    HW229409   4.371   3.748  10.509  1.8025  1.2835  1.5429
 5983SOL     OW29410   1.221   4.266   7.677  0.0919  0.0148 -0.2391
 5983SOL    HW129411   1.164   4.325   7.725  0.3652  0.3603 -0.3431
 5983SOL    HW229412   1.307   4.298   7.703  0.0625  0.0854 -0.2286
 5984SOL     OW29413   3.135   0.862   0.094 -0.0139 -0.1368  0.4012
 5984SOL    HW129414   3.228   0.865   0.073  0.3202 -1.3595  1.6856
 5984SOL    HW229415   3.113   0.955   0.097 -0.9682 -0.3552  0.2828
 5985SOL     OW29416   2.967   4.646   6.215  0.0786 -0.3196 -0.4431
 5985SOL    HW129417   2.985   0.013   6.241  1.7612 -1.1281  1.1987
 5985SOL    HW229418   2.988   4.660   6.123 -0.0860 -0.3326 -0.4820
 5986SOL     OW29419   4.421   4.383   5.190  0.0071  0.2450 -0.4412
 5986SOL    HW129420   4.509   4.415   5.169  0.3960  0.3397  1.3232
 5986SOL    HW229421   4.400   4.442   5.262 -0.5921  0.5763 -0.8908
 5987SOL     OW29422   3.837   1.954   8.991  0.2223 -0.3766 -0.0099
 5987SOL    HW129423   3.892   1.928   8.917  1.0604  1.6416 -0.0804
 5987SOL    HW229424   3.903   1.956   9.060 -0.1190 -0.6621  0.3299
 5988SOL     OW29425   3.473   1.001   5.522 -0.1231 -0.0932  0.4069
 5988SOL    HW129426   3.484   1.053   5.443  1.5196  0.3410  0.9350
 5988SOL    HW229427   3.382   0.976   5.508 -0.7680  2.9825 -0.8526
 5989SOL     OW29428   0.576   2.962  14.316 -0.2975  0.0995  0.4464
 5989SOL    HW129429   0.624   2.951  14.234 -2.4793  2.5684 -1.1559
 5989SOL    HW229430   0.647   2.987  14.377 -0.7103  1.6379  0.2983
 5990SOL     OW29431   1.074   1.872   5.399  0.3953 -0.0403  0.5806
 5990SOL    HW129432   1.093   1.820   5.322  0.6372  0.4891  0.2836
 5990SOL    HW229433   1.002   1.822   5.437 -0.6855  0.5551 -0.6908
 5991SOL     OW29434   3.895   1.566   8.931  0.3595  0.1326  0.1161
 5991SOL    HW129435   3.866   1.475   8.936  0.5463  0.0787  0.2364
 5991SOL    HW229436   3.833   1.610   8.989 -2.7812 -3.8013 -0.2769
 5992SOL     OW29437   0.379   4.038   3.852 -0.0264 -1.0225  0.1879
 5992SOL    HW129438   0.404   3.962   3.800  0.2944 -1.0002  0.3086
 5992SOL    HW229439   0.286   4.039   3.831  0.0651  3.0922  0.0435
 5993SOL     OW29440   3.472   0.486   3.949 -0.2741 -0.1375 -0.0191
 5993SOL    HW129441   3.538   0.539   3.906  0.8793 -2.4702 -1.1342
 5993SOL    HW229442   3.455   0.540   4.026 -2.7777 -1.1595  0.1720
 5994SOL     OW29443   3.460   3.087   8.868 -0.9251 -0.5260 -0.1199
 5994SOL    HW129444   3.402   3.153   8.831 -0.2861  0.0652 -0.0618
 5994SOL    HW229445   3.513   3.133   8.934 -1.1331 -0.2093 -0.1748
 5995SOL     OW29446   2.621   3.703   2.319  0.5630 -0.1766 -0.1082
 5995SOL    HW129447   2.689   3.676   2.380  0.8661  0.4690 -0.1613
 5995SOL    HW229448   2.671   3.677   2.241  4.0235  0.8405  1.7723
 5996SOL     OW29449   1.756   2.343  16.143  0.4741 -0.0148  0.8927
 5996SOL    HW129450   1.799   2.358  16.059  0.1886 -2.0880  0.4006
 5996SOL    HW229451   1.817   2.281  16.183 -0.0074  1.0618  3.2892
 5997SOL     OW29452   0.258   1.711  15.877  0.2668 -0.1264  0.0919
 5997SOL    HW129453   0.271   1.657  15.955  1.3038 -3.8641 -2.6912
 5997SOL    HW229454   0.202   1.659  15.819  0.9091 -0.2422 -0.4195
 5998SOL     OW29455   2.344   2.297   4.985 -0.0157  0.0645 -0.4119
 5998SOL    HW129456   2.384   2.383   4.978  0.1143 -0.1509 -2.4303
 5998SOL    HW229457   2.366   2.268   4.896  3.0086 -2.1121  1.0426
 5999SOL     OW29458   4.523   4.167   5.944 -0.5294 -0.3196  0.4249
 5999SOL    HW129459   4.448   4.172   5.885 -0.1448  1.2039  0.0521
 5999SOL    HW229460   4.470   4.143   6.019 -1.6550 -2.5985 -1.1143
 6000SOL     OW29461   1.138   2.106   8.363  0.3177  0.5016  0.1051
 6000SOL    HW129462   1.169   2.193   8.390 -0.8078  0.5452  1.2597
 6000SOL    HW229463   1.144   2.065   8.449  0.4349  0.1554 -0.0697
 6001SOL     OW29464   1.386   0.757   4.894  0.3760 -0.2940  0.2842
 6001SOL    HW129465   1.379   0.791   4.983  1.8271 -0.0287  0.2929
 6001SOL    HW229466   1.422   0.832   4.847  0.1823 -0.1626  0.3482
 6002SOL     OW29467   4.185   4.309  13.132  0.4650 -0.2309  0.4401
 6002SOL    HW129468   4.170   4.215  13.126 -0.4808  0.1136 -2.3303
 6002SOL    HW229469   4.262   4.310  13.075 -1.5701  1.1872 -2.2512
 6003SOL     OW29470   0.521   0.166   5.494  0.1037  0.2415  0.3532
 6003SOL    HW129471   0.496   0.100   5.430  0.9272  0.0502  0.2392
 6003SOL    HW229472   0.469   0.138   5.569  0.0625  1.8652  0.9244
 6004SOL     OW29473   0.841   4.149   8.503  0.5205  0.2258 -0.1381
 6004SOL    HW129474   0.870   4.235   8.534 -1.1094 -0.0885  2.1923
 6004SOL    HW229475   0.889   4.095   8.565  0.5808  2.4078  1.7087
 6005SOL     OW29476   4.330   0.376   2.619 -0.0055  0.2438 -0.0537
 6005SOL    HW129477   4.378   0.410   2.543  1.9995 -3.2856 -0.3690
 6005SOL    HW229478   4.243   0.371   2.581 -0.4749 -0.7721  1.1618
 6006SOL     OW29479   4.642   1.831   4.820  0.0479  0.8297  0.5171
 6006SOL    HW129480   4.551   1.835   4.793  0.1000 -0.3955  0.1343
 6006SOL    HW229481   4.664   1.920   4.848 -1.1819  1.1860  0.3169
 6007SOL     OW29482   3.138   0.910   3.134 -0.0502  0.5852  0.0046
 6007SOL    HW129483   3.214   0.885   3.081  0.5923 -0.7343  1.5370
 6007SOL    HW229484   3.085   0.968   3.079 -0.6147 -0.5185 -0.5992
 6008SOL     OW29485   0.980   3.851   3.136 -0.2839 -0.0341  0.1511
 6008SOL    HW129486   1.009   3.781   3.077 -2.7765  1.1800 -2.4778
 6008SOL    HW229487   0.986   3.924   3.075  0.2763 -1.4833 -1.5307
 6009SOL     OW29488   1.358   0.384   0.801 -0.3041  0.3522  0.5060
 6009SOL    HW129489   1.270   0.418   0.787  0.1453 -0.2999 -4.0674
 6009SOL    HW229490   1.389   0.382   0.710  0.2088 -3.3519  0.7248
 6010SOL     OW29491   3.746   0.181   8.670 -0.1132 -0.4260 -0.4861
 6010SOL    HW129492   3.701   0.101   8.643 -0.0717 -0.3747 -0.7081
 6010SOL    HW229493   3.724   0.177   8.763  1.9342  0.6477  0.0444
 6011SOL     OW29494   2.601   2.039   3.321  0.3081 -0.1121  0.6464
 6011SOL    HW129495   2.625   2.013   3.232  0.1926  0.2007  0.5251
 6011SOL    HW229496   2.625   2.131   3.316 -2.3240  0.4945 -0.9698
 6012SOL     OW29497   1.274   1.198   5.462  0.3382  0.5292  0.9480
 6012SOL    HW129498   1.205   1.227   5.402  0.5670  1.0744  0.9494
 6012SOL    HW229499   1.356   1.224   5.420 -0.5464  0.4837 -0.8386
 6013SOL     OW29500   4.325   2.280   7.587 -0.4235 -0.2683  0.5455
 6013SOL    HW129501   4.312   2.355   7.528  2.4082 -0.8163 -0.7949
 6013SOL    HW229502   4.279   2.222   7.527 -0.7211  0.1623  0.3545
 6014SOL     OW29503   2.495   3.719  12.946 -0.2100  0.5040 -0.1511
 6014SOL    HW129504   2.532   3.705  12.859 -0.7737 -1.1726 -0.1246
 6014SOL    HW229505   2.440   3.795  12.925  1.5260  2.1797  1.2978
 6015SOL     OW29506   3.893   2.061   6.128  0.5623 -0.4406  0.4585
 6015SOL    HW129507   3.931   2.048   6.041  0.8996  3.6162 -0.0270
 6015SOL    HW229508   3.818   2.120   6.115  0.8112  0.0303  1.1512
 6016SOL     OW29509   0.587   4.031   9.059  0.4613  0.1864  0.1008
 6016SOL    HW129510   0.601   4.042   8.965  2.0429 -1.2454  0.1867
 6016SOL    HW229511   0.493   4.014   9.068  0.3830 -0.5353 -2.0744
 6017SOL     OW29512   2.596   0.396   6.922 -0.2819 -0.5034 -0.1117
 6017SOL    HW129513   2.578   0.483   6.958 -0.7527 -0.6707  0.0519
 6017SOL    HW229514   2.637   0.408   6.836 -0.7058  1.3831 -0.0561
 6018SOL     OW29515   0.022   2.418  16.885  0.3386  0.6684 -0.0249
 6018SOL    HW129516   4.718   2.365  16.810 -0.8850  0.1830  0.7610
 6018SOL    HW229517   0.051   2.499  16.844  0.4273  1.4936  1.6501
 6019SOL     OW29518   2.069   1.573   3.448  0.0883 -0.0196 -0.2292
 6019SOL    HW129519   2.005   1.632   3.488  2.4219  1.0116  1.9782
 6019SOL    HW229520   2.131   1.567   3.521 -0.6471 -1.2231  0.3038
 6020SOL     OW29521   1.542   0.180  16.802 -0.0939 -0.7039 -0.9501
 6020SOL    HW129522   1.550   0.268  16.765 -1.1567 -0.8077 -1.4280
 6020SOL    HW229523   1.467   0.185  16.861 -0.0288  0.4620 -0.9788
 6021SOL     OW29524   2.342   3.414   3.117  0.3274 -0.4180 -0.1619
 6021SOL    HW129525   2.293   3.396   3.037 -1.6555  0.8471  0.7830
 6021SOL    HW229526   2.273   3.433   3.180  2.2633 -3.1730  2.7688
 6022SOL     OW29527   0.204   4.514   6.306 -0.1576 -0.2816 -0.2779
 6022SOL    HW129528   0.188   4.424   6.335  0.6517 -0.4899 -0.5034
 6022SOL    HW229529   0.275   4.539   6.364 -0.6400 -0.8792  0.5788
 6023SOL     OW29530   3.898   4.344   1.257  0.1401  0.7213 -0.2006
 6023SOL    HW129531   3.916   4.434   1.230 -2.3775  1.2499 -0.1155
 6023SOL    HW229532   3.893   4.299   1.173 -1.0089  1.8917 -0.7601
 6024SOL     OW29533   1.847   0.246   2.275 -0.4536 -0.0905  0.6846
 6024SOL    HW129534   1.901   0.176   2.238 -2.3159  0.3247 -2.8333
 6024SOL    HW229535   1.881   0.326   2.236  0.0987  0.2856  1.9539
 6025SOL     OW29536   3.561   0.540  13.278 -0.0815 -0.5667  0.5030
 6025SOL    HW129537   3.503   0.541  13.355  1.4049  0.4805  1.6096
 6025SOL    HW229538   3.508   0.569  13.204  1.5694  1.8202  0.2388
 6026SOL     OW29539   2.168   3.081  10.003  0.0401  0.4844 -0.3320
 6026SOL    HW129540   2.247   3.102   9.953 -0.0409 -1.9701 -1.4911
 6026SOL    HW229541   2.194   2.996  10.040  0.3696  0.3754 -0.8056
 6027SOL     OW29542   3.014   2.343   6.290 -0.1014 -0.1016 -0.1725
 6027SOL    HW129543   2.926   2.332   6.254 -0.0792  0.5254 -0.4230
 6027SOL    HW229544   3.046   2.255   6.270  0.6517  0.2575 -0.5318
 6028SOL     OW29545   3.821   0.100  17.414 -0.1128 -0.1379  0.1224
 6028SOL    HW129546   3.909   0.063  17.420 -0.9030 -1.9231  0.6382
 6028SOL    HW229547   3.815   0.151  17.495 -0.4216  1.6924 -1.0450
 6029SOL     OW29548   0.463   2.997   4.002 -0.4433  0.4943 -0.2948
 6029SOL    HW129549   0.483   2.931   3.935  1.4719  1.2911 -0.5110
 6029SOL    HW229550   0.445   3.080   3.958 -0.8096  0.5265 -0.0766
 6030SOL     OW29551   1.503   2.982   6.646  0.5449 -0.4379 -0.1688
 6030SOL    HW129552   1.446   2.906   6.656 -1.3126  0.8492 -1.1608
 6030SOL    HW229553   1.550   2.956   6.567 -0.4840 -0.2364 -0.8465
 6031SOL     OW29554   3.140   0.256   5.541 -0.3583 -0.3791  0.2630
 6031SOL    HW129555   3.141   0.327   5.604 -0.2466  0.2677 -0.4700
 6031SOL    HW229556   3.068   0.209   5.583  0.2184 -1.6401 -0.1409
 6032SOL     OW29557   0.942   3.799  16.622  0.3839  0.5824 -0.1500
 6032SOL    HW129558   0.937   3.721  16.566 -0.3405  0.7923 -0.3846
 6032SOL    HW229559   1.029   3.832  16.601 -0.0275  1.3844 -0.5890
 6033SOL     OW29560   1.026   4.695   6.902 -0.4159  0.1573  0.2849
 6033SOL    HW129561   1.007   0.049   6.850 -0.6698 -1.2432 -1.6964
 6033SOL    HW229562   1.006   4.620   6.845  0.5759  0.8174 -0.9175
 6034SOL     OW29563   3.799   3.334   8.953  0.1047 -0.0997  0.6368
 6034SOL    HW129564   3.882   3.288   8.968  0.5999  0.2091 -1.1472
 6034SOL    HW229565   3.774   3.322   8.862 -0.5992  3.3443  0.3528
 6035SOL     OW29566   1.421   3.712   6.547  0.2041  0.1805  0.0351
 6035SOL    HW129567   1.482   3.766   6.496  0.4836 -0.8874 -0.7540
 6035SOL    HW229568   1.339   3.706   6.497  1.0858  1.3318 -1.5686
 6036SOL     OW29569   2.435   3.165   8.695 -0.6601 -0.2199 -0.1012
 6036SOL    HW129570   2.371   3.231   8.722 -0.0383  1.3967 -2.6471
 6036SOL    HW229571   2.509   3.179   8.754  1.6089 -0.2886 -2.9301
 6037SOL     OW29572   0.232   4.403   8.982  0.4168  0.0778 -0.3220
 6037SOL    HW129573   0.267   4.434   8.899 -2.3209 -0.4371 -1.6791
 6037SOL    HW229574   0.150   4.362   8.953  0.4799 -0.6347  0.4914
 6038SOL     OW29575   0.902   2.109  15.621  0.4880 -0.3045 -0.2527
 6038SOL    HW129576   0.928   2.177  15.683  1.6230 -1.8782  0.9891
 6038SOL    HW229577   0.832   2.154  15.574  0.2789  2.0809  2.3369
 6039SOL     OW29578   0.091   2.413   7.872  0.8598  0.0416  0.3078
 6039SOL    HW129579   0.022   2.404   7.806  0.4733  0.9027  0.5934
 6039SOL    HW229580   0.045   2.435   7.954  1.0234  0.2634  0.3392
 6040SOL     OW29581   3.005   1.251  17.335  0.1737  0.4769  0.2085
 6040SOL    HW129582   3.032   1.190  17.266  2.5756 -0.8049  2.2774
 6040SOL    HW229583   3.018   1.190  17.407  1.2215 -1.8095 -1.8945
 6041SOL     OW29584   0.540   1.947  16.708  0.0105 -0.2460  0.1540
 6041SOL    HW129585   0.465   1.977  16.760 -1.0108 -0.4094 -1.1938
 6041SOL    HW229586   0.598   2.023  16.702 -1.0936  0.6875  1.2033
 6042SOL     OW29587   0.004   0.717   6.833 -0.0435  0.2524  0.1468
 6042SOL    HW129588   0.047   0.719   6.919  1.2341  0.5981 -0.4973
 6042SOL    HW229589   0.023   0.802   6.792  0.2182  0.6641  1.1071
 6043SOL     OW29590   3.300   2.370   3.713 -0.2122 -0.1328 -0.9971
 6043SOL    HW129591   3.286   2.456   3.674  2.1281  1.3242  1.3768
 6043SOL    HW229592   3.210   2.357   3.743  0.2583 -0.3910  0.3024
 6044SOL     OW29593   4.076   2.939   6.372  0.6063  0.1889  0.8699
 6044SOL    HW129594   4.025   2.912   6.296  1.8045 -0.1947  0.1970
 6044SOL    HW229595   4.112   2.856   6.403 -1.5490 -0.8909  0.4817
 6045SOL     OW29596   0.201   4.216   7.901 -0.1628 -0.1385  0.0150
 6045SOL    HW129597   0.177   4.234   7.810 -1.7631  0.5029  0.5598
 6045SOL    HW229598   0.142   4.142   7.918  1.5790 -2.0132 -2.0350
 6046SOL     OW29599   0.148   3.508   8.843  0.5034  0.1221  0.0168
 6046SOL    HW129600   0.203   3.431   8.828  1.8292  0.7309  1.9068
 6046SOL    HW229601   0.060   3.471   8.836  0.7700 -0.2954 -1.1746
 6047SOL     OW29602   4.677   4.570   9.393  0.3311 -0.2503  0.2768
 6047SOL    HW129603   4.624   4.644   9.365 -0.7813 -1.0958  0.1468
 6047SOL    HW229604   0.039   4.614   9.399 -0.1688  0.8915 -0.9743
 6048SOL     OW29605   2.022   2.370   0.198 -0.3068  0.1605  0.1302
 6048SOL    HW129606   2.016   2.275   0.210  1.7772  0.0017 -0.1248
 6048SOL    HW229607   1.953   2.401   0.256 -0.2167  0.6655 -0.0358
 6049SOL     OW29608   0.475   3.197  13.912 -0.2347 -0.2059 -0.8208
 6049SOL    HW129609   0.390   3.234  13.936 -0.8663 -0.3942 -2.7914
 6049SOL    HW229610   0.538   3.253  13.956 -0.7983 -1.0833  1.1150
 6050SOL     OW29611   4.331   0.017   4.179 -0.0517  0.4178  0.8098
 6050SOL    HW129612   4.256   0.027   4.237  0.5116  2.8734  1.0880
 6050SOL    HW229613   4.300   0.079   4.113  0.1960  2.4987  2.6617
 6051SOL     OW29614   3.202   4.432   2.611 -0.2765  0.2775 -0.2563
 6051SOL    HW129615   3.261   4.499   2.577  2.1460 -1.1203  1.2266
 6051SOL    HW229616   3.243   4.359   2.566 -1.1859 -0.3034 -0.1372
 6052SOL     OW29617   1.695   2.505  11.756 -0.3703 -0.1350 -0.0682
 6052SOL    HW129618   1.774   2.470  11.714 -2.0440 -3.3921 -0.5315
 6052SOL    HW229619   1.721   2.597  11.760  1.2289 -0.5238 -1.6439
 6053SOL     OW29620   2.032   3.275   1.568  0.1489  0.0270  0.1040
 6053SOL    HW129621   2.007   3.183   1.575 -0.7715  0.2443 -0.2787
 6053SOL    HW229622   2.105   3.281   1.629  0.8815 -0.9521 -0.6746
 6054SOL     OW29623   3.835   3.053   3.344  0.4715 -0.0786  0.8403
 6054SOL    HW129624   3.864   3.143   3.337  0.1909  0.0270  1.0579
 6054SOL    HW229625   3.746   3.048   3.309  0.8927 -0.4015 -0.1899
 6055SOL     OW29626   1.945   1.811   0.988  0.3093  0.1622  0.7434
 6055SOL    HW129627   1.894   1.738   0.952 -1.3673  0.8908  1.6923
 6055SOL    HW229628   1.877   1.871   1.016  0.0064  0.9379 -1.6525
 6056SOL     OW29629   1.104   2.119  11.611  0.1083 -0.2168 -0.1717
 6056SOL    HW129630   1.169   2.185  11.636  1.5049 -0.7762 -2.3713
 6056SOL    HW229631   1.144   2.035  11.635 -1.2874 -0.9750 -0.5120
 6057SOL     OW29632   0.836   2.710  13.025  0.8402  0.0179  0.2324
 6057SOL    HW129633   0.834   2.676  12.936  1.0088  0.8786 -0.1055
 6057SOL    HW229634   0.875   2.796  13.006 -0.9230  0.8409  0.3167
 6058SOL     OW29635   2.545   0.868   4.099 -0.3823  0.3562 -0.4635
 6058SOL    HW129636   2.462   0.904   4.069  0.0136  0.2513 -1.6842
 6058SOL    HW229637   2.580   0.945   4.144  0.3866 -1.3317  1.8008
 6059SOL     OW29638   1.931   0.688   2.771 -0.1193  0.4195  0.5400
 6059SOL    HW129639   1.990   0.737   2.828 -0.3961  0.8701  0.4411
 6059SOL    HW229640   1.897   0.763   2.723 -0.1222  0.3155  0.3774
 6060SOL     OW29641   1.808   1.142  14.783 -0.1041 -0.0161  0.5072
 6060SOL    HW129642   1.857   1.120  14.863  1.9763  2.5490 -0.0746
 6060SOL    HW229643   1.726   1.103  14.812  0.9713 -1.8944  1.0025
 6061SOL     OW29644   1.513   3.852   5.809 -0.3505 -0.0060  0.3074
 6061SOL    HW129645   1.495   3.763   5.779 -0.7275  0.5200 -1.0140
 6061SOL    HW229646   1.429   3.873   5.850  0.4143  2.6358  0.5226
 6062SOL     OW29647   2.343   2.431  10.097  0.3585  0.4962 -0.1943
 6062SOL    HW129648   2.389   2.360  10.143 -1.3142 -0.1329  0.4987
 6062SOL    HW229649   2.255   2.397  10.082  0.8865 -1.0125  0.0555
 6063SOL     OW29650   2.838   1.412  10.311  0.4232 -0.1237  0.6863
 6063SOL    HW129651   2.891   1.359  10.370  0.3901 -2.2387 -1.1557
 6063SOL    HW229652   2.848   1.484  10.372  1.0246 -0.1915  0.6659
 6064SOL     OW29653   1.597   0.674   7.746 -0.2336  0.7916  0.0701
 6064SOL    HW129654   1.632   0.731   7.677  0.1643 -0.8478 -1.0759
 6064SOL    HW229655   1.631   0.591   7.712 -2.3335 -0.1435  0.2255
 6065SOL     OW29656   3.114   1.113   7.629 -0.0885  0.9230 -0.2518
 6065SOL    HW129657   3.054   1.175   7.588 -0.6977  1.0878  0.8651
 6065SOL    HW229658   3.199   1.156   7.622  0.5167  0.2159  2.6215
 6066SOL     OW29659   3.251   1.445   4.938 -0.0688  0.1122 -0.2497
 6066SOL    HW129660   3.280   1.444   5.030 -1.3170  0.8283  0.1565
 6066SOL    HW229661   3.172   1.498   4.946 -1.0200 -0.8953 -3.0723
 6067SOL     OW29662   1.409   1.816  12.298  0.0250 -0.3081  0.3616
 6067SOL    HW129663   1.410   1.739  12.240 -0.5525  0.7449 -1.0415
 6067SOL    HW229664   1.457   1.776  12.371  0.3848  0.1999  0.3982
 6068SOL     OW29665   2.631   2.938   0.135  0.2626 -0.1143  1.4507
 6068SOL    HW129666   2.711   2.967   0.179 -0.1555  1.1896  1.3650
 6068SOL    HW229667   2.674   2.881   0.071 -0.7270  2.8021 -1.8029
 6069SOL     OW29668   1.409   0.861   9.199 -0.0093  0.3444  0.7920
 6069SOL    HW129669   1.469   0.788   9.182 -0.9600 -0.1282 -0.4724
 6069SOL    HW229670   1.464   0.918   9.253  0.4205 -0.0384  0.7686
 6070SOL     OW29671   2.815   4.707   4.322 -0.0841  0.4323  0.2565
 6070SOL    HW129672   2.826   4.653   4.243 -0.7365  1.3808 -0.4727
 6070SOL    HW229673   2.735   4.667   4.354 -0.9937  0.2684 -2.2287
 6071SOL     OW29674   3.184   3.992   8.876 -0.3972 -0.1919 -0.2154
 6071SOL    HW129675   3.241   4.069   8.887  1.2741 -1.7292  2.0978
 6071SOL    HW229676   3.223   3.943   8.803 -1.4532 -2.1993  0.5656
 6072SOL     OW29677   4.121   3.004   5.302 -0.6783 -0.1540  0.3402
 6072SOL    HW129678   4.184   2.946   5.261 -2.4907 -1.8835 -0.0107
 6072SOL    HW229679   4.153   3.089   5.272 -1.5028  0.4317  1.1067
 6073SOL     OW29680   3.524   1.878   7.028 -0.8349  0.1898 -0.0584
 6073SOL    HW129681   3.501   1.790   6.999  1.3077 -0.5981  0.5806
 6073SOL    HW229682   3.490   1.940   6.964 -1.1800  1.5799  1.4591
 6074SOL     OW29683   2.318   4.167  11.447  0.5836 -0.1218 -0.5199
 6074SOL    HW129684   2.267   4.166  11.366 -0.0362  0.5550 -0.1335
 6074SOL    HW229685   2.322   4.073  11.465  0.4033  0.1982  1.2145
 6075SOL     OW29686   1.527   3.812   8.018  0.7205 -0.6305  0.3588
 6075SOL    HW129687   1.552   3.747   8.084  1.5921 -1.4979 -0.8211
 6075SOL    HW229688   1.603   3.793   7.964  0.9134  3.0481 -0.7093
 6076SOL     OW29689   0.630   0.023   7.314  0.0848  0.5912  0.7752
 6076SOL    HW129690   0.673   0.047   7.232 -1.8705  1.3813 -0.0225
 6076SOL    HW229691   0.640   4.651   7.310 -3.9281  0.2828 -1.5711
 6077SOL     OW29692   3.468   4.608   5.678 -0.4414  0.4020 -0.4352
 6077SOL    HW129693   3.538   4.605   5.614  0.4677 -0.4495  0.6015
 6077SOL    HW229694   3.433   4.519   5.675  1.1542 -0.2248 -0.6271
 6078SOL     OW29695   0.831   4.625   8.995  0.1510 -0.0404  0.2243
 6078SOL    HW129696   0.738   4.611   8.980  0.2215 -2.0179  1.5626
 6078SOL    HW229697   0.830   4.719   9.013  0.0407  0.5168 -2.7352
 6079SOL     OW29698   3.548   3.413   4.610 -0.9811  0.4692 -0.5336
 6079SOL    HW129699   3.512   3.347   4.551  1.4947 -1.0651 -0.3165
 6079SOL    HW229700   3.600   3.452   4.540 -0.2703 -0.1281 -0.3396
 6080SOL     OW29701   3.427   0.556   7.947 -0.0172 -0.5250  0.4884
 6080SOL    HW129702   3.484   0.481   7.929  0.8959  0.4429 -0.6429
 6080SOL    HW229703   3.485   0.631   7.938  1.0309 -1.1331  2.2058
 6081SOL     OW29704   4.593   4.101  17.276 -0.0197  0.4155 -0.6321
 6081SOL    HW129705   4.499   4.084  17.270  0.1385 -0.1521 -1.4623
 6081SOL    HW229706   4.593   4.194  17.254  0.7206  0.1265 -1.8334
 6082SOL     OW29707   4.170   0.401  12.536 -0.4350 -0.1319  0.4179
 6082SOL    HW129708   4.124   0.485  12.535 -1.9657 -0.9698  0.3929
 6082SOL    HW229709   4.221   0.409  12.616 -1.7729  1.0536  1.1439
 6083SOL     OW29710   0.185   0.592   4.548 -0.4860 -0.0439  0.1224
 6083SOL    HW129711   0.176   0.643   4.468 -0.5498 -2.0369 -1.1379
 6083SOL    HW229712   0.272   0.624   4.572 -0.1295  0.5039 -1.8494
 6084SOL     OW29713   0.039   0.983   4.027 -0.2573  0.1120  0.6296
 6084SOL    HW129714   0.094   1.053   3.991 -0.0347 -0.4402 -0.1150
 6084SOL    HW229715   0.109   0.924   4.054  0.4604  1.9704  2.8264
 6085SOL     OW29716   0.401   4.278   6.233 -0.4252  1.2141 -0.0439
 6085SOL    HW129717   0.372   4.236   6.314  3.5720 -0.6304  0.4237
 6085SOL    HW229718   0.412   4.372   6.249  1.6597  1.1191 -0.9206
 6086SOL     OW29719   2.953   2.339  11.091  0.2966  0.5665 -0.1633
 6086SOL    HW129720   3.012   2.268  11.118 -1.0140 -0.7822 -0.8521
 6086SOL    HW229721   2.963   2.401  11.163  1.8143  1.3018 -0.9893
 6087SOL     OW29722   2.774   2.748   5.336 -0.4432 -0.1701  0.3601
 6087SOL    HW129723   2.870   2.753   5.344 -0.4449  0.2097  0.1333
 6087SOL    HW229724   2.747   2.723   5.424  0.2675 -0.7217  0.4267
 6088SOL     OW29725   4.648   3.878  13.010  0.4672 -0.0540 -0.3065
 6088SOL    HW129726   4.672   3.824  12.935 -0.7521 -0.0986 -0.6613
 6088SOL    HW229727   4.690   3.963  12.997  0.8862 -0.2262 -0.0935
 6089SOL     OW29728   2.371   0.398   3.056 -0.2286  0.0330 -0.2200
 6089SOL    HW129729   2.420   0.385   2.975 -0.3618 -0.7148 -0.1767
 6089SOL    HW229730   2.287   0.357   3.038 -0.7071 -0.1529  2.4424
 6090SOL     OW29731   2.845   4.628   4.729 -0.7049 -0.2992 -0.0919
 6090SOL    HW129732   2.877   4.538   4.733 -2.1804 -0.7346  1.9844
 6090SOL    HW229733   2.800   4.630   4.644 -0.6914 -1.9249 -0.1194
 6091SOL     OW29734   2.401   3.044   1.480  0.2618  0.5137  0.5490
 6091SOL    HW129735   2.383   2.975   1.544 -0.2121 -0.3138 -0.4690
 6091SOL    HW229736   2.473   3.092   1.521  0.8985  0.0990 -0.0709
 6092SOL     OW29737   4.396   3.075   8.581 -0.0537 -1.1622  0.1338
 6092SOL    HW129738   4.477   3.036   8.548 -0.3181 -0.7265 -1.0292
 6092SOL    HW229739   4.367   3.125   8.505  0.6035  0.5522  1.0090
 6093SOL     OW29740   0.142   2.917   6.046 -0.2732  0.4327 -0.2467
 6093SOL    HW129741   0.210   2.982   6.063  0.9658 -1.0324  0.3897
 6093SOL    HW229742   0.188   2.853   5.992  1.0203  3.2943 -2.5142
 6094SOL     OW29743   4.152   1.155   2.476 -0.1660  0.5150 -0.1755
 6094SOL    HW129744   4.190   1.067   2.478  0.0004  0.5876 -0.1114
 6094SOL    HW229745   4.110   1.139   2.392 -0.6518 -0.2398  0.2051
 6095SOL     OW29746   1.300   3.901   4.756 -0.3351 -0.8553 -0.8240
 6095SOL    HW129747   1.363   3.831   4.739  0.5631 -0.6144  1.3936
 6095SOL    HW229748   1.239   3.847   4.807 -1.1235 -0.2133 -1.0970
 6096SOL     OW29749   4.075   4.273  11.729 -0.1105 -0.1848  0.3392
 6096SOL    HW129750   4.151   4.321  11.760 -0.1692 -0.1637  0.4498
 6096SOL    HW229751   4.021   4.298  11.804 -0.3540  0.2174  0.0292
 6097SOL     OW29752   1.911   3.076   6.549 -0.0128  0.0836 -0.6998
 6097SOL    HW129753   1.971   3.005   6.574 -1.6183  0.2909  3.8702
 6097SOL    HW229754   1.964   3.155   6.541  0.2709  0.1275  1.4418
 6098SOL     OW29755   1.271   0.382   4.490  0.2544 -0.7865 -0.1095
 6098SOL    HW129756   1.324   0.446   4.538 -0.3486 -2.3665  2.6821
 6098SOL    HW229757   1.335   0.321   4.454 -0.3051 -0.3386 -1.8729
 6099SOL     OW29758   1.445   0.729   4.302  0.0998  0.2024 -0.0728
 6099SOL    HW129759   1.458   0.660   4.368 -2.3718  0.0143  0.2136
 6099SOL    HW229760   1.351   0.747   4.301 -0.2149 -1.4813 -0.5968
 6100SOL     OW29761   1.516   3.997   3.208 -0.0766  0.7879 -0.1969
 6100SOL    HW129762   1.422   3.997   3.222  0.0239  0.4740  0.4897
 6100SOL    HW229763   1.522   4.093   3.201 -0.0029  0.7398 -0.7788
 6101SOL     OW29764   1.016   4.028   5.578  0.7019  0.3552  0.4341
 6101SOL    HW129765   1.083   4.096   5.573  1.8467 -0.8386 -0.3449
 6101SOL    HW229766   1.010   4.009   5.484 -0.3888  0.5096  0.4722
 6102SOL     OW29767   1.359   3.430   5.879 -0.1566  0.5193  0.0463
 6102SOL    HW129768   1.356   3.498   5.811  0.4571  2.3276  1.8498
 6102SOL    HW229769   1.271   3.433   5.915 -0.1710 -2.3013  0.2440
 6103SOL     OW29770   0.144   1.368   0.819 -0.2210  0.5010 -0.3954
 6103SOL    HW129771   0.195   1.311   0.876 -0.6452  2.8066  2.2648
 6103SOL    HW229772   0.054   1.336   0.815  0.3557 -0.7523 -3.9762
 6104SOL     OW29773   4.098   0.505   6.313 -0.0499  0.7896 -0.0207
 6104SOL    HW129774   4.094   0.516   6.218 -0.5010  2.2089  0.1639
 6104SOL    HW229775   4.007   0.486   6.337  0.4650  0.0063  1.3242
 6105SOL     OW29776   2.703   3.954  13.940  0.3774 -0.6479 -0.5156
 6105SOL    HW129777   2.613   3.948  13.973  0.8026  0.5412  0.8701
 6105SOL    HW229778   2.730   4.032  13.989  0.8128 -0.0087 -1.7809
 6106SOL     OW29779   4.539   4.591   7.574 -0.0186 -0.4655 -0.2101
 6106SOL    HW129780   4.601   4.521   7.595  2.0358  1.4774  0.1166
 6106SOL    HW229781   4.480   4.541   7.517 -0.9123 -0.5569  0.7977
 6107SOL     OW29782   1.492   1.956   3.605 -0.4140 -0.4338  0.1593
 6107SOL    HW129783   1.494   1.931   3.513 -0.3293  0.7958 -0.1690
 6107SOL    HW229784   1.558   1.894   3.637  0.2060  0.6189  0.9467
 6108SOL     OW29785   0.670   2.659   5.348 -0.1199 -0.1066  0.3563
 6108SOL    HW129786   0.736   2.590   5.353  0.5499  0.4758 -0.5300
 6108SOL    HW229787   0.615   2.635   5.422 -0.4646 -0.3132  0.0351
 6109SOL     OW29788   1.964   1.433  14.201  0.1373 -0.8937  0.2977
 6109SOL    HW129789   2.016   1.353  14.197  0.8112 -0.5164  1.8039
 6109SOL    HW229790   1.995   1.469  14.283  1.0432 -2.9755  0.8648
 6110SOL     OW29791   3.915   2.982  13.143  0.7414 -0.0764  0.1403
 6110SOL    HW129792   3.832   2.956  13.183  0.1461 -0.8367 -1.5704
 6110SOL    HW229793   3.940   3.053  13.202  0.7607  1.9348 -2.2652
 6111SOL     OW29794   2.068   2.532  12.397 -0.5886 -0.3576  0.0414
 6111SOL    HW129795   2.088   2.466  12.464 -1.8645  2.0479  2.8179
 6111SOL    HW229796   2.157   2.560  12.376  0.8238 -3.7813  1.3477
 6112SOL     OW29797   1.005   2.010   0.388  0.1629 -0.0409  0.1841
 6112SOL    HW129798   0.917   1.975   0.403 -0.3345  1.0503 -0.2022
 6112SOL    HW229799   0.990   2.016   0.293  1.2458 -1.0410 -0.0504
 6113SOL     OW29800   0.509   4.265   4.855 -0.1116  0.1305  0.0343
 6113SOL    HW129801   0.535   4.356   4.841  2.3304 -0.7428 -1.1708
 6113SOL    HW229802   0.421   4.271   4.891 -0.7511 -1.0689 -1.3360
 6114SOL     OW29803   4.121   2.267  10.665  0.0514  0.1711 -0.4252
 6114SOL    HW129804   4.118   2.352  10.710  0.1756  0.1170 -0.3146
 6114SOL    HW229805   4.138   2.297  10.576  0.1106 -2.6174 -1.3198
 6115SOL     OW29806   2.849   1.430  14.172 -0.1394  0.0042  0.2491
 6115SOL    HW129807   2.813   1.402  14.256  1.8381  0.7705  1.3792
 6115SOL    HW229808   2.907   1.357  14.149  0.0867  1.1256 -2.7911
 6116SOL     OW29809   3.468   4.184   3.381 -0.2822 -0.4726  0.0410
 6116SOL    HW129810   3.563   4.190   3.375 -0.3574  0.6171 -0.0672
 6116SOL    HW229811   3.434   4.272   3.368 -1.2418 -0.8875 -0.2751
 6117SOL     OW29812   4.586   0.498   3.619  0.0372  0.3614  0.0693
 6117SOL    HW129813   4.605   0.502   3.525  2.4263 -1.4566  0.4841
 6117SOL    HW229814   4.653   0.436   3.647  1.0087  0.4398 -2.0562
 6118SOL     OW29815   3.004   2.635   6.945  0.3387  0.6988  0.5799
 6118SOL    HW129816   2.968   2.724   6.951  0.5382  0.8870 -1.1132
 6118SOL    HW229817   3.075   2.641   7.009 -1.4811  0.1469  2.6674
 6119SOL     OW29818   2.349   0.173  17.370 -0.3786  0.0044 -0.5870
 6119SOL    HW129819   2.403   0.249  17.395  0.3226 -0.4965 -0.5700
 6119SOL    HW229820   2.259   0.201  17.383 -1.3766 -3.7538  0.3765
 6120SOL     OW29821   0.626   2.685   6.497  0.1602 -0.3544 -0.5001
 6120SOL    HW129822   0.651   2.748   6.429 -1.0024 -0.9988 -1.5304
 6120SOL    HW229823   0.700   2.690   6.557  0.3286 -0.8730 -0.6693
 6121SOL     OW29824   2.745   3.717   3.913 -0.2046  0.1519  0.1407
 6121SOL    HW129825   2.731   3.775   3.838 -0.9403 -0.9170 -0.5544
 6121SOL    HW229826   2.744   3.787   3.978  1.4868 -0.6477  1.0494
 6122SOL     OW29827   1.233   2.655   7.882  0.5351  0.2065 -0.5156
 6122SOL    HW129828   1.183   2.718   7.830  0.1368  1.3404  1.2276
 6122SOL    HW229829   1.170   2.617   7.944 -1.5774  2.1048 -1.4757
 6123SOL     OW29830   2.893   3.636   5.167  0.0581 -0.2402 -0.0065
 6123SOL    HW129831   2.838   3.557   5.167 -0.2047 -0.0470 -3.2541
 6123SOL    HW229832   2.877   3.676   5.081 -1.6647 -1.4317 -0.2388
 6124SOL     OW29833   1.323   2.227   3.818 -0.3420  0.4247  0.0243
 6124SOL    HW129834   1.271   2.182   3.751 -2.6517  0.8420  1.5481
 6124SOL    HW229835   1.341   2.309   3.772  1.4191  1.7665  3.1109
 6125SOL     OW29836   1.282   3.261  12.562 -0.5507 -0.3609 -0.0588
 6125SOL    HW129837   1.312   3.216  12.483 -2.7594 -0.0462 -1.0636
 6125SOL    HW229838   1.210   3.318  12.537 -2.6454 -2.2078  1.7194
 6126SOL     OW29839   4.089   4.701  11.574  0.7795 -0.5790 -0.0021
 6126SOL    HW129840   4.119   0.039  11.641  1.8993 -0.8868 -0.2171
 6126SOL    HW229841   3.997   4.692  11.598  1.1654 -2.2150  0.8946
 6127SOL     OW29842   0.429   1.477   6.755 -0.1365 -0.3080 -0.4529
 6127SOL    HW129843   0.445   1.424   6.676  0.0897  0.2462 -0.7803
 6127SOL    HW229844   0.388   1.416   6.816  2.5416  1.1966  2.8158
 6128SOL     OW29845   2.257   0.441   5.142  0.3573  0.3228 -0.6462
 6128SOL    HW129846   2.211   0.360   5.119  1.6964 -0.5201 -0.3406
 6128SOL    HW229847   2.222   0.504   5.080 -0.2963  0.7080  0.1197
 6129SOL     OW29848   4.644   3.779   8.102  0.0410 -0.0653 -0.5862
 6129SOL    HW129849   4.700   3.707   8.131  0.5352  0.0143 -1.3380
 6129SOL    HW229850   4.570   3.777   8.162  1.3087  1.3853  1.0286
 6130SOL     OW29851   1.683   1.598   9.854 -0.0155  0.2321 -0.1530
 6130SOL    HW129852   1.694   1.564   9.765  0.6463  2.6471 -0.9986
 6130SOL    HW229853   1.639   1.681   9.834 -1.0148 -0.2063  0.2307
 6131SOL     OW29854   1.321   2.390   0.654  0.0094 -0.2041 -0.3589
 6131SOL    HW129855   1.298   2.435   0.735 -0.3484 -1.1884  0.0879
 6131SOL    HW229856   1.406   2.356   0.683  0.1369 -1.0357 -1.6936
 6132SOL     OW29857   3.074   2.331  15.595  0.1136  0.2109 -0.0528
 6132SOL    HW129858   3.019   2.369  15.663 -2.2537 -3.7244  0.2493
 6132SOL    HW229859   3.076   2.405  15.534 -0.6754  0.5669  0.3682
 6133SOL     OW29860   4.444   4.458   9.081  0.4113 -0.4647 -0.6582
 6133SOL    HW129861   4.386   4.485   9.153 -0.2907 -1.0857 -0.9960
 6133SOL    HW229862   4.415   4.367   9.077  1.1252 -0.7220  0.1051
 6134SOL     OW29863   1.183   0.641   6.561  0.3598 -0.4248  0.2543
 6134SOL    HW129864   1.254   0.585   6.592 -0.6765 -0.4570  2.6424
 6134SOL    HW229865   1.219   0.719   6.603 -1.1128  0.0013  0.7611
 6135SOL     OW29866   1.759   2.379   7.952 -0.7370 -0.0441 -0.3386
 6135SOL    HW129867   1.784   2.462   7.912  0.1022 -0.2732 -0.3055
 6135SOL    HW229868   1.664   2.378   7.952 -0.7311 -0.2264 -1.8429
 6136SOL     OW29869   2.877   0.249   4.877  0.1311 -0.2512 -1.1540
 6136SOL    HW129870   2.829   0.311   4.821  0.8532  0.5245 -0.9012
 6136SOL    HW229871   2.845   0.276   4.963  2.2684 -0.4060 -0.3107
 6137SOL     OW29872   4.699   3.928   8.898 -0.5282  0.3060 -0.3861
 6137SOL    HW129873   4.617   3.962   8.864  0.6593  0.0311 -3.5750
 6137SOL    HW229874   4.722   3.988   8.969  2.3889 -2.0851  0.7249
 6138SOL     OW29875   2.046   3.290   4.297  0.3799 -0.0237 -0.5005
 6138SOL    HW129876   2.042   3.226   4.369  0.0730 -2.3825 -2.6283
 6138SOL    HW229877   1.955   3.320   4.287  0.5329  0.7885  0.5638
 6139SOL     OW29878   2.471   3.417   8.567  0.1910  0.0881  0.3132
 6139SOL    HW129879   2.468   3.512   8.562  3.5101  0.1339 -1.1418
 6139SOL    HW229880   2.401   3.402   8.630  2.1690 -0.1976  2.4419
 6140SOL     OW29881   3.560   0.178   2.142  0.5028 -0.3289 -0.7101
 6140SOL    HW129882   3.495   0.219   2.084 -1.1495 -0.5445  0.9722
 6140SOL    HW229883   3.603   0.263   2.150  0.2356 -0.4305  1.8701
 6141SOL     OW29884   2.048   3.311  16.468  0.1430 -0.0820  0.1061
 6141SOL    HW129885   2.011   3.225  16.448  0.8441 -0.2528 -0.4316
 6141SOL    HW229886   2.111   3.323  16.397 -1.4115  2.7834 -0.7916
 6142SOL     OW29887   2.606   2.160   7.717 -0.9628  0.6525  0.3634
 6142SOL    HW129888   2.685   2.135   7.670  0.3376  2.0339  1.8336
 6142SOL    HW229889   2.594   2.248   7.681 -2.2927  0.2387 -0.2210
 6143SOL     OW29890   4.417   0.396  16.641 -0.9495  0.1810  0.0872
 6143SOL    HW129891   4.496   0.419  16.592 -1.1747 -0.8196 -0.7607
 6143SOL    HW229892   4.440   0.429  16.728 -2.0758 -0.5065  0.6547
 6144SOL     OW29893   1.362   4.105   2.313 -0.3052  0.4729  0.3966
 6144SOL    HW129894   1.281   4.054   2.304  2.3256 -3.5648 -0.4579
 6144SOL    HW229895   1.357   4.168   2.241 -0.2390  0.1715  0.1267
 6145SOL     OW29896   2.494   0.536   7.304 -0.5890 -0.5441 -0.2796
 6145SOL    HW129897   2.510   0.588   7.224  0.5118  0.9092  0.8671
 6145SOL    HW229898   2.579   0.496   7.322  0.0426  0.8295 -0.1743
 6146SOL     OW29899   3.292   2.469   1.941  0.0242 -0.5502  0.2482
 6146SOL    HW129900   3.282   2.374   1.946 -0.9915 -0.4609 -0.0469
 6146SOL    HW229901   3.224   2.494   1.879  0.5542 -2.7371 -1.2278
 6147SOL     OW29902   2.436   1.136   3.937  0.0487  0.0156 -0.0169
 6147SOL    HW129903   2.373   1.065   3.925 -0.5173  0.6455 -0.7925
 6147SOL    HW229904   2.382   1.174   4.006  1.0113  1.1274  0.1241
 6148SOL     OW29905   3.025   3.790  11.502  0.3347 -0.5446  0.8484
 6148SOL    HW129906   2.989   3.755  11.583 -0.3740 -1.3050  0.2087
 6148SOL    HW229907   2.962   3.754  11.440  0.4781  1.5957 -0.5509
 6149SOL     OW29908   1.393   0.953  12.963 -0.1440  0.1665  0.1372
 6149SOL    HW129909   1.460   0.948  13.031  0.7083 -1.4082 -0.8280
 6149SOL    HW229910   1.382   1.047  12.950 -0.4798 -0.3966 -3.6176
 6150SOL     OW29911   0.848   4.204   1.839  0.3812 -0.3279 -0.5091
 6150SOL    HW129912   0.918   4.140   1.824  1.5019  0.9045 -0.4695
 6150SOL    HW229913   0.799   4.205   1.757  1.0025  0.4060 -0.8668
 6151SOL     OW29914   3.263   2.914   8.793 -0.1499 -0.7172 -0.0829
 6151SOL    HW129915   3.183   2.964   8.809 -0.3596 -0.9646 -0.3695
 6151SOL    HW229916   3.340   2.970   8.801 -0.2157 -0.2340 -2.6862
 6152SOL     OW29917   4.628   3.926  10.167  0.3476  0.7331  0.0334
 6152SOL    HW129918   4.539   3.902  10.192  0.3352  0.9769  0.2201
 6152SOL    HW229919   4.679   3.937  10.248  1.4117  2.0077 -0.8032
 6153SOL     OW29920   0.834   0.721   0.402 -0.1896 -0.2417 -0.2278
 6153SOL    HW129921   0.785   0.767   0.470  0.3571  2.3275 -1.5973
 6153SOL    HW229922   0.923   0.754   0.408 -0.4187  0.7278 -2.1985
 6154SOL     OW29923   2.698   1.049   7.632  0.3952 -0.3342 -0.1721
 6154SOL    HW129924   2.762   1.100   7.583  0.9277 -0.5822  0.2688
 6154SOL    HW229925   2.754   1.010   7.699 -0.9543 -0.9843  0.5756
 6155SOL     OW29926   0.172   1.351   6.799  0.1163  0.9105  0.1002
 6155SOL    HW129927   0.103   1.391   6.853 -1.6028 -0.5893 -1.0030
 6155SOL    HW229928   0.197   1.275   6.852  0.9007  0.4893 -0.8843
 6156SOL     OW29929   2.512   0.899   7.228 -0.6182 -0.4773  0.3478
 6156SOL    HW129930   2.417   0.904   7.221 -0.4275  0.6424 -1.5692
 6156SOL    HW229931   2.525   0.912   7.322  4.1184 -0.9811 -0.2181
 6157SOL     OW29932   3.855   3.375   2.935  0.7283  0.0184 -0.1097
 6157SOL    HW129933   3.944   3.378   2.900  0.0075 -1.0168 -2.0507
 6157SOL    HW229934   3.805   3.406   2.859 -0.9137 -0.9268  0.5943
 6158SOL     OW29935   4.406   1.979  13.308 -0.5241  0.2452  0.8500
 6158SOL    HW129936   4.419   1.945  13.219 -0.7211 -1.7762  1.5905
 6158SOL    HW229937   4.466   1.923  13.357  0.2873 -0.2654 -0.7190
 6159SOL     OW29938   2.762   1.384  16.227  0.1643  0.4035 -0.0817
 6159SOL    HW129939   2.723   1.407  16.311 -0.7639  0.9066 -0.6546
 6159SOL    HW229940   2.685   1.347  16.183 -0.0752  1.4007 -0.4912
 6160SOL     OW29941   2.983   2.398   4.323 -0.6760  0.8239 -0.6536
 6160SOL    HW129942   2.956   2.483   4.357 -0.6793  0.3952  0.4175
 6160SOL    HW229943   3.000   2.350   4.404  1.5730 -0.1543 -1.6981
 6161SOL     OW29944   3.072   3.082  11.499 -0.0215  0.0152 -0.4275
 6161SOL    HW129945   3.081   2.994  11.462 -0.7292 -0.3598  0.2978
 6161SOL    HW229946   3.003   3.122  11.446 -2.6282 -2.7982  0.8826
 6162SOL     OW29947   4.536   2.720   6.924  0.3813 -0.7406 -0.2860
 6162SOL    HW129948   4.529   2.631   6.889  1.6032 -1.2342  0.7447
 6162SOL    HW229949   4.531   2.697   7.016 -0.7056 -0.8896 -0.3861
 6163SOL     OW29950   4.692   1.136   5.229  0.5710  0.0065 -0.0972
 6163SOL    HW129951   4.640   1.145   5.308 -1.9444  0.6171 -1.8155
 6163SOL    HW229952   0.022   1.213   5.242 -0.7855  0.8993  0.1832
 6164SOL     OW29953   3.707   4.196   9.419 -0.4300  0.1600 -0.2271
 6164SOL    HW129954   3.681   4.229   9.505 -0.1274  2.0806 -0.8665
 6164SOL    HW229955   3.769   4.125   9.434  2.7676  2.9869 -0.3197
 6165SOL     OW29956   2.405   3.665  15.732  0.4863  0.1634 -0.4390
 6165SOL    HW129957   2.314   3.672  15.762  0.4695  4.0434 -1.4258
 6165SOL    HW229958   2.453   3.709  15.802 -1.8817  1.5880  0.2928
 6166SOL     OW29959   4.264   2.452  14.141 -0.7374  0.3977  0.0686
 6166SOL    HW129960   4.242   2.545  14.138 -0.8983  0.3678  0.3463
 6166SOL    HW229961   4.334   2.456  14.206 -0.9004  0.4847  0.2394
 6167SOL     OW29962   4.004   4.681  13.687 -0.4769  0.2821 -0.0543
 6167SOL    HW129963   4.026   0.050  13.682  1.0309 -0.1093 -0.5090
 6167SOL    HW229964   4.008   4.679  13.783  3.4084  1.3950 -0.2246
 6168SOL     OW29965   4.671   0.057   5.391  0.1485 -0.0604  0.1405
 6168SOL    HW129966   4.667   4.709   5.454  0.7500  0.2324  0.5069
 6168SOL    HW229967   4.617   0.119   5.439 -1.3783 -1.6863  0.4983
 6169SOL     OW29968   3.139   2.700  17.214 -0.8989 -0.2346 -1.0246
 6169SOL    HW129969   3.147   2.606  17.228 -0.0067  0.1639  1.3418
 6169SOL    HW229970   3.219   2.714  17.164  0.5325 -0.8674  1.0720
 6170SOL     OW29971   4.135   0.754   7.055  0.3408 -0.3141 -0.2174
 6170SOL    HW129972   4.144   0.764   7.150 -0.6281  1.4819 -0.3261
 6170SOL    HW229973   4.138   0.658   7.046 -0.6667 -0.1455 -2.2946
 6171SOL     OW29974   3.083   1.011  15.862 -0.2854 -0.1557 -0.3816
 6171SOL    HW129975   2.999   0.978  15.894 -0.4463  1.2055  0.6362
 6171SOL    HW229976   3.056   1.086  15.809 -3.1757 -0.9217  0.0062
 6172SOL     OW29977   3.304   0.756   8.350  0.0922  0.2197 -0.2311
 6172SOL    HW129978   3.281   0.808   8.427 -1.2383  1.2832 -1.3485
 6172SOL    HW229979   3.252   0.800   8.283  0.0643 -2.9556 -2.2424
 6173SOL     OW29980   3.256   2.599  12.368  0.3921 -0.5088  0.2515
 6173SOL    HW129981   3.303   2.520  12.342  1.8567  0.3181  0.3995
 6173SOL    HW229982   3.185   2.604  12.304 -0.2907 -1.9064  0.9066
 6174SOL     OW29983   2.618   0.890   3.256 -0.0521  0.4107 -0.4040
 6174SOL    HW129984   2.713   0.895   3.246  0.2576 -3.3935  0.4169
 6174SOL    HW229985   2.602   0.955   3.324 -2.7627 -0.2122 -0.4462
 6175SOL     OW29986   3.206   3.486   1.750 -0.1901 -0.1630 -0.5667
 6175SOL    HW129987   3.151   3.492   1.672  0.8124 -2.5129 -1.4622
 6175SOL    HW229988   3.149   3.434   1.807  1.4917 -0.6085  0.7234
 6176SOL     OW29989   4.129   2.147   3.531 -0.6548  0.1168  0.3630
 6176SOL    HW129990   4.107   2.155   3.623  0.0235 -1.9413  0.6981
 6176SOL    HW229991   4.050   2.190   3.499 -0.2453  1.6761  1.4388
 6177SOL     OW29992   0.455   1.017   8.372  0.3095 -0.3228  0.7882
 6177SOL    HW129993   0.489   1.088   8.427  0.5100  0.9372 -0.9894
 6177SOL    HW229994   0.542   0.976   8.373  1.3134  1.8204  2.0075
 6178SOL     OW29995   4.133   2.342   6.505 -0.3208  0.1693  0.0374
 6178SOL    HW129996   4.200   2.387   6.454  0.6260 -3.3259 -1.8168
 6178SOL    HW229997   4.082   2.290   6.442  1.6919  1.7393 -2.8704
 6179SOL     OW29998   0.178   2.701   5.857 -0.1749  0.1486 -0.0068
 6179SOL    HW129999   0.224   2.757   5.795 -0.4814 -0.2162 -0.5569
 6179SOL    HW230000   0.202   2.615   5.821  2.2818  1.9517 -2.6606
 6180SOL     OW30001   1.314   3.039   1.939 -0.3512 -0.4519 -0.4699
 6180SOL    HW130002   1.405   3.056   1.963 -0.6943  0.4947  0.1606
 6180SOL    HW230003   1.297   2.984   2.016 -0.6160  0.1485 -0.0997
 6181SOL     OW30004   3.380   0.399   2.331  0.5123  0.2681 -0.0232
 6181SOL    HW130005   3.345   0.406   2.242  1.7481  1.2513 -0.4270
 6181SOL    HW230006   3.462   0.448   2.324  0.5050  0.3814  0.7166
 6182SOL     OW30007   0.164   2.545   4.577  0.5164  0.6590 -0.5767
 6182SOL    HW130008   0.254   2.546   4.609  0.7193  1.4810 -1.1497
 6182SOL    HW230009   0.168   2.513   4.487  2.5246  1.8209 -0.9078
 6183SOL     OW30010   4.697   4.352   3.577 -0.5173  0.4029 -0.3402
 6183SOL    HW130011   4.696   4.410   3.501  0.5560  0.5745 -0.2117
 6183SOL    HW230012   4.605   4.326   3.577 -0.6175  0.7325  1.3492
 6184SOL     OW30013   1.224   3.751   5.104  0.1723 -0.2638 -0.3466
 6184SOL    HW130014   1.198   3.659   5.112  0.1219 -0.1305  1.0113
 6184SOL    HW230015   1.318   3.756   5.086 -0.1343  0.7775 -1.7091
 6185SOL     OW30016   3.941   3.641   5.992 -0.2473 -0.1525 -0.6067
 6185SOL    HW130017   4.000   3.579   5.950  0.0087 -0.1541 -0.2360
 6185SOL    HW230018   3.919   3.586   6.067 -2.2674 -0.7458 -1.6195
 6186SOL     OW30019   3.915   1.391   8.295  0.6796  0.2439  0.1966
 6186SOL    HW130020   3.833   1.347   8.273  0.0620  1.0612  0.8762
 6186SOL    HW230021   3.882   1.480   8.305  0.6872 -0.0338  2.7132
 6187SOL     OW30022   4.192   2.421   1.795 -0.2120 -0.5263 -0.0187
 6187SOL    HW130023   4.259   2.454   1.856 -1.4776  1.2038  0.4265
 6187SOL    HW230024   4.158   2.345   1.843 -1.2974 -0.4600 -0.6996
 6188SOL     OW30025   4.702   0.919   0.405  0.4778 -0.0374  0.3319
 6188SOL    HW130026   4.674   0.941   0.316  1.8325  1.2459  0.2232
 6188SOL    HW230027   0.023   1.001   0.426 -1.3270  0.4258  2.3184
 6189SOL     OW30028   2.358   4.362   1.428 -0.0241  0.5047 -0.7768
 6189SOL    HW130029   2.400   4.309   1.361  0.9198  1.4755 -0.9464
 6189SOL    HW230030   2.435   4.401   1.469  0.9088  0.5484 -2.5754
 6190SOL     OW30031   1.057   0.014   5.291 -0.2309 -0.2818 -0.1538
 6190SOL    HW130032   0.969   0.009   5.327 -0.7539  1.0153 -1.2700
 6190SOL    HW230033   1.048   4.674   5.220  0.1302 -1.7785  1.1281
 6191SOL     OW30034   2.566   1.944  13.083  0.1886  0.1802  0.0392
 6191SOL    HW130035   2.630   1.883  13.046 -0.4445 -1.9991  2.4980
 6191SOL    HW230036   2.489   1.931  13.027  1.3351  1.5772 -1.8532
 6192SOL     OW30037   2.287   4.279   3.674  0.2864 -0.5045  0.0118
 6192SOL    HW130038   2.294   4.190   3.708  0.2272 -0.3690  0.3759
 6192SOL    HW230039   2.370   4.310   3.638  0.5698  0.7497  1.7546
 6193SOL     OW30040   2.309   0.091   1.034  0.2946 -0.4887 -0.1791
 6193SOL    HW130041   2.340   0.153   0.968 -0.0015  0.6235  0.7236
 6193SOL    HW230042   2.228   0.062   0.993 -0.9099  1.7754  0.5381
 6194SOL     OW30043   4.078   2.407   3.260 -0.2034 -0.5148 -0.1649
 6194SOL    HW130044   4.099   2.423   3.352 -0.2606  0.4215 -0.3197
 6194SOL    HW230045   4.076   2.311   3.258 -1.0689 -0.5129  0.8300
 6195SOL     OW30046   3.732   2.764   9.095  0.1515 -0.6682 -0.2827
 6195SOL    HW130047   3.648   2.797   9.126 -0.1097 -2.5123  1.0047
 6195SOL    HW230048   3.714   2.733   9.006 -1.7515 -1.3043  0.3330
 6196SOL     OW30049   4.053   3.126   3.709  0.9988 -0.2178 -0.3522
 6196SOL    HW130050   4.100   3.148   3.790 -1.5735  3.4844  0.0847
 6196SOL    HW230051   4.122   3.131   3.643 -0.1029 -2.6201 -1.6745
 6197SOL     OW30052   1.921   1.165   7.640 -1.0304 -0.0759 -0.1007
 6197SOL    HW130053   1.934   1.159   7.734  2.1981 -1.0246 -0.6210
 6197SOL    HW230054   1.903   1.073   7.619 -1.1078  0.3728 -2.0264
 6198SOL     OW30055   0.795   1.245   2.849 -1.1697  0.2296 -0.5166
 6198SOL    HW130056   0.733   1.224   2.918 -0.6325  0.8202  0.1551
 6198SOL    HW230057   0.819   1.155   2.827  0.1588  0.2648  0.7509
 6199SOL     OW30058   1.408   0.567   1.819 -0.4290 -0.3420 -0.2695
 6199SOL    HW130059   1.343   0.549   1.887 -0.6496 -0.4486 -0.5106
 6199SOL    HW230060   1.377   0.653   1.790  2.4098  0.0615 -2.0856
 6200SOL     OW30061   1.014   2.583   2.036  0.4216  0.5333  0.1741
 6200SOL    HW130062   0.953   2.657   2.040 -1.1362 -0.5781 -2.5448
 6200SOL    HW230063   0.951   2.512   2.044 -0.8892  1.2066 -3.7602
 6201SOL     OW30064   0.286   4.579   9.162  0.4230  0.6703  0.3278
 6201SOL    HW130065   0.283   4.559   9.256 -1.2331 -1.6535 -0.2084
 6201SOL    HW230066   0.254   4.504   9.112 -1.0309  2.1113 -0.9102
 6202SOL     OW30067   3.715   0.212   9.325 -0.2242  0.1910  0.2324
 6202SOL    HW130068   3.709   0.266   9.246  2.3698 -0.8113 -0.6609
 6202SOL    HW230069   3.688   0.131   9.281  1.1689 -0.4575  0.5681
 6203SOL     OW30070   3.969   2.760  11.836 -0.0261 -0.4199  0.6696
 6203SOL    HW130071   3.980   2.851  11.807 -1.9958 -0.5365 -0.3978
 6203SOL    HW230072   4.055   2.719  11.832  0.3990  0.5040  0.3103
 6204SOL     OW30073   2.152   3.308  11.320  0.5543  0.1739  0.2409
 6204SOL    HW130074   2.204   3.386  11.302  1.9169 -0.4194  1.6055
 6204SOL    HW230075   2.207   3.259  11.382  0.9121  0.9079  0.4995
 6205SOL     OW30076   0.943   4.105   9.959  0.3829 -0.0405  0.5289
 6205SOL    HW130077   0.905   4.080  10.043 -0.7414 -0.5965 -0.1374
 6205SOL    HW230078   0.982   4.191   9.975 -1.7975  1.1188 -0.3241
 6206SOL     OW30079   1.132   3.561   8.150  0.4817  0.0074 -0.2085
 6206SOL    HW130080   1.097   3.649   8.141  0.4649  0.1168  0.9784
 6206SOL    HW230081   1.172   3.567   8.237  0.6088  1.9326 -0.4120
 6207SOL     OW30082   1.967   2.813  10.059 -0.3280  0.4220  0.4740
 6207SOL    HW130083   1.986   2.845  10.148  0.6767  0.9609  0.0680
 6207SOL    HW230084   2.041   2.754  10.045 -0.4118  0.1181  1.3004
 6208SOL     OW30085   0.935   2.227  17.024 -0.0413  0.1705 -0.8396
 6208SOL    HW130086   0.938   2.312  17.067  2.5718 -0.7913  0.8964
 6208SOL    HW230087   0.871   2.177  17.073 -1.2268  1.2154 -1.3204
 6209SOL     OW30088   4.478   0.919   4.104  0.2977  0.0984 -0.0268
 6209SOL    HW130089   4.509   0.855   4.168  1.3078  2.2059  1.5814
 6209SOL    HW230090   4.559   0.922   4.054  0.8570  0.8981  0.9360
 6210SOL     OW30091   1.129   0.084   1.483 -0.2035 -0.3343 -0.0861
 6210SOL    HW130092   1.102   0.036   1.405  0.2227  2.1963 -1.8038
 6210SOL    HW230093   1.223   0.079   1.463  0.1756 -0.6507  1.7879
 6211SOL     OW30094   3.083   3.192   3.333 -0.3146  0.3043 -0.0963
 6211SOL    HW130095   3.116   3.265   3.280 -0.7489 -0.2901 -1.2075
 6211SOL    HW230096   3.007   3.232   3.373 -0.5402 -0.7816  0.5421
 6212SOL     OW30097   3.506   1.766   8.430  0.5357  0.6516 -0.4457
 6212SOL    HW130098   3.459   1.843   8.398 -2.8318 -0.7875  1.0099
 6212SOL    HW230099   3.561   1.746   8.354  2.3077  1.1534  0.7188
 6213SOL     OW30100   2.039   0.120   2.130 -0.1313  0.5024  0.9407
 6213SOL    HW130101   2.052   0.036   2.086  0.1802  1.1287 -0.1791
 6213SOL    HW230102   2.035   0.184   2.059  1.1978 -2.5315 -1.8641
 6214SOL     OW30103   4.634   3.898   6.186  0.1927  0.2993  0.3194
 6214SOL    HW130104   0.005   3.906   6.175  0.1235 -0.1467 -0.6367
 6214SOL    HW230105   4.627   3.975   6.243  1.9102  0.9748 -0.3727
 6215SOL     OW30106   4.354   4.590   5.659 -0.0545  0.0317 -0.6236
 6215SOL    HW130107   4.276   4.535   5.663 -1.0511  1.3532 -1.8203
 6215SOL    HW230108   4.358   4.628   5.747 -0.0821  1.7689 -1.3715
 6216SOL     OW30109   1.278   3.192   6.081  0.1012  0.6754  0.3352
 6216SOL    HW130110   1.267   3.130   6.152 -1.3775  1.3955  0.7334
 6216SOL    HW230111   1.369   3.185   6.054 -0.1306  1.1197 -0.5835
 6217SOL     OW30112   1.001   2.282   6.203  0.3893 -0.9052 -0.2773
 6217SOL    HW130113   0.999   2.215   6.272  0.9369 -0.4754  0.1517
 6217SOL    HW230114   1.095   2.284   6.188  0.6048 -1.8849  0.9253
 6218SOL     OW30115   3.765   2.218   0.518  0.4987  0.2588 -0.0815
 6218SOL    HW130116   3.711   2.144   0.492  2.0864 -0.2621 -1.9076
 6218SOL    HW230117   3.855   2.204   0.487  0.3874  0.1397 -0.3514
 6219SOL     OW30118   3.556   3.223  11.645 -0.1506 -0.3154  0.0303
 6219SOL    HW130119   3.465   3.249  11.660 -0.1451 -0.0952 -0.3315
 6219SOL    HW230120   3.552   3.184  11.558 -2.6641 -2.3315  1.0428
 6220SOL     OW30121   1.792   2.007   5.868  0.0574  0.0272  0.1883
 6220SOL    HW130122   1.826   2.073   5.808  1.5450  1.6616  2.8244
 6220SOL    HW230123   1.850   1.935   5.845  2.3113  1.4376  1.4230
 6221SOL     OW30124   0.428   3.857   7.075  0.2354  0.1861 -0.5983
 6221SOL    HW130125   0.413   3.776   7.125  0.9420  2.0990  2.7057
 6221SOL    HW230126   0.471   3.820   6.998  2.9680  0.0142  0.9704
 6222SOL     OW30127   4.069   2.721   9.808 -0.4715  0.4503 -1.3358
 6222SOL    HW130128   4.055   2.782   9.736  0.0039 -0.4153 -2.1567
 6222SOL    HW230129   3.991   2.666   9.811 -0.5534  0.4487 -4.0986
 6223SOL     OW30130   2.025   3.680   7.271  0.4087  0.3299 -0.3976
 6223SOL    HW130131   2.011   3.586   7.261 -1.8333  0.3613  2.3017
 6223SOL    HW230132   2.120   3.687   7.272  0.2692  2.3394  0.2772
 6224SOL     OW30133   0.007   1.105   8.472 -0.2733 -0.1395  0.0716
 6224SOL    HW130134   4.649   1.141   8.438 -0.0136  1.8774  1.5525
 6224SOL    HW230135   4.708   1.093   8.564  0.7545 -0.9835  0.2201
 6225SOL     OW30136   3.105   1.771   6.667  0.1001 -0.0151  0.4104
 6225SOL    HW130137   3.161   1.803   6.596 -1.7583 -1.1344 -1.5790
 6225SOL    HW230138   3.015   1.782   6.635  1.0867  1.7418 -1.8080
 6226SOL     OW30139   4.386   2.407   5.874 -0.8150 -0.3524 -0.1117
 6226SOL    HW130140   4.467   2.379   5.833 -0.3395  0.1195  0.5033
 6226SOL    HW230141   4.362   2.472   5.808  1.9069  0.6191 -0.1260
 6227SOL     OW30142   2.568   1.046  14.368  0.2323 -0.2141  0.0237
 6227SOL    HW130143   2.515   1.111  14.323  0.5630 -0.4713 -0.7318
 6227SOL    HW230144   2.505   0.976  14.355 -0.7043  1.1224 -2.4888
 6228SOL     OW30145   1.275   4.179   5.294  0.1367  0.3074 -0.5048
 6228SOL    HW130146   1.265   4.114   5.224 -0.8271 -0.4012  0.2961
 6228SOL    HW230147   1.214   4.245   5.261 -2.3667 -1.8475 -0.1895
 6229SOL     OW30148   2.615   0.994  17.252 -0.5382 -0.4016 -0.5761
 6229SOL    HW130149   2.644   0.932  17.319 -0.8178  0.5292  0.4183
 6229SOL    HW230150   2.652   0.950  17.176 -0.4864 -0.8868 -0.2677
 6230SOL     OW30151   1.308   3.076   4.559 -0.0645  0.5738  0.3826
 6230SOL    HW130152   1.333   3.130   4.634 -0.0049 -1.1970  1.6632
 6230SOL    HW230153   1.267   3.001   4.604 -1.7795  0.2069 -1.8101
 6231SOL     OW30154   0.815   2.521  13.222 -0.0409 -0.3712 -0.7579
 6231SOL    HW130155   0.804   2.546  13.314 -1.8596  0.1718 -1.1228
 6231SOL    HW230156   0.829   2.600  13.170 -0.3491 -0.0183 -0.2996
 6232SOL     OW30157   1.062   0.838  11.365  0.2879 -0.2420  0.3125
 6232SOL    HW130158   1.012   0.759  11.382  1.3617 -0.7116  1.2970
 6232SOL    HW230159   1.119   0.804  11.297  1.2124  0.7674  0.5871
 6233SOL     OW30160   0.541   2.398   7.668 -0.2346 -0.0312  0.6004
 6233SOL    HW130161   0.451   2.424   7.689 -0.0317 -0.1161  1.5587
 6233SOL    HW230162   0.562   2.483   7.629  1.7748 -0.0560  1.6394
 6234SOL     OW30163   1.445   2.888   5.258 -0.0895 -0.4874 -0.1218
 6234SOL    HW130164   1.423   2.979   5.238  0.0855 -0.4582 -0.1811
 6234SOL    HW230165   1.532   2.869   5.223  0.2440  0.4206  0.2070
 6235SOL     OW30166   1.257   4.337   3.587  0.4230  0.4891  0.3428
 6235SOL    HW130167   1.298   4.419   3.612  0.1645  0.9119 -0.6116
 6235SOL    HW230168   1.217   4.370   3.506  1.7845  0.2024 -0.4401
 6236SOL     OW30169   3.255   1.361   7.158  0.3175 -0.2739 -0.8994
 6236SOL    HW130170   3.184   1.422   7.138  0.1959 -0.7882 -2.0101
 6236SOL    HW230171   3.329   1.419   7.179  0.3157 -0.9597  0.9460
 6237SOL     OW30172   2.839   2.413  10.876 -0.2394 -0.2638  0.2388
 6237SOL    HW130173   2.775   2.342  10.869 -0.1362 -0.3033 -0.2500
 6237SOL    HW230174   2.868   2.398  10.966  1.8089  0.8483 -0.2428
 6238SOL     OW30175   4.106   0.645   9.820  0.2999  0.0591 -0.1796
 6238SOL    HW130176   4.125   0.723   9.873 -1.3173  0.0769  0.3690
 6238SOL    HW230177   4.017   0.676   9.804  0.6055  0.2740 -1.4560
 6239SOL     OW30178   3.922   1.866   7.038  0.0507 -0.3581 -0.3259
 6239SOL    HW130179   3.930   1.856   7.133 -0.2897 -3.7826 -0.6393
 6239SOL    HW230180   3.925   1.961   7.028  2.2668 -0.2958  0.8542
 6240SOL     OW30181   1.092   2.537   8.066  0.5398  0.1314  0.0735
 6240SOL    HW130182   1.003   2.559   8.091  0.2564 -0.8457 -0.0637
 6240SOL    HW230183   1.093   2.442   8.055  0.7215  0.1111  0.2538
 6241SOL     OW30184   3.628   0.996   8.186  0.3343 -0.1455 -0.0783
 6241SOL    HW130185   3.619   0.915   8.237 -1.3208  1.0069  1.4535
 6241SOL    HW230186   3.537   0.997   8.156 -0.6928 -1.5884  2.9491
 6242SOL     OW30187   3.584   3.113  15.899  0.0162  1.0412 -0.5106
 6242SOL    HW130188   3.615   3.199  15.927 -1.8222  1.1942  1.1201
 6242SOL    HW230189   3.489   3.119  15.885 -0.4524 -1.6718  1.5725
 6243SOL     OW30190   1.219   0.408   1.461  0.3903  0.0273  0.7548
 6243SOL    HW130191   1.184   0.332   1.508  0.4063 -0.0468  0.6455
 6243SOL    HW230192   1.305   0.413   1.502  0.5342  0.2902  0.4229
 6244SOL     OW30193   1.835   4.718   9.311  0.1689  0.2265 -0.1809
 6244SOL    HW130194   1.820   0.085   9.284  1.9068  0.1230 -1.5139
 6244SOL    HW230195   1.820   4.718   9.406  0.8127 -0.5931 -0.0759
 6245SOL     OW30196   2.774   3.935   3.752  0.4943 -0.0850  0.0201
 6245SOL    HW130197   2.743   3.923   3.663  1.9578  1.1860 -0.6641
 6245SOL    HW230198   2.860   3.973   3.738  0.7272 -0.8940 -0.7560
 6246SOL     OW30199   0.666   2.708  10.297  0.3715 -0.4307 -0.2947
 6246SOL    HW130200   0.640   2.616  10.301 -3.8905  0.8760  1.3729
 6246SOL    HW230201   0.719   2.730  10.374  0.8227  1.8331 -1.2658
 6247SOL     OW30202   0.925   0.058   4.466  0.2345  0.3137  0.6441
 6247SOL    HW130203   0.858   0.006   4.511  1.0647  0.0661  1.5734
 6247SOL    HW230204   1.007   0.010   4.474  0.3668  0.0788 -2.2409
 6248SOL     OW30205   3.952   4.484   5.994 -0.3981 -0.1129  0.0108
 6248SOL    HW130206   3.870   4.533   5.987 -1.6781 -2.6341 -2.2603
 6248SOL    HW230207   3.960   4.448   5.906 -2.7156  1.3597 -0.7828
 6249SOL     OW30208   2.075   0.363   7.240 -0.1098  0.4960 -0.7441
 6249SOL    HW130209   2.163   0.369   7.277  0.4420  0.2482 -1.9817
 6249SOL    HW230210   2.057   0.270   7.255 -1.5315  1.2313  2.0175
 6250SOL     OW30211   0.913   3.913  10.738 -0.8972 -0.0169  0.0708
 6250SOL    HW130212   0.972   3.892  10.666 -0.7436 -0.3643  0.2984
 6250SOL    HW230213   0.969   3.943  10.810  2.7110 -2.0467 -1.8823
 6251SOL     OW30214   0.424   2.399   5.047 -0.0180 -1.1136 -0.1646
 6251SOL    HW130215   0.381   2.392   4.961  0.6081 -1.5191 -0.4440
 6251SOL    HW230216   0.499   2.348   5.018 -0.1720 -1.1834 -0.4406
 6252SOL     OW30217   0.585   0.292   2.362  0.0381 -0.5002 -0.2492
 6252SOL    HW130218   0.679   0.285   2.382 -0.2235  1.4389  1.6872
 6252SOL    HW230219   0.565   0.200   2.345  0.3995 -0.9398  1.6619
 6253SOL     OW30220   2.147   2.027   5.922 -0.2228 -0.3328  0.4941
 6253SOL    HW130221   2.228   2.051   5.967 -0.6431  1.6939  0.1704
 6253SOL    HW230222   2.109   1.980   5.996 -1.1088 -0.8989 -0.3164
 6254SOL     OW30223   2.295   4.500   2.217 -0.1430 -0.0407 -0.6152
 6254SOL    HW130224   2.383   4.463   2.215 -1.0020 -2.0983 -0.3888
 6254SOL    HW230225   2.248   4.450   2.284  0.7054  1.8490  1.3642
 6255SOL     OW30226   3.750   1.279   6.193  0.1393 -0.1192 -0.1360
 6255SOL    HW130227   3.796   1.215   6.248 -0.5324 -1.2468 -0.8761
 6255SOL    HW230228   3.736   1.349   6.257 -1.7166 -0.8147  0.2028
 6256SOL     OW30229   2.487   3.038   8.204 -0.2337 -0.2571 -0.1522
 6256SOL    HW130230   2.463   3.088   8.283  2.8122  0.3451  0.3881
 6256SOL    HW230231   2.482   3.101   8.132 -1.8242 -0.9678 -0.6613
 6257SOL     OW30232   2.202   1.521   8.281  0.1385 -0.2085 -0.6407
 6257SOL    HW130233   2.153   1.469   8.345  0.3229  0.5331  0.1009
 6257SOL    HW230234   2.163   1.606   8.300  1.6409  0.2363  0.4769
 6258SOL     OW30235   1.765   2.697   3.950  0.3460 -0.1128  0.3846
 6258SOL    HW130236   1.720   2.669   4.029  1.6950  0.1911  1.2571
 6258SOL    HW230237   1.852   2.659   3.956  0.3058 -0.1785  0.5391
 6259SOL     OW30238   4.310   3.593   4.589 -0.3464 -0.2516  0.6286
 6259SOL    HW130239   4.330   3.630   4.503  1.3117  1.2838  1.6559
 6259SOL    HW230240   4.266   3.669   4.628 -0.5903 -0.2801  0.4101
 6260SOL     OW30241   2.110   2.748   4.467  0.2828 -0.0206 -0.4961
 6260SOL    HW130242   2.024   2.746   4.425 -1.2268  2.9494  2.4045
 6260SOL    HW230243   2.162   2.689   4.413  1.1654  2.9630 -2.9347
 6261SOL     OW30244   4.457   1.820   8.064  0.4757  0.3979  0.6360
 6261SOL    HW130245   4.439   1.815   7.970 -0.1730  2.9036  0.6427
 6261SOL    HW230246   4.544   1.779   8.069  0.7826  0.7993 -1.4177
 6262SOL     OW30247   2.987   2.328   3.479  0.4277  0.2503 -0.2315
 6262SOL    HW130248   2.962   2.285   3.398  0.0080 -1.1316  0.6396
 6262SOL    HW230249   3.077   2.349   3.454  0.9383 -0.4809  1.0022
 6263SOL     OW30250   0.008   1.558   9.292 -0.4326  1.0089  0.3045
 6263SOL    HW130251   4.674   1.600   9.355  1.1014 -0.0021  2.3842
 6263SOL    HW230252   4.682   1.476   9.292  0.9026  0.2085 -1.1825
 6264SOL     OW30253   2.999   0.563   9.455  0.0154  0.2432 -0.8537
 6264SOL    HW130254   2.957   0.478   9.451 -1.2478  0.7515  1.9429
 6264SOL    HW230255   2.924   0.617   9.479  1.4335  1.7218  0.2534
 6265SOL     OW30256   4.238   0.089   0.994 -0.4195 -0.2389  0.2174
 6265SOL    HW130257   4.225   4.718   0.998 -0.9070 -0.2743 -1.9007
 6265SOL    HW230258   4.327   0.098   1.029 -0.1031 -0.3575 -0.5420
 6266SOL     OW30259   4.166   1.012   8.559  0.2283 -0.7370  0.0663
 6266SOL    HW130260   4.159   1.096   8.603  3.1211  0.6275 -2.1026
 6266SOL    HW230261   4.079   1.001   8.522  1.3905 -0.6299 -2.6778
 6267SOL     OW30262   2.983   2.066   2.419  0.1507 -0.1529 -0.3247
 6267SOL    HW130263   3.023   2.151   2.438 -1.8077  0.1764  2.2508
 6267SOL    HW230264   2.996   2.055   2.324 -2.1313  0.1390 -0.6745
 6268SOL     OW30265   0.349   0.374  16.685 -0.0782 -0.2293 -0.2672
 6268SOL    HW130266   0.295   0.431  16.630  1.6912  0.1073 -1.6418
 6268SOL    HW230267   0.313   0.379  16.774  1.1685 -1.2865  0.3069
 6269SOL     OW30268   2.119   1.145  14.402 -0.2064 -0.1366 -0.3972
 6269SOL    HW130269   2.171   1.165  14.480  0.3506 -0.0959 -0.7757
 6269SOL    HW230270   2.033   1.132  14.441 -0.2927 -0.0685 -0.5688
 6270SOL     OW30271   3.908   3.063  15.151 -0.2803  0.1187 -0.7462
 6270SOL    HW130272   3.954   2.999  15.096  0.4639 -0.4263  0.5175
 6270SOL    HW230273   3.889   3.123  15.079 -0.5876 -1.6593 -2.1741
 6271SOL     OW30274   1.320   4.331   2.663  0.8318 -0.6717  0.0465
 6271SOL    HW130275   1.249   4.330   2.599  0.0382 -0.6849  0.9206
 6271SOL    HW230276   1.393   4.309   2.605  0.3266  1.5506 -1.4364
 6272SOL     OW30277   0.403   1.840   8.147  0.4482 -0.2573 -0.3840
 6272SOL    HW130278   0.492   1.806   8.154  0.2646 -0.8990 -1.2670
 6272SOL    HW230279   0.358   1.796   8.219  0.1070  1.6271  0.5533
 6273SOL     OW30280   1.291   0.134  14.129  0.2830 -0.3181  0.9212
 6273SOL    HW130281   1.373   0.182  14.132 -0.7324  1.4601  0.4268
 6273SOL    HW230282   1.232   0.199  14.167 -0.4406 -0.3667 -0.1208
 6274SOL     OW30283   4.255   3.065   6.937  0.3304 -0.2919  0.1163
 6274SOL    HW130284   4.258   3.074   7.033  0.8027  0.3415  0.0409
 6274SOL    HW230285   4.176   3.012   6.925  0.2643 -0.0249 -0.6209
 6275SOL     OW30286   0.000   0.619  12.317 -0.2480  0.2257  0.5044
 6275SOL    HW130287   0.093   0.611  12.296  0.1121  1.9403  1.4002
 6275SOL    HW230288   4.718   0.585  12.406  0.1065 -1.3004 -0.0605
 6276SOL     OW30289   0.493   4.104   7.314  0.6250  0.1121  0.0648
 6276SOL    HW130290   0.570   4.150   7.348 -0.4164  0.6962  1.6650
 6276SOL    HW230291   0.491   4.036   7.381  1.4984  0.1917  0.1624
 6277SOL     OW30292   3.689   0.685   6.403  0.4287 -0.2187 -0.7821
 6277SOL    HW130293   3.605   0.699   6.445 -0.7029 -2.3005 -2.3564
 6277SOL    HW230294   3.742   0.683   6.483  0.2096  0.9532 -0.6078
 6278SOL     OW30295   4.377   0.821   8.984 -0.3657 -0.2574 -0.1615
 6278SOL    HW130296   4.420   0.786   9.062 -1.3556  0.0206  0.5095
 6278SOL    HW230297   4.310   0.757   8.957  2.1006 -2.3499 -1.2972
 6279SOL     OW30298   3.972   3.142  10.527  0.0474  0.3914 -0.2438
 6279SOL    HW130299   3.987   3.094  10.608 -1.3506 -0.2539 -0.3634
 6279SOL    HW230300   3.883   3.129  10.495 -0.0868 -0.1530  0.3475
 6280SOL     OW30301   0.379   2.762  10.784  0.1216 -0.1126  0.3213
 6280SOL    HW130302   0.423   2.760  10.699  0.9643  3.3312  0.6721
 6280SOL    HW230303   0.310   2.703  10.755  0.4879  0.2791 -1.3607
 6281SOL     OW30304   3.507   4.214  14.186 -0.4088 -0.1298 -0.3254
 6281SOL    HW130305   3.511   4.263  14.269 -2.1832 -0.4525 -0.0459
 6281SOL    HW230306   3.594   4.176  14.189 -1.2280 -2.0529 -1.3900
 6282SOL     OW30307   1.496   4.587   3.567  0.3266 -0.0261 -0.6526
 6282SOL    HW130308   1.543   4.558   3.489  1.6858  1.1285 -0.2605
 6282SOL    HW230309   1.501   4.682   3.570  0.6696 -0.0682  0.2268
 6283SOL     OW30310   1.419   3.943  12.773 -0.4691  0.4796  0.3074
 6283SOL    HW130311   1.466   3.907  12.698 -1.0529 -1.3027  0.7932
 6283SOL    HW230312   1.488   3.983  12.825  0.5116 -1.1006  0.2161
 6284SOL     OW30313   1.118   4.584   8.751 -0.0765  0.6200 -0.2531
 6284SOL    HW130314   1.096   4.673   8.776 -1.4424  1.1885 -3.4435
 6284SOL    HW230315   1.190   4.550   8.805 -0.5969  0.2084  0.1787
 6285SOL     OW30316   2.551   4.636   3.531 -0.0319  0.3847 -0.1985
 6285SOL    HW130317   2.559   0.005   3.554  3.1410 -0.0648  0.4748
 6285SOL    HW230318   2.634   4.616   3.489  1.1995 -1.0053  2.9138
 6286SOL     OW30319   1.640   3.223   0.928  0.3021  0.3125 -0.0182
 6286SOL    HW130320   1.613   3.134   0.950  0.7632 -0.2940 -1.8909
 6286SOL    HW230321   1.576   3.239   0.859  0.5858 -0.0566 -0.3646
 6287SOL     OW30322   2.152   1.023   6.712 -0.2971 -0.5022  0.0034
 6287SOL    HW130323   2.226   1.051   6.765  1.7123 -0.5777 -2.7837
 6287SOL    HW230324   2.165   1.071   6.630  0.2885  1.6413  1.3513
 6288SOL     OW30325   0.429   1.825   8.497  0.0938 -0.2015  0.4599
 6288SOL    HW130326   0.397   1.915   8.496  1.3041  0.2253 -0.8318
 6288SOL    HW230327   0.521   1.850   8.492 -0.4077  1.5890 -0.0072
 6289SOL     OW30328   2.950   0.922   5.789 -0.2973  0.3690  0.3816
 6289SOL    HW130329   2.964   0.850   5.727 -0.6489 -1.4400  2.4119
 6289SOL    HW230330   2.883   0.969   5.740 -0.6717 -1.6908 -1.1069
 6290SOL     OW30331   2.890   3.029   2.366 -0.3007 -0.0995  0.5411
 6290SOL    HW130332   2.927   2.983   2.290  0.3635 -1.1929  1.5347
 6290SOL    HW230333   2.970   3.067   2.403 -0.1041 -0.8590  0.8929
 6291SOL     OW30334   3.374   2.395   6.838 -0.1202  0.0214  0.2645
 6291SOL    HW130335   3.425   2.377   6.917 -0.3808 -2.0346 -0.0414
 6291SOL    HW230336   3.365   2.491   6.845 -2.0051 -0.2502  1.5808
 6292SOL     OW30337   1.211   3.694   6.777 -0.0181  0.4136 -0.2471
 6292SOL    HW130338   1.169   3.779   6.762  1.3856  1.4112  1.4260
 6292SOL    HW230339   1.264   3.687   6.698  1.2320  0.6345  0.5789
 6293SOL     OW30340   0.973   2.436   3.976 -0.5917  0.1962  0.2721
 6293SOL    HW130341   0.913   2.456   4.048 -0.9182  0.6231 -0.1160
 6293SOL    HW230342   1.031   2.371   4.016  0.9814  1.4758  0.0793
 6294SOL     OW30343   3.270   2.922   5.953 -0.2787  0.0202  0.2047
 6294SOL    HW130344   3.349   2.868   5.962  0.5041  0.9901 -0.6822
 6294SOL    HW230345   3.272   2.948   5.861 -1.1371  1.0449  0.4782
 6295SOL     OW30346   0.561   4.335  10.815 -0.0446  0.1279  0.0604
 6295SOL    HW130347   0.506   4.387  10.873 -1.2204 -2.3612  1.1548
 6295SOL    HW230348   0.621   4.305  10.883 -0.0483 -1.7745 -0.7779
 6296SOL     OW30349   2.333   3.172  11.510 -0.0944  0.4778  0.2106
 6296SOL    HW130350   2.337   3.180  11.605 -1.0340 -0.7983  0.3686
 6296SOL    HW230351   2.424   3.168  11.480  0.0524  0.6659  0.6424
 6297SOL     OW30352   0.362   4.285   2.025  0.0803 -0.4217  0.3511
 6297SOL    HW130353   0.273   4.309   1.997  0.3045 -1.0824 -0.9474
 6297SOL    HW230354   0.358   4.190   2.029 -0.0276 -0.4045  0.6193
 6298SOL     OW30355   0.957   0.451  16.560  0.2988  0.6069 -0.0549
 6298SOL    HW130356   0.922   0.404  16.635 -1.6118  0.3088 -1.1237
 6298SOL    HW230357   1.035   0.398  16.542  1.1731  1.2420  1.8932
 6299SOL     OW30358   3.997   3.956   9.084  0.4810  0.2970 -0.2630
 6299SOL    HW130359   3.934   3.884   9.076 -1.8959  2.4239 -0.6370
 6299SOL    HW230360   4.045   3.924   9.161 -2.6680  1.4568  2.1486
 6300SOL     OW30361   3.394   4.604   2.411 -0.2822 -0.4085 -0.2036
 6300SOL    HW130362   3.404   4.666   2.483  0.0635 -2.2012  1.2997
 6300SOL    HW230363   3.342   4.661   2.355  0.0004  0.0944  0.0508
 6301SOL     OW30364   2.835   3.052   8.588 -0.1334  0.1934 -0.1839
 6301SOL    HW130365   2.794   3.137   8.574 -1.8690 -0.5177  0.4661
 6301SOL    HW230366   2.889   3.065   8.511 -0.5442 -0.0419 -0.5159
 6302SOL     OW30367   4.152   3.299   5.554 -0.3577 -0.4256  0.5062
 6302SOL    HW130368   4.095   3.367   5.589 -0.9417 -0.0645 -1.1284
 6302SOL    HW230369   4.195   3.338   5.477 -0.5562  1.8600  1.5687
 6303SOL     OW30370   1.361   2.418   1.771  0.3353 -0.4030  0.1741
 6303SOL    HW130371   1.390   2.490   1.826  0.5781  0.1051 -0.6216
 6303SOL    HW230372   1.314   2.366   1.836  0.0695  1.5262  1.5070
 6304SOL     OW30373   2.291   1.930   7.645 -0.0709 -0.3650  0.3122
 6304SOL    HW130374   2.207   1.958   7.678  0.0494  0.7355 -0.3208
 6304SOL    HW230375   2.295   1.841   7.682  1.1104 -0.3843  0.1479
 6305SOL     OW30376   0.142   2.667   1.773 -0.1223 -0.1023  0.4913
 6305SOL    HW130377   0.157   2.614   1.695 -3.3082 -0.1403 -0.0941
 6305SOL    HW230378   0.198   2.615   1.832  2.0288 -0.0218 -1.4907
 6306SOL     OW30379   2.236   1.906  15.005 -0.0771  0.3617  0.4418
 6306SOL    HW130380   2.316   1.932  14.960  0.5607 -2.2557  0.0318
 6306SOL    HW230381   2.169   1.908  14.937  1.7609 -1.3267 -1.4166
 6307SOL     OW30382   0.350   2.785   4.542 -0.0929 -0.3998  0.2507
 6307SOL    HW130383   0.408   2.854   4.510 -0.4850 -0.0723  0.2476
 6307SOL    HW230384   0.344   2.726   4.467  0.4062 -0.8355  0.5589
 6308SOL     OW30385   3.449   0.275   9.595 -0.1086 -0.5087  0.0955
 6308SOL    HW130386   3.523   0.272   9.656  0.1967  1.4515 -0.1698
 6308SOL    HW230387   3.383   0.257   9.661  2.2079 -0.6278  2.3932
 6309SOL     OW30388   0.497   1.147   0.550 -0.3440 -0.3923  0.6187
 6309SOL    HW130389   0.546   1.140   0.632 -1.7929  1.5644  1.6593
 6309SOL    HW230390   0.560   1.128   0.481 -1.8027 -1.2762 -0.4605
 6310SOL     OW30391   3.198   3.682   4.072 -0.2282  0.0791 -0.1825
 6310SOL    HW130392   3.261   3.616   4.101  1.0082  1.7178  0.8688
 6310SOL    HW230393   3.258   3.754   4.052  0.3025 -0.2285  0.2921
 6311SOL     OW30394   2.208   0.733  15.337  0.3318  0.0534  0.2156
 6311SOL    HW130395   2.143   0.803  15.348 -0.4073 -0.4766 -0.7339
 6311SOL    HW230396   2.287   0.779  15.310  0.4413 -0.1657  0.1675
 6312SOL     OW30397   1.189   2.204   3.279  0.0734 -0.0105 -0.0486
 6312SOL    HW130398   1.188   2.194   3.184 -2.2952 -0.4747  0.0107
 6312SOL    HW230399   1.264   2.262   3.290  0.7788 -0.7463 -0.9969
 6313SOL     OW30400   3.424   0.105  12.001  0.0081  0.0262  0.1634
 6313SOL    HW130401   3.392   0.157  11.927 -0.9621 -0.6406  0.1187
 6313SOL    HW230402   3.518   0.093  11.987 -0.0715 -1.4549  0.9354
 6314SOL     OW30403   3.093   2.052   7.069 -0.4863  0.2449  0.0767
 6314SOL    HW130404   3.188   2.048   7.075 -0.5105 -0.9017 -0.4402
 6314SOL    HW230405   3.083   2.055   6.974 -1.8761  0.1777  0.2105
 6315SOL     OW30406   0.742   4.378   3.271  0.0483  0.7643  0.6930
 6315SOL    HW130407   0.744   4.424   3.355  3.3087  3.7044 -1.0051
 6315SOL    HW230408   0.648   4.361   3.268  0.3126 -0.1260 -2.7035
 6316SOL     OW30409   4.565   0.388   5.766  0.1714 -0.0751  0.1683
 6316SOL    HW130410   4.587   0.473   5.728  0.2333 -0.4501 -0.6346
 6316SOL    HW230411   4.512   0.421   5.838  0.2738 -2.9773  1.6046
 6317SOL     OW30412   0.042   4.418   8.058 -0.7420 -0.9491  0.0248
 6317SOL    HW130413   0.016   4.485   7.995  0.0513  0.0406  0.7456
 6317SOL    HW230414   0.087   4.350   8.008  0.6520 -0.8366  1.1310
 6318SOL     OW30415   2.894   3.319  15.812  0.0057 -0.4320 -0.5228
 6318SOL    HW130416   2.915   3.337  15.721 -2.4478 -0.2727 -1.0464
 6318SOL    HW230417   2.913   3.226  15.824  1.5768 -0.1886 -1.0391
 6319SOL     OW30418   1.074   2.229   4.825  0.4501 -0.0662 -0.1253
 6319SOL    HW130419   1.142   2.296   4.833 -0.8713  1.6972 -3.5969
 6319SOL    HW230420   1.124   2.149   4.807  2.2084  1.4337 -1.8534
 6320SOL     OW30421   0.254   1.115  11.612  0.1737 -0.0119 -0.7881
 6320SOL    HW130422   0.314   1.162  11.555  1.3702  1.4868  1.7091
 6320SOL    HW230423   0.281   1.132  11.702 -4.2198  1.5030  0.2515
 6321SOL     OW30424   1.976   0.577   5.900 -0.0359 -0.3604  0.1692
 6321SOL    HW130425   1.991   0.516   5.828  0.5198 -2.4247  2.0161
 6321SOL    HW230426   2.050   0.554   5.956  2.1775  3.6179 -1.1393
 6322SOL     OW30427   2.443   3.548   8.967 -0.3626 -0.3192  0.1422
 6322SOL    HW130428   2.411   3.467   9.005  2.0137 -0.9954  0.6952
 6322SOL    HW230429   2.415   3.532   8.877  1.3004  0.2700 -0.4943
 6323SOL     OW30430   3.692   0.694  16.162 -0.3178  0.0382 -0.2946
 6323SOL    HW130431   3.641   0.772  16.144 -0.2619 -0.2809 -1.8311
 6323SOL    HW230432   3.700   0.648  16.079  3.6319  1.1657 -0.5734
 6324SOL     OW30433   2.517   3.862  10.224 -0.2855 -0.1186  0.4739
 6324SOL    HW130434   2.486   3.824  10.307  0.9897 -0.3948  0.8132
 6324SOL    HW230435   2.453   3.827  10.162  1.4424 -1.7804 -0.3212
 6325SOL     OW30436   1.286   1.457   8.073  0.3944 -0.3494  0.0699
 6325SOL    HW130437   1.340   1.443   7.995  0.0802 -1.1044 -0.0154
 6325SOL    HW230438   1.355   1.476   8.136  0.2954  1.0969 -0.2533
 6326SOL     OW30439   2.065   0.200  16.007  0.5902  0.3748  0.1164
 6326SOL    HW130440   2.147   0.249  16.003  0.2390  0.8949 -0.9659
 6326SOL    HW230441   2.100   0.118  16.041  0.3686  1.2370  2.4313
 6327SOL     OW30442   1.682   4.019   0.296 -0.5675  0.1326  0.3053
 6327SOL    HW130443   1.682   3.973   0.380 -0.2754 -1.0938 -0.3751
 6327SOL    HW230444   1.711   3.949   0.238 -1.8615  1.2359 -1.6602
 6328SOL     OW30445   2.190   2.905   8.809  0.5581 -0.6183 -0.4008
 6328SOL    HW130446   2.123   2.844   8.777 -0.3510 -0.0390  0.3858
 6328SOL    HW230447   2.271   2.867   8.777  1.8332  1.9449 -0.1741
 6329SOL     OW30448   2.506   2.798   3.306  0.1048 -0.2948 -0.8839
 6329SOL    HW130449   2.486   2.705   3.302  0.2950 -0.4414  1.4818
 6329SOL    HW230450   2.524   2.810   3.400 -2.6579 -0.4840 -0.3464
 6330SOL     OW30451   3.276   3.125   6.104 -0.1994 -0.0637  0.1420
 6330SOL    HW130452   3.184   3.141   6.124  0.6308 -0.1576  4.1537
 6330SOL    HW230453   3.273   3.037   6.066  0.8780 -0.0518  0.0300
 6331SOL     OW30454   3.093   2.765   2.824 -0.1525 -0.2308  0.2368
 6331SOL    HW130455   3.183   2.734   2.837 -0.7972 -1.9450  0.5139
 6331SOL    HW230456   3.063   2.687   2.779  1.5659  1.2048 -3.4379
 6332SOL     OW30457   3.869   3.362  13.087  0.3603 -0.5088 -0.2089
 6332SOL    HW130458   3.807   3.401  13.026 -1.5627 -1.7643  0.9613
 6332SOL    HW230459   3.947   3.361  13.032  0.3740 -1.0981 -0.1717
 6333SOL     OW30460   0.714   2.209   6.719  0.4541  0.6384 -1.1091
 6333SOL    HW130461   0.701   2.300   6.745 -1.3751 -0.5775  2.1959
 6333SOL    HW230462   0.801   2.211   6.678  0.5148 -0.4722 -1.0302
 6334SOL     OW30463   1.663   2.724   6.045 -0.2502  0.3244 -0.5918
 6334SOL    HW130464   1.624   2.811   6.052  0.2419  0.6506 -1.8528
 6334SOL    HW230465   1.673   2.714   5.950 -0.4261  1.8367 -0.7742
 6335SOL     OW30466   1.319   4.400  12.153 -0.2128  0.0825  0.2705
 6335SOL    HW130467   1.374   4.325  12.175  1.0082  0.1840 -2.5203
 6335SOL    HW230468   1.289   4.434  12.238  1.2045 -0.5625  1.0218
 6336SOL     OW30469   4.063   2.967  12.050 -0.1971  0.5038 -0.8363
 6336SOL    HW130470   4.051   3.062  12.051 -3.4221  0.0674  0.2745
 6336SOL    HW230471   3.980   2.935  12.015  0.7827 -1.5565 -1.3352
 6337SOL     OW30472   0.473   2.777   8.865  0.2346  0.4520 -0.7273
 6337SOL    HW130473   0.426   2.841   8.812  0.2482 -0.4853 -1.8753
 6337SOL    HW230474   0.560   2.817   8.869  0.8339 -0.9546  0.1429
 6338SOL     OW30475   2.031   0.045   9.071 -0.3487  0.4318 -0.1247
 6338SOL    HW130476   2.043   0.132   9.110  0.2317 -0.0395  0.7362
 6338SOL    HW230477   1.994   4.717   9.142 -0.0927  0.3821 -0.0282
 6339SOL     OW30478   4.569   0.119   1.557 -1.0476 -0.3110 -0.3594
 6339SOL    HW130479   4.664   0.131   1.546 -0.7769 -1.1402  1.1709
 6339SOL    HW230480   4.564   0.070   1.639  0.4321 -1.0687 -0.7290
 6340SOL     OW30481   3.473   3.023   7.433  0.0279 -0.3177 -0.0546
 6340SOL    HW130482   3.431   3.092   7.484 -1.6024 -0.0986 -1.6939
 6340SOL    HW230483   3.496   3.071   7.353  0.7622 -1.3049 -0.4410
 6341SOL     OW30484   3.626   2.238   5.831 -0.6147 -0.5131  0.4550
 6341SOL    HW130485   3.650   2.300   5.900 -1.6106  1.4620 -0.9749
 6341SOL    HW230486   3.706   2.236   5.778  0.3095  0.0011  1.8290
 6342SOL     OW30487   2.950   1.906   7.854 -0.2054 -0.2550 -0.2212
 6342SOL    HW130488   2.944   2.000   7.837  0.6914 -0.4671 -1.6795
 6342SOL    HW230489   2.858   1.900   7.881 -0.5536 -0.8640 -1.5212
 6343SOL     OW30490   2.860   3.792   8.761  0.2736 -0.4588 -0.2029
 6343SOL    HW130491   2.914   3.802   8.839 -0.4334 -0.0447  0.2407
 6343SOL    HW230492   2.771   3.770   8.791 -0.1797  0.5778 -0.7773
 6344SOL     OW30493   1.250   2.142  12.349 -0.1591 -0.0440 -0.4154
 6344SOL    HW130494   1.263   2.190  12.268  0.5820 -2.7457 -1.8925
 6344SOL    HW230495   1.320   2.180  12.403 -0.5726 -0.0851  0.1461
 6345SOL     OW30496   2.494   2.431   5.813 -0.1149 -0.0904  0.1677
 6345SOL    HW130497   2.460   2.362   5.756 -0.9577  2.5960 -2.5845
 6345SOL    HW230498   2.577   2.458   5.774 -1.4084 -0.0851 -2.6281
 6346SOL     OW30499   0.662   4.063  15.326 -0.4292  0.1449  0.0206
 6346SOL    HW130500   0.656   4.091  15.418 -0.9137 -1.0100  0.3408
 6346SOL    HW230501   0.757   4.064  15.315 -0.2404 -0.3114  1.5828
 6347SOL     OW30502   0.329   1.215   5.174 -0.1130  0.0105  0.2273
 6347SOL    HW130503   0.243   1.257   5.164 -0.8342 -0.6925  3.3823
 6347SOL    HW230504   0.316   1.176   5.261  0.4643 -2.4395 -0.7757
 6348SOL     OW30505   2.253   3.481   6.953 -0.2481  0.3518  0.5969
 6348SOL    HW130506   2.166   3.452   6.923  0.1297 -0.1142 -0.0607
 6348SOL    HW230507   2.258   3.551   6.888 -0.2864  1.8829  2.2538
 6349SOL     OW30508   2.846   2.656   8.777  0.1604  0.2267  0.0210
 6349SOL    HW130509   2.849   2.632   8.870 -1.5789 -0.5798 -0.1329
 6349SOL    HW230510   2.752   2.667   8.762 -0.2373 -0.3898  2.0278
 6350SOL     OW30511   2.546   0.402  13.505 -0.0651 -0.6620  0.0249
 6350SOL    HW130512   2.461   0.444  13.491  0.4295  0.8790  1.7684
 6350SOL    HW230513   2.505   0.326  13.548 -2.6094  0.7070  0.0361
 6351SOL     OW30514   3.385   4.084   2.700  0.2055  0.0785 -0.8031
 6351SOL    HW130515   3.439   4.102   2.777  0.4459  0.8473 -1.1514
 6351SOL    HW230516   3.451   4.073   2.632  0.7142  1.4921 -0.5365
 6352SOL     OW30517   1.228   2.705  16.337  0.1407  0.4367 -0.3071
 6352SOL    HW130518   1.318   2.705  16.369 -0.3718  0.0339  1.1256
 6352SOL    HW230519   1.181   2.703  16.420 -1.9033 -0.2087 -1.4628
 6353SOL     OW30520   4.660   2.108   2.962  0.5374 -0.6819 -0.1391
 6353SOL    HW130521   4.666   2.021   3.001  1.0679 -0.3597  0.4962
 6353SOL    HW230522   4.633   2.161   3.037 -0.0573 -3.0043  1.2930
 6354SOL     OW30523   3.855   2.275   4.886  0.0731  0.3338 -0.1101
 6354SOL    HW130524   3.900   2.343   4.835  0.6527 -0.4963 -0.6991
 6354SOL    HW230525   3.920   2.205   4.884 -0.7063 -0.3738 -0.1975
 6355SOL     OW30526   3.112   3.204  16.809 -0.2212  0.1133 -0.4007
 6355SOL    HW130527   3.199   3.196  16.848 -1.5388 -1.6003  2.2194
 6355SOL    HW230528   3.102   3.139  16.739 -1.8937 -1.2837  1.1584
 6356SOL     OW30529   0.166   4.397  15.867 -0.5132  0.0203 -0.0730
 6356SOL    HW130530   0.082   4.352  15.876 -3.0736  4.0633 -3.9270
 6356SOL    HW230531   0.169   4.480  15.916 -2.2495 -1.0612  1.8685
 6357SOL     OW30532   3.997   3.260   7.825  0.5660 -0.0592 -0.0391
 6357SOL    HW130533   4.055   3.335   7.837 -1.6745  1.6697  0.1123
 6357SOL    HW230534   4.011   3.219   7.910 -1.8387 -3.7485 -1.3848
 6358SOL     OW30535   4.257   1.861   6.243  0.0934 -0.3928  0.0681
 6358SOL    HW130536   4.298   1.778   6.218  2.9978  0.5166  1.8162
 6358SOL    HW230537   4.211   1.873   6.160 -0.1871 -1.2092  0.1041
 6359SOL     OW30538   2.998   3.340   3.743  0.0831  0.2392 -0.0816
 6359SOL    HW130539   2.962   3.364   3.657 -1.3671 -1.7362 -0.0167
 6359SOL    HW230540   3.062   3.412   3.745  2.6701 -2.0665  0.3876
 6360SOL     OW30541   4.257   2.008  10.745  0.5899  0.1567 -0.2207
 6360SOL    HW130542   4.209   2.084  10.711 -2.3520 -1.5613  0.0711
 6360SOL    HW230543   4.273   2.040  10.834 -0.8000 -0.1560  0.1481
 6361SOL     OW30544   3.021   2.221   8.272  0.1178 -0.6909 -0.4908
 6361SOL    HW130545   3.036   2.198   8.364 -0.0868 -0.5472 -0.4234
 6361SOL    HW230546   2.952   2.159   8.247 -0.0483 -1.6230  2.3532
 6362SOL     OW30547   0.765   3.552   2.930  0.0615  0.5777 -0.6180
 6362SOL    HW130548   0.725   3.618   2.874 -1.4189 -0.1226 -0.3850
 6362SOL    HW230549   0.807   3.492   2.868  0.1896  0.5931 -0.5458
 6363SOL     OW30550   1.166   1.452   9.384 -0.0636  0.5979  0.5571
 6363SOL    HW130551   1.188   1.545   9.391 -2.7433  1.1054  2.5363
 6363SOL    HW230552   1.129   1.448   9.296 -2.6585 -0.9320  1.7228
 6364SOL     OW30553   3.353   1.522   0.293 -0.3522 -0.5150 -0.4704
 6364SOL    HW130554   3.336   1.449   0.232  0.5005 -1.0369 -0.0831
 6364SOL    HW230555   3.409   1.470   0.351  0.1323 -1.5385 -1.8466
 6365SOL     OW30556   3.109   1.978   4.719  0.4780  0.1055 -0.4783
 6365SOL    HW130557   3.094   1.884   4.709  1.0931 -0.1960  1.4971
 6365SOL    HW230558   3.179   1.981   4.784  1.6397 -3.1957 -1.5827
 6366SOL     OW30559   2.781   1.116   4.488 -0.3765  0.1889  0.6065
 6366SOL    HW130560   2.742   1.127   4.402 -0.1142  0.2835  0.5006
 6366SOL    HW230561   2.711   1.143   4.548 -1.9778 -1.0822 -0.7021
 6367SOL     OW30562   4.269   2.936   2.539 -0.0917  0.9014  0.2853
 6367SOL    HW130563   4.315   2.945   2.456  0.3141  0.1669  0.4294
 6367SOL    HW230564   4.316   2.856   2.563 -0.1490  0.5140 -0.9342
 6368SOL     OW30565   1.520   2.705   3.643  0.1566  0.1864  0.4797
 6368SOL    HW130566   1.551   2.728   3.555 -2.1214  0.2176 -0.3147
 6368SOL    HW230567   1.600   2.729   3.690  2.2075 -1.8320 -1.9830
 6369SOL     OW30568   1.779   3.439   2.953  0.1923 -0.0824  1.2483
 6369SOL    HW130569   1.809   3.528   2.968  0.0295  0.8933 -4.2445
 6369SOL    HW230570   1.836   3.421   2.878  0.0950 -1.3024  1.4609
 6370SOL     OW30571   2.837   0.618   5.517 -0.3313 -0.6782  0.2020
 6370SOL    HW130572   2.826   0.659   5.603 -2.1891 -0.9530  0.1052
 6370SOL    HW230573   2.753   0.575   5.503 -1.6030  1.3113  1.7582
 6371SOL     OW30574   2.073   0.594   4.380  0.1528  0.2728  0.3950
 6371SOL    HW130575   2.033   0.571   4.296 -0.8918 -1.6751  1.4113
 6371SOL    HW230576   2.021   0.671   4.404 -1.3117 -1.0712  1.5360
 6372SOL     OW30577   3.874   2.392   7.699 -1.1467 -0.4689 -0.2783
 6372SOL    HW130578   3.965   2.377   7.723 -0.9521  0.1413 -0.6452
 6372SOL    HW230579   3.824   2.390   7.781  1.2816  1.3557  1.2024
 6373SOL     OW30580   4.188   2.582   0.971 -0.0925  0.0293  0.3857
 6373SOL    HW130581   4.213   2.621   0.887  0.0424  0.1347  0.4746
 6373SOL    HW230582   4.161   2.664   1.013 -2.0840  0.0116 -0.8287
 6374SOL     OW30583   0.109   2.885  13.935 -0.6372 -0.2638 -0.5069
 6374SOL    HW130584   0.146   2.935  13.863  0.4758  0.0276  0.2570
 6374SOL    HW230585   0.092   2.958  13.994 -0.2706 -1.1392  0.6940
 6375SOL     OW30586   0.527   0.053  13.880 -0.1744  0.3572 -0.0181
 6375SOL    HW130587   0.526   0.135  13.930  2.3842 -0.5756  1.5604
 6375SOL    HW230588   0.620   0.042  13.865  0.4869 -1.1897  5.3263
 6376SOL     OW30589   1.702   2.061   7.437  0.5153 -0.2869  0.0865
 6376SOL    HW130590   1.638   1.998   7.471  0.8175  0.6008  2.3506
 6376SOL    HW230591   1.703   2.046   7.343  2.5878 -3.6886  0.6515
 6377SOL     OW30592   0.800   4.721   1.465  0.3431 -0.5445 -0.2886
 6377SOL    HW130593   0.765   4.655   1.526  2.6053 -1.6560 -0.1851
 6377SOL    HW230594   0.746   0.007   1.387 -2.9249 -0.4112  1.9804
 6378SOL     OW30595   0.044   0.204   1.271  0.4094  0.3388 -0.0270
 6378SOL    HW130596   0.043   0.183   1.365  1.0820  1.5411  0.2516
 6378SOL    HW230597   0.042   0.118   1.229 -1.3798 -0.0125  0.7425
 6379SOL     OW30598   2.593   4.392  16.838 -0.3370 -0.3825  0.6233
 6379SOL    HW130599   2.592   4.470  16.894  0.1718 -0.6155  0.9471
 6379SOL    HW230600   2.647   4.341  16.897 -0.0923  0.8916  1.5165
 6380SOL     OW30601   4.067   4.008  14.898  0.0671  0.1035 -0.0243
 6380SOL    HW130602   4.013   4.058  14.958 -0.2984 -0.2907 -0.0253
 6380SOL    HW230603   4.121   3.956  14.958  0.7081  0.2358 -0.4811
 6381SOL     OW30604   0.363   0.183  13.228  0.6830  0.0884  0.1506
 6381SOL    HW130605   0.421   0.153  13.299  0.5654  2.1461  1.1176
 6381SOL    HW230606   0.314   0.252  13.273 -1.0831 -2.0935  1.5945
 6382SOL     OW30607   3.465   3.044   4.889  0.0960  0.2795  0.3011
 6382SOL    HW130608   3.541   3.096   4.863  0.4013  0.8904  2.4343
 6382SOL    HW230609   3.485   3.024   4.980  0.2855 -0.5829  0.0744
 6383SOL     OW30610   0.594   4.008   7.799  0.0992  0.3716  0.2306
 6383SOL    HW130611   0.564   4.078   7.857 -0.2600 -0.1922  0.7244
 6383SOL    HW230612   0.658   3.969   7.858  0.4133 -0.2233 -0.4977
 6384SOL     OW30613   3.305   3.656   9.443  1.1484 -0.2105 -0.3193
 6384SOL    HW130614   3.332   3.589   9.379  1.1233 -1.2567  0.7753
 6384SOL    HW230615   3.244   3.710   9.392 -0.4549 -0.5793  1.2288
 6385SOL     OW30616   0.196   3.167   0.293  0.2094 -0.7150 -0.6756
 6385SOL    HW130617   0.143   3.159   0.372 -0.6576  2.6177 -0.9177
 6385SOL    HW230618   0.173   3.256   0.265 -0.0772 -0.2900  0.9329
 6386SOL     OW30619   1.693   1.932   2.798  0.0226  0.2170  0.5265
 6386SOL    HW130620   1.781   1.970   2.793  0.1301  0.1118  1.6559
 6386SOL    HW230621   1.701   1.842   2.766 -0.2551  1.2311 -2.3444
 6387SOL     OW30622   2.679   1.496   7.954  0.1177 -0.4723  0.4991
 6387SOL    HW130623   2.656   1.495   7.861 -1.7190 -2.9526  0.9646
 6387SOL    HW230624   2.765   1.456   7.965  1.1146  1.6062  0.1838
 6388SOL     OW30625   0.174   0.207   5.373  0.4533 -0.0647  0.1573
 6388SOL    HW130626   0.167   0.235   5.281  1.2314  0.0453  0.1381
 6388SOL    HW230627   0.082   0.181   5.386 -0.3789  1.5446 -2.3115
 6389SOL     OW30628   2.357   0.767   5.962  0.3281  1.0363 -0.4564
 6389SOL    HW130629   2.344   0.672   5.969 -0.0447  1.0465 -0.9850
 6389SOL    HW230630   2.419   0.757   5.890  0.6348 -1.0759  0.0843
 6390SOL     OW30631   1.168   1.358  15.865  0.0515 -0.2222 -0.2396
 6390SOL    HW130632   1.217   1.399  15.936  0.3450 -0.5149 -0.2731
 6390SOL    HW230633   1.202   1.407  15.789  0.0458  1.2475  0.7055
 6391SOL     OW30634   2.647   1.574   2.190  0.0899  0.5776 -0.9082
 6391SOL    HW130635   2.586   1.644   2.167  0.5628  1.1883 -0.3392
 6391SOL    HW230636   2.594   1.497   2.168  0.6100  0.6232 -2.2930
 6392SOL     OW30637   3.194   0.451   5.040 -0.5310  0.2320  0.1153
 6392SOL    HW130638   3.129   0.447   4.970 -1.2911 -3.6508  1.0251
 6392SOL    HW230639   3.146   0.410   5.112  1.3986  0.7970  1.7020
 6393SOL     OW30640   0.071   2.824   4.727 -0.1070  0.3196 -0.1321
 6393SOL    HW130641   0.120   2.778   4.659 -2.5861 -0.0740 -1.6694
 6393SOL    HW230642   0.059   2.910   4.687 -0.0713 -0.4217 -1.7436
 6394SOL     OW30643   3.467   0.080  11.624  0.2958  0.0330 -0.0802
 6394SOL    HW130644   3.546   0.025  11.629 -0.6747 -1.3358  0.0860
 6394SOL    HW230645   3.506   0.148  11.568  1.1080  0.4043  0.9470
 6395SOL     OW30646   4.459   4.202  10.701  0.6378 -0.1606  0.0641
 6395SOL    HW130647   4.544   4.200  10.744 -0.0286 -0.4314  1.3686
 6395SOL    HW230648   4.462   4.291  10.665  2.8877  0.0024  0.6426
 6396SOL     OW30649   1.505   1.441   4.432  1.1387  0.7702 -0.1120
 6396SOL    HW130650   1.538   1.412   4.348 -0.8702  1.3337 -1.1094
 6396SOL    HW230651   1.427   1.487   4.401  0.8833  0.5947  0.2699
 6397SOL     OW30652   1.457   0.298  11.397 -0.0647  0.3098  0.2666
 6397SOL    HW130653   1.536   0.276  11.347  1.3096  1.6758  1.8568
 6397SOL    HW230654   1.388   0.274  11.334 -1.1400  1.0824  1.1479
 6398SOL     OW30655   2.783   3.668  16.251 -0.3241  0.5464 -0.2670
 6398SOL    HW130656   2.756   3.587  16.208  3.4907 -0.7586 -0.1613
 6398SOL    HW230657   2.724   3.735  16.217 -0.7355  0.6147  0.5653
 6399SOL     OW30658   1.893   1.822   8.271  0.2259 -0.1035 -0.0904
 6399SOL    HW130659   1.910   1.868   8.189  1.7904  1.8830  1.3430
 6399SOL    HW230660   1.798   1.821   8.262  0.2597  1.0612 -0.5417
 6400SOL     OW30661   3.261   4.063   3.950 -0.5168  0.2827  0.3103
 6400SOL    HW130662   3.319   3.989   3.969 -0.1309  1.2594  2.9481
 6400SOL    HW230663   3.248   4.091   4.041  0.6467 -0.6780  0.7739
 6401SOL     OW30664   1.977   3.712   1.785  0.6632 -0.5081 -0.4824
 6401SOL    HW130665   2.031   3.662   1.846  1.0197  3.1762  2.2498
 6401SOL    HW230666   1.940   3.651   1.722 -0.8054  0.1165 -0.2220
 6402SOL     OW30667   4.553   1.534   8.679 -0.3907 -0.1483  0.5443
 6402SOL    HW130668   4.633   1.524   8.730  0.0299 -2.2932 -0.5395
 6402SOL    HW230669   4.503   1.456   8.703  1.5215 -0.9444  1.9007
 6403SOL     OW30670   3.644   2.557   8.148 -0.3538 -0.0643 -0.0760
 6403SOL    HW130671   3.657   2.538   8.241 -1.7435 -1.1527 -0.1137
 6403SOL    HW230672   3.682   2.478   8.110  1.9652  1.5461 -1.1013
 6404SOL     OW30673   1.244   4.660  10.587 -0.1801 -0.5262  0.2165
 6404SOL    HW130674   1.231   4.600  10.660  2.5760 -0.9394  0.3835
 6404SOL    HW230675   1.290   0.005  10.636  2.5047 -1.6350 -0.7782
 6405SOL     OW30676   0.538   3.207   1.934  0.9520 -0.0743  0.3675
 6405SOL    HW130677   0.467   3.270   1.920  3.0338  2.1983  0.1191
 6405SOL    HW230678   0.494   3.139   1.882 -0.3913  0.9377  0.1531
 6406SOL     OW30679   1.439   0.673  11.922  0.3989 -0.3047 -0.4499
 6406SOL    HW130680   1.466   0.758  11.888  1.6830 -0.6476 -0.2897
 6406SOL    HW230681   1.375   0.656  11.852 -0.1679  1.3438 -0.3145
 6407SOL     OW30682   0.631   0.618   8.367  0.0808 -0.2461  1.0202
 6407SOL    HW130683   0.542   0.652   8.355 -0.1255 -0.7492  1.1471
 6407SOL    HW230684   0.659   0.688   8.426  1.8640  0.0708 -0.2068
 6408SOL     OW30685   2.113   1.959   0.512 -0.4348  0.5169  0.4904
 6408SOL    HW130686   2.146   1.969   0.422  2.2492  1.3267  1.5651
 6408SOL    HW230687   2.021   1.980   0.497 -1.1701 -2.4812  0.8180
 6409SOL     OW30688   2.975   4.124   0.388  0.4088 -0.0572  0.0133
 6409SOL    HW130689   3.007   4.055   0.329  0.4982  2.1854 -2.5390
 6409SOL    HW230690   3.048   4.186   0.394  0.8696 -0.5068 -1.0384
 6410SOL     OW30691   4.094   4.551  11.970 -0.1784  0.3714  0.5000
 6410SOL    HW130692   4.167   4.525  12.027  1.2708  2.6956 -0.3189
 6410SOL    HW230693   4.139   4.622  11.924  2.8547 -0.8707  1.5714
 6411SOL     OW30694   3.544   0.154   6.798  0.0490  0.1228  0.0889
 6411SOL    HW130695   3.619   0.102   6.828  0.7568  0.1662 -1.5435
 6411SOL    HW230696   3.581   0.242   6.801 -1.3025  0.5955  2.3721
 6412SOL     OW30697   3.874   0.763   6.628  0.1447  0.1083 -0.3367
 6412SOL    HW130698   3.944   0.826   6.649  0.5126  0.5188 -2.7074
 6412SOL    HW230699   3.813   0.796   6.694 -1.6546 -0.4039 -1.7493
 6413SOL     OW30700   4.014   0.330   2.074 -0.5142  0.4888 -0.4155
 6413SOL    HW130701   4.063   0.357   2.152 -2.1384  1.5658  0.2367
 6413SOL    HW230702   4.067   0.270   2.021 -0.3555 -0.8863  1.2982
 6414SOL     OW30703   4.503   0.710  15.394 -0.1698 -0.4091 -0.1299
 6414SOL    HW130704   4.564   0.782  15.407 -0.0996 -0.3183 -0.9419
 6414SOL    HW230705   4.423   0.762  15.388 -0.2338 -0.8809 -3.2353
 6415SOL     OW30706   4.495   3.334   9.306  0.2302 -0.3709  0.1664
 6415SOL    HW130707   4.567   3.299   9.359  0.6633 -1.4429 -1.1177
 6415SOL    HW230708   4.415   3.304   9.349  0.4027  1.5585  1.8476
 6416SOL     OW30709   1.599   2.427  16.333  0.0270 -0.3538  0.0570
 6416SOL    HW130710   1.656   2.433  16.409 -0.6788  0.2864  0.5444
 6416SOL    HW230711   1.662   2.401  16.266 -0.7038 -1.1946 -0.3040
 6417SOL     OW30712   2.801   2.957   6.084 -0.6568 -0.4744 -0.2105
 6417SOL    HW130713   2.776   2.865   6.091  0.0012 -0.5481  1.0074
 6417SOL    HW230714   2.855   2.942   6.006 -1.9169 -0.2688 -1.1262
 6418SOL     OW30715   1.298   2.529   5.789  0.4432 -0.0010 -0.4529
 6418SOL    HW130716   1.371   2.497   5.737 -0.5126 -2.2508 -0.4122
 6418SOL    HW230717   1.341   2.596   5.843  0.2638  0.5357 -0.9789
 6419SOL     OW30718   2.044   3.473  12.872  0.3668 -0.2242 -0.6210
 6419SOL    HW130719   2.093   3.535  12.926  1.1939 -1.8782  0.5090
 6419SOL    HW230720   2.054   3.535  12.799  0.8493  1.3690  0.7966
 6420SOL     OW30721   1.054   1.699   5.193  0.2024 -0.3762  0.6800
 6420SOL    HW130722   1.137   1.685   5.148  0.0059 -0.4381  0.3312
 6420SOL    HW230723   0.992   1.646   5.142  1.2196 -0.4126 -0.5132
 6421SOL     OW30724   4.123   2.317   7.774  0.0756  0.0509 -0.0679
 6421SOL    HW130725   4.156   2.349   7.858 -1.3047  0.3120  0.3722
 6421SOL    HW230726   4.205   2.314   7.725  0.2138  0.3731  0.1398
 6422SOL     OW30727   1.691   3.594   2.511  0.3063 -0.2944  0.0846
 6422SOL    HW130728   1.692   3.645   2.592  0.2103 -2.3114  1.3517
 6422SOL    HW230729   1.606   3.550   2.507  1.4872 -2.3956 -1.8459
 6423SOL     OW30730   3.495   4.386   2.528 -0.1197  0.1410 -0.0417
 6423SOL    HW130731   3.475   4.458   2.468  2.0043  1.9031  1.3679
 6423SOL    HW230732   3.575   4.352   2.487  0.4038  2.2919 -0.8213
 6424SOL     OW30733   2.388   2.224   4.750 -0.0672  0.0117  0.4745
 6424SOL    HW130734   2.423   2.141   4.718 -0.8679 -0.0128 -0.3217
 6424SOL    HW230735   2.297   2.213   4.722  1.0425 -0.7828 -2.9017
 6425SOL     OW30736   2.240   1.041   1.617  0.0225 -0.1835 -0.5991
 6425SOL    HW130737   2.325   1.076   1.643  0.3835 -1.0460 -0.6304
 6425SOL    HW230738   2.259   1.009   1.529  1.1874  0.8098 -0.7036
 6426SOL     OW30739   0.796   1.928   6.662  0.2291 -0.5946 -0.6052
 6426SOL    HW130740   0.880   1.971   6.650 -2.0723  4.4540  1.2977
 6426SOL    HW230741   0.797   1.940   6.757  0.4002 -1.3435 -0.5106
 6427SOL     OW30742   0.081   0.678  16.737 -0.3010 -0.0851 -0.0225
 6427SOL    HW130743   0.115   0.671  16.827 -0.8447 -1.1161  0.1055
 6427SOL    HW230744   4.713   0.700  16.755  0.3285  2.2966  0.2947
 6428SOL     OW30745   1.903   0.877   8.908 -0.0009  0.3740  0.4635
 6428SOL    HW130746   1.918   0.964   8.873  1.8418  0.0742  0.5236
 6428SOL    HW230747   1.994   0.856   8.928  0.0293 -0.8490 -0.9358
 6429SOL     OW30748   0.113   4.063   3.110  0.0072 -0.3649 -0.4243
 6429SOL    HW130749   0.039   4.015   3.073  0.4333 -0.4841 -1.1354
 6429SOL    HW230750   0.189   4.045   3.054  0.7226 -0.3818  0.5624
 6430SOL     OW30751   3.446   1.816  13.160  0.9702  0.0378 -0.1903
 6430SOL    HW130752   3.416   1.900  13.196  1.1933  0.0359 -0.0009
 6430SOL    HW230753   3.505   1.843  13.089  1.7856 -1.5399 -0.1163
 6431SOL     OW30754   1.930   2.643   4.973  0.1594  0.0812 -0.4550
 6431SOL    HW130755   1.938   2.738   4.987 -0.8110  0.1347 -0.2749
 6431SOL    HW230756   1.863   2.640   4.904  2.2545 -0.0794 -2.4811
 6432SOL     OW30757   1.546   3.571  12.971 -0.0776  0.7828 -0.5344
 6432SOL    HW130758   1.601   3.650  12.976  3.1360 -1.6420  1.8775
 6432SOL    HW230759   1.478   3.584  12.905  1.3406  0.8617 -1.9945
 6433SOL     OW30760   2.057   2.326   2.831  0.1415  0.0661  0.5238
 6433SOL    HW130761   2.093   2.311   2.744 -2.9563 -1.1635 -0.5748
 6433SOL    HW230762   1.994   2.397   2.820  0.6333  0.2152 -1.3021
 6434SOL     OW30763   2.259   2.082   7.294  0.1183 -0.3208  0.0431
 6434SOL    HW130764   2.276   2.108   7.385  0.5834  2.5674 -0.8493
 6434SOL    HW230765   2.317   2.139   7.244  0.6067 -1.8743 -1.1317
 6435SOL     OW30766   1.819   3.618  16.808 -0.0738 -0.6123  0.4017
 6435SOL    HW130767   1.859   3.662  16.882 -1.7131  0.9276  0.3710
 6435SOL    HW230768   1.890   3.556  16.795  0.4176  0.0724 -0.1210
 6436SOL     OW30769   1.339   1.442  11.642  0.5509  0.7009  0.0690
 6436SOL    HW130770   1.392   1.423  11.564 -0.3566 -1.5978  0.0104
 6436SOL    HW230771   1.325   1.536  11.629  2.5780  1.1620  1.1649
 6437SOL     OW30772   2.339   3.141  11.795 -0.0812  0.0446 -0.3185
 6437SOL    HW130773   2.325   3.227  11.836 -2.4401 -1.6074  2.3311
 6437SOL    HW230774   2.250   3.106  11.795 -0.1942  0.3234 -0.4225
 6438SOL     OW30775   0.040   1.129   7.776 -0.4984 -0.1239  0.0782
 6438SOL    HW130776   0.128   1.095   7.758 -0.2766  0.3473  0.2715
 6438SOL    HW230777   0.037   1.203   7.715  0.4671  0.0986  0.2961
 6439SOL     OW30778   1.333   2.039   4.523  0.6497  0.5274 -0.7810
 6439SOL    HW130779   1.311   2.001   4.438  2.0884 -2.1860  0.0538
 6439SOL    HW230780   1.417   1.995   4.539  0.8383  1.2251  0.1435
 6440SOL     OW30781   3.192   2.065   2.788 -0.1945 -0.0648  0.1790
 6440SOL    HW130782   3.156   2.001   2.726 -2.9660 -0.1332  1.8587
 6440SOL    HW230783   3.135   2.141   2.778 -0.3594 -0.3960 -1.4326
 6441SOL     OW30784   2.311   0.923  13.896  0.1375  0.1673  0.2302
 6441SOL    HW130785   2.314   0.998  13.956  1.6562  0.9347 -0.8058
 6441SOL    HW230786   2.369   0.861  13.940 -0.1977 -1.0792 -1.1016
 6442SOL     OW30787   2.175   4.084  12.170 -0.0829  0.4768 -0.2036
 6442SOL    HW130788   2.166   4.036  12.088 -1.3044  0.5568 -0.1171
 6442SOL    HW230789   2.221   4.023  12.227  0.4145  1.3682  0.3635
 6443SOL     OW30790   2.151   1.500   6.371 -0.2715 -0.1193  0.0042
 6443SOL    HW130791   2.108   1.573   6.414 -2.1381 -1.6964  0.8199
 6443SOL    HW230792   2.238   1.494   6.411 -0.3122 -3.1356 -0.3320
 6444SOL     OW30793   1.401   3.063   2.994 -0.1767 -0.0824 -0.4804
 6444SOL    HW130794   1.320   3.107   2.968 -0.4548 -0.3109  0.0019
 6444SOL    HW230795   1.391   3.086   3.086 -1.1235  0.5651 -0.7413
 6445SOL     OW30796   3.516   1.733  17.649 -0.0795  0.9708 -0.3904
 6445SOL    HW130797   3.487   1.743   0.043 -2.2786 -0.2827 -0.9498
 6445SOL    HW230798   3.434   1.704  17.609 -0.2096  0.6506  0.1034
 6446SOL     OW30799   2.956   0.287   9.105  0.3384  0.0598  0.7025
 6446SOL    HW130800   2.877   0.313   9.153  0.9428  0.3473  1.5351
 6446SOL    HW230801   3.030   0.331   9.147  1.6864 -2.8530  1.3930
 6447SOL     OW30802   3.438   4.238  16.409 -0.1008 -0.4049  0.0004
 6447SOL    HW130803   3.377   4.270  16.476  0.5393  0.3257  0.2415
 6447SOL    HW230804   3.388   4.181  16.351  0.4469  0.1150 -0.9812
 6448SOL     OW30805   1.535   0.370  13.209 -0.4622 -0.1921 -0.4897
 6448SOL    HW130806   1.492   0.321  13.139 -2.5171  0.3609  0.3884
 6448SOL    HW230807   1.489   0.336  13.285 -2.1832  0.2272 -1.3511
 6449SOL     OW30808   1.797   4.335   7.427  0.4560 -0.1711  0.0826
 6449SOL    HW130809   1.773   4.262   7.371  1.0849  0.7477 -1.3860
 6449SOL    HW230810   1.777   4.415   7.378 -0.9844 -1.4061 -1.3813
 6450SOL     OW30811   3.807   2.537   3.583 -0.3626 -0.5712  0.0735
 6450SOL    HW130812   3.712   2.547   3.572 -0.3243 -0.7712 -0.4012
 6450SOL    HW230813   3.842   2.618   3.548  0.1850 -0.4478  0.9004
 6451SOL     OW30814   1.072   0.889  10.423 -0.3021 -0.3577  0.1991
 6451SOL    HW130815   0.998   0.829  10.432 -0.7181  0.4207  1.9102
 6451SOL    HW230816   1.138   0.853  10.483 -1.2438  0.5544  1.7977
 6452SOL     OW30817   4.127   0.103   6.664  0.0261  0.0274 -0.1969
 6452SOL    HW130818   4.190   0.097   6.591 -0.9340 -3.5463 -0.7189
 6452SOL    HW230819   4.191   0.127   6.731  1.6421 -2.4459 -0.8632
 6453SOL     OW30820   4.612   3.504   3.618 -0.2213 -0.8740 -0.7806
 6453SOL    HW130821   4.576   3.546   3.696 -0.0866 -0.0490 -1.1581
 6453SOL    HW230822   4.706   3.513   3.636 -0.0946  0.3111 -2.0845
 6454SOL     OW30823   4.512   0.467   5.459 -0.2568  0.0379 -0.0804
 6454SOL    HW130824   4.523   0.497   5.549 -2.3959 -1.4831  0.6761
 6454SOL    HW230825   4.436   0.523   5.442 -2.2634 -2.5241  0.4685
 6455SOL     OW30826   3.803   0.725  15.695  0.3200 -0.5979 -0.1099
 6455SOL    HW130827   3.835   0.636  15.703 -0.4100 -0.6262  2.2753
 6455SOL    HW230828   3.880   0.780  15.683 -1.3037  1.4893 -1.0892
 6456SOL     OW30829   4.470   2.764   3.583 -0.3937  0.5945  0.0502
 6456SOL    HW130830   4.466   2.813   3.501 -1.1085  0.0192 -0.2566
 6456SOL    HW230831   4.463   2.677   3.543  1.7639  1.4465 -2.1983
 6457SOL     OW30832   4.436   2.294  15.596  0.6283  0.6929 -0.8041
 6457SOL    HW130833   4.515   2.289  15.651  0.3969  0.6451 -0.4747
 6457SOL    HW230834   4.400   2.206  15.606 -0.1319  1.3658  2.4162
 6458SOL     OW30835   0.230   4.467  15.608 -0.3448  1.0506 -0.0760
 6458SOL    HW130836   0.304   4.509  15.653 -1.7263  1.6646  1.6031
 6458SOL    HW230837   0.178   4.450  15.686  1.8937 -0.3887  1.1239
 6459SOL     OW30838   2.629   3.163   6.183  0.3384 -0.0982 -0.2144
 6459SOL    HW130839   2.685   3.101   6.135 -1.2272 -1.1448 -0.6811
 6459SOL    HW230840   2.541   3.135   6.158  0.2432  0.5077 -0.5491
 6460SOL     OW30841   2.152   3.756  17.184 -0.4966  0.0734 -0.3588
 6460SOL    HW130842   2.236   3.802  17.170 -0.1930  0.2098  1.8625
 6460SOL    HW230843   2.168   3.751  17.278  1.0282  1.2447 -0.5468
 6461SOL     OW30844   4.288   2.143   5.838 -0.1220 -0.2866 -0.2680
 6461SOL    HW130845   4.263   2.123   5.928 -0.2351 -0.1921 -0.2788
 6461SOL    HW230846   4.322   2.231   5.852 -3.7612  1.5138 -2.7832
 6462SOL     OW30847   1.829   4.670   1.217 -0.4427 -0.0820 -0.0889
 6462SOL    HW130848   1.923   4.667   1.235 -0.2861 -0.2011 -0.8942
 6462SOL    HW230849   1.820   0.036   1.249 -1.3585 -0.4608  0.7210
 6463SOL     OW30850   2.739   2.442   2.760 -0.5374 -0.4857  0.1404
 6463SOL    HW130851   2.822   2.484   2.737 -0.4959 -0.2427  0.7163
 6463SOL    HW230852   2.682   2.512   2.728  0.8830  0.3700 -0.5239
 6464SOL     OW30853   0.670   3.337   1.173 -0.0079  0.7047 -0.1735
 6464SOL    HW130854   0.701   3.426   1.190  0.7982  0.6854 -1.5062
 6464SOL    HW230855   0.746   3.305   1.124  0.5619  0.3951  0.9261
 6465SOL     OW30856   2.655   2.878  16.566 -0.2757  0.0423 -0.2696
 6465SOL    HW130857   2.605   2.800  16.588  0.1523 -0.0747  0.2771
 6465SOL    HW230858   2.733   2.867  16.621 -0.2729 -3.0822 -0.9043
 6466SOL     OW30859   3.044   3.409   8.222 -0.3650  0.5981  0.3410
 6466SOL    HW130860   2.958   3.370   8.241 -0.2604  1.2825  2.1959
 6466SOL    HW230861   3.097   3.331   8.238  0.1825  1.0310  0.6162
 6467SOL     OW30862   2.851   2.243   0.450 -0.2241  0.0509  0.4904
 6467SOL    HW130863   2.916   2.274   0.386  0.7582 -0.7173  1.1146
 6467SOL    HW230864   2.840   2.323   0.501  1.1144 -0.4523  1.5649
 6468SOL     OW30865   3.672   1.224   3.961  0.1864 -0.0069  0.8897
 6468SOL    HW130866   3.760   1.246   3.931 -0.2223  1.1825  0.5494
 6468SOL    HW230867   3.678   1.131   3.983 -0.4523 -0.4408 -0.7767
 6469SOL     OW30868   2.846   1.686  11.194  0.2464  0.1335  0.4600
 6469SOL    HW130869   2.901   1.644  11.128  0.2920 -0.6127  0.9685
 6469SOL    HW230870   2.899   1.757  11.230 -0.7769  0.9908  0.2410
 6470SOL     OW30871   2.238   4.221  16.424  0.4285 -0.0508 -0.0897
 6470SOL    HW130872   2.276   4.279  16.490  0.2245  0.4785 -0.4410
 6470SOL    HW230873   2.216   4.277  16.350  0.4074 -1.3694 -1.0679
 6471SOL     OW30874   3.367   3.422   8.461  0.0251  0.3642  0.0450
 6471SOL    HW130875   3.309   3.355   8.496 -0.5301  0.3781 -0.8358
 6471SOL    HW230876   3.453   3.400   8.498  0.2545 -0.4606 -0.9829
 6472SOL     OW30877   2.832   4.149   0.932  0.1420 -0.5999  0.1939
 6472SOL    HW130878   2.817   4.090   1.005 -0.3502 -0.9968 -0.2302
 6472SOL    HW230879   2.800   4.230   0.973  0.7406  0.3200 -1.1695
 6473SOL     OW30880   2.579   2.592  11.484  0.0884 -0.2217  0.7925
 6473SOL    HW130881   2.566   2.497  11.479  0.9614 -0.2645 -0.9522
 6473SOL    HW230882   2.574   2.606  11.578  0.0431  1.5773  0.5120
 6474SOL     OW30883   3.573   2.339   6.521 -0.0197  0.0773  0.1776
 6474SOL    HW130884   3.497   2.387   6.551 -0.1230 -0.4114  0.7033
 6474SOL    HW230885   3.527   2.287   6.455  0.9905 -1.0181  0.3318
 6475SOL     OW30886   2.444   3.566   0.602  0.4738  0.4593 -0.0995
 6475SOL    HW130887   2.461   3.510   0.527 -0.8856 -1.1577  0.7933
 6475SOL    HW230888   2.520   3.542   0.654  0.9551 -1.3960 -1.6792
 6476SOL     OW30889   2.061   2.196  15.658  0.3173  0.4934 -0.1058
 6476SOL    HW130890   2.033   2.163  15.573 -0.7148 -1.8265  1.1211
 6476SOL    HW230891   2.036   2.288  15.657  0.5248  0.5197 -2.1915
 6477SOL     OW30892   1.138   2.063  12.003  0.3422  0.2121  0.8967
 6477SOL    HW130893   1.152   1.977  12.041  0.0994 -0.5902 -0.8291
 6477SOL    HW230894   1.045   2.053  11.985  0.0041  1.4792  1.8967
 6478SOL     OW30895   3.812   2.319   0.011  0.4166 -0.1138 -0.2717
 6478SOL    HW130896   3.805   2.256   0.084 -0.3956  0.1986 -0.0802
 6478SOL    HW230897   3.810   2.257  17.635  0.7588 -0.8629  0.3543
 6479SOL     OW30898   1.217   1.172   7.707 -0.0034  0.1063 -0.3371
 6479SOL    HW130899   1.261   1.091   7.733 -1.5513  0.0538  2.1198
 6479SOL    HW230900   1.296   1.225   7.710  0.5200 -0.7070  0.3576
 6480SOL     OW30901   3.535   3.840  13.762 -0.2895  0.1544 -0.5111
 6480SOL    HW130902   3.489   3.893  13.697  1.0252 -0.5887 -2.0628
 6480SOL    HW230903   3.550   3.900  13.835 -2.9282  1.1077 -0.7318
 6481SOL     OW30904   4.087   3.182   8.091 -0.0433 -0.1705  0.2254
 6481SOL    HW130905   4.111   3.100   8.134  2.8410 -0.7039 -2.3799
 6481SOL    HW230906   4.129   3.248   8.146  1.0457 -0.9930  0.3826
 6482SOL     OW30907   2.375   1.224  16.387  0.1586 -0.0414 -0.4814
 6482SOL    HW130908   2.309   1.166  16.348  0.3538  0.0294 -0.9165
 6482SOL    HW230909   2.455   1.183  16.355  0.4689 -0.0333  0.2890
 6483SOL     OW30910   2.069   3.083   2.169 -0.9579 -0.2979  0.2489
 6483SOL    HW130911   2.103   3.084   2.258  2.0759 -1.2273 -0.9117
 6483SOL    HW230912   2.050   3.176   2.161  0.0702  0.2218  3.9028
 6484SOL     OW30913   4.627   1.075   7.466  0.0765  0.8071 -0.6042
 6484SOL    HW130914   4.573   1.022   7.525  1.3909 -0.2303 -0.3202
 6484SOL    HW230915   4.711   1.031   7.454 -0.0833  0.8348 -1.7982
 6485SOL     OW30916   4.254   2.170   8.649  0.6450  0.1274 -0.0230
 6485SOL    HW130917   4.203   2.116   8.710  1.0413 -2.3869 -1.9286
 6485SOL    HW230918   4.332   2.116   8.638 -0.7887 -1.9046 -0.2262
 6486SOL     OW30919   2.530   0.385   4.963  0.2512 -0.1737  0.2604
 6486SOL    HW130920   2.587   0.461   4.976  0.1309  0.1095 -0.8846
 6486SOL    HW230921   2.504   0.402   4.872 -0.8146  1.8299  0.9464
 6487SOL     OW30922   0.452   4.491   5.849 -0.0898 -0.5966 -0.0678
 6487SOL    HW130923   0.528   4.542   5.820  0.4999 -0.7504  1.1977
 6487SOL    HW230924   0.387   4.506   5.780 -0.4104  0.5812  0.4983
 6488SOL     OW30925   0.360   1.354   1.002 -0.6176  0.1111 -1.0924
 6488SOL    HW130926   0.377   1.260   1.001  0.4777  0.3015 -0.4499
 6488SOL    HW230927   0.430   1.393   0.948 -0.8157 -0.6524 -1.9048
 6489SOL     OW30928   4.379   3.428   3.813  0.3065 -0.4332 -0.2046
 6489SOL    HW130929   4.321   3.473   3.752  0.4461 -0.8402 -0.6379
 6489SOL    HW230930   4.323   3.352   3.829  1.8930 -1.5733  0.0086
 6490SOL     OW30931   2.372   3.199   2.119  0.2182 -0.2017 -0.1330
 6490SOL    HW130932   2.417   3.252   2.184  0.2080 -1.2543  0.7302
 6490SOL    HW230933   2.343   3.262   2.053  0.9711  0.6618  0.3633
 6491SOL     OW30934   3.697   3.709  13.011  0.5247 -0.3584  0.0236
 6491SOL    HW130935   3.744   3.662  12.942 -0.0190 -2.4259  1.0572
 6491SOL    HW230936   3.610   3.716  12.971  0.3525 -0.6972  0.3428
 6492SOL     OW30937   2.116   0.414   9.758  0.3664  0.3151  0.2266
 6492SOL    HW130938   2.150   0.443   9.843 -0.2751  1.1843  0.1892
 6492SOL    HW230939   2.023   0.398   9.774  0.1882  1.4733  0.3874
 6493SOL     OW30940   0.297   2.305  13.375 -0.1736  0.1184  0.6863
 6493SOL    HW130941   0.316   2.231  13.317 -0.0042  0.2763  0.5436
 6493SOL    HW230942   0.373   2.357  13.349 -0.6055  0.8830  0.9460
 6494SOL     OW30943   3.471   0.653  15.689  0.0021 -0.4681 -0.3925
 6494SOL    HW130944   3.435   0.691  15.609 -1.4321 -0.9236  0.0302
 6494SOL    HW230945   3.509   0.573  15.651  0.4032 -0.2779 -0.3873
 6495SOL     OW30946   0.343   3.841   8.947 -0.5449  0.1318 -0.0798
 6495SOL    HW130947   0.321   3.931   8.972  1.2695  0.3497  0.7151
 6495SOL    HW230948   0.282   3.818   8.877 -1.2062  1.5544  0.0215
 6496SOL     OW30949   4.407   2.317  12.999  0.4538 -0.3818 -0.3348
 6496SOL    HW130950   4.451   2.374  13.062 -3.4480  2.9167 -0.5430
 6496SOL    HW230951   4.469   2.245  13.001  0.4781 -0.3630 -0.3901
 6497SOL     OW30952   4.557   1.001   4.577 -0.2500 -0.1928  0.2284
 6497SOL    HW130953   4.650   0.980   4.585  0.8390  4.4278  0.0087
 6497SOL    HW230954   4.563   1.074   4.516 -0.8945  0.3987  0.8695
 6498SOL     OW30955   0.103   4.496  16.572 -0.4550 -0.8166 -0.2453
 6498SOL    HW130956   0.062   4.546  16.501 -0.2964 -0.4238 -0.0611
 6498SOL    HW230957   0.142   4.421  16.528  1.4450 -0.0473  0.1289
 6499SOL     OW30958   0.858   4.266   6.036  0.2161  0.6435  0.0157
 6499SOL    HW130959   0.918   4.329   5.997 -0.4426 -1.1142 -3.8917
 6499SOL    HW230960   0.907   4.188   6.011 -0.3477  0.3139 -0.0832
 6500SOL     OW30961   2.414   4.556   7.914  0.0653  1.0533  0.3735
 6500SOL    HW130962   2.329   4.584   7.881 -0.2664 -2.0541 -1.3949
 6500SOL    HW230963   2.443   4.641   7.948  0.9561  1.7173 -2.0312
 6501SOL     OW30964   3.959   3.924   7.090  0.1696 -0.2162 -0.1400
 6501SOL    HW130965   4.033   3.884   7.045  2.1508  1.1989  1.8243
 6501SOL    HW230966   3.989   4.015   7.092  0.5932 -0.3286 -1.3901
 6502SOL     OW30967   4.132   1.148   6.436  0.0488  0.9197  0.1885
 6502SOL    HW130968   4.144   1.139   6.342 -1.2893  0.7459  0.0419
 6502SOL    HW230969   4.210   1.199   6.455  0.8680 -0.7816  1.4113
 6503SOL     OW30970   0.087   3.687   3.939  0.2623  0.4724 -0.1849
 6503SOL    HW130971   0.129   3.614   3.893 -0.3099 -0.7027  1.1335
 6503SOL    HW230972   4.721   3.657   3.952  0.3993  0.4016  0.6140
 6504SOL     OW30973   1.266   2.049   1.620 -0.4920  0.0311  0.4955
 6504SOL    HW130974   1.353   2.085   1.605 -0.7885 -0.9542 -3.6450
 6504SOL    HW230975   1.211   2.121   1.589 -1.4270 -1.3785 -1.1153
 6505SOL     OW30976   4.681   4.008  17.518  0.2911 -0.0932  0.3378
 6505SOL    HW130977   4.699   4.088  17.567  2.0754 -1.2158  1.5175
 6505SOL    HW230978   4.658   4.055  17.438  0.1018 -0.9877 -0.1435
 6506SOL     OW30979   3.501   4.232  17.679 -0.2191 -0.0572  0.3616
 6506SOL    HW130980   3.496   4.215  17.584  2.8548  0.1194  0.1777
 6506SOL    HW230981   3.432   4.297  17.691 -2.2126 -2.3970  1.7199
 6507SOL     OW30982   0.061   2.820   6.728  0.0582 -0.7292 -0.1087
 6507SOL    HW130983   4.720   2.874   6.681  0.6170  1.2687  1.4122
 6507SOL    HW230984   0.003   2.794   6.800  0.8728 -0.5944  0.5864
 6508SOL     OW30985   4.132   4.683   3.417  0.0018 -0.0724 -0.1070
 6508SOL    HW130986   4.091   0.016   3.483 -1.0161 -1.8483  0.7779
 6508SOL    HW230987   4.077   4.691   3.340  0.9032 -1.2458 -0.8709
 6509SOL     OW30988   2.062   3.993   0.269 -0.9057 -0.2949  0.0350
 6509SOL    HW130989   2.078   3.924   0.204  1.4661  1.3296 -1.0986
 6509SOL    HW230990   2.102   3.963   0.350  1.9110  0.9326 -0.9208
 6510SOL     OW30991   3.856   1.885   5.575  0.5521  0.6129  0.2705
 6510SOL    HW130992   3.874   1.793   5.596 -1.4510 -0.5537 -2.9139
 6510SOL    HW230993   3.808   1.915   5.652  0.1383  0.0227  0.2450
 6511SOL     OW30994   1.932   1.490   9.883  0.3753  0.4686  0.0239
 6511SOL    HW130995   1.992   1.561   9.861  1.7751 -0.6957  0.0996
 6511SOL    HW230996   1.845   1.529   9.891  0.6069  0.9261  0.3275
 6512SOL     OW30997   0.777   0.772   4.715 -0.3015 -0.9169  0.1637
 6512SOL    HW130998   0.819   0.751   4.798 -1.2650 -1.8949  0.3878
 6512SOL    HW230999   0.775   0.687   4.672 -1.3319 -0.6929 -0.2393
 6513SOL     OW31000   4.373   3.299  13.124  0.3376 -0.3482  0.3890
 6513SOL    HW131001   4.398   3.344  13.043 -2.5171  0.1499 -0.2468
 6513SOL    HW231002   4.429   3.344  13.187  0.4075  0.2294 -0.0826
 6514SOL     OW31003   0.686   3.525   2.378 -0.3865 -0.0586 -0.1048
 6514SOL    HW131004   0.616   3.570   2.425  0.7729  0.6526  0.9408
 6514SOL    HW231005   0.713   3.454   2.435  1.4069  2.1945  1.8346
 6515SOL     OW31006   0.658   3.323  12.743 -0.4592 -0.4796 -0.4400
 6515SOL    HW131007   0.586   3.329  12.806  0.4997  0.1840  0.5958
 6515SOL    HW231008   0.678   3.229  12.749  0.1800 -0.2632  0.8725
 6516SOL     OW31009   3.480   1.297   6.091  0.1008  0.0785 -0.3850
 6516SOL    HW131010   3.424   1.361   6.135 -0.3046  1.1883 -2.5145
 6516SOL    HW231011   3.558   1.289   6.146 -0.6410 -0.3179  0.6150
 6517SOL     OW31012   1.212   0.252   7.730 -0.0500  0.1746  0.0515
 6517SOL    HW131013   1.138   0.195   7.752  0.0978  0.6242  1.7314
 6517SOL    HW231014   1.284   0.211   7.777 -0.9489 -0.3660  0.9839
 6518SOL     OW31015   3.294   2.052   4.066 -0.2051 -0.4926  0.0601
 6518SOL    HW131016   3.224   2.117   4.061 -1.5112 -1.7824  1.4795
 6518SOL    HW231017   3.366   2.104   4.103  0.7241 -2.1409  0.5717
 6519SOL     OW31018   0.811   2.684  11.161 -0.0651  0.6207 -0.7298
 6519SOL    HW131019   0.841   2.602  11.123  1.2172  1.0908 -0.7433
 6519SOL    HW231020   0.718   2.667  11.149  0.1554  0.8355 -2.7772
 6520SOL     OW31021   3.074   1.904   6.306 -0.3932  0.2551  0.2953
 6520SOL    HW131022   3.024   1.824   6.322  0.0022  0.1531  1.0358
 6520SOL    HW231023   3.159   1.867   6.329 -0.0337  0.9437  0.0763
 6521SOL     OW31024   2.599   4.052  17.078  0.1120 -0.5620 -0.2480
 6521SOL    HW131025   2.559   4.093  17.154  0.1758 -0.2350 -0.3910
 6521SOL    HW231026   2.665   4.119  17.061 -0.8463  0.0304 -1.6636
 6522SOL     OW31027   3.294   3.040   6.775 -0.7614  0.3654  0.2345
 6522SOL    HW131028   3.285   3.084   6.691 -1.4660  1.2418  0.7644
 6522SOL    HW231029   3.389   3.029   6.783 -0.5670  3.0202  1.4180
 6523SOL     OW31030   2.746   2.926   3.998  0.1946  0.4255  0.1164
 6523SOL    HW131031   2.796   2.995   4.040  0.4851  1.0313 -1.2145
 6523SOL    HW231032   2.671   2.929   4.058  1.3380  1.9239  1.4326
 6524SOL     OW31033   2.419   0.123  13.364 -0.3473  0.4486 -0.5179
 6524SOL    HW131034   2.461   0.088  13.443 -1.8305 -1.7476 -0.6733
 6524SOL    HW231035   2.384   0.040  13.330 -0.6816  0.9899 -1.4791
 6525SOL     OW31036   3.585   2.913   3.892  0.6341  0.8232  0.7461
 6525SOL    HW131037   3.656   2.935   3.831 -0.3410  1.5893 -0.1088
 6525SOL    HW231038   3.551   2.837   3.846 -0.8760  0.4405  2.5120
 6526SOL     OW31039   1.859   1.273   0.587  0.1120  0.4582 -0.1012
 6526SOL    HW131040   1.785   1.230   0.628 -0.4087  0.4519 -1.0588
 6526SOL    HW231041   1.832   1.276   0.495 -0.9169 -1.0873  0.1579
 6527SOL     OW31042   3.492   0.579   1.769  0.7991  0.0615 -0.2476
 6527SOL    HW131043   3.498   0.659   1.821 -2.6557 -0.5374  1.1112
 6527SOL    HW231044   3.582   0.550   1.783 -0.3271 -3.3142  0.0561
 6528SOL     OW31045   1.938   0.435   6.859  0.2953  0.1248  0.3498
 6528SOL    HW131046   1.933   0.355   6.911 -3.0088 -0.3524 -0.7291
 6528SOL    HW231047   1.985   0.497   6.914  1.1051  0.3922 -0.6245
 6529SOL     OW31048   2.015   0.899   3.711 -0.1142 -0.4459 -0.0205
 6529SOL    HW131049   1.962   0.942   3.643 -0.4539 -2.0397 -0.7692
 6529SOL    HW231050   1.996   0.806   3.693 -0.2172 -0.2259 -1.0877
 6530SOL     OW31051   1.783   3.016  11.772  0.7488 -0.2048  0.3964
 6530SOL    HW131052   1.695   3.006  11.808  0.6534  1.2125  0.5711
 6530SOL    HW231053   1.767   3.056  11.686 -0.4368  0.7444  1.0699
 6531SOL     OW31054   4.438   2.618   7.684 -0.0769 -0.3022 -0.4499
 6531SOL    HW131055   4.449   2.712   7.702  0.3615  0.3733 -4.2768
 6531SOL    HW231056   4.346   2.607   7.707  0.3971 -0.8909  1.2095
 6532SOL     OW31057   1.844   0.001   2.674  0.3999 -0.4112  0.0282
 6532SOL    HW131058   1.901   4.654   2.644  0.7483 -0.0076 -0.2521
 6532SOL    HW231059   1.898   0.077   2.653 -1.4108  0.3911 -1.7922
 6533SOL     OW31060   3.545   2.318   8.866  0.2012 -0.3638 -0.4475
 6533SOL    HW131061   3.507   2.255   8.804  2.5034  0.0597 -2.2804
 6533SOL    HW231062   3.579   2.263   8.937  0.0549  0.3561  0.1686
 6534SOL     OW31063   0.479   2.031   1.477 -0.1622 -0.2228 -0.3601
 6534SOL    HW131064   0.533   2.105   1.505 -2.4676 -0.2650  4.2002
 6534SOL    HW231065   0.458   2.064   1.389 -0.5863  0.2151 -0.0963
 6535SOL     OW31066   2.021   3.350   6.459 -0.2868  0.0714  0.4610
 6535SOL    HW131067   2.002   3.430   6.509 -1.5967 -0.1469  0.3246
 6535SOL    HW231068   2.114   3.368   6.452 -0.2303 -1.0284 -1.6090
 6536SOL     OW31069   3.404   3.794   6.685 -0.8307 -0.1689 -0.1930
 6536SOL    HW131070   3.311   3.812   6.673 -0.1618  3.5542  0.1140
 6536SOL    HW231071   3.400   3.740   6.764 -1.0316  1.1860  0.7321
 6537SOL     OW31072   3.720   0.402   2.073  0.5180  0.0309 -0.0188
 6537SOL    HW131073   3.800   0.356   2.098  1.8073  2.2452 -0.1560
 6537SOL    HW231074   3.758   0.469   2.017  1.2288 -0.7650 -0.4853
 6538SOL     OW31075   0.698   4.548   9.557 -0.0143 -0.1333 -0.0975
 6538SOL    HW131076   0.682   4.515   9.645  0.2715 -1.2818 -0.4813
 6538SOL    HW231077   0.782   4.592   9.568 -0.2334 -0.5479  3.1645
 6539SOL     OW31078   0.892   1.159   3.392  0.1843 -0.5348  0.1191
 6539SOL    HW131079   0.813   1.114   3.362 -1.3554  0.2286  3.0747
 6539SOL    HW231080   0.959   1.114   3.340 -0.0392 -1.9385  1.0433
 6540SOL     OW31081   1.381   0.690   5.772  0.3378 -0.2649  0.0280
 6540SOL    HW131082   1.431   0.768   5.795  0.0996 -0.8499  2.5235
 6540SOL    HW231083   1.290   0.719   5.781  0.1691 -0.6660 -0.3696
 6541SOL     OW31084   0.132   0.044  12.259  0.3123 -0.1578  0.0986
 6541SOL    HW131085   0.166   0.042  12.349 -2.4392  1.2745  1.1695
 6541SOL    HW231086   0.045   0.074  12.284 -0.7639 -1.8454 -1.6620
 6542SOL     OW31087   0.154   0.527   3.328  0.1389  0.0364 -0.2717
 6542SOL    HW131088   0.216   0.496   3.262  0.1216 -0.1352 -0.2079
 6542SOL    HW231089   0.193   0.488   3.407 -1.6594 -0.4092  0.3989
 6543SOL     OW31090   1.696   0.891   4.019 -0.2249 -0.6125  0.4968
 6543SOL    HW131091   1.785   0.923   4.005 -1.7070  1.8805 -3.2762
 6543SOL    HW231092   1.709   0.844   4.102 -2.4514  0.0842  1.2737
 6544SOL     OW31093   4.501   4.115   2.495  0.2645 -0.1022  0.1947
 6544SOL    HW131094   4.552   4.195   2.486 -0.7625  0.8123  2.3678
 6544SOL    HW231095   4.468   4.113   2.585  0.6401 -0.1191  0.3340
 6545SOL     OW31096   3.589   3.303  10.068  0.0081  0.6754  0.7056
 6545SOL    HW131097   3.578   3.230  10.128 -0.8479  0.5709  0.4214
 6545SOL    HW231098   3.581   3.262   9.982  1.8495  0.7467  0.4984
 6546SOL     OW31099   0.674   4.636   9.841 -0.1850 -0.8505 -0.7220
 6546SOL    HW131100   0.588   4.667   9.870  1.4127  1.5640  1.4725
 6546SOL    HW231101   0.727   4.714   9.858 -1.1553 -0.1181 -1.0065
 6547SOL     OW31102   1.048   4.535   2.881  0.0282 -0.0124 -0.7274
 6547SOL    HW131103   1.111   4.470   2.912 -1.6987 -0.6935  1.3357
 6547SOL    HW231104   0.973   4.505   2.933 -0.1732  0.9561 -0.4660
 6548SOL     OW31105   1.574   4.034   2.821 -0.2891  0.6644 -0.2997
 6548SOL    HW131106   1.618   4.049   2.738  3.0022 -0.3758  1.2500
 6548SOL    HW231107   1.590   3.939   2.825  0.8479  0.8581 -0.4210
 6549SOL     OW31108   0.110   3.039   5.332  0.1294  0.1160 -0.4049
 6549SOL    HW131109   0.185   3.050   5.274  1.2318 -0.7905  0.8426
 6549SOL    HW231110   0.042   3.083   5.282  0.4722  0.4069 -0.6147
 6550SOL     OW31111   2.238   0.620   2.860 -0.2938 -0.0532  0.1267
 6550SOL    HW131112   2.290   0.617   2.940 -1.9402 -0.5648  1.1826
 6550SOL    HW231113   2.207   0.711   2.865  0.3520  0.2889 -1.8489
 6551SOL     OW31114   1.857   3.958   3.661  0.0709  0.3183  0.3048
 6551SOL    HW131115   1.798   3.938   3.588 -0.8414 -4.5617  2.3999
 6551SOL    HW231116   1.858   3.866   3.686  2.7558  0.1362 -0.4578
 6552SOL     OW31117   2.183   1.279  13.833  0.3748  0.3292  0.4152
 6552SOL    HW131118   2.149   1.282  13.922  0.4003  1.7894  0.3789
 6552SOL    HW231119   2.097   1.284  13.791  0.2340 -1.6468  0.4676
 6553SOL     OW31120   0.475   0.610  15.484 -0.4460  0.7689 -0.2230
 6553SOL    HW131121   0.477   0.690  15.537 -2.6558  0.9068 -0.3454
 6553SOL    HW231122   0.438   0.558  15.555 -0.4981 -0.5882 -1.2510
 6554SOL     OW31123   2.757   0.707   8.823 -0.2690 -0.5983 -0.3376
 6554SOL    HW131124   2.772   0.615   8.843  2.5770  0.1701  1.0660
 6554SOL    HW231125   2.815   0.714   8.747  1.9853 -1.5409  1.2975
 6555SOL     OW31126   1.074   0.602   2.873 -0.1054  0.1923  0.0734
 6555SOL    HW131127   1.060   0.512   2.844 -1.9811  0.1143  1.2037
 6555SOL    HW231128   1.147   0.582   2.932  0.4339  0.5186 -0.4919
 6556SOL     OW31129   1.344   1.400   1.964 -0.1566  0.0834 -0.1019
 6556SOL    HW131130   1.348   1.322   1.909 -2.8253 -1.3277  1.7037
 6556SOL    HW231131   1.290   1.457   1.908 -1.3101 -0.1409  0.7822
 6557SOL     OW31132   2.516   4.537   1.032  0.4308 -0.3281 -0.2589
 6557SOL    HW131133   2.527   4.569   0.942  1.5948 -0.8315 -0.2967
 6557SOL    HW231134   2.465   4.459   1.011  3.3626 -1.3100 -3.7046
 6558SOL     OW31135   2.331   3.253   1.349  0.0149 -0.0578  0.5820
 6558SOL    HW131136   2.340   3.163   1.379 -0.6210 -0.5738 -0.7938
 6558SOL    HW231137   2.385   3.291   1.419  1.4254 -0.5555 -0.2345
 6559SOL     OW31138   3.374   4.528  14.180  0.1056 -0.0915  0.3846
 6559SOL    HW131139   3.454   4.568  14.145  0.4230  0.8053  2.0923
 6559SOL    HW231140   3.392   4.550  14.272 -0.2501 -0.6327  0.5834
 6560SOL     OW31141   1.045   0.729   0.671 -0.1630  0.3114  0.5061
 6560SOL    HW131142   1.061   0.634   0.671  3.4401  0.9000  2.4969
 6560SOL    HW231143   1.133   0.764   0.686  0.3974 -1.2461  0.9418
 6561SOL     OW31144   2.479   0.211   2.393 -0.0535 -0.1204 -0.4049
 6561SOL    HW131145   2.391   0.186   2.364  0.4797 -1.8357 -0.4906
 6561SOL    HW231146   2.465   0.305   2.382 -1.0208 -0.2315 -0.1147
 6562SOL     OW31147   0.354   1.914   7.361  0.6841  0.4844 -0.1917
 6562SOL    HW131148   0.382   1.858   7.433 -0.7896 -0.7846 -0.6115
 6562SOL    HW231149   0.317   1.993   7.401  0.5007 -0.0035  0.5898
 6563SOL     OW31150   0.898   2.282   0.493 -0.3163  0.2587  0.5999
 6563SOL    HW131151   0.869   2.257   0.405 -0.3388  2.4091 -0.0054
 6563SOL    HW231152   0.977   2.231   0.509  0.0657  0.6117 -0.1894
 6564SOL     OW31153   1.866   0.953  13.618  0.6275  0.3875 -0.0101
 6564SOL    HW131154   1.936   0.894  13.644 -0.8016 -0.4045  2.0211
 6564SOL    HW231155   1.914   1.033  13.636 -0.9565  1.1185  0.9642
 6565SOL     OW31156   0.404   4.258  14.457  0.9822 -0.1523 -0.4756
 6565SOL    HW131157   0.463   4.260  14.381 -1.2070  1.1227 -2.1266
 6565SOL    HW231158   0.387   4.351  14.468  0.8559 -0.3238  0.7897
 6566SOL     OW31159   3.378   4.401   8.296 -0.2774 -0.0689 -0.0080
 6566SOL    HW131160   3.307   4.401   8.232 -0.7433 -0.2234  0.5048
 6566SOL    HW231161   3.393   4.307   8.311 -1.9443 -0.3694 -0.1838
 6567SOL     OW31162   2.600   0.494   5.516  0.1145  0.5825  0.0982
 6567SOL    HW131163   2.617   0.414   5.565 -0.8472 -0.6576 -1.5649
 6567SOL    HW231164   2.532   0.470   5.453  0.0460  3.4641 -0.9334
 6568SOL     OW31165   2.429   4.236  17.598  0.1714 -0.2102  0.1884
 6568SOL    HW131166   2.361   4.300  17.623 -0.6609 -0.8155 -0.5189
 6568SOL    HW231167   2.480   4.228  17.678  0.5229 -0.3581 -0.0489
 6569SOL     OW31168   1.924   1.925   1.931  0.3773 -0.5994 -0.0652
 6569SOL    HW131169   1.864   1.860   1.970  0.8724 -1.5447 -0.8679
 6569SOL    HW231170   1.895   1.930   1.840  0.0867 -2.3656 -0.0761
 6570SOL     OW31171   0.286   1.579   8.015 -0.2326 -0.6372 -0.0096
 6570SOL    HW131172   0.301   1.486   8.003 -0.3686 -0.7049  0.3482
 6570SOL    HW231173   0.373   1.614   7.997 -0.2567 -1.0024 -0.8000
 6571SOL     OW31174   3.410   3.541  11.935 -0.3084 -0.4724  0.1315
 6571SOL    HW131175   3.347   3.515  11.868 -0.8127 -1.2766  0.9060
 6571SOL    HW231176   3.492   3.525  11.888 -0.6382 -0.8701 -0.3009
 6572SOL     OW31177   2.589   4.066   5.268 -0.0413  0.1310 -0.5651
 6572SOL    HW131178   2.588   4.008   5.344 -1.3439  2.9335  1.5409
 6572SOL    HW231179   2.557   4.008   5.199 -0.2871  1.0896 -1.2533
 6573SOL     OW31180   2.688   2.930   0.549 -0.0827 -0.1731  0.2562
 6573SOL    HW131181   2.629   2.884   0.608  0.3898  1.1143  1.7122
 6573SOL    HW231182   2.774   2.913   0.588  1.3460  1.3636 -2.1834
 6574SOL     OW31183   2.419   2.983   5.067  0.1577 -0.3564 -0.3142
 6574SOL    HW131184   2.417   3.079   5.065 -0.1689 -0.3527  0.1787
 6574SOL    HW231185   2.383   2.958   5.152  0.4171 -1.2632 -0.4640
 6575SOL     OW31186   3.067   1.501   6.759  0.4264  0.3263 -0.2733
 6575SOL    HW131187   3.090   1.517   6.850  0.5785  1.3188 -0.4866
 6575SOL    HW231188   3.027   1.584   6.733  0.5557  0.3341 -0.4494
 6576SOL     OW31189   4.400   1.815  10.575  0.4189 -0.4917 -0.5826
 6576SOL    HW131190   4.422   1.794  10.667  1.0398  0.0408 -0.6099
 6576SOL    HW231191   4.343   1.891  10.587  0.2588 -0.7503  0.3030
 6577SOL     OW31192   0.712   3.727  10.639  0.2028  0.1529 -0.2597
 6577SOL    HW131193   0.766   3.798  10.674 -0.4056  0.1947  0.5848
 6577SOL    HW231194   0.781   3.670  10.606  0.0813 -0.4312  0.5076
 6578SOL     OW31195   2.141   3.128   8.328 -0.4404 -0.0800 -0.1522
 6578SOL    HW131196   2.107   3.094   8.410 -0.2740 -0.4849 -0.2542
 6578SOL    HW231197   2.175   3.053   8.279 -0.2183  1.3366 -2.1793
 6579SOL     OW31198   0.357   0.751   8.392  0.4212  0.8358  0.2155
 6579SOL    HW131199   0.387   0.839   8.372 -2.5286  2.3386  2.3464
 6579SOL    HW231200   0.272   0.771   8.431  1.0712  1.9157  1.0727
 6580SOL     OW31201   0.496   3.010   7.435 -0.3666 -0.5629  0.1885
 6580SOL    HW131202   0.428   3.048   7.379  0.3439 -1.4025 -1.2623
 6580SOL    HW231203   0.548   3.089   7.448  0.2045 -0.8702 -0.2149
 6581SOL     OW31204   0.044   3.546   5.858  0.1012 -0.9606 -0.6097
 6581SOL    HW131205   0.089   3.511   5.935 -0.4380 -1.4909 -0.5286
 6581SOL    HW231206   0.021   3.468   5.807 -4.9798  0.7321 -0.9053
 6582SOL     OW31207   0.299   2.493  16.322 -0.3016  0.3044 -0.3043
 6582SOL    HW131208   0.368   2.452  16.376 -2.2507 -1.1343  1.0826
 6582SOL    HW231209   0.229   2.428  16.317 -1.0707  1.0849  0.4703
 6583SOL     OW31210   3.252   4.429   3.541 -0.2542  0.1352 -0.2530
 6583SOL    HW131211   3.337   4.467   3.566 -1.0585  1.1682  0.9335
 6583SOL    HW231212   3.236   4.378   3.621  1.7417  0.7044  0.5169
 6584SOL     OW31213   2.114   4.636   1.218 -0.6397  0.0979  0.4414
 6584SOL    HW131214   2.206   4.654   1.239 -0.3285 -0.6951 -0.2463
 6584SOL    HW231215   2.080   4.658   1.304 -0.3664  0.6797  0.3995
 6585SOL     OW31216   3.835   0.408  12.666 -0.3587 -0.6169  0.2668
 6585SOL    HW131217   3.816   0.477  12.728  0.7218 -0.1989  0.1366
 6585SOL    HW231218   3.914   0.443  12.624  0.3571 -2.3247  0.1572
 6586SOL     OW31219   4.498   1.257   6.733  0.6103  0.2159  0.6870
 6586SOL    HW131220   4.465   1.186   6.788  0.3572  0.3859  0.7526
 6586SOL    HW231221   4.495   1.326   6.799  1.3938 -0.3687  1.3361
 6587SOL     OW31222   2.943   0.913   4.400  0.1107  0.0512  0.1591
 6587SOL    HW131223   2.969   0.979   4.335 -0.2278 -0.1644 -0.1925
 6587SOL    HW231224   2.900   0.971   4.463 -2.0533 -1.6256  0.2050
 6588SOL     OW31225   0.928   2.686   4.881  0.1477  0.1352  0.1648
 6588SOL    HW131226   0.988   2.761   4.874  0.6791 -0.3488 -0.5114
 6588SOL    HW231227   0.963   2.636   4.954 -0.3054  0.2186  0.4377
 6589SOL     OW31228   2.107   2.332  17.514  0.5163  0.2525  0.0237
 6589SOL    HW131229   2.043   2.291  17.455 -0.2953  0.0619  1.0563
 6589SOL    HW231230   2.046   2.381  17.569  1.3409  1.6090 -0.2601
 6590SOL     OW31231   3.278   3.861   4.890 -0.1244  0.0088  0.7629
 6590SOL    HW131232   3.290   3.872   4.984  1.4192 -0.5223  0.6326
 6590SOL    HW231233   3.359   3.819   4.860 -0.6765 -0.0775 -0.6221
 6591SOL     OW31234   1.862   4.207   4.886 -0.4924 -0.2442 -0.2059
 6591SOL    HW131235   1.824   4.292   4.909  0.0545 -0.3900  1.2455
 6591SOL    HW231236   1.944   4.236   4.847 -1.1956 -0.0605 -1.5258
 6592SOL     OW31237   4.342   1.407   6.032  0.2178  0.0105 -0.2505
 6592SOL    HW131238   4.257   1.449   6.045 -0.3184 -1.2015  0.1215
 6592SOL    HW231239   4.402   1.481   6.046  2.0131 -1.5351  0.1965
 6593SOL     OW31240   1.321   0.724   0.549  0.3909  0.5835 -0.2261
 6593SOL    HW131241   1.393   0.753   0.493 -0.6242  0.7525 -1.4296
 6593SOL    HW231242   1.362   0.672   0.619  1.8647  0.8296 -0.9009
 6594SOL     OW31243   3.039   1.484   2.857 -0.1508  0.0395  0.1615
 6594SOL    HW131244   3.131   1.502   2.874  0.5424 -2.0130 -1.3909
 6594SOL    HW231245   3.004   1.572   2.872  0.3436  0.5159 -1.4473
 6595SOL     OW31246   4.576   0.156  10.448  0.4998  1.0804 -0.0838
 6595SOL    HW131247   4.628   0.107  10.384  1.2102  0.5326  0.9089
 6595SOL    HW231248   4.628   0.235  10.458  1.4299  0.3456  0.9096
 6596SOL     OW31249   3.863   2.803   3.542  0.2561  0.0002 -0.0128
 6596SOL    HW131250   3.953   2.816   3.510  1.6502 -3.7250  2.3792
 6596SOL    HW231251   3.816   2.860   3.481 -0.4803 -0.0841  0.4825
 6597SOL     OW31252   1.352   2.089   1.288  0.1318  0.0334  0.4045
 6597SOL    HW131253   1.430   2.142   1.304  1.3254 -1.7025  0.3089
 6597SOL    HW231254   1.291   2.131   1.350  0.1347 -0.8411  1.0035
 6598SOL     OW31255   2.663   3.682   6.453 -0.6539 -0.0271  0.2216
 6598SOL    HW131256   2.703   3.708   6.370 -0.4880  1.0399  0.6399
 6598SOL    HW231257   2.582   3.640   6.425 -0.2343 -0.4850 -0.3153
 6599SOL     OW31258   1.585   4.619   1.317 -0.0019  0.6725  0.1297
 6599SOL    HW131259   1.663   4.641   1.266  1.3778  0.3397  2.1004
 6599SOL    HW231260   1.543   4.705   1.319 -2.0326 -0.3042 -0.7254
 6600SOL     OW31261   1.816   2.675   1.213  0.5874  0.2233  0.3878
 6600SOL    HW131262   1.838   2.758   1.255 -1.8856  0.9245  0.2925
 6600SOL    HW231263   1.903   2.634   1.208 -0.2956 -1.3550 -1.9047
 6601SOL     OW31264   1.167   0.111   8.120 -0.4450  0.2266 -0.3533
 6601SOL    HW131265   1.075   0.128   8.141 -0.9953 -2.9983 -0.0562
 6601SOL    HW231266   1.195   0.083   8.207  1.1766  2.4960 -0.1549
 6602SOL     OW31267   2.031   2.460   9.343 -0.1201  0.0027 -0.6653
 6602SOL    HW131268   2.000   2.370   9.332 -0.1823 -0.3247  2.2323
 6602SOL    HW231269   2.093   2.444   9.413  0.6242 -0.2787 -1.3859
 6603SOL     OW31270   3.150   3.012  16.177 -0.3344 -0.1494 -0.2211
 6603SOL    HW131271   3.055   3.025  16.174 -0.5688 -1.4110  2.5585
 6603SOL    HW231272   3.163   2.974  16.090  3.3514 -0.4490  0.4900
 6604SOL     OW31273   3.676   1.959   2.988  0.6763  0.2713  0.1771
 6604SOL    HW131274   3.642   1.874   2.961 -3.6292  1.8595  0.5887
 6604SOL    HW231275   3.641   2.008   2.913  2.2443 -0.9756 -1.3514
 6605SOL     OW31276   3.606   0.098   1.028 -0.0793  0.2332 -0.2328
 6605SOL    HW131277   3.700   0.077   1.031 -0.0729  0.1857 -0.8716
 6605SOL    HW231278   3.595   0.172   1.088  0.7850 -0.5316  0.8970
 6606SOL     OW31279   3.364   3.499   4.242 -0.3386  0.2909  0.0533
 6606SOL    HW131280   3.374   3.563   4.313 -1.9126 -1.9766  2.3287
 6606SOL    HW231281   3.410   3.422   4.276 -1.2134 -0.5188 -0.5909
 6607SOL     OW31282   3.018   4.026   3.796 -0.3299  0.5647  0.5155
 6607SOL    HW131283   2.973   4.073   3.866  0.5291  1.9444  0.1409
 6607SOL    HW231284   3.102   3.992   3.829  0.2855 -2.4158 -4.0203
 6608SOL     OW31285   3.437   0.423   4.718  0.8094 -0.5415  0.1795
 6608SOL    HW131286   3.360   0.453   4.767 -0.4578 -0.8930 -1.6084
 6608SOL    HW231287   3.393   0.366   4.655  2.8347 -2.2034  0.2647
 6609SOL     OW31288   1.530   2.677  11.037  0.1161  0.2124 -0.1963
 6609SOL    HW131289   1.591   2.734  10.988  0.6858 -1.3650 -1.3259
 6609SOL    HW231290   1.515   2.721  11.120 -0.6206 -1.1689  0.3928
 6610SOL     OW31291   0.103   1.373   5.216  0.2370  0.5777 -0.5447
 6610SOL    HW131292   0.141   1.441   5.272  0.1439 -0.2885  0.5856
 6610SOL    HW231293   0.039   1.425   5.169 -1.3364  0.7921  1.8003
 6611SOL     OW31294   4.401   4.348   7.511  0.1106 -0.1001  0.2315
 6611SOL    HW131295   4.331   4.289   7.484  0.7857 -0.4742 -0.7097
 6611SOL    HW231296   4.476   4.309   7.467  1.6513  0.2745  2.5338
 6612SOL     OW31297   2.541   3.554   1.662 -0.0220  0.2579  0.8879
 6612SOL    HW131298   2.538   3.649   1.646 -0.3383 -0.1034 -1.2359
 6612SOL    HW231299   2.625   3.550   1.707  0.1002 -0.7295  0.5734
 6613SOL     OW31300   1.909   3.995  13.523 -0.4243 -0.5857 -0.0595
 6613SOL    HW131301   1.816   3.988  13.502 -0.2291 -1.8875 -0.5069
 6613SOL    HW231302   1.949   3.994  13.436 -0.8927 -3.1189 -0.2542
 6614SOL     OW31303   0.899   3.737   7.011  0.0184 -0.1177  0.3871
 6614SOL    HW131304   0.883   3.799   6.940  2.6834 -0.8986 -0.8860
 6614SOL    HW231305   0.903   3.651   6.969  2.4406 -0.3423  1.1124
 6615SOL     OW31306   1.498   0.916   8.882  0.0586 -0.5688 -0.3346
 6615SOL    HW131307   1.409   0.916   8.917  0.5142  0.0852  0.8330
 6615SOL    HW231308   1.553   0.916   8.960 -0.9064 -3.5252  0.3509
 6616SOL     OW31309   3.813   4.263  17.380 -0.0920 -0.1141  0.2303
 6616SOL    HW131310   3.822   4.356  17.402  0.4551  0.4390 -2.4095
 6616SOL    HW231311   3.870   4.264  17.304 -0.7662 -1.0770 -0.2833
 6617SOL     OW31312   1.750   1.029   6.319 -0.4147 -0.0377  0.1273
 6617SOL    HW131313   1.677   1.091   6.319  1.8424  2.5718 -0.4697
 6617SOL    HW231314   1.815   1.077   6.371  0.8255  0.0625 -1.5437
 6618SOL     OW31315   2.054   1.328   4.229  0.2958 -0.1191 -0.1609
 6618SOL    HW131316   2.064   1.358   4.319  1.8137 -3.0067  0.6289
 6618SOL    HW231317   2.009   1.247   4.255  0.3577 -0.6541 -1.7097
 6619SOL     OW31318   2.290   0.305   7.888 -0.8951  0.3073 -0.0082
 6619SOL    HW131319   2.313   0.397   7.875 -1.2806  0.5931  1.2981
 6619SOL    HW231320   2.276   0.294   7.982 -0.1060 -1.0443 -0.0547
 6620SOL     OW31321   4.250   1.052   2.041  0.2154 -0.1002 -0.5544
 6620SOL    HW131322   4.291   1.138   2.038  1.7616 -0.8518 -0.9113
 6620SOL    HW231323   4.250   1.039   1.946 -2.1981 -0.0925 -0.5531
 6621SOL     OW31324   2.836   1.341   8.260  0.0328 -0.3643 -0.0121
 6621SOL    HW131325   2.927   1.364   8.242 -0.7091  1.1444 -1.8380
 6621SOL    HW231326   2.832   1.378   8.348  1.1945  2.7510 -1.2849
 6622SOL     OW31327   3.593   3.916   4.237  0.7567 -0.0821 -0.5095
 6622SOL    HW131328   3.623   3.831   4.269  2.5072 -0.3752 -2.8992
 6622SOL    HW231329   3.662   3.982   4.248 -0.3465  0.7342  1.4101
 6623SOL     OW31330   4.028   4.328   4.017 -0.1737 -0.0204 -0.1136
 6623SOL    HW131331   4.093   4.335   3.947 -0.4129  0.7965 -0.2548
 6623SOL    HW231332   4.094   4.302   4.082  1.0275  0.9599 -0.9538
 6624SOL     OW31333   2.123   2.180  13.360  0.2560 -0.2194  0.1710
 6624SOL    HW131334   2.177   2.104  13.341  0.9228 -0.0520  1.4078
 6624SOL    HW231335   2.076   2.160  13.441 -0.3456  0.4690 -0.0044
 6625SOL     OW31336   4.381   4.518   1.715 -0.2604 -0.3356  0.0915
 6625SOL    HW131337   4.378   4.448   1.780  1.4449 -0.9256 -0.4982
 6625SOL    HW231338   4.315   4.490   1.652 -0.0715 -0.1983 -0.1670
 6626SOL     OW31339   0.906   1.964   1.987 -0.5094 -0.3102 -0.5158
 6626SOL    HW131340   0.892   1.875   1.954 -2.1281 -0.1866 -0.1851
 6626SOL    HW231341   0.812   1.980   1.999 -0.9518 -1.5639 -2.2463
 6627SOL     OW31342   1.605   0.313   0.237 -0.2005 -0.0485  0.1876
 6627SOL    HW131343   1.515   0.281   0.231  0.1086 -0.7426 -0.6971
 6627SOL    HW231344   1.596   0.384   0.174  1.1230 -0.4039 -0.4008
 6628SOL     OW31345   2.470   4.638  16.606 -0.4120  0.3559  0.2833
 6628SOL    HW131346   2.503   0.004  16.614 -0.2221  0.3735 -0.7292
 6628SOL    HW231347   2.550   4.592  16.580 -0.3173  0.0921  1.0400
 6629SOL     OW31348   3.009   0.160  12.361  0.3205 -0.1947 -0.1989
 6629SOL    HW131349   2.996   0.145  12.267  1.9402 -0.9720 -0.2958
 6629SOL    HW231350   2.978   0.081  12.405  0.8611  0.3684  1.1945
 6630SOL     OW31351   0.873   3.892   4.682 -0.0149  0.1962  0.2359
 6630SOL    HW131352   0.845   3.965   4.628  0.6580  1.7854  2.0234
 6630SOL    HW231353   0.946   3.859   4.630 -0.5740 -3.4740  1.7022
 6631SOL     OW31354   1.794   3.617  15.974 -0.1837  0.4756 -0.1687
 6631SOL    HW131355   1.878   3.593  16.015 -0.4370  0.4106  0.3096
 6631SOL    HW231356   1.724   3.575  16.023 -1.3972 -0.8396 -3.0590
 6632SOL     OW31357   1.294   2.680  15.679  0.5098 -0.0052 -0.1648
 6632SOL    HW131358   1.326   2.614  15.741 -0.9301 -0.8538 -0.3097
 6632SOL    HW231359   1.228   2.723  15.733  0.6249 -2.9788  2.4089
 6633SOL     OW31360   4.720   1.950   6.960 -0.3035  0.6622 -0.1565
 6633SOL    HW131361   4.661   2.001   7.015  0.0342 -0.2004  1.0043
 6633SOL    HW231362   0.045   1.908   7.030  1.0503 -0.8998 -2.0368
 6634SOL     OW31363   1.510   2.303   2.430 -0.1286 -0.1408  0.5445
 6634SOL    HW131364   1.434   2.255   2.397  0.2712 -0.8915  0.7142
 6634SOL    HW231365   1.504   2.388   2.386 -0.6518 -0.6813 -0.4519
 6635SOL     OW31366   2.307   3.853   3.566  0.1815  0.0407 -0.8445
 6635SOL    HW131367   2.252   3.844   3.488 -1.0471 -1.0110  0.1287
 6635SOL    HW231368   2.336   3.762   3.570  1.4855  0.5099  0.2942
 6636SOL     OW31369   1.675   3.058   3.773  0.3252 -0.2525 -0.3824
 6636SOL    HW131370   1.766   3.084   3.760 -0.1050  1.0432 -0.8010
 6636SOL    HW231371   1.686   2.975   3.727  0.6115 -1.5898  2.0406
 6637SOL     OW31372   1.521   1.500   5.832 -0.0972 -0.2156 -0.2048
 6637SOL    HW131373   1.567   1.476   5.752  0.3670  0.6150 -0.1904
 6637SOL    HW231374   1.440   1.540   5.799  0.3205  1.2888  0.5901
 6638SOL     OW31375   1.097   1.639   3.464  0.1307  0.2966  0.4644
 6638SOL    HW131376   1.115   1.717   3.412 -1.6044  0.9752  0.9096
 6638SOL    HW231377   1.099   1.571   3.396  0.3423  0.8840 -0.1190
 6639SOL     OW31378   3.445   4.593   8.549  0.0036 -0.7864 -0.5882
 6639SOL    HW131379   3.518   4.572   8.491 -0.1092  0.5828 -1.2086
 6639SOL    HW231380   3.383   4.524   8.525  0.8934 -2.1707  1.0644
 6640SOL     OW31381   2.428   1.268   7.465 -0.3429 -0.0320 -0.3166
 6640SOL    HW131382   2.406   1.305   7.550 -1.8079 -2.5679  0.4001
 6640SOL    HW231383   2.362   1.200   7.458 -0.3671 -0.0255 -0.1452
 6641SOL     OW31384   0.462   3.854  15.160 -0.6253 -0.3241  0.1619
 6641SOL    HW131385   0.471   3.949  15.154 -1.4345 -0.2357  0.3337
 6641SOL    HW231386   0.374   3.841  15.196 -0.4786 -2.2057 -0.1634
 6642SOL     OW31387   4.609   0.018   7.140  0.0172  0.4851  0.4059
 6642SOL    HW131388   4.673   0.027   7.210 -0.8893  0.4881  1.2339
 6642SOL    HW231389   4.612   4.649   7.116 -0.5122  0.7149 -0.5812
 6643SOL     OW31390   1.420   0.383   0.529  0.5370  0.0674 -0.3749
 6643SOL    HW131391   1.455   0.471   0.521  0.6382 -0.1182 -1.8535
 6643SOL    HW231392   1.353   0.383   0.461 -1.7295  0.5241  1.8626
 6644SOL     OW31393   2.527   3.775   9.846  0.2673  0.0133  0.5696
 6644SOL    HW131394   2.454   3.767   9.907 -0.3412 -2.7659 -0.5527
 6644SOL    HW231395   2.492   3.729   9.770  2.5384  3.8849 -2.8100
 6645SOL     OW31396   3.104   2.547   6.465 -0.0340 -0.5895  0.6183
 6645SOL    HW131397   3.109   2.494   6.544 -0.0937 -0.5974  0.6169
 6645SOL    HW231398   3.074   2.481   6.402  0.4890  1.2412 -1.5551
 6646SOL     OW31399   3.046   3.029  13.698  0.2878  0.1698  0.1372
 6646SOL    HW131400   3.126   3.080  13.694  0.2101  0.4120  1.8376
 6646SOL    HW231401   3.084   2.946  13.670  3.2704  0.1955  4.1499
 6647SOL     OW31402   3.307   0.161  11.289  0.4517 -0.0638 -0.3055
 6647SOL    HW131403   3.275   0.198  11.207  3.9050  1.9986 -0.7608
 6647SOL    HW231404   3.353   0.234  11.332 -0.8563  0.7396 -0.2956
 6648SOL     OW31405   2.345   4.475   5.171  0.2634 -0.1498 -0.3094
 6648SOL    HW131406   2.270   4.501   5.225  0.8439  2.4707 -0.7964
 6648SOL    HW231407   2.409   4.545   5.186 -0.3519  0.4854 -0.6365
 6649SOL     OW31408   1.936   1.186   8.319 -0.0537  0.1570 -0.3078
 6649SOL    HW131409   1.865   1.249   8.333  0.8468  0.8421  1.1254
 6649SOL    HW231410   1.981   1.182   8.403  1.3147  1.7759 -0.9610
 6650SOL     OW31411   3.833   2.162   6.929 -0.5707  0.5511 -0.0936
 6650SOL    HW131412   3.912   2.214   6.946 -1.7838  2.5102 -0.4126
 6650SOL    HW231413   3.814   2.198   6.842 -1.5370  1.7369  0.6067
 6651SOL     OW31414   2.743   0.796  17.416 -0.2054 -0.2598 -0.0781
 6651SOL    HW131415   2.805   0.725  17.433 -1.3931 -0.6443  2.7221
 6651SOL    HW231416   2.725   0.823  17.506 -0.0791  0.4140 -0.2548
 6652SOL     OW31417   3.128   0.010  17.499  0.7086 -0.4259  0.4864
 6652SOL    HW131418   3.143   0.085  17.557 -1.1299 -1.0502  1.7455
 6652SOL    HW231419   3.068   4.674  17.542 -0.0400  0.7551  1.0638
 6653SOL     OW31420   0.871   3.060  12.862  0.4259  0.4216 -0.0190
 6653SOL    HW131421   0.947   3.049  12.805  0.8776  0.2607  0.6148
 6653SOL    HW231422   0.799   3.047  12.800 -1.0919  1.5659  1.4778
 6654SOL     OW31423   4.154   2.004   0.097  0.5721  0.5071  0.0413
 6654SOL    HW131424   4.210   1.996   0.020 -0.4254  1.2267 -0.7612
 6654SOL    HW231425   4.066   1.974   0.078  0.7034 -0.4891  0.9968
 6655SOL     OW31426   4.616   1.629   3.719  0.0783 -0.0046  0.3937
 6655SOL    HW131427   4.548   1.654   3.781 -1.4661 -0.8486 -0.9604
 6655SOL    HW231428   4.698   1.660   3.758  1.2030 -2.2440 -0.1899
 6656SOL     OW31429   3.609   0.027   9.516 -0.0519  0.2214 -0.2104
 6656SOL    HW131430   3.635   0.048   9.605  0.3826  0.2462 -0.3440
 6656SOL    HW231431   3.637   0.109   9.475 -1.9753  0.3848 -1.2070
 6657SOL     OW31432   0.323   4.451   4.431  0.0540 -0.3353 -0.3733
 6657SOL    HW131433   0.232   4.458   4.401  0.0960  1.6683 -0.0349
 6657SOL    HW231434   0.372   4.504   4.368 -2.1954  1.2710 -0.7980
 6658SOL     OW31435   4.715   2.099   6.035  0.0071 -0.6039 -0.3509
 6658SOL    HW131436   0.010   2.184   6.073  0.6981 -1.6309  1.5907
 6658SOL    HW231437   0.062   2.045   6.072  0.4143  0.3766  0.3049
 6659SOL     OW31438   1.289   2.462   6.705 -0.3644 -0.1127 -0.2695
 6659SOL    HW131439   1.274   2.381   6.656 -0.2460 -0.7246  0.7008
 6659SOL    HW231440   1.347   2.430   6.775 -0.4065 -2.8745 -1.5034
 6660SOL     OW31441   3.552   0.743  12.651 -0.0824  0.0900 -0.4560
 6660SOL    HW131442   3.474   0.788  12.684  0.7554  2.8912 -2.3549
 6660SOL    HW231443   3.563   0.795  12.572 -2.3267 -1.3863 -1.7342
 6661SOL     OW31444   2.091   2.535   8.623  1.2548  0.3488  0.5422
 6661SOL    HW131445   2.059   2.595   8.555  0.6247 -2.4471 -1.6127
 6661SOL    HW231446   2.026   2.537   8.694  0.9758  1.8208  0.2575
 6662SOL     OW31447   3.130   4.678   3.762 -0.4384  0.1096  0.8365
 6662SOL    HW131448   3.111   4.617   3.833  0.2374 -1.0411  0.0314
 6662SOL    HW231449   3.218   4.708   3.784  0.7926 -0.0830 -3.7553
 6663SOL     OW31450   3.117   0.400  17.439 -0.3384 -0.4377  0.3796
 6663SOL    HW131451   3.168   0.481  17.450 -0.0662 -0.3392 -1.5512
 6663SOL    HW231452   3.026   0.427  17.429 -0.0435  0.4037 -0.0212
 6664SOL     OW31453   4.620   1.538  17.430 -0.4791 -0.2762 -0.0725
 6664SOL    HW131454   4.686   1.589  17.384 -1.8196  1.8124  0.3221
 6664SOL    HW231455   4.667   1.455  17.426  0.2967  0.3056 -2.7891
 6665SOL     OW31456   1.268   2.566   7.269  0.0885  0.1715  0.0840
 6665SOL    HW131457   1.342   2.506   7.280 -0.3296 -0.2011  0.8493
 6665SOL    HW231458   1.241   2.587   7.358  0.5019 -1.7335  0.6457
 6666SOL     OW31459   2.850   4.153   5.235 -0.3096  0.1992  0.8113
 6666SOL    HW131460   2.865   4.089   5.165  2.5820  0.1772  1.4370
 6666SOL    HW231461   2.759   4.135   5.256 -0.4487 -0.1382 -0.0702
 6667SOL     OW31462   1.934   3.651   0.975 -0.1587  0.1472  0.4115
 6667SOL    HW131463   1.921   3.732   1.024  2.6202 -1.1253  3.2119
 6667SOL    HW231464   2.022   3.663   0.941 -0.1860 -1.9541 -0.4280
 6668SOL     OW31465   0.661   2.872   3.388  0.2327 -0.1152  0.1937
 6668SOL    HW131466   0.734   2.921   3.424  0.1877  1.0574 -1.2971
 6668SOL    HW231467   0.659   2.904   3.298 -2.2433  0.5460  0.4624
 6669SOL     OW31468   2.072   3.977  14.372  0.1698 -0.1626  0.3896
 6669SOL    HW131469   2.166   3.967  14.356 -0.3769 -2.7599 -1.1254
 6669SOL    HW231470   2.040   3.898  14.330 -3.2883  2.3375 -1.6741
 6670SOL     OW31471   4.320   0.989   7.551 -0.5379  0.2870  0.3341
 6670SOL    HW131472   4.288   1.059   7.606 -1.1234  0.2803  0.0031
 6670SOL    HW231473   4.279   1.021   7.471  0.0496 -0.7308 -0.3808
 6671SOL     OW31474   3.395   1.615  15.627  0.3699 -0.1827  0.2742
 6671SOL    HW131475   3.367   1.623  15.536  1.3706 -1.9267 -0.1837
 6671SOL    HW231476   3.320   1.564  15.656 -0.9943  1.2672 -0.7228
 6672SOL     OW31477   1.420   1.996   6.133  0.2268 -0.3327  0.5805
 6672SOL    HW131478   1.451   1.913   6.098 -1.0578 -0.7776  0.5045
 6672SOL    HW231479   1.379   2.041   6.059 -0.0162 -0.5309  0.5922
 6673SOL     OW31480   4.632   4.543   1.977 -0.0899  0.4844 -1.0442
 6673SOL    HW131481   4.555   4.487   1.970 -0.4424  0.7728  0.4797
 6673SOL    HW231482   4.701   4.477   1.980  0.3149  1.0007  1.3722
 6674SOL     OW31483   2.513   1.710   7.997 -0.0347  0.1030 -0.3764
 6674SOL    HW131484   2.595   1.660   8.000 -0.4330 -0.7540 -3.5158
 6674SOL    HW231485   2.533   1.788   7.945 -0.6367  0.6694  0.2419
 6675SOL     OW31486   2.891   0.987   8.781 -0.1993 -0.0629  0.3270
 6675SOL    HW131487   2.930   1.060   8.733 -0.1322  1.0865  2.1182
 6675SOL    HW231488   2.966   0.928   8.786  0.0033  0.0612 -1.5596
 6676SOL     OW31489   4.454   0.419  13.792 -0.3836 -0.3135  0.1603
 6676SOL    HW131490   4.537   0.436  13.838 -1.6604  1.8364  1.6388
 6676SOL    HW231491   4.459   0.483  13.721  1.7525 -1.6012 -0.8605
 6677SOL     OW31492   1.689   4.044   5.676 -0.0522  0.0807 -0.1695
 6677SOL    HW131493   1.692   4.137   5.703  1.9886  0.2808 -1.1202
 6677SOL    HW231494   1.648   4.001   5.751  0.0642 -1.1893 -0.8462
 6678SOL     OW31495   4.168   4.156  13.846 -0.0084 -0.2073 -0.1659
 6678SOL    HW131496   4.247   4.167  13.898 -0.2139 -3.0849  0.7328
 6678SOL    HW231497   4.130   4.243  13.862  0.0097 -0.2875  0.2999
 6679SOL     OW31498   3.978   3.137  14.321 -0.3421  0.5113  0.1520
 6679SOL    HW131499   4.063   3.113  14.284 -2.0801 -1.6314 -2.4181
 6679SOL    HW231500   4.019   3.197  14.384  0.7237 -1.4204  1.3041
 6680SOL     OW31501   2.659   0.122   0.924  0.1382 -0.8132 -0.0967
 6680SOL    HW131502   2.735   0.120   0.865 -0.5353  0.8353 -1.0152
 6680SOL    HW231503   2.657   0.218   0.929 -0.2187 -0.8349  0.1209
 6681SOL     OW31504   3.815   1.410   0.323 -0.7008  0.6042  0.2699
 6681SOL    HW131505   3.766   1.456   0.391 -0.8177  0.2166  0.4462
 6681SOL    HW231506   3.784   1.452   0.243  2.4901  1.5416 -0.4889
 6682SOL     OW31507   0.739   2.663   7.010 -0.3944  0.2238  0.8917
 6682SOL    HW131508   0.738   2.745   6.960  2.8587 -0.2366  0.0374
 6682SOL    HW231509   0.677   2.669   7.083 -0.5883 -0.1351  0.7565
 6683SOL     OW31510   2.022   1.357   5.226  0.0138 -0.1090  0.1209
 6683SOL    HW131511   1.972   1.414   5.167 -0.4947  1.2556  1.8810
 6683SOL    HW231512   2.026   1.275   5.175 -0.6749  0.1366 -0.3263
 6684SOL     OW31513   0.815   1.408   6.769  0.2023 -0.4336 -0.3869
 6684SOL    HW131514   0.878   1.462   6.722  0.2251 -0.9929 -1.0042
 6684SOL    HW231515   0.752   1.475   6.793  0.7021 -0.4724  1.0661
 6685SOL     OW31516   2.177   4.166   4.616 -0.2507 -0.4407 -0.0968
 6685SOL    HW131517   2.264   4.192   4.586  0.4298 -1.3813  1.0153
 6685SOL    HW231518   2.143   4.122   4.538  2.1932 -0.0711 -1.3889
 6686SOL     OW31519   3.650   4.703   6.420  0.4084  0.4785 -0.7803
 6686SOL    HW131520   3.692   4.624   6.386 -0.3939  0.6996 -2.2620
 6686SOL    HW231521   3.686   4.715   6.508  2.4825 -1.2959 -1.3857
 6687SOL     OW31522   3.450   4.661   9.301  0.0369  0.2104  0.3456
 6687SOL    HW131523   3.415   4.678   9.214  0.7090  0.0662  0.0531
 6687SOL    HW231524   3.437   0.022   9.344 -0.2995  0.9853 -1.2738
 6688SOL     OW31525   4.323   4.374   6.585 -0.1566 -0.0189 -0.8067
 6688SOL    HW131526   4.288   4.291   6.552 -0.3728  0.3784 -1.5616
 6688SOL    HW231527   4.241   4.422   6.590  0.1750  0.6088 -1.5537
 6689SOL     OW31528   0.692   2.395   5.751  0.4532 -0.3918  0.4442
 6689SOL    HW131529   0.614   2.358   5.711 -0.3968 -0.5203  2.2145
 6689SOL    HW231530   0.705   2.364   5.841 -0.4033  0.0270  0.7052
 6690SOL     OW31531   0.621   3.943   8.591  0.5511  0.0216  0.0450
 6690SOL    HW131532   0.604   4.017   8.532  0.4922 -1.1632 -1.4341
 6690SOL    HW231533   0.701   3.975   8.632 -0.5948  3.4530 -0.3815
 6691SOL     OW31534   4.375   3.623   0.629  0.1307 -0.5301 -0.5753
 6691SOL    HW131535   4.372   3.585   0.717  0.9061  1.3110  0.2523
 6691SOL    HW231536   4.470   3.623   0.614  0.2892 -0.5286  0.3923
 6692SOL     OW31537   4.053   2.986  11.725 -0.0093  0.0433 -0.6458
 6692SOL    HW131538   4.002   2.989  11.645  2.0118 -1.3645 -1.9973
 6692SOL    HW231539   4.137   3.020  11.693  0.1709 -0.5796 -0.8362
 6693SOL     OW31540   2.144   2.612   1.401 -0.1695  0.0063 -0.0264
 6693SOL    HW131541   2.141   2.707   1.390 -2.3135 -0.3691 -2.8763
 6693SOL    HW231542   2.072   2.584   1.457  1.1353 -2.0499  0.6290
 6694SOL     OW31543   2.912   0.318   8.328 -0.2042 -0.3223 -0.3906
 6694SOL    HW131544   2.981   0.272   8.280  1.1519  0.6280  0.6510
 6694SOL    HW231545   2.920   0.408   8.297 -1.1104 -0.6150 -1.4768
 6695SOL     OW31546   2.839   1.404   4.836 -0.0723 -0.2305 -0.3786
 6695SOL    HW131547   2.930   1.399   4.807 -0.3645  1.7603 -1.6447
 6695SOL    HW231548   2.818   1.485   4.789  0.9865  0.7416  0.8051
 6696SOL     OW31549   3.260   0.324   7.131 -0.3134 -0.0071  0.5628
 6696SOL    HW131550   3.356   0.329   7.135 -0.2781 -1.2314  1.1810
 6696SOL    HW231551   3.223   0.336   7.219  0.1088  1.5301  0.5480
 6697SOL     OW31552   3.932   0.218  16.321  0.2295 -0.4244 -0.5782
 6697SOL    HW131553   3.876   0.294  16.338 -1.0635 -1.7123  0.8556
 6697SOL    HW231554   3.928   0.167  16.402 -1.2399 -1.3502 -1.2325
 6698SOL     OW31555   4.570   2.104  13.052  0.4138 -0.1660  0.3409
 6698SOL    HW131556   4.557   2.012  13.076  2.1358 -0.8630 -1.3994
 6698SOL    HW231557   4.665   2.117  13.057  0.3469 -0.3080  2.0765
 6699SOL     OW31558   4.387   3.353  14.158  0.2156 -0.0902  0.2120
 6699SOL    HW131559   4.318   3.335  14.093 -0.0308  1.0099  0.1744
 6699SOL    HW231560   4.439   3.275  14.137  0.2064  0.7059 -2.7750
 6700SOL     OW31561   3.608   0.166  13.762  0.2292 -0.9782 -0.4421
 6700SOL    HW131562   3.621   0.251  13.720  0.9092 -0.7486  0.2205
 6700SOL    HW231563   3.542   0.184  13.829 -0.0958 -1.6305 -0.5799
 6701SOL     OW31564   2.598   3.775  17.335  0.4855 -0.8299  0.1198
 6701SOL    HW131565   2.573   3.797  17.425  0.1229  1.5992 -0.5912
 6701SOL    HW231566   2.665   3.707  17.341 -1.1537 -2.4323  0.3342
 6702SOL     OW31567   1.402   4.222   8.337  0.0877 -0.1951 -0.3200
 6702SOL    HW131568   1.386   4.174   8.418 -3.3312  0.5740 -0.5507
 6702SOL    HW231569   1.435   4.151   8.281 -1.2208 -0.2582 -1.0122
 6703SOL     OW31570   4.452   2.561  13.534 -0.3118 -0.3779  0.0070
 6703SOL    HW131571   4.374   2.515  13.565 -1.6030  1.2712 -0.8282
 6703SOL    HW231572   4.419   2.622  13.468 -1.9891  1.6356  2.6984
 6704SOL     OW31573   2.183   2.484  14.000  0.3660 -0.0284 -0.0623
 6704SOL    HW131574   2.163   2.459  14.090 -0.0119  1.6712  0.3254
 6704SOL    HW231575   2.272   2.448  14.002  0.5316  0.2905 -1.4758
 6705SOL     OW31576   1.167   0.891   7.332  0.5370  0.4307 -0.6704
 6705SOL    HW131577   1.111   0.841   7.273  0.8223 -1.6387  0.8239
 6705SOL    HW231578   1.197   0.825   7.395  1.1101  0.8447 -0.5044
 6706SOL     OW31579   2.711   4.582   9.002 -0.0292  0.5158 -0.5864
 6706SOL    HW131580   2.628   4.545   9.032  0.2091  1.8729  1.7811
 6706SOL    HW231581   2.759   4.514   8.955 -0.8065 -0.5555  0.1667
 6707SOL     OW31582   0.573   0.674   9.171  0.3332  0.8434 -0.3775
 6707SOL    HW131583   0.647   0.715   9.217  1.3099 -0.8107 -0.4729
 6707SOL    HW231584   0.506   0.742   9.164 -0.0071  0.5844  0.2835
 6708SOL     OW31585   4.255   2.206   2.230  0.2080 -0.4994  0.4158
 6708SOL    HW131586   4.347   2.199   2.205  1.3307 -0.1120  4.4261
 6708SOL    HW231587   4.213   2.136   2.180 -1.4257  1.6240 -1.1513
 6709SOL     OW31588   2.046   3.674   4.613 -0.3130 -0.9088 -0.4933
 6709SOL    HW131589   2.127   3.720   4.593 -0.6983 -0.7343 -1.6532
 6709SOL    HW231590   2.070   3.591   4.655 -0.8789 -0.7373  0.1700
 6710SOL     OW31591   1.776   1.287  16.377  0.2464 -0.0126  0.0797
 6710SOL    HW131592   1.771   1.191  16.371 -0.0591 -0.1303  2.3035
 6710SOL    HW231593   1.756   1.313  16.287  0.8730 -0.7874 -0.2829
 6711SOL     OW31594   0.241   3.252   6.511 -0.4311 -0.1913  0.5013
 6711SOL    HW131595   0.160   3.302   6.505 -0.5058 -0.1651  1.7007
 6711SOL    HW231596   0.215   3.161   6.492 -0.1963 -0.7017  2.6417
 6712SOL     OW31597   0.336   0.319   7.559  0.0494 -0.2920 -0.0957
 6712SOL    HW131598   0.406   0.305   7.623 -0.4033 -1.2133  0.2024
 6712SOL    HW231599   0.349   0.234   7.518  0.7400 -0.4503  0.4499
 6713SOL     OW31600   1.944   1.646  14.404  0.1300 -0.5245  0.6867
 6713SOL    HW131601   2.013   1.606  14.456 -0.5677 -0.9292  1.3176
 6713SOL    HW231602   1.878   1.657  14.473 -0.8114 -0.4136 -0.2279
 6714SOL     OW31603   2.675   3.513   3.566 -0.0328  0.1154 -0.7049
 6714SOL    HW131604   2.763   3.492   3.599 -0.5781  1.4806  1.5384
 6714SOL    HW231605   2.677   3.582   3.499 -2.0956 -0.3728 -1.2627
 6715SOL     OW31606   1.305   3.692   4.170 -0.0568  0.3594 -0.1736
 6715SOL    HW131607   1.241   3.692   4.241 -2.0066 -0.2808 -1.9439
 6715SOL    HW231608   1.302   3.600   4.145  0.5498  0.0848  0.8068
 6716SOL     OW31609   0.400   1.834   2.099 -0.4637 -0.2598  0.9471
 6716SOL    HW131610   0.357   1.823   2.014 -2.1536 -0.2850  1.7935
 6716SOL    HW231611   0.380   1.925   2.123 -1.3420  0.2938 -1.8909
 6717SOL     OW31612   4.549   4.346   2.393 -0.2056 -0.4439 -0.1151
 6717SOL    HW131613   4.619   4.351   2.328  0.7113  0.0792  0.9107
 6717SOL    HW231614   4.511   4.434   2.394 -1.9235 -1.1810  0.5897
 6718SOL     OW31615   3.943   4.614   1.505 -0.2987  0.1444  0.7632
 6718SOL    HW131616   3.992   4.638   1.427 -0.6375 -0.1152  0.4723
 6718SOL    HW231617   3.852   4.628   1.477  0.1539 -0.2918 -0.8860
 6719SOL     OW31618   0.474   4.723   3.218 -0.0818  0.2565 -0.0433
 6719SOL    HW131619   0.384   0.018   3.244  0.1725 -0.1803  1.1535
 6719SOL    HW231620   0.467   4.630   3.194 -1.6176 -0.5136  3.4276
 6720SOL     OW31621   1.657   2.498   9.429  0.6209  0.3627  0.4416
 6720SOL    HW131622   1.713   2.510   9.505  0.2398 -3.3671  1.3072
 6720SOL    HW231623   1.578   2.544   9.457 -0.7341 -0.7741 -1.4993
 6721SOL     OW31624   4.056   3.534   7.996  0.4006 -0.1747  0.0371
 6721SOL    HW131625   4.126   3.499   7.941  1.2880 -0.3775  1.2891
 6721SOL    HW231626   4.028   3.610   7.945 -2.5543 -0.7342  0.7769
 6722SOL     OW31627   4.022   2.947   5.574  0.4396  0.2541 -0.2010
 6722SOL    HW131628   3.937   2.990   5.561 -0.2152 -0.5720  1.3100
 6722SOL    HW231629   4.064   2.947   5.488  2.5475  0.9267  0.8377
 6723SOL     OW31630   1.898   3.877  17.446 -0.1747  1.0239  0.0874
 6723SOL    HW131631   1.907   3.785  17.420  1.0944  0.5969  1.9936
 6723SOL    HW231632   1.811   3.897  17.412 -0.4710  0.2600  0.3908
 6724SOL     OW31633   1.707   4.324   6.939 -0.1377  0.3360  0.1206
 6724SOL    HW131634   1.637   4.284   6.990  0.0956  0.3263  0.4294
 6724SOL    HW231635   1.701   4.272   6.858 -0.1076  1.9627 -0.9294
 6725SOL     OW31636   2.287   4.061  17.483  0.1368 -0.0844  0.1220
 6725SOL    HW131637   2.310   4.055  17.391  3.6164 -0.1535  0.9718
 6725SOL    HW231638   2.338   4.141  17.500 -0.6001  0.4187 -0.0570
 6726SOL     OW31639   2.003   2.793   3.804 -0.1687 -0.0424  0.9979
 6726SOL    HW131640   2.051   2.829   3.879 -0.6694 -2.1305  2.3240
 6726SOL    HW231641   2.058   2.732   3.754  0.6003 -0.8628  2.8367
 6727SOL     OW31642   1.410   0.958   7.679 -0.7116 -0.2986  0.1970
 6727SOL    HW131643   1.469   0.951   7.754 -0.3022  1.9753  0.0908
 6727SOL    HW231644   1.466   1.009   7.621 -1.1664 -0.6171 -0.5338
 6728SOL     OW31645   2.830   4.467   8.134 -0.3177  0.2314 -0.4037
 6728SOL    HW131646   2.888   4.392   8.123 -2.5586 -1.1708 -2.5207
 6728SOL    HW231647   2.862   4.515   8.058  1.2937  1.5635  1.1220
 6729SOL     OW31648   1.788   4.492   1.477  0.2290  0.2869  0.0251
 6729SOL    HW131649   1.814   4.400   1.468 -0.8080  0.0233 -0.2580
 6729SOL    HW231650   1.715   4.495   1.415  0.6245  1.8814 -0.3408
 6730SOL     OW31651   1.308   4.595   5.154 -0.0650 -0.3145  0.2625
 6730SOL    HW131652   1.380   4.544   5.191  1.7535  0.3674 -2.3016
 6730SOL    HW231653   1.241   4.533   5.127  1.0420 -1.8917  1.1310
 6731SOL     OW31654   1.215   0.298  11.719  0.0840  0.2939 -0.3062
 6731SOL    HW131655   1.250   0.303  11.808 -0.7544  0.5940  0.0088
 6731SOL    HW231656   1.245   0.373  11.667  0.3487  1.1237  1.0610
 6732SOL     OW31657   4.196   0.240   8.917  0.3853  0.1727 -0.3543
 6732SOL    HW131658   4.222   0.160   8.961  0.7976  0.2246 -0.4991
 6732SOL    HW231659   4.283   0.277   8.901 -0.4506  1.4754 -1.9475
 6733SOL     OW31660   0.211   1.306   6.439 -0.0869 -0.2573  0.0303
 6733SOL    HW131661   0.170   1.258   6.511  1.7663 -2.5727 -0.4637
 6733SOL    HW231662   0.294   1.323   6.483 -0.0521 -4.2941  1.5135
 6734SOL     OW31663   0.727   3.080   2.881 -0.6040  0.7373 -0.0384
 6734SOL    HW131664   0.634   3.095   2.862 -0.4548  0.6107 -0.8650
 6734SOL    HW231665   0.733   2.990   2.849 -0.3985  0.5276  0.5901
 6735SOL     OW31666   0.571   2.358   6.264  0.1057  0.2591  0.2094
 6735SOL    HW131667   0.539   2.325   6.347  0.3554 -0.9899 -0.1953
 6735SOL    HW231668   0.658   2.387   6.294 -0.3545  2.5276 -0.6202
 6736SOL     OW31669   0.943   3.226   8.533  0.3741  0.2290 -0.3783
 6736SOL    HW131670   0.984   3.313   8.539 -2.0191  1.3031  0.3612
 6736SOL    HW231671   0.873   3.234   8.598  1.2749  1.8641  0.3947
 6737SOL     OW31672   4.509   0.062   1.055 -0.3267  0.2333 -0.0137
 6737SOL    HW131673   4.569   0.127   1.018  0.5989  0.6747  2.2704
 6737SOL    HW231674   4.525   4.716   0.991 -1.0251  0.9486 -0.9757
 6738SOL     OW31675   4.356   4.045   9.967  0.0889 -0.0049  0.2392
 6738SOL    HW131676   4.326   4.130  10.000 -0.9506 -0.2538 -0.0830
 6738SOL    HW231677   4.346   3.982  10.037 -1.4219 -0.0571 -0.0345
 6739SOL     OW31678   1.055   0.416  11.289 -0.2079 -0.4361  0.6132
 6739SOL    HW131679   1.021   0.496  11.250  0.0746 -0.5470  0.1362
 6739SOL    HW231680   1.112   0.448  11.359  2.5118 -1.1258 -1.3003
 6740SOL     OW31681   1.270   1.037   2.560  1.0385 -0.1727 -0.3125
 6740SOL    HW131682   1.216   0.972   2.604 -0.1034  1.3632  0.5582
 6740SOL    HW231683   1.227   1.050   2.476  1.5249 -0.6365 -0.6343
 6741SOL     OW31684   1.595   0.386  11.089 -0.0169  0.1710  0.1599
 6741SOL    HW131685   1.539   0.314  11.061  1.1092 -0.6513 -0.0032
 6741SOL    HW231686   1.636   0.412  11.006  0.2556  0.4330  0.3734
 6742SOL     OW31687   3.079   3.704   3.169  0.2455  0.2275 -0.0563
 6742SOL    HW131688   3.171   3.695   3.195  0.9535  2.7796 -1.6978
 6742SOL    HW231689   3.060   3.640   3.100 -1.2993  2.2167 -1.4556
 6743SOL     OW31690   3.622   0.104   8.934  1.0241 -0.0553  0.0373
 6743SOL    HW131691   3.590   0.157   9.007 -2.1801  1.1676 -2.2501
 6743SOL    HW231692   3.539   0.066   8.905  1.4073 -1.5998  0.9398
 6744SOL     OW31693   0.868   4.686   5.646  0.5279  0.4272 -0.3098
 6744SOL    HW131694   0.927   4.612   5.630  0.3788  0.2868 -0.1978
 6744SOL    HW231695   0.925   4.718   5.716 -3.4244  0.7584  2.7053
 6745SOL     OW31696   2.607   4.103  10.146 -0.1406  0.4582 -0.1169
 6745SOL    HW131697   2.569   4.032  10.198  0.0699 -0.3954 -1.1358
 6745SOL    HW231698   2.697   4.104  10.181  0.6489 -1.2054 -2.1396
 6746SOL     OW31699   3.452   2.603   7.565 -0.3127  0.1580  0.0832
 6746SOL    HW131700   3.434   2.518   7.604  0.1263  0.0525  0.0579
 6746SOL    HW231701   3.545   2.590   7.545 -0.2477 -1.4496  1.4374
 6747SOL     OW31702   0.558   4.463   1.181 -0.2264 -0.5582  0.6013
 6747SOL    HW131703   0.502   4.450   1.257 -0.0618 -0.2364  0.7794
 6747SOL    HW231704   0.568   4.558   1.177 -0.6125 -0.5262  0.4047
 6748SOL     OW31705   3.645   0.480   1.413 -0.2034 -0.1882 -0.0951
 6748SOL    HW131706   3.584   0.543   1.374 -0.8653 -1.9796 -1.9154
 6748SOL    HW231707   3.718   0.495   1.353  0.0130 -0.7775  0.0249
 6749SOL     OW31708   4.377   3.765   0.230 -0.1426 -0.0778 -0.4724
 6749SOL    HW131709   4.457   3.793   0.186  0.5992 -0.7779  0.4184
 6749SOL    HW231710   4.316   3.768   0.157  0.2764 -1.0135 -0.8664
 6750SOL     OW31711   0.148   4.527  16.119 -0.4229  0.2142 -0.7541
 6750SOL    HW131712   0.075   4.466  16.131 -0.8571  0.3476 -2.8081
 6750SOL    HW231713   0.106   4.602  16.161  1.0239  1.1492 -0.9696
 6751SOL     OW31714   1.818   4.434   1.779 -0.3468  0.1279  0.5794
 6751SOL    HW131715   1.895   4.378   1.789  0.3851  0.8937 -0.7042
 6751SOL    HW231716   1.856   4.492   1.713 -3.2033  0.9701 -0.2850
 6752SOL     OW31717   2.569   1.135   8.495  0.1866  0.0586 -0.3099
 6752SOL    HW131718   2.536   1.199   8.558 -0.7479  0.5999 -1.3664
 6752SOL    HW231719   2.665   1.145   8.492  0.3889 -1.4972  1.2923
 6753SOL     OW31720   4.643   3.085   3.194  0.0667 -0.1572 -0.0969
 6753SOL    HW131721   4.604   3.116   3.112  3.5330  0.5905 -1.4811
 6753SOL    HW231722   4.693   3.161   3.223  0.5734  0.1787 -1.8574
 6754SOL     OW31723   0.456   3.433   6.076  0.1076  0.1130  0.4764
 6754SOL    HW131724   0.453   3.387   6.160  0.4017 -1.2925 -0.2744
 6754SOL    HW231725   0.527   3.491   6.105  0.8305  0.4845 -2.0323
 6755SOL     OW31726   0.878   0.970  10.233 -0.2096  0.2068  0.3163
 6755SOL    HW131727   0.797   0.969  10.183 -0.6224  0.4075  0.9895
 6755SOL    HW231728   0.854   0.965  10.325  0.4799  0.2508  0.4970
 6756SOL     OW31729   1.228   4.662   6.382 -0.4848  0.1718  0.7476
 6756SOL    HW131730   1.312   4.700   6.410  0.2955 -0.8686 -0.1691
 6756SOL    HW231731   1.220   4.686   6.290  1.1523 -0.3573  0.4718
 6757SOL     OW31732   1.137   1.704   6.502 -0.1210 -0.2688 -0.1919
 6757SOL    HW131733   1.229   1.724   6.517 -0.8219  2.5168  0.2766
 6757SOL    HW231734   1.123   1.629   6.560 -0.9565  0.2626  0.2914
 6758SOL     OW31735   4.186   4.209   6.394  0.0891 -0.4430 -0.0620
 6758SOL    HW131736   4.112   4.160   6.359 -0.0680  0.0931 -0.4846
 6758SOL    HW231737   4.176   4.287   6.339 -0.4748 -0.2419  0.3210
 6759SOL     OW31738   1.017   0.332   2.864  0.0043 -0.3942  0.1283
 6759SOL    HW131739   1.105   0.300   2.843  0.6063  2.3822 -1.6657
 6759SOL    HW231740   0.990   0.267   2.927  1.7398 -0.2418  1.0442
 6760SOL     OW31741   0.488   2.924   6.751  0.0694 -0.9576  0.1343
 6760SOL    HW131742   0.417   2.910   6.688  1.1013 -1.4039 -0.9015
 6760SOL    HW231743   0.437   2.973   6.816  2.1824  0.5317  0.6706
 6761SOL     OW31744   4.516   0.406   2.082  0.1447 -0.8248  0.8201
 6761SOL    HW131745   4.429   0.377   2.056  0.1932 -0.1375 -0.1092
 6761SOL    HW231746   4.570   0.346   2.030 -0.2541  0.6481 -1.2979
 6762SOL     OW31747   1.482   1.666  13.524  0.1566 -0.0823 -0.2823
 6762SOL    HW131748   1.565   1.642  13.485  0.8583  0.0075  1.1465
 6762SOL    HW231749   1.426   1.623  13.459  0.5086  2.2906 -2.1386
 6763SOL     OW31750   2.675   3.397   6.857  0.5468  0.2456 -0.3010
 6763SOL    HW131751   2.684   3.444   6.940 -0.6426 -1.8296  0.9867
 6763SOL    HW231752   2.768   3.379   6.844  0.1154 -0.8912 -1.7815
 6764SOL     OW31753   3.671   3.489   0.272  0.2845  0.1453  0.0082
 6764SOL    HW131754   3.586   3.502   0.314  0.3124 -0.7721  0.3366
 6764SOL    HW231755   3.726   3.550   0.322 -1.1072 -0.0729  1.8051
 6765SOL     OW31756   3.173   1.111  13.898  0.7942 -0.5242  0.2229
 6765SOL    HW131757   3.137   1.155  13.975 -1.4415 -1.2810 -0.3722
 6765SOL    HW231758   3.266   1.106  13.919  0.8981  2.7402  0.4567
 6766SOL     OW31759   0.447   2.576   2.803 -0.2539 -0.0065 -0.4027
 6766SOL    HW131760   0.413   2.497   2.762  0.7127 -0.2428 -0.7398
 6766SOL    HW231761   0.460   2.633   2.727 -0.0555 -0.3622 -0.6324
 6767SOL     OW31762   0.734   1.475   2.354 -0.4658 -0.7871  0.6608
 6767SOL    HW131763   0.677   1.550   2.340  0.8456 -0.2644 -1.9485
 6767SOL    HW231764   0.710   1.420   2.280  1.4887 -0.1586 -0.4306
 6768SOL     OW31765   2.814   3.013   5.597  0.2032 -0.5504  1.1550
 6768SOL    HW131766   2.743   2.985   5.539  1.3587 -0.8588 -0.1337
 6768SOL    HW231767   2.865   2.934   5.615  2.2576  0.1910 -1.3127
 6769SOL     OW31768   0.532   4.039   6.220  0.4324 -0.0243  0.6863
 6769SOL    HW131769   0.562   4.020   6.131  2.4437 -0.8634  1.5458
 6769SOL    HW231770   0.480   4.118   6.209 -0.2626 -0.7418 -1.1029
 6770SOL     OW31771   1.430   3.252  16.567 -0.7821 -0.0214 -0.2260
 6770SOL    HW131772   1.438   3.177  16.626 -0.6751  0.3630  0.2445
 6770SOL    HW231773   1.338   3.263  16.543 -0.7036  1.1193  0.0066
 6771SOL     OW31774   0.445   1.061   4.959  0.2045 -0.2799 -0.6600
 6771SOL    HW131775   0.386   0.993   4.990  1.0818 -1.0719 -0.7465
 6771SOL    HW231776   0.430   1.130   5.025  1.0074 -1.3770  0.6652
 6772SOL     OW31777   4.262   2.253   9.102 -0.4296 -0.4085  0.3486
 6772SOL    HW131778   4.346   2.278   9.063  0.3762 -1.7692  1.2584
 6772SOL    HW231779   4.291   2.238   9.191  0.1533  0.5642  0.3283
 6773SOL     OW31780   2.073   0.853  10.610 -0.0377  0.5734 -0.4654
 6773SOL    HW131781   2.069   0.925  10.547  1.1405  0.5225 -0.5991
 6773SOL    HW231782   2.005   0.791  10.584 -1.0947  0.9176  1.5244
 6774SOL     OW31783   4.554   2.326  13.580 -0.4194  0.5590 -0.1989
 6774SOL    HW131784   4.487   2.276  13.533 -0.2769  1.6975 -1.6070
 6774SOL    HW231785   4.539   2.418  13.559 -0.6636  0.6342  0.3235
 6775SOL     OW31786   1.189   1.292   6.530 -0.3134 -0.3218  0.0820
 6775SOL    HW131787   1.152   1.372   6.496  0.1078 -0.2642 -0.2415
 6775SOL    HW231788   1.112   1.252   6.571  0.2717  0.7667  2.2823
 6776SOL     OW31789   2.135   3.486   5.652 -0.1790 -0.3023 -0.0281
 6776SOL    HW131790   2.052   3.518   5.687 -0.5414 -3.0441  1.6279
 6776SOL    HW231791   2.103   3.426   5.584  0.5761 -0.2466 -0.4409
 6777SOL     OW31792   1.871   2.170   5.498  0.7706  0.1321 -0.0482
 6777SOL    HW131793   1.951   2.205   5.460 -0.0153  2.5172  0.5283
 6777SOL    HW231794   1.882   2.210   5.584  0.3671 -0.3427  0.2241
 6778SOL     OW31795   4.570   4.363  11.790  0.1426 -0.1849 -1.0925
 6778SOL    HW131796   4.657   4.403  11.796 -0.5751  1.2519 -0.1193
 6778SOL    HW231797   4.580   4.312  11.870 -0.0406  0.8772 -0.3880
 6779SOL     OW31798   3.144   4.189  15.142  0.0106 -0.6542  0.0603
 6779SOL    HW131799   3.156   4.261  15.204  0.4477  0.5002 -1.3834
 6779SOL    HW231800   3.113   4.241  15.069  0.5998  1.1084  1.0571
 6780SOL     OW31801   0.846   3.660   4.816 -0.2899  0.5609  0.0037
 6780SOL    HW131802   0.831   3.738   4.763  2.7651  1.5443  0.6270
 6780SOL    HW231803   0.939   3.661   4.837 -0.5465 -0.6708  1.2554
 6781SOL     OW31804   1.688   1.381   8.181  0.2509  0.0856 -0.6430
 6781SOL    HW131805   1.650   1.303   8.221  0.6188  0.4388  0.3781
 6781SOL    HW231806   1.746   1.404   8.254 -2.1311  0.7818  1.0354
 6782SOL     OW31807   2.884   3.901   8.517  0.1573  0.5998  0.3708
 6782SOL    HW131808   2.966   3.948   8.533  2.1763 -2.1345 -2.0368
 6782SOL    HW231809   2.872   3.865   8.605 -0.4580 -0.2449 -0.0545
 6783SOL     OW31810   2.487   2.743   0.337  0.2483 -0.4144  0.1433
 6783SOL    HW131811   2.578   2.742   0.364  0.5077  1.7593 -0.6024
 6783SOL    HW231812   2.497   2.779   0.249  0.4577  0.6322  0.5848
 6784SOL     OW31813   2.150   1.186   5.515 -0.1391  0.0343  0.0132
 6784SOL    HW131814   2.231   1.237   5.522  1.1407 -2.0220  0.2752
 6784SOL    HW231815   2.089   1.255   5.537  0.4488  1.0152 -1.4085
 6785SOL     OW31816   0.690   2.218  16.838  0.0413  0.2697 -0.3480
 6785SOL    HW131817   0.751   2.231  16.910  0.1649  1.2685 -0.6358
 6785SOL    HW231818   0.759   2.203  16.773  1.1769  1.4112  0.6003
 6786SOL     OW31819   1.657   2.693   1.567 -0.0786 -0.2742  0.2576
 6786SOL    HW131820   1.598   2.768   1.574 -1.0917 -1.0205 -0.2613
 6786SOL    HW231821   1.693   2.697   1.656  0.1012  2.0271  0.0810
 6787SOL     OW31822   4.375   3.949   3.239  0.3346  0.2373  0.0648
 6787SOL    HW131823   4.300   3.947   3.181  1.3317 -1.1258 -1.1914
 6787SOL    HW231824   4.435   3.883   3.202  0.5775 -0.4335  1.6176
 6788SOL     OW31825   1.485   2.800   3.995  0.4995  0.0685 -0.2568
 6788SOL    HW131826   1.543   2.877   4.001  1.1240 -0.3534 -0.8768
 6788SOL    HW231827   1.516   2.737   4.059 -1.0398 -1.2053 -0.7730
 6789SOL     OW31828   2.948   3.460   3.498  0.1286  0.3338 -0.5903
 6789SOL    HW131829   2.914   3.484   3.413 -0.6419  1.9010  0.1660
 6789SOL    HW231830   2.961   3.546   3.538 -1.2609 -0.3009  1.2729
 6790SOL     OW31831   2.357   2.105  15.339 -0.5188  0.2234  0.6995
 6790SOL    HW131832   2.405   2.022  15.337  0.9524  1.0766 -0.1748
 6790SOL    HW231833   2.427   2.168  15.360  1.2484 -0.5731 -2.9101
 6791SOL     OW31834   4.634   4.134   0.215  0.0418  0.2026  0.0032
 6791SOL    HW131835   4.599   4.115   0.302  0.0364  0.9628  0.1667
 6791SOL    HW231836   4.622   4.046   0.178  1.0754  0.5108 -1.0687
 6792SOL     OW31837   0.736   0.862   5.931  0.1098  0.7936 -0.2510
 6792SOL    HW131838   0.678   0.848   6.006  0.3459  1.8925  0.1333
 6792SOL    HW231839   0.823   0.880   5.967  0.6784  0.2853 -1.3455
 6793SOL     OW31840   0.662   0.985   3.375  0.3626 -0.0977  0.1292
 6793SOL    HW131841   0.714   0.906   3.359 -0.2276 -0.0388 -2.1713
 6793SOL    HW231842   0.638   0.975   3.467 -1.7107  1.0258 -0.2815
 6794SOL     OW31843   1.366   3.716   7.820  0.0874  0.2462  0.0350
 6794SOL    HW131844   1.428   3.747   7.754  1.2977 -1.3760  0.4209
 6794SOL    HW231845   1.401   3.753   7.901  1.8242  1.3511 -1.1973
 6795SOL     OW31846   1.139   2.345   2.761 -1.2616  0.1423  0.4135
 6795SOL    HW131847   1.071   2.324   2.697  2.2299  0.7870 -3.5003
 6795SOL    HW231848   1.217   2.355   2.707 -0.2553  0.2188  1.9116
 6796SOL     OW31849   0.364   2.245  13.866 -0.2349  0.1260 -0.5258
 6796SOL    HW131850   0.365   2.236  13.961  0.9755 -1.2883 -0.6812
 6796SOL    HW231851   0.452   2.281  13.852  0.0189 -0.1883  0.3200
 6797SOL     OW31852   3.246   2.788   4.599  0.4568 -0.1602 -0.0079
 6797SOL    HW131853   3.162   2.753   4.567 -0.2142  0.9646  0.5113
 6797SOL    HW231854   3.214   2.877   4.615 -1.2104 -0.8521  0.5610
 6798SOL     OW31855   3.892   2.225   2.804  0.2678 -0.2718  0.5817
 6798SOL    HW131856   3.982   2.193   2.802  0.2279 -0.4383  1.3985
 6798SOL    HW231857   3.913   2.317   2.817  0.1825 -0.5845  3.0410
 6799SOL     OW31858   4.616   3.865   6.748  0.3237  0.6780 -0.9966
 6799SOL    HW131859   4.677   3.924   6.793  0.1493 -0.5241  0.8057
 6799SOL    HW231860   4.594   3.913   6.668  1.1123  1.0599 -0.9859
 6800SOL     OW31861   0.066   3.184   6.811  0.3013  0.5964 -0.5047
 6800SOL    HW131862   0.019   3.138   6.742 -0.2359  1.5797 -0.7851
 6800SOL    HW231863   0.085   3.266   6.766  2.3358  0.3751 -0.0620
 6801SOL     OW31864   4.501   0.530   6.581  0.2018  0.0067  0.3142
 6801SOL    HW131865   4.546   0.477   6.515 -1.3106 -0.5940 -0.2506
 6801SOL    HW231866   4.534   0.616   6.555 -0.5831 -0.5498 -2.6079
 6802SOL     OW31867   2.370   4.064   4.313 -0.0724  0.2558  0.0393
 6802SOL    HW131868   2.439   4.009   4.276  0.1891  0.6089 -0.0066
 6802SOL    HW231869   2.312   4.060   4.237  0.2617 -1.0097 -0.1462
 6803SOL     OW31870   3.320   1.495   6.176  0.4901 -0.1696  0.3173
 6803SOL    HW131871   3.263   1.558   6.131  1.7138  0.2935 -0.5656
 6803SOL    HW231872   3.393   1.548   6.209  1.1584 -1.1522  0.4087
 6804SOL     OW31873   2.434   4.301  10.281 -0.5086 -0.2261 -0.2889
 6804SOL    HW131874   2.499   4.263  10.222  0.8597  0.4366  0.7713
 6804SOL    HW231875   2.443   4.393  10.255  0.2695 -0.6473 -1.4945
 6805SOL     OW31876   0.952   2.424   8.938 -0.5505 -0.1602 -0.4055
 6805SOL    HW131877   0.929   2.450   8.849  1.0246  2.2422 -0.1333
 6805SOL    HW231878   0.866   2.392   8.963 -0.4991 -0.7500 -1.0135
 6806SOL     OW31879   1.418   0.060   8.795 -0.1642 -0.1775  0.2816
 6806SOL    HW131880   1.434   0.078   8.887 -1.3400  1.0461  0.2460
 6806SOL    HW231881   1.323   0.067   8.801 -0.1736 -1.1144  1.2056
 6807SOL     OW31882   2.091   3.112   4.857 -0.2902  0.1916 -0.0811
 6807SOL    HW131883   2.104   3.050   4.786  0.9421  0.8696 -0.4489
 6807SOL    HW231884   2.179   3.149   4.864 -0.7751  1.3267  0.1501
 6808SOL     OW31885   1.152   1.021  13.829 -0.9707 -0.0019  0.1614
 6808SOL    HW131886   1.231   1.068  13.858  0.1468 -2.0715  0.5059
 6808SOL    HW231887   1.105   1.093  13.789 -0.7212 -0.3447 -0.7454
 6809SOL     OW31888   1.937   2.733  10.729 -0.4080  0.6570 -0.0540
 6809SOL    HW131889   1.974   2.803  10.674  1.1775 -0.6840 -0.6976
 6809SOL    HW231890   1.889   2.680  10.665 -1.4540  2.7490 -1.0008
 6810SOL     OW31891   0.868   1.593   0.463  0.1060 -0.0295 -0.3070
 6810SOL    HW131892   0.941   1.609   0.404  0.5450  1.5044  0.6408
 6810SOL    HW231893   0.792   1.577   0.408 -1.7667  0.8604  1.9905
 6811SOL     OW31894   0.470   2.977  13.778 -0.1133 -0.1053 -0.0534
 6811SOL    HW131895   0.471   3.063  13.820  3.1269  0.2639 -0.9182
 6811SOL    HW231896   0.375   2.962  13.779 -0.2103  0.4343 -1.3083
 6812SOL     OW31897   2.899   1.722   7.187 -0.3639 -0.4629  0.0044
 6812SOL    HW131898   2.898   1.805   7.140  0.8478 -0.5833 -0.2434
 6812SOL    HW231899   2.808   1.695   7.179 -0.5901  1.0043 -2.3757
 6813SOL     OW31900   2.401   4.262   0.974  0.0998  0.0310 -0.4920
 6813SOL    HW131901   2.437   4.195   0.915 -2.7518  0.8637 -3.1808
 6813SOL    HW231902   2.442   4.243   1.059  0.0247  0.5980 -0.3293
 6814SOL     OW31903   0.023   2.095   5.724 -0.0418 -0.0162  0.3706
 6814SOL    HW131904   0.011   2.077   5.817 -0.6482  1.1939  0.5246
 6814SOL    HW231905   4.668   2.064   5.679  1.1764 -2.8252  0.1705
 6815SOL     OW31906   2.958   3.103   8.315  0.2167 -0.3859  0.2398
 6815SOL    HW131907   2.939   3.012   8.292  2.6992 -1.0680  0.9670
 6815SOL    HW231908   3.044   3.116   8.275 -0.6237  1.5185 -0.9584
 6816SOL     OW31909   0.125   4.187   7.638  0.1680  0.8645 -1.3581
 6816SOL    HW131910   0.036   4.151   7.642  0.2103  0.6005 -2.6622
 6816SOL    HW231911   0.169   4.120   7.586  0.4346 -1.9289  2.4386
 6817SOL     OW31912   2.653   3.669   1.091 -0.3367 -0.0379  0.0435
 6817SOL    HW131913   2.614   3.582   1.098 -1.0862  0.1598 -1.5428
 6817SOL    HW231914   2.744   3.652   1.116 -0.9918 -1.1421  1.6934
 6818SOL     OW31915   0.676   3.220   7.497  0.3102 -0.7766 -0.4666
 6818SOL    HW131916   0.697   3.308   7.529 -0.1744 -0.6595 -0.4644
 6818SOL    HW231917   0.728   3.213   7.418 -1.2273  0.4406 -1.6005
 6819SOL     OW31918   2.362   1.002   2.556 -0.1393  0.5053 -0.2843
 6819SOL    HW131919   2.364   1.025   2.649  0.0976 -0.9545  0.0816
 6819SOL    HW231920   2.331   0.911   2.564  0.7420  0.3487  1.2041
 6820SOL     OW31921   1.080   3.505  12.472 -0.0065 -0.1328 -0.2249
 6820SOL    HW131922   1.155   3.561  12.450 -0.1151 -0.3639 -1.1534
 6820SOL    HW231923   1.012   3.551  12.423  0.3103  1.6966  1.0572
 6821SOL     OW31924   1.843   2.435   3.238 -0.0504 -0.5363  0.8409
 6821SOL    HW131925   1.827   2.397   3.151 -1.4170  0.5230  0.6316
 6821SOL    HW231926   1.828   2.527   3.217  1.2595 -0.5965 -0.4187
 6822SOL     OW31927   3.196   3.783   7.973  0.3028 -0.0140  0.0395
 6822SOL    HW131928   3.123   3.842   7.956 -1.1458 -2.4533 -2.2248
 6822SOL    HW231929   3.155   3.698   7.989  0.0008  0.7618  3.4831
 6823SOL     OW31930   1.216   2.441  14.434 -0.2293  0.3910 -0.0474
 6823SOL    HW131931   1.161   2.519  14.445  0.8530  1.1846 -0.2610
 6823SOL    HW231932   1.281   2.449  14.504  0.8536 -1.1489 -0.8705
 6824SOL     OW31933   4.063   0.967   6.682 -0.2758  0.1226  0.2379
 6824SOL    HW131934   4.142   0.933   6.641 -1.0938 -0.8974 -0.5212
 6824SOL    HW231935   4.046   1.040   6.623 -0.9337  1.7444  2.4498
 6825SOL     OW31936   4.051   2.750   2.857  0.2886  0.2399 -0.1379
 6825SOL    HW131937   4.093   2.669   2.886  1.6012  1.5409  1.6193
 6825SOL    HW231938   4.042   2.731   2.764  3.7632  2.1235 -0.8558
 6826SOL     OW31939   2.735   2.665   3.881 -0.3584 -1.0543 -0.3123
 6826SOL    HW131940   2.830   2.657   3.891 -0.8590 -1.4967  4.1315
 6826SOL    HW231941   2.737   2.751   3.840 -2.5498 -0.6944  0.2897
 6827SOL     OW31942   0.270   1.542   4.012  0.3498 -0.4309 -0.0148
 6827SOL    HW131943   0.347   1.557   4.067  1.5436 -0.0421 -1.8134
 6827SOL    HW231944   0.209   1.503   4.075 -0.8547  0.9775 -0.3246
 6828SOL     OW31945   0.483   3.634  14.391 -0.1258  0.4248 -0.7066
 6828SOL    HW131946   0.434   3.625  14.473  2.1453  0.4771  0.6642
 6828SOL    HW231947   0.501   3.727  14.399  2.3467 -0.2240  1.4891
 6829SOL     OW31948   2.090   2.350   8.406  0.0695  0.5935  0.1527
 6829SOL    HW131949   2.013   2.403   8.386  0.1192  1.0771  1.2785
 6829SOL    HW231950   2.119   2.398   8.484  0.1942 -0.3596  0.6918
 6830SOL     OW31951   0.780   3.707   7.886 -1.0469 -0.4205  0.3357
 6830SOL    HW131952   0.801   3.644   7.817  0.4979  0.4618  0.0088
 6830SOL    HW231953   0.760   3.645   7.957 -0.4064 -0.5354  0.4153
 6831SOL     OW31954   0.539   3.273   2.457 -0.3058 -0.1966  0.3962
 6831SOL    HW131955   0.488   3.333   2.511  0.5582  0.2336  0.7420
 6831SOL    HW231956   0.468   3.219   2.423  0.7572 -0.4228 -1.4689
 6832SOL     OW31957   4.411   2.307   0.061 -0.2717 -0.2703  0.1364
 6832SOL    HW131958   4.396   2.397   0.031  1.1910  0.1511  0.6354
 6832SOL    HW231959   4.420   2.331   0.153  2.7932  0.2142 -0.2775
 6833SOL     OW31960   0.034   0.726   6.169 -0.0292  0.4070 -0.1856
 6833SOL    HW131961   4.663   0.735   6.153  0.0592  2.5602  0.4815
 6833SOL    HW231962   0.073   0.807   6.137  2.7164 -1.2766 -1.1069
 6834SOL     OW31963   2.134   0.681   8.441 -0.0756 -0.3262 -0.2495
 6834SOL    HW131964   2.086   0.604   8.472  0.9870 -0.5428  0.8504
 6834SOL    HW231965   2.114   0.689   8.348 -0.7438  3.0006  0.1675
 6835SOL     OW31966   0.062   2.469  10.429  0.0483  0.0198  0.0709
 6835SOL    HW131967   0.015   2.540  10.386 -1.1584 -0.9489 -0.1946
 6835SOL    HW231968   0.094   2.415  10.356  0.3011 -1.6515  1.4117
 6836SOL     OW31969   0.244   0.929  13.838  0.1311 -0.3541 -0.6118
 6836SOL    HW131970   0.170   0.889  13.792 -0.2181 -0.1565 -0.2190
 6836SOL    HW231971   0.221   1.021  13.826 -0.3933 -0.3614  0.3686
 6837SOL     OW31972   3.547   4.213  17.418 -0.4822  0.3751  0.3795
 6837SOL    HW131973   3.640   4.230  17.402 -0.2397 -1.6415 -0.4139
 6837SOL    HW231974   3.540   4.118  17.407  0.2244  0.2379  1.0961
 6838SOL     OW31975   0.933   1.994   2.432 -0.6697  0.0103 -0.3059
 6838SOL    HW131976   0.982   1.913   2.418 -1.7977 -0.6802 -0.2794
 6838SOL    HW231977   0.856   1.960   2.386 -0.7439 -1.4765  0.9015
 6839SOL     OW31978   3.664   3.263  16.531 -0.2296 -0.0498 -0.2956
 6839SOL    HW131979   3.586   3.210  16.513 -0.1730 -0.5568  0.9891
 6839SOL    HW231980   3.732   3.196  16.536 -0.8420 -0.7242 -1.0104
 6840SOL     OW31981   2.031   4.436   0.316 -0.4062  0.4572 -0.4123
 6840SOL    HW131982   2.091   4.382   0.367 -0.0621 -0.0972 -1.4105
 6840SOL    HW231983   2.013   4.377   0.242 -2.4319 -0.8946  1.1413
 6841SOL     OW31984   1.560   3.486   1.022  0.2264 -0.1199  0.6317
 6841SOL    HW131985   1.653   3.478   1.001 -0.1240  0.8019 -1.2476
 6841SOL    HW231986   1.551   3.581   1.030 -2.6640 -0.1137 -3.1161
 6842SOL     OW31987   1.387   3.984   0.834  0.1014  0.4510  0.0854
 6842SOL    HW131988   1.326   4.049   0.870 -0.3241 -0.1120  0.3714
 6842SOL    HW231989   1.356   3.995   0.744  0.5923 -0.9100 -0.2403
 6843SOL     OW31990   1.664   2.974   2.419 -0.0607  0.7030 -0.0513
 6843SOL    HW131991   1.580   2.974   2.467  0.2535  0.4939  0.5010
 6843SOL    HW231992   1.626   2.999   2.335  0.6468 -2.9644 -1.4525
 6844SOL     OW31993   3.270   3.847  15.524 -0.3110 -0.0213 -0.2490
 6844SOL    HW131994   3.201   3.784  15.503 -0.8205  0.1958  0.7802
 6844SOL    HW231995   3.340   3.792  15.557 -1.5971 -1.0335  0.7670
 6845SOL     OW31996   3.956   4.595  12.329 -0.0145 -0.4953 -0.3650
 6845SOL    HW131997   3.878   4.633  12.288 -1.0681 -2.1730  0.0466
 6845SOL    HW231998   3.966   4.655  12.403  0.6432  0.5492 -1.3113
 6846SOL     OW31999   2.231   1.886   2.143  0.3136  0.3969  0.0769
 6846SOL    HW132000   2.137   1.885   2.165  0.3455 -1.9920  0.0695
 6846SOL    HW232001   2.263   1.853   2.227 -1.2694 -1.0529  0.1219
 6847SOL     OW32002   3.360   0.733  15.472 -0.2654  0.2180 -0.2916
 6847SOL    HW132003   3.364   0.661  15.408 -2.4898 -0.8148  0.7389
 6847SOL    HW232004   3.269   0.762  15.469 -1.0828 -2.3719 -0.5355
 6848SOL     OW32005   0.379   1.211   5.899 -0.4149 -0.5828 -0.4098
 6848SOL    HW132006   0.422   1.142   5.848 -0.8712 -2.3467  1.5834
 6848SOL    HW232007   0.346   1.265   5.828  0.8088 -0.1475 -0.6436
 6849SOL     OW32008   0.812   2.519   8.188 -1.1157 -0.0086 -0.3061
 6849SOL    HW132009   0.728   2.481   8.163 -0.7024  0.0228 -1.7573
 6849SOL    HW232010   0.848   2.448   8.240 -0.4904  0.9113  0.5248
 6850SOL     OW32011   3.406   3.242   4.421  0.1102  0.4523 -0.0067
 6850SOL    HW132012   3.313   3.244   4.443  0.1537  0.2994  0.1845
 6850SOL    HW232013   3.398   3.178   4.350 -1.9173  0.6460  0.0382
 6851SOL     OW32014   1.253   2.190   5.708  0.3372  0.1461 -0.2871
 6851SOL    HW132015   1.169   2.216   5.744 -0.1447  2.3485 -2.9919
 6851SOL    HW232016   1.239   2.131   5.634  0.3933  1.5834 -1.4382
 6852SOL     OW32017   3.707   2.873   8.336 -0.1104  0.4434 -0.3722
 6852SOL    HW132018   3.635   2.811   8.324 -1.3379  1.6819  0.6473
 6852SOL    HW232019   3.658   2.949   8.305  0.6748  0.7610 -0.8334
 6853SOL     OW32020   0.433   4.660   4.289  0.0390 -0.1730 -0.3299
 6853SOL    HW132021   0.395   0.006   4.236 -0.0316 -0.5840 -0.8182
 6853SOL    HW232022   0.498   4.700   4.346 -0.7618  1.1843 -0.3762
 6854SOL     OW32023   1.517   2.008  12.081  0.3087  0.0769 -0.6122
 6854SOL    HW132024   1.496   1.944  12.149  2.5060 -0.7328 -0.7025
 6854SOL    HW232025   1.550   2.076  12.140 -1.4318 -1.2701  1.9293
 6855SOL     OW32026   1.334   3.422   4.184  0.6184 -0.0124  0.2182
 6855SOL    HW132027   1.268   3.357   4.206  0.4173  0.2416  0.3469
 6855SOL    HW232028   1.384   3.367   4.123 -0.1827 -1.0868  0.5293
 6856SOL     OW32029   4.279   3.054   7.208 -0.0122  0.4008  0.1816
 6856SOL    HW132030   4.241   3.050   7.296 -0.8474 -0.1143 -0.2028
 6856SOL    HW232031   4.348   2.988   7.207  1.9239  2.4379 -0.3222
 6857SOL     OW32032   1.842   0.583   8.258 -0.1585  0.1280 -0.5012
 6857SOL    HW132033   1.849   0.559   8.165  0.1952 -2.1827  0.1143
 6857SOL    HW232034   1.748   0.574   8.273 -0.0598  1.8198  1.0944
 6858SOL     OW32035   2.600   4.067   2.387 -0.0673  0.1802  0.3165
 6858SOL    HW132036   2.640   3.990   2.426  1.9442  0.6007 -0.9305
 6858SOL    HW232037   2.677   4.112   2.353  0.3663 -1.0235 -0.2929
 6859SOL     OW32038   4.266   2.335   2.942  0.2176 -0.3539 -0.2438
 6859SOL    HW132039   4.271   2.387   2.862  1.0845  0.7958  0.5611
 6859SOL    HW232040   4.228   2.251   2.915  0.1941 -0.8166  1.2461
 6860SOL     OW32041   1.236   0.757   8.599 -0.2942  0.5685 -0.1551
 6860SOL    HW132042   1.217   0.696   8.527  0.9546 -0.0153  0.0031
 6860SOL    HW232043   1.188   0.711   8.668 -0.8598 -1.0828 -1.6297
 6861SOL     OW32044   4.060   1.038   4.569  0.0370  0.3505  0.3496
 6861SOL    HW132045   4.009   1.095   4.511 -1.1454 -2.7267 -1.6403
 6861SOL    HW232046   4.116   0.988   4.510  0.0795  0.4476  0.3084
 6862SOL     OW32047   1.283   1.890  13.476 -0.6103  0.1386  0.1260
 6862SOL    HW132048   1.274   1.815  13.536 -2.4022  0.1315 -0.1635
 6862SOL    HW232049   1.217   1.874  13.409 -0.8407  2.9701 -0.3025
 6863SOL     OW32050   2.208   4.471   6.690 -0.5946  0.1165  0.9827
 6863SOL    HW132051   2.125   4.519   6.689 -1.3967 -1.2707 -1.0297
 6863SOL    HW232052   2.179   4.397   6.744  1.7249 -1.2828  0.3174
 6864SOL     OW32053   4.157   3.837   9.268 -0.1496  0.5069 -0.6538
 6864SOL    HW132054   4.119   3.789   9.342  1.3520 -0.2864 -0.3840
 6864SOL    HW232055   4.216   3.891   9.322  2.4452 -1.6471 -1.3083
 6865SOL     OW32056   2.182   0.112  11.343 -0.2980 -0.0823  0.6807
 6865SOL    HW132057   2.175   0.043  11.409 -2.5320  1.2269  1.8026
 6865SOL    HW232058   2.095   0.152  11.341  1.0931  2.8280 -1.5231
 6866SOL     OW32059   4.258   1.233   3.588  0.2026  0.2097  0.1307
 6866SOL    HW132060   4.329   1.238   3.652  0.2913  1.3799 -0.0588
 6866SOL    HW232061   4.230   1.323   3.606 -3.8031 -1.1115  0.4917
 6867SOL     OW32062   0.574   1.176   5.429 -0.4713  0.3716 -0.0519
 6867SOL    HW132063   0.652   1.207   5.474  0.3419  0.2516 -1.3658
 6867SOL    HW232064   0.503   1.232   5.461 -1.0732 -0.4060 -0.0320
 6868SOL     OW32065   4.133   1.157   1.690 -0.1319  0.4523 -0.4196
 6868SOL    HW132066   4.115   1.170   1.597  2.3802  1.0285 -0.8408
 6868SOL    HW232067   4.213   1.208   1.700  2.1972 -3.5023  1.2125
 6869SOL     OW32068   2.859   4.400  17.490  0.3438 -0.1729  0.2859
 6869SOL    HW132069   2.765   4.406  17.509  0.7704  0.3904  2.2516
 6869SOL    HW232070   2.896   4.463  17.552 -1.0623  0.8611  0.0752
 6870SOL     OW32071   1.200   0.497  12.082  0.0968 -0.0997 -0.3207
 6870SOL    HW132072   1.269   0.562  12.075 -0.0349  0.1067  0.2981
 6870SOL    HW232073   1.237   0.437  12.018  0.4946 -0.6007  0.3746
 6871SOL     OW32074   2.026   1.974   8.045  0.3000 -0.0389 -0.0213
 6871SOL    HW132075   2.101   1.959   8.103  1.3478 -0.7993 -1.5588
 6871SOL    HW232076   1.989   2.049   8.090  1.5120  0.4403  0.1880
 6872SOL     OW32077   3.729   3.881   9.350 -0.4297  0.2410 -0.0027
 6872SOL    HW132078   3.729   3.786   9.355 -1.8119  0.2639  0.4596
 6872SOL    HW232079   3.762   3.904   9.437 -0.0490 -0.6215  0.0815
 6873SOL     OW32080   3.470   4.172  12.057  0.1758 -0.0739 -0.7403
 6873SOL    HW132081   3.532   4.202  12.123  0.8559  1.5866 -2.1252
 6873SOL    HW232082   3.434   4.090  12.090  2.3546 -0.4189  0.7363
 6874SOL     OW32083   2.975   3.981   3.529 -0.3925 -0.6007 -0.1033
 6874SOL    HW132084   2.897   4.036   3.520 -0.8516 -1.4264 -1.1584
 6874SOL    HW232085   3.007   3.997   3.617 -0.2736  1.2920 -0.4825
 6875SOL     OW32086   0.241   0.862   4.157 -0.0444 -0.3469  0.1734
 6875SOL    HW132087   0.254   0.818   4.241  0.8114 -0.7437 -0.1661
 6875SOL    HW232088   0.331   0.885   4.136  0.9965 -2.5026  2.3290
 6876SOL     OW32089   1.887   2.750   0.425 -0.5341 -0.0785  0.3428
 6876SOL    HW132090   1.885   2.753   0.330 -0.6732 -1.0603  0.3081
 6876SOL    HW232091   1.934   2.831   0.445  1.5933 -0.6737 -2.4020
 6877SOL     OW32092   0.919   4.363  10.747  0.2547 -0.3470  0.4966
 6877SOL    HW132093   1.003   4.373  10.703 -0.1325 -0.2021 -0.2150
 6877SOL    HW232094   0.932   4.419  10.823  0.1099  0.1286  0.1753
 6878SOL     OW32095   4.211   2.688  14.969  0.1225 -0.2625 -0.1337
 6878SOL    HW132096   4.217   2.613  14.910 -0.8667  0.7291 -1.5055
 6878SOL    HW232097   4.251   2.652  15.048 -0.7366  0.7875  0.7807
 6879SOL     OW32098   1.176   3.326  11.069  0.4027  0.0309 -0.2339
 6879SOL    HW132099   1.148   3.331  11.160  0.6394  1.0270 -0.2134
 6879SOL    HW232100   1.258   3.376  11.069  1.7506 -2.2021 -0.0001
 6880SOL     OW32101   3.003   0.923  13.756 -0.6700 -0.0978  0.1538
 6880SOL    HW132102   3.038   0.835  13.772 -0.3691 -0.0533 -0.2695
 6880SOL    HW232103   3.073   0.979  13.789 -1.2103  0.4418  0.3780
 6881SOL     OW32104   1.600   3.047   4.029  0.0269  0.2970 -0.0488
 6881SOL    HW132105   1.514   3.087   4.013 -0.1976 -0.4975 -0.8076
 6881SOL    HW232106   1.651   3.063   3.949 -1.5794 -3.0130 -1.7228
 6882SOL     OW32107   0.829   1.458   2.054 -0.1907  0.1487  0.1416
 6882SOL    HW132108   0.798   1.378   2.011 -1.5030 -0.1049  1.5655
 6882SOL    HW232109   0.753   1.516   2.044 -0.0834  0.3562  0.5207
 6883SOL     OW32110   3.473   0.493  13.803 -0.6068 -0.0941 -0.4778
 6883SOL    HW132111   3.545   0.464  13.746 -1.2025 -1.5993 -0.4713
 6883SOL    HW232112   3.483   0.426  13.871 -2.9188 -0.1615 -0.2206
 6884SOL     OW32113   2.230   3.988   2.023  0.0525  0.7691  0.3058
 6884SOL    HW132114   2.251   4.075   1.989  1.7767  1.3916  2.9400
 6884SOL    HW232115   2.251   3.939   1.943 -0.0150  0.4161  0.5014
 6885SOL     OW32116   3.355   2.804   9.029 -0.2666 -0.5729  0.0484
 6885SOL    HW132117   3.393   2.724   8.992  0.8724 -0.3532  0.7515
 6885SOL    HW232118   3.305   2.837   8.954  2.7179  0.0491 -1.6621
 6886SOL     OW32119   1.660   2.563   0.021  0.6734  0.2583  0.5702
 6886SOL    HW132120   1.732   2.501   0.007 -2.5758 -2.8741 -2.1585
 6886SOL    HW232121   1.609   2.549  17.638  1.3786 -0.6049  0.2672
 6887SOL     OW32122   2.803   3.684  11.357  0.3917 -0.0687 -1.1692
 6887SOL    HW132123   2.766   3.719  11.277 -2.3094 -0.0297  0.1075
 6887SOL    HW232124   2.742   3.714  11.425  0.8168  0.7758 -1.1586
 6888SOL     OW32125   0.201   4.102   8.552  0.0262  0.2209  0.4372
 6888SOL    HW132126   0.280   4.113   8.604  1.8905 -1.9245 -1.9577
 6888SOL    HW232127   0.139   4.109   8.625  1.3207  0.3282  1.5227
 6889SOL     OW32128   1.973   2.748   7.665 -0.4053  0.1838  0.6217
 6889SOL    HW132129   2.001   2.725   7.577  0.4123  1.0089  0.6705
 6889SOL    HW232130   2.056   2.776   7.706  0.2795 -0.8330 -0.0729
 6890SOL     OW32131   2.453   4.570  11.133 -0.1685 -0.1143  0.1225
 6890SOL    HW132132   2.533   4.621  11.122 -1.2960  1.4189 -0.9071
 6890SOL    HW232133   2.466   4.520  11.214  1.9637 -1.5883 -1.1162
 6891SOL     OW32134   0.213   4.598  13.715 -0.1984  0.1426 -0.2180
 6891SOL    HW132135   0.126   4.636  13.701  0.1533  1.2142  0.5086
 6891SOL    HW232136   0.228   4.660  13.786  0.7422 -0.5402  0.1742
 6892SOL     OW32137   3.084   4.069   7.905 -0.2730 -0.2477  0.4487
 6892SOL    HW132138   3.081   4.040   7.814  0.3534 -2.3319  1.0805
 6892SOL    HW232139   2.997   4.053   7.942 -0.8035  0.3508 -0.5516
 6893SOL     OW32140   3.283   3.602   3.489 -0.3354  0.1607 -0.6193
 6893SOL    HW132141   3.355   3.538   3.497  0.2671  0.9235  0.0573
 6893SOL    HW232142   3.264   3.599   3.396 -0.1517  0.0764 -0.6545
 6894SOL     OW32143   2.957   3.546   5.661 -0.5039 -0.8860  0.0833
 6894SOL    HW132144   2.984   3.569   5.572 -0.9449  2.0597  0.7230
 6894SOL    HW232145   3.024   3.478   5.673  2.2721  1.4591 -2.1410
 6895SOL     OW32146   1.485   3.247   6.583  0.0055 -0.3516  0.3248
 6895SOL    HW132147   1.478   3.153   6.600  2.5003 -0.1898  2.2396
 6895SOL    HW232148   1.579   3.263   6.598 -0.4653  2.1281  0.6412
 6896SOL     OW32149   4.448   4.570  11.457  0.2614  0.3070  0.5374
 6896SOL    HW132150   4.471   4.491  11.409  0.5976 -0.9826  2.8178
 6896SOL    HW232151   4.423   4.540  11.544  1.7598  0.1566  0.9153
 6897SOL     OW32152   0.658   0.296   7.173 -0.2709  0.2833 -0.2640
 6897SOL    HW132153   0.648   0.228   7.240 -0.0822 -1.2109 -1.7552
 6897SOL    HW232154   0.579   0.349   7.184 -1.0756 -0.7703 -1.0219
 6898SOL     OW32155   1.132   0.567   6.302 -0.6775  0.6458  0.1272
 6898SOL    HW132156   1.127   0.657   6.269 -0.9349  1.2992  1.9418
 6898SOL    HW232157   1.143   0.587   6.395  2.6916 -1.8761  0.2898
 6899SOL     OW32158   0.008   3.869   3.729 -0.2787 -0.1695  0.2130
 6899SOL    HW132159   0.029   3.827   3.812 -0.4288 -0.6789 -0.0069
 6899SOL    HW232160   0.071   3.941   3.727 -0.1441 -0.1872  3.3571
 6900SOL     OW32161   0.534   2.708  12.319  0.3376  0.1540 -0.1636
 6900SOL    HW132162   0.557   2.779  12.379  0.8581  1.2389 -1.6702
 6900SOL    HW232163   0.613   2.705  12.265 -0.9835 -0.3139 -2.0679
 6901SOL     OW32164   4.029   1.097   8.016  0.0251 -0.4161 -0.3472
 6901SOL    HW132165   4.075   1.140   8.088  1.7859 -1.7914 -0.6477
 6901SOL    HW232166   3.998   1.177   7.972  0.2076 -0.3886 -0.4246
 6902SOL     OW32167   0.692   4.260   7.117 -0.5569  0.3011  0.1243
 6902SOL    HW132168   0.682   4.294   7.206 -0.4677 -0.7936  0.5625
 6902SOL    HW232169   0.660   4.334   7.066 -0.3284  0.3443  0.0446
 6903SOL     OW32170   3.752   3.443  10.576  0.1651 -0.3284 -0.2899
 6903SOL    HW132171   3.798   3.383  10.635 -0.4670  0.4597  1.0169
 6903SOL    HW232172   3.667   3.404  10.559 -0.3684  0.4926  0.4829
 6904SOL     OW32173   3.600   0.182  17.661  0.3160  0.0414  0.3526
 6904SOL    HW132174   3.613   0.254   0.027 -0.3031  0.6895 -0.2635
 6904SOL    HW232175   3.564   0.227  17.585 -0.9358  3.5170  2.9757
 6905SOL     OW32176   4.369   2.710  13.300 -0.1474  0.0793  0.1675
 6905SOL    HW132177   4.282   2.744  13.320 -0.5991  0.0549 -1.8101
 6905SOL    HW232178   4.402   2.775  13.238 -0.2264 -0.1680 -0.1288
 6906SOL     OW32179   1.500   0.507   3.801 -0.7337  0.3119  0.1672
 6906SOL    HW132180   1.524   0.599   3.793 -1.6541  0.8694  3.7274
 6906SOL    HW232181   1.586   0.465   3.801  0.5386  2.9125 -1.4171
 6907SOL     OW32182   1.494   1.891   0.887  0.6270 -0.2790 -0.6190
 6907SOL    HW132183   1.449   1.835   0.824  1.5153 -2.1550  0.4276
 6907SOL    HW232184   1.421   1.933   0.933 -0.3534 -3.6890  0.9468
 6908SOL     OW32185   2.966   3.914   5.608 -0.1517  0.2682  0.1801
 6908SOL    HW132186   3.000   3.911   5.698 -0.0060  2.0659  0.1827
 6908SOL    HW232187   2.993   3.827   5.579 -0.1993  0.8826 -1.6964
 6909SOL     OW32188   2.428   2.699  16.918  1.1607  0.2244 -0.4375
 6909SOL    HW132189   2.401   2.647  16.993 -1.0489 -1.4710 -2.3838
 6909SOL    HW232190   2.352   2.756  16.908  1.8164  1.6415  2.8772
 6910SOL     OW32191   0.711   0.020   5.148  0.1568 -0.2208 -0.1698
 6910SOL    HW132192   0.690   0.096   5.202  2.5540 -1.1678  2.0412
 6910SOL    HW232193   0.735   4.679   5.214 -0.5834  1.5782  1.8310
 6911SOL     OW32194   2.733   4.335   8.844 -0.3887 -0.2605  0.8007
 6911SOL    HW132195   2.663   4.270   8.848 -0.7621  0.0940 -0.0592
 6911SOL    HW232196   2.699   4.390   8.774 -0.2381  0.7976  1.5528
 6912SOL     OW32197   4.426   2.086   8.053  0.4587  0.2208  0.6899
 6912SOL    HW132198   4.462   1.997   8.049  0.1144  0.1325 -0.2458
 6912SOL    HW232199   4.443   2.107   7.962 -0.5631 -1.3325  0.1354
 6913SOL     OW32200   3.326   0.751   4.467  0.4152  0.2725  0.3527
 6913SOL    HW132201   3.351   0.840   4.490  0.5474 -0.0921  1.6092
 6913SOL    HW232202   3.398   0.702   4.506  1.2224 -1.2694 -3.0382
 6914SOL     OW32203   3.719   4.473   0.061 -0.5362  0.1135 -0.7046
 6914SOL    HW132204   3.729   4.388   0.017 -2.6342 -1.3721  1.7359
 6914SOL    HW232205   3.706   4.528  17.680  0.6933  0.8988 -0.3570
 6915SOL     OW32206   1.956   2.090  15.447 -0.3068 -0.6785 -0.2537
 6915SOL    HW132207   1.928   2.169  15.400 -1.4269 -0.4930  0.7132
 6915SOL    HW232208   2.029   2.065  15.390  0.7779  3.4058 -0.7177
 6916SOL     OW32209   3.759   2.995   9.317 -0.5660 -0.3100  0.3763
 6916SOL    HW132210   3.729   2.956   9.399 -0.4898 -4.0385 -1.3759
 6916SOL    HW232211   3.679   3.034   9.281 -0.6966  0.4744  1.4881
 6917SOL     OW32212   0.322   3.012   4.780  1.0637 -0.8045  0.3886
 6917SOL    HW132213   0.360   2.951   4.718 -0.4164  0.4930 -1.8105
 6917SOL    HW232214   0.228   3.003   4.767  0.4610  1.8580  2.7389
 6918SOL     OW32215   2.497   2.943  16.355 -0.1237  0.7850  0.0792
 6918SOL    HW132216   2.567   2.981  16.302  1.3202  0.5480  1.8366
 6918SOL    HW232217   2.541   2.924  16.438 -0.6147 -0.1542  0.1251
 6919SOL     OW32218   3.437   4.232   4.409 -0.0324  0.6157  0.3017
 6919SOL    HW132219   3.509   4.177   4.441 -1.1752 -2.1378 -1.8094
 6919SOL    HW232220   3.451   4.301   4.474 -2.2119  0.0845  1.3272
 6920SOL     OW32221   3.551   1.194   3.026 -0.3083  0.0509 -0.2397
 6920SOL    HW132222   3.538   1.157   2.939  2.2514  0.5966 -0.8715
 6920SOL    HW232223   3.459   1.210   3.050  0.0331  3.5563 -1.1664
 6921SOL     OW32224   3.540   4.579   5.086 -0.4091 -0.4393  0.0705
 6921SOL    HW132225   3.461   4.562   5.036 -0.7079 -0.8184  0.6638
 6921SOL    HW232226   3.533   4.521   5.162 -0.1380  0.2705  0.6440
 6922SOL     OW32227   1.743   2.985   8.228  0.2550 -0.6744  0.1941
 6922SOL    HW132228   1.657   3.025   8.223 -0.0034 -1.1188  1.0915
 6922SOL    HW232229   1.780   3.055   8.281  0.7649 -0.3856 -0.5362
 6923SOL     OW32230   3.179   3.040   6.426 -0.4084  0.4313 -0.0426
 6923SOL    HW132231   3.093   3.065   6.393 -1.0133 -0.2721  0.9906
 6923SOL    HW232232   3.212   3.129   6.439 -1.4113  0.6564  0.9876
 6924SOL     OW32233   2.866   1.588   2.513 -0.3526  0.3315 -0.2453
 6924SOL    HW132234   2.859   1.599   2.418  0.7238  0.2324 -0.3385
 6924SOL    HW232235   2.959   1.606   2.526 -0.1214 -1.9303  1.1553
 6925SOL     OW32236   4.226   1.787   3.015 -0.3662 -0.1968 -0.4306
 6925SOL    HW132237   4.304   1.822   3.058  0.5777  1.0455 -3.1384
 6925SOL    HW232238   4.167   1.786   3.090  1.8112 -1.8663  1.2672
 6926SOL     OW32239   0.128   2.855   3.408 -0.3077  0.1729  0.0832
 6926SOL    HW132240   0.137   2.907   3.328  0.2594  0.4393  0.3241
 6926SOL    HW232241   0.184   2.782   3.385 -0.2866  0.0765  0.4479
 6927SOL     OW32242   3.339   0.560   5.434  0.0337 -0.2080  0.1662
 6927SOL    HW132243   3.350   0.499   5.506  0.9643  0.2054  0.3719
 6927SOL    HW232244   3.246   0.546   5.419 -0.1027  2.4643 -1.6586
 6928SOL     OW32245   1.720   1.474  14.087  0.7934 -0.2892 -0.4020
 6928SOL    HW132246   1.784   1.447  14.153  1.0643 -2.3529 -1.5136
 6928SOL    HW232247   1.640   1.471  14.140  1.5702 -1.0416  0.7206
 6929SOL     OW32248   1.619   0.390   7.979 -0.1467 -0.1446  0.2485
 6929SOL    HW132249   1.690   0.449   7.956 -2.7727  3.1218  0.4941
 6929SOL    HW232250   1.646   0.347   8.060 -1.2328 -0.4236  0.4644
 6930SOL     OW32251   4.481   2.130  10.370  0.1172  0.5146  0.0114
 6930SOL    HW132252   4.386   2.146  10.367  0.1246  1.0249  2.5091
 6930SOL    HW232253   4.504   2.173  10.288  0.6372  0.5513  0.1762
 6931SOL     OW32254   0.521   4.346   7.794  0.3027  0.4322  0.2752
 6931SOL    HW132255   0.576   4.397   7.734 -1.3727  0.2116 -1.4461
 6931SOL    HW232256   0.471   4.288   7.737  3.6790 -2.2762  0.0823
 6932SOL     OW32257   3.883   4.419   9.465 -0.1875 -0.6381  0.2504
 6932SOL    HW132258   3.966   4.385   9.434  0.7203  1.9916 -0.2579
 6932SOL    HW232259   3.822   4.356   9.427  0.7605 -2.2088  1.3467
 6933SOL     OW32260   4.474   3.723   1.093  0.1440 -0.6832  0.0111
 6933SOL    HW132261   4.515   3.761   1.015  1.8019 -1.2924  0.5796
 6933SOL    HW232262   4.506   3.632   1.088  1.5233 -0.3726  3.1934
 6934SOL     OW32263   0.318   0.409   3.156 -0.1329  0.3495 -0.5815
 6934SOL    HW132264   0.403   0.369   3.141 -1.2986 -1.0451 -3.4705
 6934SOL    HW232265   0.338   0.494   3.117  0.5280  0.4611  0.0007
 6935SOL     OW32266   1.680   4.359  12.033 -0.0308 -0.7388  0.7762
 6935SOL    HW132267   1.732   4.294  12.080 -0.7224 -0.8844  1.3401
 6935SOL    HW232268   1.636   4.403  12.106 -1.0773 -1.2507  0.4591
 6936SOL     OW32269   2.144   2.678   1.688 -0.5039 -0.1057 -0.4263
 6936SOL    HW132270   2.084   2.611   1.655 -1.5690  1.3521 -1.5010
 6936SOL    HW232271   2.224   2.627   1.700  0.9379  2.0940 -0.5812
 6937SOL     OW32272   2.733   2.993   7.260 -0.6930  0.0078 -0.1280
 6937SOL    HW132273   2.687   3.074   7.238 -0.4263  0.5383  1.2451
 6937SOL    HW232274   2.692   2.925   7.208 -2.4490  0.3479  0.7997
 6938SOL     OW32275   1.697   3.038   7.921 -0.5832 -0.9589 -0.2088
 6938SOL    HW132276   1.731   3.066   8.006 -0.1129  0.8692 -0.9996
 6938SOL    HW232277   1.613   3.001   7.948 -0.3112 -0.8474  0.7885
 6939SOL     OW32278   3.164   1.017   6.224  0.1574  0.4879 -0.2116
 6939SOL    HW132279   3.099   1.085   6.208  2.1821  2.5658  0.5056
 6939SOL    HW232280   3.214   1.003   6.143  0.0795  0.1292 -0.2004
 6940SOL     OW32281   1.925   2.789   3.482  0.2034 -0.9765  0.1610
 6940SOL    HW132282   1.839   2.806   3.443  0.7163  3.2562  0.8422
 6940SOL    HW232283   1.962   2.877   3.477 -1.4467 -0.2295  0.8446
 6941SOL     OW32284   2.867   3.465  16.550  0.0604  0.0910  0.4726
 6941SOL    HW132285   2.859   3.559  16.535  0.9832  0.0770 -0.0905
 6941SOL    HW232286   2.870   3.454  16.645  2.1293  2.1642  0.6145
 6942SOL     OW32287   1.662   1.835   3.965 -0.2551 -0.1062 -0.1527
 6942SOL    HW132288   1.668   1.831   3.870  1.9668 -0.6818  0.0067
 6942SOL    HW232289   1.579   1.876   3.987  0.6391  0.8801  1.3707
 6943SOL     OW32290   1.443   2.979   7.340 -0.1676  0.4516 -0.1791
 6943SOL    HW132291   1.472   3.052   7.395  0.3337 -0.2622  0.4966
 6943SOL    HW232292   1.370   2.944   7.390  0.2021  0.9317  0.7025
 6944SOL     OW32293   0.462   3.476   3.291 -0.0907  0.0741  0.0530
 6944SOL    HW132294   0.524   3.509   3.227 -0.9286  1.0936 -0.2282
 6944SOL    HW232295   0.507   3.403   3.335  0.3205  0.6868  0.6487
 6945SOL     OW32296   2.114   0.576   4.916 -0.5004 -0.5052 -0.1909
 6945SOL    HW132297   2.028   0.604   4.947  0.3257 -0.8056  2.2922
 6945SOL    HW232298   2.159   0.660   4.923 -0.2421 -0.6116 -0.5374
 6946SOL     OW32299   4.055   4.695   8.844 -0.7044 -0.7529  0.1389
 6946SOL    HW132300   4.052   4.716   8.937 -2.5304  2.2706 -0.5951
 6946SOL    HW232301   3.970   4.652   8.837  0.3883 -2.6763 -1.2681
 6947SOL     OW32302   1.748   4.215   2.916  0.0607 -0.3236 -0.6411
 6947SOL    HW132303   1.724   4.286   2.976  0.8618  1.4283 -2.3775
 6947SOL    HW232304   1.680   4.148   2.923 -0.0428 -0.2135 -0.5814
 6948SOL     OW32305   1.684   3.375   3.251 -0.2004 -0.2138 -0.5184
 6948SOL    HW132306   1.767   3.360   3.207 -0.0783 -2.6934  0.5208
 6948SOL    HW232307   1.696   3.320   3.329  0.3965  1.7495  0.7649
 6949SOL     OW32308   3.447   2.105   8.671 -0.0716 -0.8480  0.1949
 6949SOL    HW132309   3.427   2.015   8.695 -2.1958 -0.5596 -0.5093
 6949SOL    HW232310   3.363   2.142   8.699  1.4295  2.3163  0.5764
 6950SOL     OW32311   3.726   3.029   4.186  0.3242 -0.1111 -0.2106
 6950SOL    HW132312   3.736   2.934   4.184  1.2740 -0.0283  0.3252
 6950SOL    HW232313   3.639   3.039   4.225  0.9072  1.1255  0.7919
 6951SOL     OW32314   4.103   1.094   3.772 -0.6127 -0.3372  0.3611
 6951SOL    HW132315   4.016   1.098   3.730  0.4578 -1.0849 -1.9426
 6951SOL    HW232316   4.161   1.137   3.709 -1.1435 -0.4780 -0.2290
 6952SOL     OW32317   2.026   4.248   8.410  0.1677 -0.1144  0.8123
 6952SOL    HW132318   2.083   4.202   8.349  0.2656  1.7870 -0.5577
 6952SOL    HW232319   2.068   4.334   8.409  0.8194 -0.4486 -0.3456
 6953SOL     OW32320   3.972   3.991  15.475  0.1861 -0.3494 -0.7018
 6953SOL    HW132321   3.906   3.962  15.538  0.6863 -0.8421 -0.4051
 6953SOL    HW232322   3.910   3.981  15.402  0.3762 -0.2406 -0.8768
 6954SOL     OW32323   2.116   1.212  14.136 -0.0075  0.5881  0.5253
 6954SOL    HW132324   2.208   1.192  14.121  0.5742  1.4149  2.9983
 6954SOL    HW232325   2.095   1.167  14.218 -0.3188  1.7478  1.0969
 6955SOL     OW32326   0.257   4.304  15.220 -0.8469 -0.0312  0.0897
 6955SOL    HW132327   0.216   4.303  15.134 -0.7276 -0.5755  0.0346
 6955SOL    HW232328   0.220   4.378  15.267  0.4561  0.6555  0.0426
 6956SOL     OW32329   2.858   1.402   3.500  0.3971 -0.2912  0.4204
 6956SOL    HW132330   2.777   1.373   3.459  0.6319 -0.7139  0.2588
 6956SOL    HW232331   2.848   1.494   3.474 -2.4204 -0.7634 -0.0944
 6957SOL     OW32332   1.930   3.278  11.581  0.1295 -0.5998 -0.7880
 6957SOL    HW132333   1.841   3.252  11.560 -0.7402  0.7150  1.2258
 6957SOL    HW232334   1.937   3.368  11.551 -0.3947 -0.6568 -1.0703
 6958SOL     OW32335   2.341   0.365  14.350 -0.0782  0.3362  0.5198
 6958SOL    HW132336   2.368   0.435  14.291  1.2353  1.4166  2.4347
 6958SOL    HW232337   2.248   0.386  14.359 -0.1781  0.4704 -0.7922
 6959SOL     OW32338   1.213   1.019   3.452 -0.6027 -0.1839 -0.2326
 6959SOL    HW132339   1.283   1.072   3.414  0.4616 -1.1382  0.4066
 6959SOL    HW232340   1.217   1.041   3.545 -0.8990  0.4578 -0.3662
 6960SOL     OW32341   0.345   2.277   3.791  0.1720  0.4159  0.0554
 6960SOL    HW132342   0.375   2.248   3.705  1.0530  1.2652  0.0779
 6960SOL    HW232343   0.424   2.261   3.843  0.5944  0.0912 -0.6712
 6961SOL     OW32344   3.649   2.013   6.628  0.5685 -0.2709 -0.5386
 6961SOL    HW132345   3.714   1.967   6.681 -1.1889  0.2711  2.1090
 6961SOL    HW232346   3.686   2.099   6.611 -1.5640  0.5786 -0.9373
 6962SOL     OW32347   1.602   0.571   8.354 -0.7406 -0.2672 -0.0202
 6962SOL    HW132348   1.585   0.656   8.396 -0.2590  0.0646 -0.4929
 6962SOL    HW232349   1.521   0.545   8.311  0.5877 -2.1339 -1.4177
 6963SOL     OW32350   1.991   1.823  11.436  0.3044 -0.0633 -0.5909
 6963SOL    HW132351   2.057   1.891  11.454 -0.8360  0.9799 -0.2995
 6963SOL    HW232352   2.018   1.757  11.499  0.8247 -0.0068 -0.7558
 6964SOL     OW32353   1.318   0.761  14.099 -0.3407 -0.6184  0.1158
 6964SOL    HW132354   1.352   0.778  14.011 -0.4218  2.1912  0.5994
 6964SOL    HW232355   1.232   0.803  14.095 -0.1878 -0.4819 -1.5610
 6965SOL     OW32356   3.006   3.328   6.527  0.6507  0.4041  0.6309
 6965SOL    HW132357   3.101   3.316   6.530  0.3784 -1.0330  3.7617
 6965SOL    HW232358   2.992   3.420   6.506 -0.4801  0.0367 -0.2661
 6966SOL     OW32359   3.649   4.024   8.174 -0.3521  0.1465  0.1325
 6966SOL    HW132360   3.727   3.981   8.210 -0.3007  0.3059  0.2098
 6966SOL    HW232361   3.684   4.059   8.092 -1.0236 -0.8696 -0.5856
 6967SOL     OW32362   2.560   2.533   1.809  0.3603 -0.0954  0.6514
 6967SOL    HW132363   2.531   2.543   1.899 -1.0067  0.5225  0.1447
 6967SOL    HW232364   2.481   2.528   1.755  0.8074  3.2586 -0.3473
 6968SOL     OW32365   1.142   4.609  12.034  0.0085 -0.4114  0.1790
 6968SOL    HW132366   1.147   4.520  11.999 -2.1109 -0.9382  1.2025
 6968SOL    HW232367   1.209   4.655  11.983 -1.1423 -0.5366 -1.4473
 6969SOL     OW32368   3.115   0.290   3.274  0.1038  0.1379  0.1803
 6969SOL    HW132369   3.183   0.252   3.331 -0.0927  1.0294  1.0108
 6969SOL    HW232370   3.073   0.210   3.243  2.7734 -1.4231  0.5746
 6970SOL     OW32371   1.173   3.754  13.447 -0.4966 -0.1174  0.1224
 6970SOL    HW132372   1.124   3.784  13.524  0.9826  1.5758  0.3833
 6970SOL    HW232373   1.166   3.659  13.459  1.9389 -0.3058 -0.0239
 6971SOL     OW32374   3.850   2.288   9.196 -0.3928  0.0603  0.7603
 6971SOL    HW132375   3.857   2.381   9.220  1.0297 -0.4885  2.5315
 6971SOL    HW232376   3.775   2.256   9.246 -0.0475 -1.4037  0.3392
 6972SOL     OW32377   4.030   2.896   6.857 -0.0249 -0.4077 -0.1097
 6972SOL    HW132378   3.968   2.897   6.930  1.6452 -0.1862  1.3132
 6972SOL    HW232379   3.982   2.875   6.777 -0.1012 -2.9540  0.6055
 6973SOL     OW32380   1.424   3.333  13.065 -0.1039 -0.0976 -0.0363
 6973SOL    HW132381   1.392   3.318  12.976 -0.7392  0.4697  0.0950
 6973SOL    HW232382   1.454   3.423  13.061 -1.8246  0.4803 -0.1177
 6974SOL     OW32383   2.752   0.765   6.478  0.2822  0.1780  0.4585
 6974SOL    HW132384   2.765   0.672   6.494  0.5972 -0.2932 -2.5570
 6974SOL    HW232385   2.699   0.795   6.552 -0.8596  1.6560 -0.9499
 6975SOL     OW32386   3.113   0.647  15.227  0.4995 -0.6675 -0.4006
 6975SOL    HW132387   3.067   0.708  15.169  1.0882 -0.3077 -0.4888
 6975SOL    HW232388   3.040   0.594  15.260 -1.5793  3.4419  1.6938
 6976SOL     OW32389   0.436   1.350   2.700 -0.1207 -0.2122 -0.2457
 6976SOL    HW132390   0.472   1.267   2.668 -2.4853 -1.6231  0.7731
 6976SOL    HW232391   0.473   1.406   2.632  1.1590 -0.2756  0.4112
 6977SOL     OW32392   1.007   1.012   0.697 -0.1168  0.3230 -0.1631
 6977SOL    HW132393   0.951   0.956   0.643 -0.2181 -0.0413  0.3134
 6977SOL    HW232394   1.017   0.950   0.770 -0.1283  1.3546  0.7090
 6978SOL     OW32395   4.185   2.602   8.229  0.1946 -0.4139  0.1104
 6978SOL    HW132396   4.095   2.631   8.242  1.1516  1.6711  2.2076
 6978SOL    HW232397   4.215   2.659   8.158  1.6665 -0.5801  0.5985
 6979SOL     OW32398   1.135   1.107  11.429  0.3767  0.4589 -0.4229
 6979SOL    HW132399   1.118   1.017  11.401 -0.3556  0.3057  0.5320
 6979SOL    HW232400   1.086   1.155  11.361 -0.3772  1.6850  0.9843
 6980SOL     OW32401   4.350   2.476   6.368  0.6424  0.7497  0.3786
 6980SOL    HW132402   4.330   2.513   6.282 -0.9839 -0.1485  0.3683
 6980SOL    HW232403   4.398   2.398   6.340 -0.2876  0.4487 -0.3814
 6981SOL     OW32404   3.534   1.156   5.245 -0.1652  0.1255  0.0140
 6981SOL    HW132405   3.563   1.247   5.255 -1.4043  0.8560 -2.8868
 6981SOL    HW232406   3.616   1.110   5.225  1.5428  2.9730  0.4966
 6982SOL     OW32407   2.873   0.988  13.986  0.2903  0.3722 -0.2326
 6982SOL    HW132408   2.791   0.995  13.938  0.1473  0.2996  0.0014
 6982SOL    HW232409   2.927   0.949  13.917  0.1725  1.9235 -1.2038
 6983SOL     OW32410   0.619   0.588   7.100  1.1368 -0.7502  0.0775
 6983SOL    HW132411   0.614   0.495   7.078 -1.2369  0.0478 -2.6751
 6983SOL    HW232412   0.692   0.620   7.048  0.2098 -1.7961 -1.8801
 6984SOL     OW32413   2.834   0.983   1.599  0.0603  0.5007 -0.2058
 6984SOL    HW132414   2.903   0.968   1.663 -0.5950 -2.4153 -0.1999
 6984SOL    HW232415   2.778   0.907   1.609  0.6980  0.0406 -0.1177
 6985SOL     OW32416   2.270   3.745   7.181  0.0555  0.5023 -0.3619
 6985SOL    HW132417   2.227   3.721   7.100  1.1685 -0.5098 -0.6486
 6985SOL    HW232418   2.292   3.838   7.170  1.1358  0.1893 -0.8039
 6986SOL     OW32419   0.791   1.646   7.999  0.1385 -0.3018  0.0275
 6986SOL    HW132420   0.873   1.629   8.045 -0.0432  1.9074  1.1548
 6986SOL    HW232421   0.828   1.716   7.945 -0.2877  0.3058  0.5133
 6987SOL     OW32422   3.680   3.487   8.123 -0.8061  0.1400  0.4618
 6987SOL    HW132423   3.719   3.401   8.106  1.2836  1.4255 -1.3115
 6987SOL    HW232424   3.586   3.470   8.126 -1.0561  1.1052 -1.8763
 6988SOL     OW32425   4.043   4.645   7.238  0.1039  0.4094  0.7601
 6988SOL    HW132426   4.019   0.007   7.271 -2.3666  0.6803 -1.6732
 6988SOL    HW232427   4.058   4.607   7.324 -1.0179  2.8882  2.0287
 6989SOL     OW32428   1.222   4.272   9.780  0.1013 -0.0511  0.0071
 6989SOL    HW132429   1.152   4.323   9.740 -1.0598 -1.1368  0.6756
 6989SOL    HW232430   1.227   4.304   9.870 -0.2603  0.1141 -0.0356
 6990SOL     OW32431   2.473   3.564   4.526  0.2854 -0.4694  0.0040
 6990SOL    HW132432   2.393   3.600   4.563  0.8165  0.3819  0.3362
 6990SOL    HW232433   2.501   3.524   4.608 -1.1253 -1.8451 -0.1979
 6991SOL     OW32434   3.406   4.288  14.963 -0.2824  0.2678 -0.5357
 6991SOL    HW132435   3.402   4.331  14.878  1.5312 -1.1142 -1.3226
 6991SOL    HW232436   3.376   4.200  14.936 -0.1187 -0.3113  1.1768
 6992SOL     OW32437   0.958   0.444   6.113  0.5539  0.3671  0.8766
 6992SOL    HW132438   1.033   0.475   6.163  1.0561  1.6086 -0.6529
 6992SOL    HW232439   0.887   0.497   6.148  1.0078  0.1038  2.1692
 6993SOL     OW32440   3.587   3.480   5.141 -0.0997  0.1588 -0.0373
 6993SOL    HW132441   3.622   3.399   5.178  1.0217  1.3895  1.6201
 6993SOL    HW232442   3.596   3.459   5.048  0.2204 -1.6443  0.3984
 6994SOL     OW32443   3.350   3.137  16.929 -0.1240  0.2624  0.5582
 6994SOL    HW132444   3.399   3.219  16.921 -1.3287  0.8551 -0.8418
 6994SOL    HW232445   3.426   3.080  16.918  0.1081  0.6300  0.2693
 6995SOL     OW32446   2.438   2.713   9.174 -0.1851  0.4032  0.0359
 6995SOL    HW132447   2.402   2.631   9.208 -0.0455  0.5427  0.5283
 6995SOL    HW232448   2.402   2.780   9.233  1.3682 -0.0039  1.4364
 6996SOL     OW32449   2.632   2.471   6.296  0.4802 -0.3902 -0.3871
 6996SOL    HW132450   2.542   2.487   6.269  1.2424  2.9197 -0.9875
 6996SOL    HW232451   2.663   2.412   6.227 -0.0957 -0.1903 -0.8190
 6997SOL     OW32452   1.614   3.851  16.766  0.9087 -0.5971 -0.2289
 6997SOL    HW132453   1.570   3.915  16.709  1.3896  1.4466  1.7192
 6997SOL    HW232454   1.706   3.877  16.773  1.2836 -1.9443 -0.1701
 6998SOL     OW32455   1.824   3.903   6.923  0.1744  0.6799 -0.6228
 6998SOL    HW132456   1.831   3.816   6.885 -1.8359  1.2150 -2.2258
 6998SOL    HW232457   1.732   3.923   6.942 -0.1350 -0.1325 -1.3046
 6999SOL     OW32458   3.338   1.923   5.290 -0.3258 -0.0549 -0.2609
 6999SOL    HW132459   3.308   1.975   5.216  0.3862 -1.2685 -1.4134
 6999SOL    HW232460   3.408   1.873   5.246  0.3762 -0.4977  1.3418
 7000SOL     OW32461   1.284   3.774   2.167  0.4039 -0.5400  0.0198
 7000SOL    HW132462   1.266   3.802   2.077 -2.5522  1.7353  1.3410
 7000SOL    HW232463   1.378   3.758   2.154  0.0096 -1.4438 -1.6710
 7001SOL     OW32464   4.401   2.814   1.769 -0.1032  0.7233  0.1898
 7001SOL    HW132465   4.335   2.757   1.730  1.9550 -1.9472  0.5838
 7001SOL    HW232466   4.446   2.749   1.823  1.9448  1.6842 -0.3837
 7002SOL     OW32467   0.789   1.370   3.939  0.0674  0.1907 -0.1459
 7002SOL    HW132468   0.800   1.465   3.937 -0.2775  0.2121 -0.9176
 7002SOL    HW232469   0.752   1.341   3.856 -1.1411 -2.0262  1.1533
 7003SOL     OW32470   2.558   1.987   6.897 -0.1505  0.2468  0.7930
 7003SOL    HW132471   2.635   1.961   6.847 -0.4396  0.2746  0.3268
 7003SOL    HW232472   2.554   1.908   6.951 -0.6231  0.6363  1.3353
 7004SOL     OW32473   2.578   4.616   6.617  0.1541 -0.4310 -0.1587
 7004SOL    HW132474   2.654   4.602   6.560 -0.7362 -0.0945 -1.4148
 7004SOL    HW232475   2.622   4.669   6.683 -0.2615 -0.1449 -0.1091
 7005SOL     OW32476   4.319   3.756   1.659 -0.1562 -0.5607 -0.3611
 7005SOL    HW132477   4.260   3.689   1.625 -1.1167  0.6759 -1.1108
 7005SOL    HW232478   4.361   3.786   1.578  1.4001 -4.1818 -0.9169
 7006SOL     OW32479   1.682   1.301  15.115  0.2046  0.3654  0.0050
 7006SOL    HW132480   1.600   1.252  15.110  0.1340  0.6732 -1.9232
 7006SOL    HW232481   1.739   1.231  15.144 -0.7301  0.1589  1.3526
 7007SOL     OW32482   2.422   1.959   3.933 -0.0587  0.5286 -0.2490
 7007SOL    HW132483   2.456   2.047   3.951  2.6648 -0.2853 -1.3447
 7007SOL    HW232484   2.378   1.983   3.851  1.8319  1.4499 -0.9952
 7008SOL     OW32485   2.346   1.950   9.415  0.4198  0.0257  0.2039
 7008SOL    HW132486   2.281   2.013   9.384  0.0765 -0.2125  0.4453
 7008SOL    HW232487   2.415   1.953   9.348 -1.4158 -0.8346 -1.7354
 7009SOL     OW32488   3.551   3.066  10.783 -0.0105  0.3826 -0.1733
 7009SOL    HW132489   3.502   3.048  10.702 -0.5683 -0.4525  0.3476
 7009SOL    HW232490   3.508   3.009  10.846  0.3535  0.9532  0.5937
 7010SOL     OW32491   0.723   2.743   9.232  0.6254  0.3414 -0.1189
 7010SOL    HW132492   0.640   2.726   9.277  0.4567  1.1791 -0.1125
 7010SOL    HW232493   0.762   2.656   9.243  0.9213  0.1777 -2.3727
 7011SOL     OW32494   0.216   1.718   2.442 -0.4435  0.1156 -0.2333
 7011SOL    HW132495   0.268   1.787   2.481  0.0629  0.0945 -0.8689
 7011SOL    HW232496   0.201   1.658   2.515  2.1278  0.8086  0.8595
 7012SOL     OW32497   1.106   1.793   2.310 -0.7992 -0.0454  0.2545
 7012SOL    HW132498   1.092   1.735   2.235 -0.2854  3.7718 -2.7950
 7012SOL    HW232499   1.197   1.823   2.301 -1.1100  1.1768  1.2106
 7013SOL     OW32500   2.465   2.283   1.557  0.1125  0.4641 -0.5740
 7013SOL    HW132501   2.490   2.243   1.474  0.8232  0.9055 -0.5694
 7013SOL    HW232502   2.544   2.305   1.606 -1.5371  1.5289  1.6166
 7014SOL     OW32503   3.768   0.694   5.663 -0.6555 -0.1889  0.6295
 7014SOL    HW132504   3.723   0.771   5.697 -0.2881  0.8572 -1.2321
 7014SOL    HW232505   3.855   0.729   5.641 -0.3461 -1.5249 -0.2944
 7015SOL     OW32506   4.066   4.008   1.598 -0.4266  0.1054  0.2058
 7015SOL    HW132507   3.983   4.056   1.591 -2.0513 -2.7529 -0.5832
 7015SOL    HW232508   4.042   3.930   1.648  2.0334 -0.5578  0.3189
 7016SOL     OW32509   4.397   3.740   6.292  0.2604 -0.1327  0.7289
 7016SOL    HW132510   4.472   3.783   6.252 -1.2360  1.1343 -0.7346
 7016SOL    HW232511   4.368   3.683   6.220  2.0791 -1.2945  0.9010
 7017SOL     OW32512   3.978   4.654   1.776  0.7004  0.4222  0.4456
 7017SOL    HW132513   3.899   4.706   1.763 -0.2895 -0.5144  2.8390
 7017SOL    HW232514   3.979   4.612   1.690 -0.0440  0.3335  0.4864
 7018SOL     OW32515   2.483   1.092  13.086 -0.4350 -0.3294 -0.2317
 7018SOL    HW132516   2.451   1.003  13.103  0.0936 -0.5584 -0.4419
 7018SOL    HW232517   2.575   1.079  13.111 -0.2403 -1.1203 -1.3241
 7019SOL     OW32518   3.230   4.333  17.694  0.2446  0.0799  0.4365
 7019SOL    HW132519   3.183   4.402   0.044  1.3074  0.5448  0.8232
 7019SOL    HW232520   3.210   4.353  17.603  0.8839  0.2794  0.3366
 7020SOL     OW32521   0.194   3.852   4.132  0.0368 -0.3037 -0.4329
 7020SOL    HW132522   0.199   3.939   4.094 -0.8111  0.7549  1.8757
 7020SOL    HW232523   0.153   3.802   4.062 -0.9671  2.0486 -1.4971
 7021SOL     OW32524   1.278   1.128   8.738 -0.2425 -0.0400  0.1502
 7021SOL    HW132525   1.312   1.216   8.726 -1.1723  0.1301 -1.2391
 7021SOL    HW232526   1.318   1.080   8.665 -1.7623 -2.2898  0.7886
 7022SOL     OW32527   4.463   1.073   6.963  0.2542  0.1322  0.1574
 7022SOL    HW132528   4.426   0.992   6.927 -0.6134  1.3356 -1.6521
 7022SOL    HW232529   4.509   1.040   7.040 -1.7660  0.0142  1.3152
 7023SOL     OW32530   2.775   3.535   1.809 -0.4458  0.3073  0.1804
 7023SOL    HW132531   2.852   3.479   1.801  0.3481  1.1621  1.7844
 7023SOL    HW232532   2.817   3.620   1.820  0.8172 -0.3340  0.4088
 7024SOL     OW32533   3.426   4.013   1.016  0.1783  0.0317  0.0755
 7024SOL    HW132534   3.478   4.053   0.947  1.9075  2.0118  2.5572
 7024SOL    HW232535   3.486   4.012   1.090 -0.2591  1.4552  0.4382
 7025SOL     OW32536   1.910   1.799   1.447 -0.6587  0.0972 -0.4646
 7025SOL    HW132537   1.822   1.797   1.409 -0.8563 -1.4452  0.0859
 7025SOL    HW232538   1.944   1.840   1.367  1.9813 -1.4817 -0.1632
 7026SOL     OW32539   4.214   2.962   5.788  0.2849  0.2689 -0.2556
 7026SOL    HW132540   4.131   2.950   5.742  0.2751  1.4152 -0.5333
 7026SOL    HW232541   4.265   3.001   5.718 -0.1424 -0.5259 -1.0044
 7027SOL     OW32542   3.302   1.370   4.437 -0.3409  0.0142 -0.5367
 7027SOL    HW132543   3.238   1.327   4.494 -0.0049 -0.0201 -0.1873
 7027SOL    HW232544   3.328   1.306   4.372  1.3222  0.4867 -0.3467
 7028SOL     OW32545   3.068   3.090   9.900 -0.1686 -0.1489  0.1095
 7028SOL    HW132546   3.068   3.175   9.943  0.0050  0.7953 -1.7527
 7028SOL    HW232547   3.132   3.043   9.953  1.4257  0.8428 -0.9318
 7029SOL     OW32548   2.608   0.868  10.898 -0.0976 -0.0911  0.1093
 7029SOL    HW132549   2.674   0.933  10.921 -0.6857  0.0744  1.3257
 7029SOL    HW232550   2.570   0.854  10.985  0.5087 -0.4813  0.3163
 7030SOL     OW32551   3.562   3.424   3.511 -0.9814  0.1837  0.6560
 7030SOL    HW132552   3.628   3.387   3.570  0.9256  0.7917 -1.0800
 7030SOL    HW232553   3.605   3.508   3.499 -0.8293 -0.0682 -0.5597
 7031SOL     OW32554   2.293   3.782   0.288  0.1011 -0.5679  0.6234
 7031SOL    HW132555   2.379   3.743   0.271  0.9796  1.4949  0.3175
 7031SOL    HW232556   2.294   3.828   0.204  0.9976 -1.4301  0.1530
 7032SOL     OW32557   2.250   4.135  10.657 -0.4351 -0.3206 -0.3658
 7032SOL    HW132558   2.289   4.087  10.731  0.4706  2.8818  1.2387
 7032SOL    HW232559   2.217   4.215  10.699  0.5609  0.2900 -0.7318
 7033SOL     OW32560   3.896   3.388   6.927 -0.3130 -0.0305  0.5725
 7033SOL    HW132561   3.947   3.351   6.855  1.7102 -0.9125  2.4551
 7033SOL    HW232562   3.957   3.405   6.999  0.7857 -1.7648  0.0585
 7034SOL     OW32563   3.552   2.221  14.783  0.4221  0.4889 -0.2795
 7034SOL    HW132564   3.628   2.213  14.725  0.1461 -0.4085 -0.5143
 7034SOL    HW232565   3.498   2.292  14.748 -1.9459 -1.6879 -1.0487
 7035SOL     OW32566   1.121   0.516   7.685  0.0065 -0.6675  0.2101
 7035SOL    HW132567   1.201   0.565   7.668 -1.3971  1.1933 -1.0496
 7035SOL    HW232568   1.163   0.437   7.720  0.4440 -0.0989  0.9852
 7036SOL     OW32569   3.877   3.929   8.352  0.1600  0.0707 -0.6226
 7036SOL    HW132570   3.961   3.967   8.324 -0.5160 -0.1223 -2.9258
 7036SOL    HW232571   3.909   3.856   8.404 -0.1845  0.0891 -0.3879
 7037SOL     OW32572   1.163   4.161   9.083 -0.0061  0.0163 -0.1111
 7037SOL    HW132573   1.076   4.201   9.082 -0.0469 -0.2061 -4.3258
 7037SOL    HW232574   1.156   4.093   9.016 -1.6049  0.1694 -0.1122
 7038SOL     OW32575   0.506   1.390   4.658 -0.8720  0.6049  0.3913
 7038SOL    HW132576   0.552   1.307   4.645  2.1635  2.2269  0.8499
 7038SOL    HW232577   0.416   1.359   4.662 -0.9456  0.7263 -0.3598
 7039SOL     OW32578   4.485   0.482  16.911  0.5342  0.1855  0.2324
 7039SOL    HW132579   4.571   0.516  16.937 -0.2210 -0.2854  3.3229
 7039SOL    HW232580   4.429   0.534  16.969  0.3104  1.1480 -0.8492
 7040SOL     OW32581   3.150   0.420   9.228  0.4669 -0.0394  0.2346
 7040SOL    HW132582   3.126   0.441   9.319 -1.7409  0.0563 -0.3764
 7040SOL    HW232583   3.239   0.387   9.243  0.7548  0.9401  0.6358
 7041SOL     OW32584   3.674   4.624   2.413  0.2886  0.1047 -0.4093
 7041SOL    HW132585   3.726   4.705   2.415  1.5799 -0.7587  1.4557
 7041SOL    HW232586   3.587   4.652   2.385 -1.1295 -0.5737  3.2880
 7042SOL     OW32587   0.807   4.202   3.665  0.3097 -0.0660  0.0121
 7042SOL    HW132588   0.902   4.194   3.669  0.4464  1.5846 -0.2712
 7042SOL    HW232589   0.790   4.229   3.756 -0.5443 -0.6847  0.0334
 7043SOL     OW32590   0.808   1.444   0.711 -0.2019  0.4381 -0.3340
 7043SOL    HW132591   0.862   1.377   0.670  0.8428 -0.2530  2.1511
 7043SOL    HW232592   0.843   1.521   0.665 -0.2563  0.9676  0.5092
 7044SOL     OW32593   2.660   0.325   6.139 -0.0797  0.1888 -0.3786
 7044SOL    HW132594   2.658   0.230   6.132  2.9722  0.0242  0.8122
 7044SOL    HW232595   2.694   0.355   6.055  0.4476  0.2658 -0.1372
 7045SOL     OW32596   2.083   1.723   8.417 -0.2559  0.1015  0.7670
 7045SOL    HW132597   2.001   1.740   8.369 -0.1541  0.8947  0.8633
 7045SOL    HW232598   2.115   1.812   8.433  1.0339 -0.8274  3.2713
 7046SOL     OW32599   2.478   1.543   1.323  0.4043  0.7072 -0.0240
 7046SOL    HW132600   2.471   1.544   1.419 -0.6254 -0.0473 -0.0883
 7046SOL    HW232601   2.405   1.602   1.302  0.3151  1.5204  2.5840
 7047SOL     OW32602   1.044   3.758  13.195  0.0169  0.2024 -0.1736
 7047SOL    HW132603   1.076   3.748  13.285 -0.3206 -2.6191 -0.3755
 7047SOL    HW232604   1.123   3.764  13.141  0.6905 -0.2129  0.7702
 7048SOL     OW32605   4.576   1.058   3.732  0.0532  0.4915  0.2582
 7048SOL    HW132606   4.537   1.140   3.763  0.6438  1.1579 -0.7617
 7048SOL    HW232607   4.642   1.088   3.671 -1.3063 -0.8122 -1.8397
 7049SOL     OW32608   0.390   1.624   5.215 -0.4627  0.1434 -0.4381
 7049SOL    HW132609   0.303   1.609   5.253 -1.2074  0.6473 -1.9493
 7049SOL    HW232610   0.451   1.598   5.284  1.0869  0.7245 -1.5882
 7050SOL     OW32611   0.490   2.980  10.865 -0.8393  0.3136 -0.4355
 7050SOL    HW132612   0.478   3.016  10.953 -3.0556  0.7764 -0.9206
 7050SOL    HW232613   0.423   2.914  10.846 -0.4961  0.1154 -0.9289
 7051SOL     OW32614   2.662   3.115   4.662  0.0235  0.1715 -0.1686
 7051SOL    HW132615   2.731   3.074   4.714  0.5864 -1.0431 -1.8751
 7051SOL    HW232616   2.659   3.061   4.583 -0.6815  2.4389 -1.7065
 7052SOL     OW32617   4.475   2.944   8.178  0.4043  0.2424 -0.7169
 7052SOL    HW132618   4.548   2.931   8.238 -0.0141  1.6839  0.1076
 7052SOL    HW232619   4.432   3.010   8.233  0.6489 -2.2087  2.3887
 7053SOL     OW32620   1.234   4.112   7.224 -0.3810 -0.0126 -0.2799
 7053SOL    HW132621   1.313   4.092   7.173  0.6659  1.8189  0.6191
 7053SOL    HW232622   1.176   4.161   7.167  0.9889  2.0901  0.1486
 7054SOL     OW32623   0.546   2.084  14.295 -0.0786  0.2524  0.1812
 7054SOL    HW132624   0.576   2.056  14.382 -0.2358  0.2379  0.2311
 7054SOL    HW232625   0.620   2.071  14.236 -0.8753 -0.9848 -0.5315
 7055SOL     OW32626   0.948   2.210   3.401  0.0748  0.0349  0.3280
 7055SOL    HW132627   1.040   2.222   3.376  0.2361 -0.2251  0.7936
 7055SOL    HW232628   0.909   2.279   3.348  1.3305  0.7307  0.3213
 7056SOL     OW32629   0.132   3.213   3.688 -0.3950  0.5269 -0.9448
 7056SOL    HW132630   0.068   3.180   3.625 -0.2196 -0.9554 -0.3616
 7056SOL    HW232631   0.195   3.141   3.694  0.3516  1.2355 -0.2674
 7057SOL     OW32632   3.062   2.521   1.806 -0.2366 -0.2924  0.3212
 7057SOL    HW132633   3.037   2.573   1.730  0.2228 -0.2575  0.1917
 7057SOL    HW232634   2.980   2.475   1.824 -0.6980 -0.1381 -1.3694
 7058SOL     OW32635   3.440   1.580   7.983 -0.2948  0.7320 -0.7199
 7058SOL    HW132636   3.417   1.641   7.913  2.2118  0.8790 -1.4149
 7058SOL    HW232637   3.467   1.504   7.931 -0.2326  0.3382 -0.1162
 7059SOL     OW32638   4.524   0.416   1.724  0.2366 -0.3342 -0.2613
 7059SOL    HW132639   4.531   0.343   1.786  0.5827  0.8658  1.0917
 7059SOL    HW232640   4.615   0.414   1.692  0.2185 -0.4374 -0.3075
 7060SOL     OW32641   2.074   4.445   7.408  0.5615 -0.1411 -0.5479
 7060SOL    HW132642   2.145   4.427   7.346 -0.5657 -1.6852 -1.3920
 7060SOL    HW232643   2.015   4.374   7.384 -0.8649  0.1409  2.2570
 7061SOL     OW32644   4.116   1.077  12.735 -0.6154  0.3737  0.1588
 7061SOL    HW132645   4.162   1.161  12.731  1.3266 -0.6484  1.3661
 7061SOL    HW232646   4.133   1.046  12.646 -1.3253  0.1512  0.0980
 7062SOL     OW32647   2.017   1.218   7.940  0.2035 -0.2549  0.0444
 7062SOL    HW132648   2.092   1.244   7.993  0.4768 -2.9805  0.9846
 7062SOL    HW232649   2.000   1.129   7.973 -1.1978  0.0703  0.2133
 7063SOL     OW32650   2.811   2.528   3.589  0.0486  0.2085 -0.1419
 7063SOL    HW132651   2.875   2.513   3.659  0.4972  0.2033 -0.5475
 7063SOL    HW232652   2.852   2.470   3.524  2.2162  2.3325 -0.6885
 7064SOL     OW32653   0.331   2.681   3.327 -0.1814 -0.2662  0.5300
 7064SOL    HW132654   0.342   2.586   3.330  1.9461 -0.0296  0.3277
 7064SOL    HW232655   0.330   2.688   3.231 -2.0964 -1.5179  0.4582
 7065SOL     OW32656   1.859   3.049  15.004 -0.0173 -0.1293 -0.2010
 7065SOL    HW132657   1.871   3.030  14.911  4.9318  0.5015  0.3197
 7065SOL    HW232658   1.949   3.067  15.030 -1.0053  2.0570  1.6498
 7066SOL     OW32659   4.505   1.662  10.203  0.3918 -0.1496  0.3989
 7066SOL    HW132660   4.548   1.579  10.221  0.5534 -0.3095 -0.7330
 7066SOL    HW232661   4.558   1.719  10.259  0.7926 -0.5763  0.4476
 7067SOL     OW32662   1.990   3.841   5.776 -0.0512  0.5224  0.4967
 7067SOL    HW132663   1.970   3.893   5.854  0.6446  2.2291 -0.4617
 7067SOL    HW232664   1.948   3.880   5.699  1.6846  2.1378  0.3738
 7068SOL     OW32665   3.493   0.418   6.490 -0.3874  0.1451 -0.3374
 7068SOL    HW132666   3.497   0.513   6.482  1.3675  0.0282 -0.8500
 7068SOL    HW232667   3.465   0.413   6.582 -1.6110  3.8424 -0.5087
 7069SOL     OW32668   2.417   3.057  13.392  0.0156 -0.0448  0.2292
 7069SOL    HW132669   2.418   2.962  13.398 -3.6349 -0.0287  0.9432
 7069SOL    HW232670   2.451   3.069  13.303  3.1754 -1.1443  1.2793
 7070SOL     OW32671   4.233   1.820   3.775  0.1217  0.1191  0.3099
 7070SOL    HW132672   4.237   1.905   3.733 -1.7687 -0.2152 -0.5546
 7070SOL    HW232673   4.193   1.846   3.858 -0.7593 -2.3414  0.6560
 7071SOL     OW32674   1.526   0.619   0.697 -0.3798 -0.2623  0.5925
 7071SOL    HW132675   1.536   0.536   0.744  1.0767 -0.1989  0.3895
 7071SOL    HW232676   1.577   0.682   0.747 -1.6022  0.9356  0.3202
 7072SOL     OW32677   2.252   0.957  14.205 -0.2774 -0.7583 -0.2579
 7072SOL    HW132678   2.224   1.017  14.275  1.4979  1.3411 -1.3221
 7072SOL    HW232679   2.312   0.909  14.262  0.7745  0.3476 -0.4392
 7073SOL     OW32680   4.642   3.404   5.053  0.0896 -0.1115  0.2061
 7073SOL    HW132681   4.598   3.432   5.133 -1.2599  0.8847 -0.8855
 7073SOL    HW232682   4.589   3.452   4.989 -0.9927 -0.8268  0.5673
 7074SOL     OW32683   4.715   1.431   6.977  0.2530 -0.3699 -0.0743
 7074SOL    HW132684   4.620   1.439   6.988  0.1951 -3.0716  1.3281
 7074SOL    HW232685   0.007   1.524   6.958 -1.6571 -0.2312 -0.9269
 7075SOL     OW32686   1.186   1.635   2.532  0.0456  0.1390  0.0866
 7075SOL    HW132687   1.114   1.676   2.484 -2.3027 -1.4733  2.1734
 7075SOL    HW232688   1.259   1.637   2.470 -0.8966  4.5916 -0.8550
 7076SOL     OW32689   0.899   0.453   6.404  0.2124 -0.1970 -0.0442
 7076SOL    HW132690   0.956   0.523   6.373 -1.3650  0.9036 -0.4483
 7076SOL    HW232691   0.957   0.378   6.413  1.7832  1.3100  2.3173
 7077SOL     OW32692   2.168   2.949   4.643 -0.3178 -0.3065  0.2666
 7077SOL    HW132693   2.146   2.871   4.592 -1.2820  0.3551 -0.3327
 7077SOL    HW232694   2.259   2.929   4.662 -0.3229  1.1893  1.8036
 7078SOL     OW32695   0.368   0.648   8.797  0.0076  0.2536 -0.2556
 7078SOL    HW132696   0.288   0.676   8.752 -0.2232  2.1026  1.3409
 7078SOL    HW232697   0.400   0.730   8.834  0.0346  0.6232 -1.0988
 7079SOL     OW32698   2.633   4.551   1.446  0.1119 -0.0843  0.4757
 7079SOL    HW132699   2.586   4.608   1.385  0.4561 -0.1672  0.1369
 7079SOL    HW232700   2.666   4.606   1.517  0.1862  1.4290 -0.7350
 7080SOL     OW32701   2.785   3.052   1.370  0.5249 -0.0836 -0.5645
 7080SOL    HW132702   2.692   3.073   1.363  1.1972  3.0036 -0.0598
 7080SOL    HW232703   2.798   3.082   1.460  1.2201 -0.1016 -0.6579
 7081SOL     OW32704   0.748   3.391   6.974 -0.3264  0.2158  0.0701
 7081SOL    HW132705   0.707   3.390   6.887 -1.1897 -4.6158  0.5085
 7081SOL    HW232706   0.833   3.433   6.967 -0.6185  0.5714 -1.3587
 7082SOL     OW32707   4.302   1.196  10.215 -0.1638  0.6278 -0.2172
 7082SOL    HW132708   4.322   1.221  10.124 -0.1266 -2.0730 -0.9556
 7082SOL    HW232709   4.240   1.124  10.209  3.4197 -2.4535 -0.1804
 7083SOL     OW32710   3.139   4.559  14.995 -0.0843 -0.2077 -0.0874
 7083SOL    HW132711   3.148   4.464  14.984  0.3187 -0.3198  1.1836
 7083SOL    HW232712   3.108   4.583  14.908 -1.6950  1.4506  0.9474
 7084SOL     OW32713   0.430   3.284   6.292  0.6166  0.2684  0.3868
 7084SOL    HW132714   0.384   3.263   6.373 -1.4018  0.0982 -0.8105
 7084SOL    HW232715   0.504   3.224   6.304  1.6118  1.1865 -1.1433
 7085SOL     OW32716   3.697   1.714   7.194 -0.1675  0.1615 -0.2332
 7085SOL    HW132717   3.656   1.784   7.142 -0.4860 -0.1072 -0.3440
 7085SOL    HW232718   3.759   1.762   7.248  1.0435  0.5767 -2.0119
 7086SOL     OW32719   3.313   0.581   0.057 -0.1202 -0.4200 -0.0600
 7086SOL    HW132720   3.356   0.659   0.091 -0.1467 -0.2207 -0.4872
 7086SOL    HW232721   3.323   0.521   0.131  1.5429  2.8776  2.3572
 7087SOL     OW32722   1.156   2.106   3.654 -0.2272  0.7808 -0.4302
 7087SOL    HW132723   1.222   2.081   3.589 -2.2824  0.5957 -2.4508
 7087SOL    HW232724   1.105   2.025   3.663 -1.4994  1.4919 -1.2406
 7088SOL     OW32725   1.654   3.425   4.910  0.1833 -0.0198  0.0629
 7088SOL    HW132726   1.684   3.425   4.819  0.7564 -0.0306  0.2503
 7088SOL    HW232727   1.573   3.376   4.899  0.0932 -0.1950  1.5612
 7089SOL     OW32728   1.928   4.093   6.740 -0.6901 -0.0528  0.0142
 7089SOL    HW132729   1.980   4.015   6.722 -0.5639 -0.3777  1.7573
 7089SOL    HW232730   1.864   4.054   6.800 -1.4671  1.1744 -0.0012
 7090SOL     OW32731   2.869   2.440  15.726  0.5303  0.3864  0.3605
 7090SOL    HW132732   2.832   2.500  15.791  1.6464  2.0108 -0.4863
 7090SOL    HW232733   2.794   2.387  15.699  3.4074 -1.8914 -3.2163
 7091SOL     OW32734   1.891   3.242   8.034  0.4385  0.5511 -0.2080
 7091SOL    HW132735   1.839   3.249   8.113 -0.5760 -1.2762 -0.7121
 7091SOL    HW232736   1.976   3.274   8.065  1.1468 -0.2879 -1.2655
 7092SOL     OW32737   3.786   4.059  11.249 -0.2761 -0.1958  0.1723
 7092SOL    HW132738   3.801   4.110  11.170  1.9349  0.6181  1.1358
 7092SOL    HW232739   3.870   4.073  11.292 -0.0171  0.2794 -0.4980
 7093SOL     OW32740   1.735   2.828  10.946 -0.1146 -0.2759 -0.3953
 7093SOL    HW132741   1.767   2.846  10.858  3.1315  0.2708  0.8916
 7093SOL    HW232742   1.684   2.909  10.960  0.3675  0.4175 -2.6886
 7094SOL     OW32743   1.084   1.721   6.194 -0.2928  0.2164  0.6171
 7094SOL    HW132744   1.085   1.744   6.287  1.5360  2.8926 -0.0515
 7094SOL    HW232745   1.167   1.675   6.182 -0.1998 -0.0989  2.5600
 7095SOL     OW32746   1.069   1.998   8.132  0.3207 -0.0757 -0.4037
 7095SOL    HW132747   1.069   1.909   8.166 -2.5746 -0.0203 -0.2182
 7095SOL    HW232748   1.104   2.052   8.203  1.9468 -1.4956 -0.1508
 7096SOL     OW32749   2.118   3.153   8.590 -0.5798 -0.0911  0.1375
 7096SOL    HW132750   2.190   3.090   8.596  0.3413  0.9564  0.1725
 7096SOL    HW232751   2.140   3.216   8.659  3.1621 -1.3839  0.1349
 7097SOL     OW32752   0.320   3.736   0.090  0.4186  0.4231  0.1142
 7097SOL    HW132753   0.280   3.785   0.017  0.4961  0.4172  0.0683
 7097SOL    HW232754   0.255   3.766   0.154 -0.3323  0.3823 -0.6271
 7098SOL     OW32755   2.086   4.296   3.441 -0.3313 -0.0363 -0.3735
 7098SOL    HW132756   2.028   4.360   3.482 -1.2548 -1.6871  0.9291
 7098SOL    HW232757   2.117   4.262   3.525  1.2257  0.9080 -0.5659
 7099SOL     OW32758   1.792   2.122   7.849  0.1654  0.3476  0.4967
 7099SOL    HW132759   1.785   2.213   7.875  0.1777 -0.6186  3.9308
 7099SOL    HW232760   1.768   2.075   7.930 -0.1309  1.6396  1.1493
 7100SOL     OW32761   1.306   3.991   9.313  0.2646  0.7565  0.1170
 7100SOL    HW132762   1.257   4.040   9.247  1.6835  1.2807 -0.5526
 7100SOL    HW232763   1.274   3.902   9.303 -2.1709  1.8486 -1.7207
 7101SOL     OW32764   2.677   1.148  14.875  0.1251 -0.6959  0.4294
 7101SOL    HW132765   2.739   1.112  14.811 -1.0632 -2.2416  0.1638
 7101SOL    HW232766   2.704   1.109  14.958 -1.2552 -0.2927  1.0517
 7102SOL     OW32767   1.713   4.408  10.218 -0.3075 -0.8325  0.0925
 7102SOL    HW132768   1.670   4.362  10.146 -3.4480  1.1280  0.7422
 7102SOL    HW232769   1.766   4.333  10.247  1.7621  0.1532 -1.1554
 7103SOL     OW32770   3.309   1.590   5.183  0.2907  0.6055  0.1970
 7103SOL    HW132771   3.226   1.581   5.229 -0.2034  1.6618 -0.4820
 7103SOL    HW232772   3.370   1.629   5.245 -0.4897  0.7894  0.8426
 7104SOL     OW32773   3.927   3.263   0.491  0.1643 -0.0726 -0.2290
 7104SOL    HW132774   3.831   3.271   0.495  0.3845  2.8614 -0.6546
 7104SOL    HW232775   3.936   3.277   0.396 -1.3243  0.6121 -0.2859
 7105SOL     OW32776   1.223   1.869   9.068 -0.0733 -0.3925 -0.2232
 7105SOL    HW132777   1.155   1.804   9.050  1.6089 -1.2536 -3.4572
 7105SOL    HW232778   1.167   1.946   9.064 -0.5945 -0.7217  0.6968
 7106SOL     OW32779   3.703   3.452   4.379  0.1301  0.0105  0.4035
 7106SOL    HW132780   3.694   3.460   4.284  0.2406  2.1395  0.5800
 7106SOL    HW232781   3.754   3.371   4.368 -0.3684 -0.1169 -0.9948
 7107SOL     OW32782   4.244   2.606   0.331 -0.9569  0.1071  0.3411
 7107SOL    HW132783   4.267   2.528   0.281  2.4355  0.6241  1.1219
 7107SOL    HW232784   4.152   2.578   0.338 -0.5496 -1.0329  1.1720
 7108SOL     OW32785   3.502   0.314  13.984 -0.2398  0.0177 -0.2433
 7108SOL    HW132786   3.488   0.232  14.032  0.3489  0.5039  0.7659
 7108SOL    HW232787   3.549   0.358  14.055 -0.9905  1.6063 -0.7489
 7109SOL     OW32788   0.967   0.087  16.430 -0.1568 -0.2063 -0.0178
 7109SOL    HW132789   0.927   0.129  16.354  1.7035  1.9655  0.2059
 7109SOL    HW232790   1.057   0.103  16.402 -0.0710 -0.3902  0.1521
 7110SOL     OW32791   3.067   2.391   2.102 -0.1939 -0.0025  0.0535
 7110SOL    HW132792   3.119   2.472   2.106  2.4643 -1.7526  0.9740
 7110SOL    HW232793   2.982   2.430   2.084  0.2371  0.2856 -1.3174
 7111SOL     OW32794   2.723   1.103   6.652  0.0466 -0.1832 -0.2013
 7111SOL    HW132795   2.712   1.015   6.690 -3.3594 -0.1023 -1.0380
 7111SOL    HW232796   2.811   1.099   6.614  0.7089 -2.7821  1.5699
 7112SOL     OW32797   2.374   0.576   1.761  0.0700 -0.2144  0.6712
 7112SOL    HW132798   2.435   0.647   1.782  2.3971 -0.9048 -3.7434
 7112SOL    HW232799   2.388   0.515   1.834  2.7494  0.6447  0.8956
 7113SOL     OW32800   0.654   2.681   4.887  0.1379 -0.0822  0.1220
 7113SOL    HW132801   0.747   2.699   4.880  0.1456 -0.2339 -0.1897
 7113SOL    HW232802   0.645   2.728   4.970 -2.2655  0.5466 -0.4880
 7114SOL     OW32803   1.102   3.937   2.672 -0.5075 -0.1004 -0.1151
 7114SOL    HW132804   1.047   4.002   2.627  0.1545 -0.4629 -1.4457
 7114SOL    HW232805   1.101   3.863   2.612  1.7343 -0.6056  0.4632
 7115SOL     OW32806   4.186   3.977  11.743 -0.3220  0.2574 -0.5107
 7115SOL    HW132807   4.125   4.050  11.748 -1.1151 -0.5974  2.4514
 7115SOL    HW232808   4.127   3.902  11.743  0.8693 -0.7017  0.9785
 7116SOL     OW32809   0.373   3.842   9.256 -0.4399  0.3031  0.0199
 7116SOL    HW132810   0.291   3.829   9.303  1.5879 -2.6851  2.7229
 7116SOL    HW232811   0.360   3.932   9.227 -0.8187  0.3718  0.4004
 7117SOL     OW32812   4.411   4.071   1.771 -0.0782 -0.0625  0.0444
 7117SOL    HW132813   4.446   3.984   1.793  0.5640  0.0535 -0.5185
 7117SOL    HW232814   4.400   4.047   1.679 -0.9252  0.8560 -0.0941
 7118SOL     OW32815   0.075   1.196   8.041  0.4376  0.0329 -0.8639
 7118SOL    HW132816   0.007   1.128   8.036 -1.8559  2.4491 -2.2509
 7118SOL    HW232817   0.077   1.224   7.949 -1.7293  1.8896 -0.3469
 7119SOL     OW32818   1.778   1.933   5.477  0.1808  0.1676  0.3328
 7119SOL    HW132819   1.865   1.892   5.473 -1.6696 -3.9107  1.6738
 7119SOL    HW232820   1.803   2.024   5.494 -0.6688  0.4238  0.1774
 7120SOL     OW32821   4.094   4.544   6.587 -0.3415  0.4421 -0.1788
 7120SOL    HW132822   4.104   4.638   6.605  0.1179  0.3964 -0.1753
 7120SOL    HW232823   4.029   4.520   6.653  1.0256  1.2964  1.4946
 7121SOL     OW32824   0.302   4.408  13.913 -0.2087 -1.0136  0.4782
 7121SOL    HW132825   0.274   4.437  13.826 -1.0004  3.0323  2.0766
 7121SOL    HW232826   0.377   4.464  13.931  0.7020 -1.5663 -1.5617
 7122SOL     OW32827   4.686   1.652  14.631  0.0764 -0.3247  0.7568
 7122SOL    HW132828   4.649   1.705  14.561  0.8180 -0.4403  0.2763
 7122SOL    HW232829   4.711   1.579  14.575  1.0723  1.4666 -1.1095
 7123SOL     OW32830   0.572   0.340  12.099  0.0533  0.2732 -0.4714
 7123SOL    HW132831   0.652   0.307  12.139 -0.0330 -1.8194 -2.0022
 7123SOL    HW232832   0.590   0.432  12.081  1.4212 -0.2633 -1.8835
 7124SOL     OW32833   2.779   0.399   0.775 -0.0064  0.5829  0.2012
 7124SOL    HW132834   2.843   0.392   0.846  0.0339  0.7035  0.1769
 7124SOL    HW232835   2.816   0.474   0.729  0.5670 -0.7916 -1.5834
 7125SOL     OW32836   1.236   0.189   2.830 -0.8116  0.0480  0.6275
 7125SOL    HW132837   1.236   0.132   2.907  0.7038 -1.7320 -0.6872
 7125SOL    HW232838   1.262   0.131   2.758 -0.7149  0.7357  0.1012
 7126SOL     OW32839   0.844   2.509   3.736 -0.0883 -0.5667  0.5666
 7126SOL    HW132840   0.898   2.500   3.815  0.2517 -1.7162  0.2099
 7126SOL    HW232841   0.867   2.420   3.708  0.4684  0.2801 -1.6573
 7127SOL     OW32842   1.893   3.480   7.174 -0.1977 -0.3401 -0.0364
 7127SOL    HW132843   1.808   3.439   7.187  0.3540 -1.7590 -0.9297
 7127SOL    HW232844   1.864   3.571   7.181 -0.5285 -0.3358 -1.4934
 7128SOL     OW32845   1.788   2.095   4.679 -0.4732 -0.3742 -0.1332
 7128SOL    HW132846   1.764   2.018   4.732 -2.0838 -0.7432 -1.3977
 7128SOL    HW232847   1.794   2.161   4.747 -1.2993 -0.0133 -0.4176
 7129SOL     OW32848   2.306   4.635   1.608  0.1218 -0.4035 -0.0586
 7129SOL    HW132849   2.291   0.006   1.610 -0.3751 -0.4971  0.4572
 7129SOL    HW232850   2.306   4.617   1.514  0.0625 -1.3119  0.1152
 7130SOL     OW32851   3.771   2.764  15.821 -0.0868  0.4777  0.5722
 7130SOL    HW132852   3.767   2.826  15.893  0.7489 -0.7077  1.6537
 7130SOL    HW232853   3.792   2.820  15.747 -0.1729 -1.9128 -1.2730
 7131SOL     OW32854   3.880   2.209   8.740 -0.2566 -0.2638 -0.0149
 7131SOL    HW132855   3.920   2.248   8.818 -0.1467 -0.5750  0.0820
 7131SOL    HW232856   3.901   2.118   8.758 -1.2086 -0.0239  2.3928
 7132SOL     OW32857   2.464   1.801   8.535  0.2800 -0.3008  0.4755
 7132SOL    HW132858   2.386   1.850   8.559  0.6712  0.3938  0.3412
 7132SOL    HW232859   2.450   1.820   8.442 -2.2116  1.2549  1.1622
 7133SOL     OW32860   1.670   3.752   3.244 -0.4180  0.3149  0.1743
 7133SOL    HW132861   1.669   3.779   3.336  1.2736 -1.2253  0.6214
 7133SOL    HW232862   1.634   3.836   3.215 -0.4211  0.1088 -0.4269
 7134SOL     OW32863   1.585   3.985   2.399 -0.0194 -0.2386 -0.4420
 7134SOL    HW132864   1.522   3.958   2.467 -0.3348  1.1959 -0.1611
 7134SOL    HW232865   1.523   4.028   2.339 -0.3258  0.0349  0.0686
 7135SOL     OW32866   4.658   1.815  15.879  0.0849  0.1040 -0.2747
 7135SOL    HW132867   4.640   1.907  15.861 -1.4638 -0.5262 -2.0119
 7135SOL    HW232868   4.652   1.815  15.974 -1.2926  0.7080 -0.3512
 7136SOL     OW32869   0.115   3.208   4.251 -0.2895  0.3367  0.1151
 7136SOL    HW132870   0.112   3.162   4.167 -0.6574  3.1027 -1.3988
 7136SOL    HW232871   0.201   3.183   4.286 -0.1662  0.6503  0.0407
 7137SOL     OW32872   1.782   1.204   1.177  0.0790 -0.4318  0.1104
 7137SOL    HW132873   1.743   1.252   1.250 -1.3375 -0.8458 -0.3668
 7137SOL    HW232874   1.877   1.212   1.190  0.3363  0.4335 -2.2927
 7138SOL     OW32875   0.989   3.569   6.078  0.1094 -0.3929 -0.0926
 7138SOL    HW132876   1.059   3.634   6.068  0.0266 -0.2490  0.2482
 7138SOL    HW232877   0.978   3.531   5.991 -0.7760  1.5741 -0.8388
 7139SOL     OW32878   3.292   3.915   6.105 -0.4424 -0.0573 -0.1013
 7139SOL    HW132879   3.387   3.924   6.108 -0.4538 -0.1869  0.5587
 7139SOL    HW232880   3.281   3.882   6.016 -0.3544  0.1258 -0.1791
 7140SOL     OW32881   3.320   2.047  13.277  0.3252  0.2859  0.0931
 7140SOL    HW132882   3.349   2.096  13.354  0.6896  0.8336 -0.3863
 7140SOL    HW232883   3.240   2.012  13.316  1.1125 -2.2497 -0.5199
 7141SOL     OW32884   1.823   2.281   6.536  0.3957 -0.1553  0.0597
 7141SOL    HW132885   1.864   2.319   6.459  0.1809 -1.6735 -0.8068
 7141SOL    HW232886   1.835   2.360   6.588 -1.0987  0.3291 -0.3353
 7142SOL     OW32887   1.071   3.811   4.529  0.2729  0.9699  0.3883
 7142SOL    HW132888   1.106   3.737   4.478  0.8733  0.8464  0.9835
 7142SOL    HW232889   1.131   3.880   4.502  1.8242  0.4896  2.6555
 7143SOL     OW32890   4.509   1.520   4.246  0.9041  0.2930 -0.2346
 7143SOL    HW132891   4.437   1.544   4.188  1.1395  0.1695 -0.5785
 7143SOL    HW232892   4.471   1.562   4.324  1.9207  2.4081 -0.8755
 7144SOL     OW32893   2.021   0.339  10.829 -0.0340 -0.0379 -0.5074
 7144SOL    HW132894   2.104   0.351  10.784  0.3014 -0.8302 -0.1151
 7144SOL    HW232895   2.037   0.253  10.868 -2.1097 -0.6803 -1.0561
 7145SOL     OW32896   0.839   4.597  17.039 -0.6712  0.0817 -0.1562
 7145SOL    HW132897   0.826   4.686  17.008  0.5403 -0.0894 -1.1554
 7145SOL    HW232898   0.792   4.609  17.121  0.4050  0.8397  0.3519
 7146SOL     OW32899   3.009   2.414  17.238 -0.3163 -0.1451 -0.1787
 7146SOL    HW132900   2.920   2.401  17.271 -0.9016  2.2108 -0.8627
 7146SOL    HW232901   3.026   2.323  17.211 -2.5894 -0.4655 -0.4764
 7147SOL     OW32902   2.483   0.096   7.211 -0.1653  0.4330  0.4079
 7147SOL    HW132903   2.554   0.161   7.210  0.1294  0.1061 -0.1514
 7147SOL    HW232904   2.508   0.039   7.283 -2.8056 -0.6126  0.4680
 7148SOL     OW32905   1.768   4.648   9.873 -0.3123 -1.2261 -0.3807
 7148SOL    HW132906   1.819   4.576   9.836 -1.0227 -1.5600 -0.7180
 7148SOL    HW232907   1.821   4.657   9.952  1.3586  1.4130 -1.7830
 7149SOL     OW32908   4.168   3.841   5.590 -0.2650  0.6530 -0.2239
 7149SOL    HW132909   4.256   3.830   5.627  0.0592  0.5090 -1.0295
 7149SOL    HW232910   4.189   3.872   5.502  4.5586  0.0346  0.7076
 7150SOL     OW32911   1.974   4.586  14.704 -0.2817  0.5897 -0.4795
 7150SOL    HW132912   2.031   4.547  14.638 -1.8543 -2.5304  0.0143
 7150SOL    HW232913   1.943   4.656  14.647 -0.0085 -0.3055 -1.7200
 7151SOL     OW32914   3.171   0.206  11.026 -0.5488  1.0541  0.0329
 7151SOL    HW132915   3.239   0.245  10.971  1.1174 -0.8522  0.7647
 7151SOL    HW232916   3.097   0.267  11.026 -1.0188  0.4783 -1.6984
 7152SOL     OW32917   3.719   3.714  13.627  0.1902 -0.7875  0.0144
 7152SOL    HW132918   3.642   3.751  13.672 -0.0754 -3.4596  1.7417
 7152SOL    HW232919   3.753   3.645  13.684  0.7275 -0.5110  0.0288
 7153SOL     OW32920   1.495   0.523  14.083  0.2018  0.0000  0.1058
 7153SOL    HW132921   1.471   0.608  14.121  0.6575 -0.6502  1.8377
 7153SOL    HW232922   1.428   0.494  14.020 -1.6994 -0.2568  2.2221
 7154SOL     OW32923   0.066   3.718   2.946 -0.3931  0.3599  0.0554
 7154SOL    HW132924   0.100   3.802   2.915  0.4940 -0.5585 -1.4595
 7154SOL    HW232925   0.018   3.693   2.867  0.9788  0.0673 -0.6820
 7155SOL     OW32926   2.059   0.466  17.180 -0.3931  0.6126 -0.2895
 7155SOL    HW132927   2.125   0.522  17.141  0.4417 -1.8836 -2.4767
 7155SOL    HW232928   1.987   0.467  17.118  0.0914  1.5394 -0.8374
 7156SOL     OW32929   2.938   4.537   3.069 -0.2078  0.0725 -0.1656
 7156SOL    HW132930   2.912   4.451   3.102  0.2615 -0.7908 -2.0182
 7156SOL    HW232931   2.972   4.517   2.982  0.6912  0.7544  0.0332
 7157SOL     OW32932   0.548   1.262   7.056 -0.0396  0.5075  0.1863
 7157SOL    HW132933   0.562   1.226   6.968 -3.4844 -1.9533  0.6414
 7157SOL    HW232934   0.479   1.326   7.042  0.2514  0.1662 -2.7184
 7158SOL     OW32935   0.791   2.798   2.844  0.1063 -0.1089 -0.3906
 7158SOL    HW132936   0.786   2.717   2.894  0.2675 -0.6533 -1.2538
 7158SOL    HW232937   0.876   2.839   2.858 -0.3728  1.0169 -0.7873
 7159SOL     OW32938   2.017   1.096   5.099  0.0481 -0.4947 -0.4073
 7159SOL    HW132939   1.991   1.034   5.166 -0.7976  2.2367  1.7841
 7159SOL    HW232940   1.932   1.125   5.066  0.7057  2.0055  0.0460
 7160SOL     OW32941   1.223   2.086   5.466  0.2850 -0.3017  0.0235
 7160SOL    HW132942   1.200   1.995   5.447 -0.0491 -0.3596  0.7208
 7160SOL    HW232943   1.154   2.145   5.436  1.0373  1.5156  1.8645
 7161SOL     OW32944   3.263   3.598  12.828 -0.3343  0.0414  0.3449
 7161SOL    HW132945   3.288   3.517  12.785 -0.2585  0.2355  0.0265
 7161SOL    HW232946   3.270   3.661  12.756 -0.8800 -0.7449 -0.3837
 7162SOL     OW32947   1.256   1.281   6.798 -0.7468 -0.1942 -0.6385
 7162SOL    HW132948   1.238   1.299   6.706  2.0963  0.0583 -1.1218
 7162SOL    HW232949   1.264   1.186   6.801  1.1973 -0.0198 -0.3865
 7163SOL     OW32950   0.376   0.045   8.371  0.2309 -0.4847  0.1979
 7163SOL    HW132951   0.296   0.086   8.340  0.1434  0.6682  1.9466
 7163SOL    HW232952   0.427   0.054   8.290 -0.0313  2.2670  0.3570
 7164SOL     OW32953   1.448   1.109  11.174 -0.1756  0.1441  0.1683
 7164SOL    HW132954   1.515   1.111  11.106 -0.4596  1.5480 -0.0577
 7164SOL    HW232955   1.394   1.035  11.144  0.8199 -0.2926 -0.5590
 7165SOL     OW32956   1.352   0.210   3.336  0.2238  0.5309 -0.5908
 7165SOL    HW132957   1.327   0.302   3.348  0.8302  0.8200 -1.4795
 7165SOL    HW232958   1.264   0.172   3.340 -0.1080  1.2865 -0.6352
 7166SOL     OW32959   1.412   1.653   3.337  0.1120 -0.1336  0.2133
 7166SOL    HW132960   1.381   1.740   3.311  0.9168 -0.4223 -1.6916
 7166SOL    HW232961   1.409   1.609   3.252 -0.7642 -1.5443  0.9851
 7167SOL     OW32962   1.323   4.116  10.604 -0.4043  0.1621 -0.1737
 7167SOL    HW132963   1.308   4.209  10.587  0.8673  0.3022 -0.5128
 7167SOL    HW232964   1.337   4.118  10.698 -0.8654  1.0679 -0.1231
 7168SOL     OW32965   4.356   3.021   2.981 -0.0941 -0.1623  0.1717
 7168SOL    HW132966   4.407   3.100   2.964 -2.1031  0.8332 -1.2076
 7168SOL    HW232967   4.421   2.955   2.955  1.4219  1.8534 -1.1994
 7169SOL     OW32968   0.425   2.473   1.336 -0.1319 -0.6225  0.7135
 7169SOL    HW132969   0.445   2.449   1.246  2.0118  1.7471  0.5641
 7169SOL    HW232970   0.329   2.470   1.340 -0.2169  3.0483  2.3246
 7170SOL     OW32971   0.582   1.119   2.604  0.2105  0.0394  0.5487
 7170SOL    HW132972   0.607   1.038   2.560  0.7857  0.5039  0.0166
 7170SOL    HW232973   0.566   1.168   2.523  0.4432  1.3362  1.2936
 7171SOL     OW32974   0.571   2.275   2.003 -0.1747  0.0653  0.4454
 7171SOL    HW132975   0.638   2.310   2.061 -0.1897  0.3017  0.3208
 7171SOL    HW232976   0.497   2.307   2.054 -1.2798 -0.8913 -0.5324
 7172SOL     OW32977   4.611   1.983   3.844 -0.4036 -0.2519  0.1618
 7172SOL    HW132978   4.607   1.888   3.855  0.2745 -0.5965 -2.4122
 7172SOL    HW232979   4.649   2.005   3.928 -0.2250 -0.5392  0.1587
 7173SOL     OW32980   3.798   1.070  10.720  0.4835  0.2060 -0.1369
 7173SOL    HW132981   3.747   1.008  10.773 -3.0459  3.8001  0.6713
 7173SOL    HW232982   3.871   1.011  10.700  0.3394  0.0763 -0.2813
 7174SOL     OW32983   3.720   0.163   0.669  0.4428  0.3987  0.1448
 7174SOL    HW132984   3.764   0.078   0.676 -2.1788 -0.8938  0.7134
 7174SOL    HW232985   3.775   0.218   0.726  1.1298 -0.0622 -0.0767
 7175SOL     OW32986   2.491   1.783   2.083 -0.6148  0.0875 -0.3663
 7175SOL    HW132987   2.396   1.795   2.089 -0.6447  0.3647 -1.4774
 7175SOL    HW232988   2.511   1.850   2.149 -1.1136 -0.3520  0.2318
 7176SOL     OW32989   2.374   3.807   2.277 -0.0224 -0.2987  0.2602
 7176SOL    HW132990   2.466   3.798   2.300 -0.0614  2.3588  1.4381
 7176SOL    HW232991   2.365   3.876   2.211 -1.0132  0.4649  1.1963
 7177SOL     OW32992   2.401   2.123   8.016 -0.1773  0.1095  0.7070
 7177SOL    HW132993   2.353   2.179   7.955 -0.8606  1.9191  2.9000
 7177SOL    HW232994   2.481   2.173   8.032 -1.0080  1.6385  0.0813
 7178SOL     OW32995   2.124   4.639   3.994 -0.0187  0.4700 -0.9690
 7178SOL    HW132996   2.182   4.633   4.070  1.3470  1.7240 -1.9088
 7178SOL    HW232997   2.098   4.551   3.969 -1.7743  0.2360  1.6653
 7179SOL     OW32998   2.932   2.803   8.271  0.3114 -0.1826 -0.3950
 7179SOL    HW132999   2.930   2.821   8.365  0.4067  1.7516 -0.7631
 7179SOL    HW233000   3.008   2.745   8.261  0.8230  0.6188 -1.1724
 7180SOL     OW33001   2.189   2.843  12.396 -0.3322 -0.2687 -0.1795
 7180SOL    HW133002   2.125   2.878  12.334  0.1921  0.5999 -0.2333
 7180SOL    HW233003   2.141   2.836  12.478 -1.0196 -0.4245 -0.5985
 7181SOL     OW33004   0.704   4.525  11.070 -0.4568 -0.3022  0.4935
 7181SOL    HW133005   0.692   4.430  11.066  0.7844 -0.3407 -2.7457
 7181SOL    HW233006   0.795   4.534  11.042 -1.0575  0.6323 -1.1402
 7182SOL     OW33007   3.883   0.874  12.424  0.2726 -0.4393  0.3389
 7182SOL    HW133008   3.963   0.879  12.476 -0.4897 -0.0425  1.4628
 7182SOL    HW233009   3.912   0.805  12.363  0.9000 -0.8022  1.0379
 7183SOL     OW33010   0.258   3.892   5.578  0.3649 -1.0898  0.7160
 7183SOL    HW133011   0.198   3.943   5.524  2.1227  1.6848  1.3271
 7183SOL    HW233012   0.279   3.956   5.647  0.4680  0.1267 -0.4541
 7184SOL     OW33013   3.065   1.450   6.480  0.1427 -0.4791  0.0285
 7184SOL    HW133014   3.142   1.405   6.444  0.8699  0.4317  0.4509
 7184SOL    HW233015   3.079   1.451   6.574 -1.2879  2.5094  0.1877
 7185SOL     OW33016   2.452   0.771   4.690 -0.3845  0.3324  0.0764
 7185SOL    HW133017   2.412   0.717   4.758 -0.4971  1.0540  0.5859
 7185SOL    HW233018   2.481   0.705   4.627  2.3035  1.6971 -0.0813
 7186SOL     OW33019   2.787   3.104   2.735  0.0583 -0.6578 -0.2796
 7186SOL    HW133020   2.754   3.191   2.713  1.9780 -0.8340 -3.9124
 7186SOL    HW233021   2.757   3.078   2.822 -0.9278 -2.6236 -1.2013
 7187SOL     OW33022   2.922   3.522   9.373 -0.0740  0.8232  0.4721
 7187SOL    HW133023   2.831   3.552   9.382  0.8612  3.2257  1.8252
 7187SOL    HW233024   2.938   3.475   9.455  2.5786 -0.8337 -1.0031
 7188SOL     OW33025   0.303   4.509  14.501 -0.1454 -0.5522  0.1530
 7188SOL    HW133026   0.258   4.499  14.584  0.3088 -0.9676  0.3470
 7188SOL    HW233027   0.265   4.586  14.458  1.2896  0.0003 -0.1352
 7189SOL     OW33028   0.523   3.811  10.301  0.4763  0.4277  0.1772
 7189SOL    HW133029   0.458   3.782  10.365 -0.7158  1.5096 -0.5560
 7189SOL    HW233030   0.564   3.725  10.287 -1.3627 -0.1113 -1.7374
 7190SOL     OW33031   3.753   3.833   7.257 -0.0211  0.1620  0.4273
 7190SOL    HW133032   3.838   3.808   7.293  1.0527  2.0534 -0.7364
 7190SOL    HW233033   3.781   3.879   7.178 -0.6878  0.0977  0.1584
 7191SOL     OW33034   4.450   0.180   4.971 -0.2436 -0.0134 -0.0133
 7191SOL    HW133035   4.464   0.194   5.065  0.9111  1.1112 -0.3433
 7191SOL    HW233036   4.420   0.269   4.949  0.4698  0.0484 -0.7307
 7192SOL     OW33037   2.323   1.269  11.861  0.4621  0.2977 -0.3166
 7192SOL    HW133038   2.405   1.230  11.889 -0.8627 -0.7929  2.0070
 7192SOL    HW233039   2.256   1.205  11.883  0.5463  0.7218  1.1864
 7193SOL     OW33040   2.127   1.397  17.296  0.7305  0.2824 -0.0172
 7193SOL    HW133041   2.161   1.322  17.247  3.9253  0.0657  2.5791
 7193SOL    HW233042   2.174   1.391  17.379  0.6626  2.5849  0.2007
 7194SOL     OW33043   3.800   0.622  13.332  0.0740 -0.6971 -0.3535
 7194SOL    HW133044   3.812   0.642  13.239  0.8002  2.3160  0.3964
 7194SOL    HW233045   3.708   0.599  13.340 -0.0110 -0.2904 -0.2023
 7195SOL     OW33046   2.664   3.534  15.896  0.8424  0.0340  0.0969
 7195SOL    HW133047   2.676   3.481  15.975 -2.4975 -0.0268  0.5798
 7195SOL    HW233048   2.589   3.587  15.923 -0.1595 -0.5600 -1.5080
 7196SOL     OW33049   4.431   0.877  12.150 -0.4049  0.1459  0.4322
 7196SOL    HW133050   4.506   0.910  12.199  0.9273  1.0159 -2.1761
 7196SOL    HW233051   4.426   0.791  12.193  1.5575  0.4300  1.2368
 7197SOL     OW33052   3.855   3.609  15.707  0.1661  0.7015 -0.2315
 7197SOL    HW133053   3.863   3.519  15.674 -0.6162  0.4423  0.2917
 7197SOL    HW233054   3.772   3.606  15.754 -0.5817 -1.1229 -1.6271
 7198SOL     OW33055   3.818   4.553   2.037 -0.1594  0.0025  0.0269
 7198SOL    HW133056   3.724   4.535   2.031 -0.2959  1.6549 -3.0438
 7198SOL    HW233057   3.811   4.642   2.003  0.2165 -0.0461 -0.1705
 7199SOL     OW33058   2.731   4.227   4.574 -0.1887  0.2731 -1.2476
 7199SOL    HW133059   2.705   4.306   4.526 -0.1275  1.4493  0.6471
 7199SOL    HW233060   2.644   4.196   4.595  0.3982  0.4745  1.5395
 7200SOL     OW33061   3.494   3.794   5.071  0.2180  0.4514 -0.1904
 7200SOL    HW133062   3.505   3.708   5.030 -1.9247  1.1410 -2.2172
 7200SOL    HW233063   3.585   3.814   5.092  0.2864 -2.1332  1.9659
 7201SOL     OW33064   4.255   0.907  14.194 -0.1316  0.2481  0.1092
 7201SOL    HW133065   4.212   0.889  14.110 -2.8356  0.3512  1.4903
 7201SOL    HW233066   4.340   0.863  14.188 -1.2184 -1.4845 -2.6488
 7202SOL     OW33067   4.355   2.919   3.905 -0.1281 -0.4665 -0.0774
 7202SOL    HW133068   4.427   2.963   3.860  0.0985 -0.7662 -0.0148
 7202SOL    HW233069   4.308   2.876   3.833  0.3331 -0.0806 -0.6136
 7203SOL     OW33070   1.572   0.140   2.928  0.0660 -0.0910 -0.4004
 7203SOL    HW133071   1.665   0.117   2.931  0.1446  0.0590 -1.7701
 7203SOL    HW233072   1.530   0.077   2.869  0.5039 -1.3424  0.6188
 7204SOL     OW33073   3.779   1.617   0.672 -0.1152  0.2593 -0.6124
 7204SOL    HW133074   3.730   1.548   0.628 -3.5821  2.1598  0.2874
 7204SOL    HW233075   3.829   1.572   0.740 -0.7493  1.8539  0.9111
 7205SOL     OW33076   3.914   0.782   8.388 -0.3854 -0.0857 -0.1406
 7205SOL    HW133077   3.946   0.692   8.375  0.7950 -0.1165  2.9963
 7205SOL    HW233078   3.874   0.793   8.301 -2.7587 -0.2274  0.9430
 7206SOL     OW33079   4.456   0.204   7.311 -0.0321 -0.6226 -0.0455
 7206SOL    HW133080   4.534   0.161   7.344  0.1170  0.4293  0.9395
 7206SOL    HW233081   4.454   0.276   7.373  0.9963  0.5280 -1.3536
 7207SOL     OW33082   3.056   2.455   9.822 -0.0357 -0.3896  0.2668
 7207SOL    HW133083   2.961   2.442   9.824 -0.0092 -0.6668 -0.4809
 7207SOL    HW233084   3.088   2.365   9.824 -0.2416 -0.4790 -0.5286
 7208SOL     OW33085   2.118   0.193   4.011  0.1093 -0.4350  0.3084
 7208SOL    HW133086   2.124   0.113   3.960 -0.7618 -0.0453 -0.4005
 7208SOL    HW233087   2.031   0.175   4.048 -0.0414  1.5498  0.9061
 7209SOL     OW33088   3.272   0.334   4.104 -0.3264  0.0530  0.2416
 7209SOL    HW133089   3.347   0.346   4.046 -0.6887  0.1663 -0.1994
 7209SOL    HW233090   3.208   0.393   4.064 -0.7475 -0.9352 -0.5331
 7210SOL     OW33091   1.835   4.090   8.547 -0.5952  0.0009 -0.1643
 7210SOL    HW133092   1.921   4.131   8.537 -0.0300 -1.3753 -0.9943
 7210SOL    HW233093   1.795   4.113   8.463  0.3938 -0.1898 -0.6886
 7211SOL     OW33094   2.637   3.344   2.746  0.3746 -0.2485 -0.8767
 7211SOL    HW133095   2.546   3.374   2.737 -0.3398 -2.4036 -0.9438
 7211SOL    HW233096   2.639   3.309   2.835 -2.6856  0.8566 -0.3648
 7212SOL     OW33097   1.344   0.204  11.017 -0.1591  0.1780  0.3891
 7212SOL    HW133098   1.316   0.119  10.986  1.5121 -0.3669  0.3574
 7212SOL    HW233099   1.381   0.240  10.936 -1.6285  0.2400 -0.2391
 7213SOL     OW33100   2.466   1.414   8.392 -1.0492 -0.5535 -1.0645
 7213SOL    HW133101   2.520   1.380   8.321  2.2309 -1.0484  1.6782
 7213SOL    HW233102   2.378   1.424   8.356 -0.6884  0.9241 -1.5633
 7214SOL     OW33103   1.059   2.829  11.242  0.4137 -0.5106  0.1957
 7214SOL    HW133104   1.024   2.915  11.264  2.6022  0.5624 -0.4197
 7214SOL    HW233105   0.980   2.787  11.209 -0.2886  1.4614 -0.6049
 7215SOL     OW33106   0.047   2.526  14.731 -0.4522  0.0505  0.6717
 7215SOL    HW133107   4.705   2.461  14.757 -1.8198  0.6329 -1.3295
 7215SOL    HW233108   0.127   2.473  14.738  0.4884  1.3890  0.1079
 7216SOL     OW33109   1.746   3.945   5.317 -0.6034 -0.6541  0.2896
 7216SOL    HW133110   1.734   4.033   5.282 -0.6592 -0.3377  1.1112
 7216SOL    HW233111   1.762   3.893   5.238 -1.4705  0.4152 -0.5781
 7217SOL     OW33112   3.714   0.717   4.330  0.0148 -0.1230  0.5738
 7217SOL    HW133113   3.652   0.649   4.357  1.2804 -1.6174 -0.3196
 7217SOL    HW233114   3.740   0.746   4.418  0.5932  0.7477  0.1081
 7218SOL     OW33115   3.077   4.422  14.033 -0.2403 -0.5032 -0.0078
 7218SOL    HW133116   3.039   4.468  13.958  0.2377 -0.0681  0.0167
 7218SOL    HW233117   3.014   4.441  14.102  0.2762  0.0525  0.3128
 7219SOL     OW33118   3.970   4.252   5.619  0.1952  0.0580  0.3355
 7219SOL    HW133119   3.944   4.188   5.686 -0.4406  0.1210  0.1436
 7219SOL    HW233120   4.031   4.192   5.575 -1.7160 -1.4107 -0.3230
 7220SOL     OW33121   4.642   2.756   6.406  0.0247 -0.7166  0.4777
 7220SOL    HW133122   4.637   2.834   6.350  2.4655 -0.3513  0.8070
 7220SOL    HW233123   4.699   2.699   6.355  1.9969  0.8192  0.9623
 7221SOL     OW33124   0.933   0.035   8.415  0.5773 -0.0186  0.1089
 7221SOL    HW133125   0.895   0.088   8.345 -1.4582  0.0914  1.3128
 7221SOL    HW233126   0.920   4.668   8.389  0.0985  0.2517 -0.5998
 7222SOL     OW33127   1.486   2.511  15.453  0.1654  0.0721  0.0687
 7222SOL    HW133128   1.548   2.441  15.470  0.1540 -0.2885 -1.3127
 7222SOL    HW233129   1.415   2.501  15.516  1.3765 -1.0407  1.2507
 7223SOL     OW33130   1.926   2.167   8.208 -0.1897  0.2800 -0.1127
 7223SOL    HW133131   1.909   2.255   8.242  0.8708  0.5256 -0.2014
 7223SOL    HW233132   1.838   2.138   8.187  0.0373 -1.7733  1.8207
 7224SOL     OW33133   1.751   1.053   8.007  0.6253 -0.0038  0.2000
 7224SOL    HW133134   1.732   1.136   7.963  0.1383 -1.2216 -1.9064
 7224SOL    HW233135   1.674   1.046   8.063 -0.0065 -0.9056 -0.7881
 7225SOL     OW33136   1.715   2.992   0.569  0.0445 -0.0079 -0.5564
 7225SOL    HW133137   1.684   2.901   0.571 -0.3922  0.1462 -0.3269
 7225SOL    HW233138   1.645   3.011   0.507 -1.6146 -2.7842  0.4360
 7226SOL     OW33139   4.060   0.670   8.068 -0.4153 -0.3056 -0.0198
 7226SOL    HW133140   3.985   0.724   8.093 -0.8828 -1.8767  1.9433
 7226SOL    HW233141   4.119   0.736   8.031  2.3624 -3.6108 -1.5203
 7227SOL     OW33142   4.603   0.968   6.129  0.7093  0.4649 -0.3116
 7227SOL    HW133143   4.577   1.059   6.139 -1.4009 -0.1270 -0.3926
 7227SOL    HW233144   4.574   0.941   6.217 -1.9967 -0.1749 -1.3920
 7228SOL     OW33145   2.558   2.004   1.355 -0.4995 -0.3362 -0.0822
 7228SOL    HW133146   2.565   2.086   1.307  1.6179 -0.4036  0.0774
 7228SOL    HW233147   2.569   1.942   1.282  0.8663 -0.0102 -0.1632
 7229SOL     OW33148   0.696   0.086   3.709  0.9667  0.1194  0.1333
 7229SOL    HW133149   0.763   0.146   3.678 -0.4437  0.7714 -1.6021
 7229SOL    HW233150   0.653   0.078   3.625 -0.7748  0.3014  1.0194
 7230SOL     OW33151   2.687   2.149   0.697  0.2060  0.0388  0.2520
 7230SOL    HW133152   2.763   2.207   0.703  0.0170  0.1677  1.6103
 7230SOL    HW233153   2.643   2.182   0.619 -1.7039 -2.1278  0.3948
 7231SOL     OW33154   2.781   0.600   5.792  0.3580 -0.1934 -0.0660
 7231SOL    HW133155   2.806   0.508   5.799 -1.2810 -0.7216 -1.1496
 7231SOL    HW233156   2.819   0.628   5.875 -0.7194 -0.3209  0.4677
 7232SOL     OW33157   3.594   4.092  15.098  0.1396 -0.1590 -0.2957
 7232SOL    HW133158   3.564   4.108  15.008  0.7473 -0.3222 -0.5240
 7232SOL    HW233159   3.541   4.149  15.154  0.2241 -4.0514  3.7635
 7233SOL     OW33160   3.499   3.380  15.645 -0.0642  0.6308 -0.3091
 7233SOL    HW133161   3.524   3.421  15.727  1.4387 -0.3369 -0.2870
 7233SOL    HW233162   3.485   3.448  15.579 -0.8839 -0.0003 -0.7911
 7234SOL     OW33163   1.800   0.773   5.546  0.5312 -1.4307 -0.3668
 7234SOL    HW133164   1.856   0.703   5.579  0.2838 -0.5766  1.8168
 7234SOL    HW233165   1.750   0.716   5.487  0.2746 -1.3131 -0.2666
 7235SOL     OW33166   1.085   4.632   3.701  0.1416  0.2776 -0.6320
 7235SOL    HW133167   1.035   4.579   3.763 -1.4281  2.2010 -0.2631
 7235SOL    HW233168   1.080   4.722   3.732  2.0570 -0.2936  1.3212
 7236SOL     OW33169   3.224   0.220   2.500 -0.3086 -0.1438  0.1929
 7236SOL    HW133170   3.266   0.264   2.426 -1.8927 -0.4668 -0.9133
 7236SOL    HW233171   3.193   0.288   2.560  0.9637  0.3817  0.2356
 7237SOL     OW33172   0.024   2.654  16.748 -0.2615 -0.4960  0.2359
 7237SOL    HW133173   4.669   2.699  16.777  0.3541  1.8498 -1.7571
 7237SOL    HW233174   0.033   2.678  16.656  1.0261  4.4368  1.6436
 7238SOL     OW33175   2.968   1.004   2.175 -0.3624 -0.4365  0.0669
 7238SOL    HW133176   3.054   1.044   2.189 -0.0833 -0.7614 -0.6784
 7238SOL    HW233177   2.916   1.075   2.138  1.3587 -0.0618 -1.6332
 7239SOL     OW33178   0.319   3.858   2.536 -0.0300  0.3672  0.1092
 7239SOL    HW133179   0.355   3.916   2.470  1.7181  0.0769  0.8216
 7239SOL    HW233180   0.232   3.896   2.549  0.3421  0.7803  1.4038
 7240SOL     OW33181   3.199   3.917   0.882  0.2079 -0.4206  0.4087
 7240SOL    HW133182   3.187   3.931   0.788 -0.6023  0.2888  0.6194
 7240SOL    HW233183   3.270   3.976   0.904  0.5437 -0.0162 -1.7106
 7241SOL     OW33184   0.903   3.835  10.021  0.4248 -0.3168 -0.4495
 7241SOL    HW133185   0.882   3.884  10.101  0.1443 -0.5509 -0.3775
 7241SOL    HW233186   0.907   3.905   9.956 -1.4269 -1.3087 -1.6312
 7242SOL     OW33187   1.354   3.319   1.753 -0.4052  0.2073 -0.0299
 7242SOL    HW133188   1.384   3.313   1.663  2.3369 -3.1016  1.0991
 7242SOL    HW233189   1.280   3.258   1.747 -0.3412  0.2225 -0.8913
 7243SOL     OW33190   1.977   1.219  13.640 -0.1786  0.1554 -0.3699
 7243SOL    HW133191   1.910   1.243  13.576 -1.8067 -0.4961  1.0958
 7243SOL    HW233192   2.054   1.207  13.584  0.0943 -1.7015  0.4056
 7244SOL     OW33193   1.022   2.888   5.868  0.1438  0.6014  0.4888
 7244SOL    HW133194   1.056   2.977   5.882 -0.6726  0.9147  0.4951
 7244SOL    HW233195   1.077   2.834   5.925  1.0186  2.0700  1.0362
 7245SOL     OW33196   3.245   3.988  11.867 -0.0240  0.1268 -0.4103
 7245SOL    HW133197   3.331   4.002  11.828  0.3464 -2.2007 -0.3889
 7245SOL    HW233198   3.208   3.902  11.848  0.2166 -0.2600  0.9169
 7246SOL     OW33199   3.272   3.813   7.339 -0.1613 -0.1884 -0.0218
 7246SOL    HW133200   3.287   3.812   7.245  0.2531  0.8709  0.0270
 7246SOL    HW233201   3.239   3.901   7.361 -1.3351 -0.6309  0.0053
 7247SOL     OW33202   4.454   1.688   3.919  0.5275  0.1005 -0.3887
 7247SOL    HW133203   4.395   1.761   3.900  0.0896  0.0824  0.8896
 7247SOL    HW233204   4.425   1.663   4.006 -0.8904  0.5691 -0.7330
 7248SOL     OW33205   0.501   0.109   4.979  0.3958 -0.2408  0.0542
 7248SOL    HW133206   0.573   0.051   5.005  0.4997 -0.3669 -0.5319
 7248SOL    HW233207   0.428   0.049   4.968  0.7761 -0.8319  0.7768
 7249SOL     OW33208   2.125   3.199   6.074  0.2943 -0.3254 -0.0927
 7249SOL    HW133209   2.167   3.219   6.158 -0.9576  0.4979  0.3363
 7249SOL    HW233210   2.138   3.291   6.050  3.1855 -0.3630  1.2726
 7250SOL     OW33211   0.112   3.697  11.417  0.4557 -0.4130 -0.4167
 7250SOL    HW133212   0.201   3.710  11.383 -0.0347  0.9627 -1.1975
 7250SOL    HW233213   0.056   3.747  11.357 -0.0761 -1.8915 -1.1453
 7251SOL     OW33214   0.559   3.263   3.457 -0.1391 -0.4027  0.0262
 7251SOL    HW133215   0.632   3.238   3.400  0.2567 -0.2250  0.4567
 7251SOL    HW233216   0.596   3.231   3.539  0.2966  0.6286  0.2222
 7252SOL     OW33217   3.335   2.247   8.459 -0.2376  0.7356  0.2069
 7252SOL    HW133218   3.400   2.199   8.510 -0.4549 -0.2532 -0.4269
 7252SOL    HW233219   3.286   2.276   8.535  1.6461  1.5299  1.1020
 7253SOL     OW33220   3.927   4.681   7.579  0.0176  0.5300 -0.2762
 7253SOL    HW133221   4.007   4.652   7.536 -0.5564  0.5258 -1.3351
 7253SOL    HW233222   3.947   4.672   7.673 -0.8183  1.0920 -0.0421
 7254SOL     OW33223   1.539   2.860   5.611 -0.0054 -0.0656  0.3158
 7254SOL    HW133224   1.557   2.925   5.543  0.6475 -1.6461 -1.0433
 7254SOL    HW233225   1.631   2.838   5.626 -0.3321 -1.5055  0.2787
 7255SOL     OW33226   3.650   1.801  14.143  0.0881  0.3208  0.0939
 7255SOL    HW133227   3.699   1.883  14.145  0.9471 -0.1811 -0.3313
 7255SOL    HW233228   3.598   1.810  14.063 -0.4390  2.1193  0.6281
 7256SOL     OW33229   2.672   0.165   1.833 -0.1738 -0.0602  0.1307
 7256SOL    HW133230   2.659   0.095   1.897  0.7973 -0.3627 -0.0009
 7256SOL    HW233231   2.663   0.239   1.893  1.0614 -0.9033  1.3586
 7257SOL     OW33232   0.420   2.946   3.002 -0.5462 -0.1380 -0.2620
 7257SOL    HW133233   0.448   2.974   2.914 -0.7578 -0.4832 -0.4371
 7257SOL    HW233234   0.452   3.012   3.063 -1.6727  1.4721 -1.3983
 7258SOL     OW33235   0.045   1.189   6.611  0.2435  0.4686 -0.0100
 7258SOL    HW133236   0.078   1.269   6.652  1.5629 -1.6615  3.1004
 7258SOL    HW233237   4.683   1.208   6.648  1.0654 -0.0296  2.1849
 7259SOL     OW33238   4.517   2.915   9.348  0.1259  0.1057 -0.4255
 7259SOL    HW133239   4.501   2.839   9.404 -1.2090  0.5519 -0.1817
 7259SOL    HW233240   4.460   2.894   9.273  0.4762  0.0123 -0.6658
 7260SOL     OW33241   3.509   0.053  15.328  0.0246 -0.5358  0.3336
 7260SOL    HW133242   3.428   0.024  15.286 -0.8775  1.0337  0.9798
 7260SOL    HW233243   3.573   0.022  15.264 -2.0801  1.9627 -3.0057
 7261SOL     OW33244   1.607   2.451   7.692 -0.5144  0.4684 -0.3523
 7261SOL    HW133245   1.561   2.475   7.772  0.0790 -2.1201  0.7471
 7261SOL    HW233246   1.538   2.395   7.656  0.7926 -1.0351 -0.4932
 7262SOL     OW33247   3.665   3.680  10.407 -0.5722  0.4322  0.6067
 7262SOL    HW133248   3.647   3.655  10.498  0.6530 -4.8338 -0.6245
 7262SOL    HW233249   3.746   3.731  10.412 -1.9671  2.8534 -1.1176
 7263SOL     OW33250   0.517   0.661   5.004 -0.2096  0.1792 -0.7573
 7263SOL    HW133251   0.580   0.614   5.058 -0.0185  1.3449  0.0375
 7263SOL    HW233252   0.484   0.587   4.954  0.7631  0.2201 -1.4577
 7264SOL     OW33253   0.218   0.061   6.197  0.5085  0.1242 -0.3688
 7264SOL    HW133254   0.213   4.699   6.240 -0.5976 -0.6399 -2.0488
 7264SOL    HW233255   0.261   0.041   6.114  0.3327 -2.7600  0.2568
 7265SOL     OW33256   1.594   1.061  10.937 -0.3293 -0.2669  0.0707
 7265SOL    HW133257   1.532   1.007  10.889  2.1787 -1.9112 -1.3375
 7265SOL    HW233258   1.582   1.144  10.893 -2.1089 -0.3736  0.3748
 7266SOL     OW33259   0.515   1.758   7.014 -0.4859 -0.0769 -0.0893
 7266SOL    HW133260   0.518   1.847   6.980 -1.3464 -0.1045 -0.2343
 7266SOL    HW233261   0.534   1.776   7.106  1.4274  0.6354 -0.6194
 7267SOL     OW33262   2.139   2.847  11.563  0.3924 -0.2748  0.0303
 7267SOL    HW133263   2.117   2.922  11.509  1.8139  0.3819  0.3490
 7267SOL    HW233264   2.065   2.787  11.554 -0.1778 -0.0251  2.9300
 7268SOL     OW33265   2.449   4.160  11.157  0.0328 -0.0126 -0.1060
 7268SOL    HW133266   2.381   4.093  11.157 -0.1764  0.1907 -1.8070
 7268SOL    HW233267   2.429   4.199  11.071 -0.2930  2.8394  1.2526
 7269SOL     OW33268   3.185   3.896   2.909  0.0352  0.3860 -0.2712
 7269SOL    HW133269   3.177   3.972   2.967 -3.4729 -2.3960  2.8846
 7269SOL    HW233270   3.279   3.909   2.900  0.1255 -0.4111 -0.4795
 7270SOL     OW33271   2.447   0.652  15.632  0.1167  0.1079  0.1287
 7270SOL    HW133272   2.434   0.597  15.555 -0.0883  2.1517 -1.3144
 7270SOL    HW233273   2.378   0.618  15.689  0.1264  0.8573  0.5914
 7271SOL     OW33274   2.628   3.414  16.422  0.5441  0.2057 -0.6398
 7271SOL    HW133275   2.573   3.414  16.500 -0.4916 -1.3057 -1.3657
 7271SOL    HW233276   2.713   3.412  16.467  1.1228  1.4757 -1.6645
 7272SOL     OW33277   1.924   0.674  12.893  0.6171  0.3745  0.1031
 7272SOL    HW133278   2.018   0.671  12.873  0.5979  1.0453 -0.0569
 7272SOL    HW233279   1.921   0.737  12.964  0.9527  0.5334 -0.0243
 7273SOL     OW33280   1.621   2.329  15.635  0.6240  0.3486  0.1039
 7273SOL    HW133281   1.691   2.334  15.701 -0.4246 -0.7029  1.3066
 7273SOL    HW233282   1.612   2.234  15.637 -0.4666  0.4505  0.3849
 7274SOL     OW33283   1.866   3.110  12.748 -0.2508  0.1981  0.1488
 7274SOL    HW133284   1.865   3.016  12.768 -1.1778 -0.0242 -0.9514
 7274SOL    HW233285   1.775   3.133  12.765  0.0657  0.4966  1.4741
 7275SOL     OW33286   2.480   3.694  16.199  0.1841  0.3216 -0.2729
 7275SOL    HW133287   2.532   3.620  16.229 -1.4952 -0.7370  0.0702
 7275SOL    HW233288   2.467   3.747  16.277 -2.6857 -2.2390  0.9794
 7276SOL     OW33289   2.175   3.733   2.731 -0.4438 -0.2256 -0.0752
 7276SOL    HW133290   2.204   3.821   2.709 -1.8512  0.6066  1.3944
 7276SOL    HW233291   2.219   3.681   2.664  0.7321  0.6517  0.0287
 7277SOL     OW33292   3.524   3.013   5.665  0.4517  0.2252  0.2600
 7277SOL    HW133293   3.613   3.028   5.698  0.0834 -1.0065  1.7376
 7277SOL    HW233294   3.533   3.046   5.575 -3.7127  0.8665  0.0832
 7278SOL     OW33295   0.489   4.507   8.498  0.0113  0.2037 -0.0532
 7278SOL    HW133296   0.480   4.603   8.499  3.0987  0.4667  0.4906
 7278SOL    HW233297   0.542   4.483   8.422  2.2312  1.9520  0.9398
 7279SOL     OW33298   0.633   3.116   4.192 -0.2997 -0.0324  0.8492
 7279SOL    HW133299   0.564   3.071   4.145 -0.1188  2.2323 -1.6221
 7279SOL    HW233300   0.657   3.184   4.129 -1.0426 -0.4531  0.1244
 7280SOL     OW33301   4.087   4.024  14.339 -0.4746 -0.3966 -0.7781
 7280SOL    HW133302   4.053   3.935  14.332 -1.4290 -0.0056 -1.1281
 7280SOL    HW233303   4.071   4.048  14.430 -0.7284  1.7569 -1.3971
 7281SOL     OW33304   1.977   2.955  10.586  0.0580  0.2091  0.3182
 7281SOL    HW133305   1.902   3.003  10.620 -0.9831 -0.6043 -0.8379
 7281SOL    HW233306   2.049   3.001  10.629  1.3928  0.3489 -2.0367
 7282SOL     OW33307   0.483   2.282  14.130  0.3176 -0.3227 -0.7134
 7282SOL    HW133308   0.520   2.356  14.177  0.1422  0.4346 -1.7557
 7282SOL    HW233309   0.484   2.213  14.196  1.3276  1.8137  1.4663
 7283SOL     OW33310   2.952   4.524  13.818 -0.3375  0.4236 -0.0968
 7283SOL    HW133311   2.926   4.432  13.824 -0.7844  0.6219  1.0064
 7283SOL    HW233312   3.022   4.514  13.754 -1.7065 -1.8353 -1.2802
 7284SOL     OW33313   0.690   0.802   8.134 -0.3718 -0.2575  0.2704
 7284SOL    HW133314   0.726   0.727   8.183  0.0190  0.1032  0.5352
 7284SOL    HW233315   0.753   0.873   8.145 -0.1348 -0.5494  0.8330
 7285SOL     OW33316   0.341   1.104  14.636  0.2413 -0.4370 -0.3190
 7285SOL    HW133317   0.420   1.157  14.627 -0.5326  0.7776 -0.0687
 7285SOL    HW233318   0.297   1.128  14.555 -3.0358  0.9764  1.8804
 7286SOL     OW33319   0.132   0.459   6.240  0.2440  0.1440  0.1751
 7286SOL    HW133320   0.180   0.438   6.160  1.2537 -0.5603  0.9644
 7286SOL    HW233321   0.098   0.545   6.217 -0.1747 -0.7540 -2.4736
 7287SOL     OW33322   2.264   3.020  10.411  0.0669  0.1151  0.3401
 7287SOL    HW133323   2.228   3.061  10.490  1.3140 -1.4977  1.7643
 7287SOL    HW233324   2.291   3.094  10.356 -0.7770 -0.7983 -1.2830
 7288SOL     OW33325   1.680   2.084   8.108 -0.4857 -0.1736  0.4103
 7288SOL    HW133326   1.640   1.999   8.126 -2.4780  0.9360  1.2720
 7288SOL    HW233327   1.606   2.143   8.094 -0.5256 -0.2346  0.3602
 7289SOL     OW33328   2.411   0.916  16.055 -0.4403 -0.0648  0.2527
 7289SOL    HW133329   2.319   0.901  16.076 -0.7275  1.7081  0.2731
 7289SOL    HW233330   2.413   1.011  16.064  2.2148  0.0434 -1.6492
 7290SOL     OW33331   2.915   2.762  12.978  0.2766  0.0554  0.4220
 7290SOL    HW133332   2.929   2.848  12.940 -1.1006  0.3186  0.5411
 7290SOL    HW233333   2.908   2.708  12.899  1.2007 -2.4413  2.0254
 7291SOL     OW33334   4.281   4.394   3.327 -0.0945  0.1572  0.0593
 7291SOL    HW133335   4.236   4.332   3.269  1.2965 -1.9466  1.2688
 7291SOL    HW233336   4.317   4.456   3.263 -1.4557  0.3083 -0.5625
 7292SOL     OW33337   4.667   1.559   2.998 -0.2677 -0.4098 -0.8207
 7292SOL    HW133338   4.662   1.544   2.903 -1.3435  2.1900 -1.1832
 7292SOL    HW233339   4.598   1.500   3.027  1.4994 -1.8158  0.5091
 7293SOL     OW33340   2.232   4.383  11.099  0.2184  0.1140  0.8912
 7293SOL    HW133341   2.216   4.437  11.177 -2.9304  0.7041 -0.1667
 7293SOL    HW233342   2.316   4.421  11.076  0.2328 -0.0270  0.7095
 7294SOL     OW33343   3.953   0.056   2.928  0.0730  0.6947  0.3003
 7294SOL    HW133344   4.030   0.090   2.974  0.4159  0.6358 -0.2254
 7294SOL    HW233345   3.999   0.029   2.848  0.0516  1.0941  0.1517
 7295SOL     OW33346   0.545   0.919   9.604  0.3591  0.1824  0.3478
 7295SOL    HW133347   0.622   0.897   9.551  0.0766 -0.1350  0.0723
 7295SOL    HW233348   0.527   1.006   9.570  1.3582 -0.2425 -1.2490
 7296SOL     OW33349   2.842   4.450   5.223  0.8089  0.2366 -0.0074
 7296SOL    HW133350   2.882   4.363   5.225 -1.0118 -0.5241  2.3667
 7296SOL    HW233351   2.788   4.457   5.144 -0.2412 -1.6732  0.5343
 7297SOL     OW33352   1.112   4.677   0.139  0.4675  0.0266  0.4354
 7297SOL    HW133353   1.020   4.694   0.158  0.1904  0.1237 -1.0245
 7297SOL    HW233354   1.147   0.024   0.193 -0.5312 -0.6893  2.0242
 7298SOL     OW33355   3.333   2.444   0.333  0.0739 -0.2849  0.5261
 7298SOL    HW133356   3.287   2.372   0.376  0.8745 -1.6233 -0.8729
 7298SOL    HW233357   3.371   2.398   0.258 -0.5877 -1.6565  1.0294
 7299SOL     OW33358   2.822   3.167   1.639  0.3132 -0.3478  0.0786
 7299SOL    HW133359   2.824   3.186   1.733 -1.7584 -1.7269  0.3924
 7299SOL    HW233360   2.740   3.119   1.649 -0.6470  1.4231  0.7798
 7300SOL     OW33361   3.766   0.087   1.989  0.2260 -0.1046  0.0071
 7300SOL    HW133362   3.684   0.098   2.036 -0.5538  0.3835 -1.4870
 7300SOL    HW233363   3.757   0.146   1.914 -0.2019  0.3935  0.4595
 7301SOL     OW33364   4.088   4.693  10.806 -0.5813  0.5388  0.0173
 7301SOL    HW133365   4.166   0.022  10.820 -0.4909  0.2518  0.5963
 7301SOL    HW233366   4.061   0.010  10.724  0.8414 -1.1089 -1.2558
 7302SOL     OW33367   2.953   0.825   8.062  0.2922  0.3544 -0.1483
 7302SOL    HW133368   2.978   0.830   7.970  1.5101  0.0183  0.1679
 7302SOL    HW233369   2.857   0.835   8.064  0.1406 -0.6792 -1.8738
 7303SOL     OW33370   0.105   1.621   0.914 -0.4397  0.2804  0.0675
 7303SOL    HW133371   0.151   1.539   0.896  1.1093  1.0930  0.3942
 7303SOL    HW233372   0.016   1.594   0.892 -0.6428  1.8987 -1.1256
 7304SOL     OW33373   1.793   2.873  13.616 -0.0198  0.2272 -0.0865
 7304SOL    HW133374   1.765   2.920  13.538 -0.9474  0.0388  0.1332
 7304SOL    HW233375   1.818   2.789  13.578  0.2885  0.9419 -1.4479
 7305SOL     OW33376   3.659   1.256   8.261  0.5539  0.2690 -0.4716
 7305SOL    HW133377   3.656   1.168   8.224  1.0161  0.3135 -0.6125
 7305SOL    HW233378   3.567   1.279   8.253  0.4015  0.7555  2.4038
 7306SOL     OW33379   3.088   0.278   4.574 -0.4817 -0.0955 -0.0968
 7306SOL    HW133380   3.047   0.359   4.545 -3.4682 -1.1273  1.2557
 7306SOL    HW233381   3.149   0.265   4.501  1.3904  0.5162  1.3386
 7307SOL     OW33382   4.721   2.008  15.226 -0.4572  0.2744 -0.4573
 7307SOL    HW133383   0.069   1.988  15.286  0.5770 -0.0974 -1.8123
 7307SOL    HW233384   4.645   1.971  15.272 -0.1361  1.1142  0.7475
 7308SOL     OW33385   2.393   2.694   9.881 -0.4449  0.2046  0.0515
 7308SOL    HW133386   2.443   2.716   9.802 -0.2257 -0.8275 -0.0948
 7308SOL    HW233387   2.469   2.672   9.935 -0.5984 -2.5773 -0.8508
 7309SOL     OW33388   3.445   2.637   5.402 -0.4633  0.0397  0.0555
 7309SOL    HW133389   3.530   2.665   5.435 -0.4540  0.5638 -0.4133
 7309SOL    HW233390   3.462   2.543   5.390 -0.4530 -0.0867  1.0905
 7310SOL     OW33391   2.205   3.088   2.386 -0.3015  0.1352 -0.0085
 7310SOL    HW133392   2.153   3.095   2.466  0.4710  2.2794  0.3265
 7310SOL    HW233393   2.297   3.079   2.411 -0.0288  1.6521 -0.4331
 7311SOL     OW33394   4.332   3.965  12.602  0.3172 -0.0107  0.5340
 7311SOL    HW133395   4.238   3.949  12.594  0.4886 -1.2167  0.9751
 7311SOL    HW233396   4.362   3.953  12.511  0.4843  0.7877  0.4822
 7312SOL     OW33397   0.077   1.419   8.201  0.0975  0.4844 -0.0825
 7312SOL    HW133398   0.101   1.366   8.277  2.9538  1.5769 -0.2030
 7312SOL    HW233399   0.046   1.352   8.141 -1.8826 -0.2999  1.8343
 7313SOL     OW33400   3.931   0.804   7.772  0.0751  0.2541 -0.3974
 7313SOL    HW133401   4.014   0.757   7.780  0.1904  0.3287 -1.0996
 7313SOL    HW233402   3.936   0.832   7.680 -0.7722  1.0918 -0.1822
 7314SOL     OW33403   0.567   0.241  16.581 -0.2195  0.6035  0.0520
 7314SOL    HW133404   0.589   0.329  16.551  0.8977  0.2578 -0.1466
 7314SOL    HW233405   0.496   0.267  16.640  1.1405  0.8707  1.5640
 7315SOL     OW33406   4.408   0.553   7.752 -0.1916 -0.5893  1.2928
 7315SOL    HW133407   4.480   0.521   7.805 -0.1249 -2.9384 -0.2372
 7315SOL    HW233408   4.420   0.648   7.763 -0.9476 -0.6005  2.2215
 7316SOL     OW33409   4.240   2.054   8.905 -0.6161  0.2373 -0.3237
 7316SOL    HW133410   4.325   2.010   8.901 -0.0598  1.2740 -0.1145
 7316SOL    HW233411   4.259   2.126   8.965 -1.1459  0.7104 -0.7235
 7317SOL     OW33412   0.060   1.183   2.786  0.3220 -0.0267  0.3000
 7317SOL    HW133413   0.001   1.170   2.861 -1.4340  0.7725 -0.9357
 7317SOL    HW233414   0.070   1.094   2.751  1.7638  0.3764 -0.2944
 7318SOL     OW33415   3.121   0.664   1.639  0.5146 -0.2807 -0.4903
 7318SOL    HW133416   3.034   0.676   1.601  0.5934 -0.8814 -0.8618
 7318SOL    HW233417   3.102   0.638   1.730  1.5212 -1.7367 -0.7030
 7319SOL     OW33418   4.357   2.903   2.268 -0.7019 -0.1776 -0.2459
 7319SOL    HW133419   4.440   2.864   2.292 -2.3471 -1.4626  3.3017
 7319SOL    HW233420   4.336   2.867   2.182  0.4315 -0.5126 -0.3732
 7320SOL     OW33421   3.129   1.322   2.496  0.3336  0.6577  0.7051
 7320SOL    HW133422   3.126   1.383   2.421  0.5215  3.4553  2.9663
 7320SOL    HW233423   3.037   1.323   2.523 -0.2420 -1.3827 -1.2204
 7321SOL     OW33424   0.247   3.626   4.711  0.7616  0.3071 -0.0342
 7321SOL    HW133425   0.227   3.714   4.679 -1.6058 -0.3550 -0.3564
 7321SOL    HW233426   0.327   3.611   4.660 -0.2855 -1.5147 -1.1565
 7322SOL     OW33427   2.415   0.346   5.375 -0.4193 -0.4275 -0.6449
 7322SOL    HW133428   2.349   0.411   5.352 -1.0452 -0.4533  1.1263
 7322SOL    HW233429   2.358   0.272   5.394  0.2521  0.2146  3.7205
 7323SOL     OW33430   2.126   2.424   8.916  0.3481 -0.0472  0.1722
 7323SOL    HW133431   2.037   2.447   8.890  0.3530  2.9819  2.9017
 7323SOL    HW233432   2.138   2.483   8.990 -1.2909  0.6451 -0.1154
 7324SOL     OW33433   3.745   0.065   8.225 -0.0988 -0.3472  0.4477
 7324SOL    HW133434   3.668   0.090   8.275  1.3431  2.2365  1.3940
 7324SOL    HW233435   3.737   4.694   8.229  2.1522 -0.4951  1.7694
 7325SOL     OW33436   1.044   4.028  11.467 -0.4422 -0.5085 -0.2935
 7325SOL    HW133437   0.955   4.062  11.462 -0.9108 -1.6668  0.3981
 7325SOL    HW233438   1.078   4.069  11.387 -0.5610 -0.9007 -0.5444
 7326SOL     OW33439   1.586   3.795   6.291  0.4129  0.0439 -0.1471
 7326SOL    HW133440   1.525   3.736   6.246  1.4787  0.6167 -2.3472
 7326SOL    HW233441   1.650   3.821   6.225 -0.7779  0.3545 -1.1768
 7327SOL     OW33442   4.026   1.579   3.802 -0.2364 -0.3526 -0.2346
 7327SOL    HW133443   4.011   1.667   3.838  0.9702 -0.1710 -0.1508
 7327SOL    HW233444   3.981   1.586   3.718  1.4895 -0.0068 -1.1376
 7328SOL     OW33445   4.150   4.110   7.114  0.0186 -0.2367  0.4399
 7328SOL    HW133446   4.175   4.183   7.171  0.1273 -0.8797  1.2108
 7328SOL    HW233447   4.189   4.140   7.032 -0.5654 -2.5682 -0.6941
 7329SOL     OW33448   3.563   3.349  13.800  0.3748  0.4196 -0.4446
 7329SOL    HW133449   3.602   3.318  13.719  2.5140  3.9025 -0.7695
 7329SOL    HW233450   3.618   3.425  13.822  1.1711 -0.5829  0.9938
 7330SOL     OW33451   3.083   1.707   4.648 -0.0968  0.4303  0.0202
 7330SOL    HW133452   3.111   1.639   4.710  0.2430 -0.3810 -1.0218
 7330SOL    HW233453   3.102   1.668   4.563 -0.4110  2.9698 -1.1988
 7331SOL     OW33454   1.097   3.884  16.304 -0.0284  0.4616 -0.4320
 7331SOL    HW133455   1.150   3.884  16.384 -1.9251 -0.7102  0.8267
 7331SOL    HW233456   1.096   3.976  16.278 -0.2891  0.6667  0.2996
 7332SOL     OW33457   4.224   3.123  14.940 -0.4071 -0.2503 -0.5255
 7332SOL    HW133458   4.189   3.111  15.029 -0.1409 -1.8106 -0.6284
 7332SOL    HW233459   4.295   3.186  14.953  0.3366 -0.8670 -1.6760
 7333SOL     OW33460   2.484   2.651   5.495 -0.1878 -0.1849 -0.3659
 7333SOL    HW133461   2.484   2.556   5.485 -0.5430 -0.2832  0.5934
 7333SOL    HW233462   2.569   2.669   5.534  0.0642  0.9556 -1.4593
 7334SOL     OW33463   1.220   2.120   0.246  0.0891  0.5112  0.1280
 7334SOL    HW133464   1.220   2.074   0.162  0.5118 -0.2988  0.5706
 7334SOL    HW233465   1.152   2.069   0.290  0.9403 -0.9905 -0.2908
 7335SOL     OW33466   4.180   2.360  15.981  0.2144 -0.8007  0.2347
 7335SOL    HW133467   4.136   2.383  15.900  2.2681  1.1012 -0.3523
 7335SOL    HW233468   4.153   2.439  16.027  0.7621 -0.1461 -0.5732
 7336SOL     OW33469   4.154   0.438   7.124 -0.2909 -0.1333  0.1784
 7336SOL    HW133470   4.181   0.438   7.216  0.8235 -0.5357 -0.1451
 7336SOL    HW233471   4.230   0.467   7.075  0.2318 -0.7036  0.6567
 7337SOL     OW33472   3.738   4.295   1.012  0.1151 -0.4252  0.1036
 7337SOL    HW133473   3.762   4.342   0.932  1.2598 -1.8841 -0.4019
 7337SOL    HW233474   3.715   4.211   0.972 -1.0659  0.1421 -0.4160
 7338SOL     OW33475   2.637   3.579  17.608 -0.0588 -0.4682  0.2372
 7338SOL    HW133476   2.683   3.523  17.546 -0.9517  1.8810 -2.5459
 7338SOL    HW233477   2.652   3.531  17.689 -1.3823 -0.8045  0.2917
 7339SOL     OW33478   0.819   0.536   3.025 -0.1133  0.3261 -0.0246
 7339SOL    HW133479   0.848   0.608   2.970 -0.7190 -1.4441 -2.6626
 7339SOL    HW233480   0.881   0.467   3.000 -0.5447 -0.3956  0.8849
 7340SOL     OW33481   2.626   1.865  14.314  0.3941 -0.7999  0.0893
 7340SOL    HW133482   2.623   1.889  14.222 -1.6349 -0.5866  0.2070
 7340SOL    HW233483   2.674   1.941  14.348  1.6385 -1.1373 -0.9064
 7341SOL     OW33484   4.620   4.194   4.581 -0.2519 -0.2072 -0.0436
 7341SOL    HW133485   4.684   4.179   4.512 -2.3204  1.3225 -2.2837
 7341SOL    HW233486   4.585   4.278   4.549 -1.8359 -1.1162 -0.7060
 7342SOL     OW33487   1.778   3.692   3.726  0.0158 -0.6106 -0.0235
 7342SOL    HW133488   1.823   3.610   3.704 -0.5797 -1.5303  2.1708
 7342SOL    HW233489   1.687   3.674   3.706 -0.5754 -0.6568  2.6180
 7343SOL     OW33490   0.690   1.612  16.056  0.3132  0.1510  0.0982
 7343SOL    HW133491   0.648   1.647  15.977 -1.5881 -0.6114  0.7905
 7343SOL    HW233492   0.675   1.676  16.126 -1.0024  1.4076 -1.3355
 7344SOL     OW33493   0.982   4.495  12.786  0.4262 -0.0033 -0.3758
 7344SOL    HW133494   0.973   4.453  12.872 -2.1292 -0.7520 -1.0153
 7344SOL    HW233495   1.076   4.500  12.769  0.8260 -1.0326  1.5010
 7345SOL     OW33496   0.213   3.513   9.933  0.1472 -0.6907 -0.1555
 7345SOL    HW133497   0.231   3.606   9.948 -1.3875 -0.6197  1.3083
 7345SOL    HW233498   0.249   3.465  10.007 -1.2557 -0.7575  0.4845
 7346SOL     OW33499   3.798   4.336  10.210  0.0532  0.1068 -0.0910
 7346SOL    HW133500   3.867   4.336  10.144 -1.2639 -0.9267 -1.4841
 7346SOL    HW233501   3.833   4.395  10.277 -2.0777 -0.3390  1.4361
 7347SOL     OW33502   1.172   3.158   2.334  0.1303 -0.5206  0.5045
 7347SOL    HW133503   1.102   3.222   2.321  1.0143  0.3742  0.0891
 7347SOL    HW233504   1.244   3.204   2.291  0.8073 -1.8119  0.2589
 7348SOL     OW33505   1.966   4.327   7.779  0.5773  0.1141  0.3435
 7348SOL    HW133506   1.936   4.395   7.839  0.1366  0.6859 -0.5256
 7348SOL    HW233507   1.885   4.295   7.739  0.1311  0.5668  0.8860
 7349SOL     OW33508   2.621   1.340   3.393 -0.4152  0.4251 -0.2492
 7349SOL    HW133509   2.615   1.248   3.418  0.4441  1.1212  2.5502
 7349SOL    HW233510   2.554   1.371   3.455  1.5689 -0.2565  2.2487
 7350SOL     OW33511   1.448   0.919   0.792 -0.0516 -0.4438 -0.0792
 7350SOL    HW133512   1.378   0.871   0.836 -0.7258  0.1205 -0.5402
 7350SOL    HW233513   1.514   0.891   0.855 -0.6794  2.1321  1.7116
 7351SOL     OW33514   1.214   1.208  10.534  0.2977 -0.6146  0.2541
 7351SOL    HW133515   1.119   1.194  10.532  0.2492 -0.3192  0.3864
 7351SOL    HW233516   1.248   1.169  10.454 -0.4780 -0.8173  0.0201
 7352SOL     OW33517   1.489   1.280   0.175  0.0937 -0.5508 -0.3969
 7352SOL    HW133518   1.463   1.279   0.267 -0.1913 -3.7505 -0.5223
 7352SOL    HW233519   1.556   1.213   0.168 -0.3485 -1.3598  3.2050
 7353SOL     OW33520   1.544   4.192   7.124 -0.8294  0.1152  0.2064
 7353SOL    HW133521   1.539   4.261   7.191  1.9048  0.6772 -0.1673
 7353SOL    HW233522   1.570   4.110   7.165  2.1852  1.6837  1.4267
 7354SOL     OW33523   2.168   0.883   6.200  0.4664 -0.1319 -0.0865
 7354SOL    HW133524   2.077   0.876   6.171  0.2107  0.9379  0.4602
 7354SOL    HW233525   2.199   0.793   6.188 -2.4914 -0.9143 -1.7448
 7355SOL     OW33526   0.131   3.602   7.894  0.3426 -0.6444  0.0946
 7355SOL    HW133527   0.102   3.691   7.876  0.6211 -0.9036 -1.6696
 7355SOL    HW233528   0.220   3.596   7.860  0.4705 -2.2558  0.7269
 7356SOL     OW33529   1.689   2.504   2.947  0.3256  0.2269  0.4466
 7356SOL    HW133530   1.616   2.489   3.007  1.2942 -2.8305  0.8570
 7356SOL    HW233531   1.642   2.547   2.875 -2.0068 -0.7931  1.3795
 7357SOL     OW33532   4.111   2.311  13.990 -0.1510 -0.3940  0.0679
 7357SOL    HW133533   4.159   2.357  14.059 -4.0162  1.5930  1.4093
 7357SOL    HW233534   4.055   2.386  13.971 -0.0413 -0.1384  0.7433
 7358SOL     OW33535   2.176   3.486   5.251  0.2511  0.0370 -0.0663
 7358SOL    HW133536   2.092   3.458   5.287  1.0296 -1.8304  0.2580
 7358SOL    HW233537   2.227   3.409   5.275  0.1219  0.4129  1.4313
 7359SOL     OW33538   1.417   0.004   7.135 -0.0197 -0.1867  0.1881
 7359SOL    HW133539   1.434   4.710   7.228 -1.5620  1.5591  0.7960
 7359SOL    HW233540   1.322   0.001   7.131 -0.0140 -0.4751  0.2622
 7360SOL     OW33541   1.211   4.348   6.243 -0.1470 -0.1201 -0.2391
 7360SOL    HW133542   1.129   4.359   6.290  1.1237  0.1434  1.9244
 7360SOL    HW233543   1.267   4.344   6.321 -0.8899  1.5515  0.3709
 7361SOL     OW33544   0.784   4.004   6.792 -0.0964  0.2292  0.0386
 7361SOL    HW133545   0.741   4.009   6.878  0.3766  0.4328  0.2616
 7361SOL    HW233546   0.815   4.094   6.785  1.0810 -0.3749 -2.2329
 7362SOL     OW33547   3.906   3.350  15.665  0.4353  0.0622  0.0589
 7362SOL    HW133548   3.918   3.316  15.576 -4.0838 -0.5960 -0.2904
 7362SOL    HW233549   3.897   3.272  15.719  1.5713  0.1673  0.4119
 7363SOL     OW33550   2.203   4.076  11.218 -0.5034  0.2022 -0.8452
 7363SOL    HW133551   2.204   3.996  11.166  0.6424 -0.9954  1.0478
 7363SOL    HW233552   2.116   4.066  11.256 -0.5601 -1.3868 -1.3916
 7364SOL     OW33553   3.391   2.698  11.300  0.1659  0.3150  0.4964
 7364SOL    HW133554   3.481   2.728  11.284 -1.1583  2.9984 -1.8685
 7364SOL    HW233555   3.414   2.632  11.365  0.7985 -1.1099 -1.1767
 7365SOL     OW33556   3.083   2.920   3.974  0.5561 -0.0386 -0.5330
 7365SOL    HW133557   2.995   2.925   4.012  0.1576 -0.7199 -1.3644
 7365SOL    HW233558   3.070   2.972   3.895  0.1658  1.7147  0.6856
 7366SOL     OW33559   2.158   1.048  12.147 -0.2079 -0.2188  0.7682
 7366SOL    HW133560   2.232   1.075  12.092 -2.3293 -0.0516 -2.0318
 7366SOL    HW233561   2.118   0.973  12.101 -1.0737  0.6509  0.0968
 7367SOL     OW33562   4.239   2.754  14.207 -0.2982  0.0466 -0.0743
 7367SOL    HW133563   4.276   2.756  14.295 -1.8672 -0.7831  0.6061
 7367SOL    HW233564   4.251   2.846  14.182  0.9341 -0.8562 -2.8494
 7368SOL     OW33565   4.240   1.631   5.028  0.0177  0.0874 -0.0319
 7368SOL    HW133566   4.264   1.538   5.036 -0.0231  0.1028  0.2491
 7368SOL    HW233567   4.318   1.664   5.072 -1.1117  0.7009  1.5011
 7369SOL     OW33568   1.494   0.138  11.656 -0.2724  0.1796  0.1438
 7369SOL    HW133569   1.459   0.056  11.619 -1.4081 -0.0164  1.6098
 7369SOL    HW233570   1.463   0.196  11.587 -0.3603 -0.2767 -0.2035
 7370SOL     OW33571   3.416   4.612   3.021 -0.9946  0.3950  0.5855
 7370SOL    HW133572   3.506   4.638   3.036 -0.1527  0.0700 -4.0532
 7370SOL    HW233573   3.383   4.614   3.112  0.1904  1.2955  0.9848
 7371SOL     OW33574   2.785   0.750   2.311 -0.3687 -0.2932 -0.2899
 7371SOL    HW133575   2.732   0.700   2.373 -1.6709  0.4554 -0.7940
 7371SOL    HW233576   2.774   0.688   2.239  0.9072  0.7448 -1.3932
 7372SOL     OW33577   4.647   3.876   0.117 -0.1128 -0.2937 -0.4726
 7372SOL    HW133578   4.723   3.840   0.162  0.7233  1.6863 -0.2821
 7372SOL    HW233579   4.667   3.871   0.024 -0.3358 -1.2032 -0.4661
 7373SOL     OW33580   1.045   1.375   7.245 -0.0271 -0.0708  0.5363
 7373SOL    HW133581   1.097   1.304   7.284  0.7795  0.4494  0.4195
 7373SOL    HW233582   1.013   1.341   7.162  0.3082  0.8140  0.0455
 7374SOL     OW33583   1.593   3.058   6.899  0.6334 -0.2995 -0.1942
 7374SOL    HW133584   1.551   3.032   6.818  0.8983  1.7318 -0.9763
 7374SOL    HW233585   1.677   3.092   6.869  0.6367 -0.7433 -0.6807
 7375SOL     OW33586   1.955   2.259   5.767 -0.5282  0.0389 -0.4422
 7375SOL    HW133587   2.049   2.261   5.786 -0.4532  0.8175 -0.8620
 7375SOL    HW233588   1.942   2.351   5.743 -0.2309  0.1460 -0.1970
 7376SOL     OW33589   1.268   0.996   8.462  0.2654  0.2780  0.3316
 7376SOL    HW133590   1.274   0.912   8.507  1.0215 -0.2436 -0.7193
 7376SOL    HW233591   1.238   0.965   8.376  0.1294 -0.1803  0.5478
 7377SOL     OW33592   1.127   3.467   5.435 -0.4005  0.1590  0.0288
 7377SOL    HW133593   1.154   3.413   5.510  2.5361  3.2565  1.1980
 7377SOL    HW233594   1.209   3.500   5.398 -0.5669 -1.6427 -1.9594
 7378SOL     OW33595   0.764   2.898   5.513 -0.4328  0.6708  0.3010
 7378SOL    HW133596   0.728   2.838   5.447  2.1531 -0.7932  0.1947
 7378SOL    HW233597   0.859   2.883   5.504 -0.3259  2.6848 -1.9566
 7379SOL     OW33598   2.143   1.437  14.400  0.3685 -0.1063  0.4649
 7379SOL    HW133599   2.162   1.356  14.448  3.4405 -0.7175 -1.8188
 7379SOL    HW233600   2.215   1.442  14.337 -0.7783 -0.0246 -0.8298
 7380SOL     OW33601   3.738   0.813   5.059  0.0708 -0.1311  0.8454
 7380SOL    HW133602   3.766   0.900   5.029 -0.7366  0.6873  2.4314
 7380SOL    HW233603   3.646   0.827   5.084 -0.3274 -0.3321 -0.4925
 7381SOL     OW33604   4.477   1.341   8.312  0.2657  0.0973  0.4561
 7381SOL    HW133605   4.393   1.360   8.269 -0.2488  0.2552  1.5328
 7381SOL    HW233606   4.487   1.384   8.397 -0.3177  1.9555 -0.4155
 7382SOL     OW33607   1.451   1.845   4.334  0.3893  0.2539 -0.1178
 7382SOL    HW133608   1.517   1.891   4.386  0.9696  0.2020 -0.8147
 7382SOL    HW233609   1.460   1.894   4.252  0.9948  1.2231  0.5267
 7383SOL     OW33610   1.810   4.515  15.374  0.1809 -0.1890  0.3512
 7383SOL    HW133611   1.753   4.470  15.437 -1.7168  2.7638  0.7673
 7383SOL    HW233612   1.749   4.586  15.354  0.7067 -0.0970 -0.9574
 7384SOL     OW33613   2.575   1.077   3.440  0.0147  0.3399 -0.0900
 7384SOL    HW133614   2.572   1.048   3.532 -0.8981  0.1798 -0.1729
 7384SOL    HW233615   2.482   1.098   3.440 -0.0628  0.0204  0.4168
 7385SOL     OW33616   1.782   2.398   0.925  0.3587  0.9341  0.0669
 7385SOL    HW133617   1.767   2.305   0.907  1.1107  0.9474 -0.6518
 7385SOL    HW233618   1.738   2.439   0.851 -0.5451  0.1003  0.1515
 7386SOL     OW33619   3.399   0.424   6.750  0.0121 -0.3522  0.4714
 7386SOL    HW133620   3.325   0.413   6.811  0.2274 -2.8629  0.2994
 7386SOL    HW233621   3.461   0.478   6.799  1.9591 -1.2860 -0.9950
 7387SOL     OW33622   0.227   0.124   8.149 -0.2103 -0.3159 -0.0561
 7387SOL    HW133623   0.138   0.155   8.135  0.0521  0.7554  0.6801
 7387SOL    HW233624   0.262   0.144   8.062  0.5608 -0.2374  0.2702
 7388SOL     OW33625   1.284   1.464  15.647  0.8910  0.4697 -0.1861
 7388SOL    HW133626   1.311   1.418  15.567  0.1954  1.5232 -1.0262
 7388SOL    HW233627   1.359   1.520  15.668  1.1598 -0.5987  1.6678
 7389SOL     OW33628   1.460   1.801   5.937  0.4790  0.3652  0.1265
 7389SOL    HW133629   1.448   1.870   5.873  1.9585 -0.2102 -0.7724
 7389SOL    HW233630   1.522   1.738   5.900  1.3914  0.2320  1.8445
 7390SOL     OW33631   0.544   0.972   5.245 -0.4620  0.5709  0.6050
 7390SOL    HW133632   0.639   0.968   5.249 -0.5708 -1.3208  1.0717
 7390SOL    HW233633   0.532   1.036   5.315 -1.4048  0.7575  0.2785
 7391SOL     OW33634   2.205   0.573   3.514  0.1804 -0.2891 -0.1011
 7391SOL    HW133635   2.259   0.615   3.580  2.4600 -0.2004 -2.0157
 7391SOL    HW233636   2.260   0.580   3.435  2.5908 -1.9515  1.4455
 7392SOL     OW33637   0.070   4.123   4.012 -0.1392 -0.0717 -0.0575
 7392SOL    HW133638   0.084   4.198   3.954 -3.4215 -0.6364 -1.6007
 7392SOL    HW233639   4.703   4.105   3.990 -0.4764  1.1114  0.3797
 7393SOL     OW33640   1.765   4.628   0.949 -1.1447  0.3511  1.2564
 7393SOL    HW133641   1.781   4.628   1.044 -0.0019  0.9461  1.0702
 7393SOL    HW233642   1.857   4.607   0.930 -1.2188  1.5435 -0.3471
 7394SOL     OW33643   2.524   1.606   2.456  0.1066  0.3841 -0.1182
 7394SOL    HW133644   2.592   1.552   2.415  0.4586  0.5491  0.2440
 7394SOL    HW233645   2.577   1.668   2.505  2.5701 -1.4538 -0.4369
 7395SOL     OW33646   3.609   4.322   6.492 -0.0548 -0.5463 -0.1958
 7395SOL    HW133647   3.698   4.289   6.503  0.3925  0.5547 -0.4629
 7395SOL    HW233648   3.569   4.273   6.421 -0.7208 -1.5150  0.8561
 7396SOL     OW33649   2.278   1.956   5.513 -0.1986  0.5179 -0.2094
 7396SOL    HW133650   2.184   1.935   5.512  0.8212 -4.1017 -0.0903
 7396SOL    HW233651   2.275   2.046   5.546  0.2377 -0.5682  2.8235
 7397SOL     OW33652   4.015   1.048  16.936 -0.1141 -0.1925  0.2277
 7397SOL    HW133653   4.081   1.109  16.904  1.4053 -1.4079  1.0586
 7397SOL    HW233654   4.062   0.993  16.999 -1.5453 -1.1794  0.4438
 7398SOL     OW33655   3.861   2.717   2.174 -0.8859 -0.0789 -0.1700
 7398SOL    HW133656   3.918   2.739   2.247 -0.4899 -3.2528  0.4482
 7398SOL    HW233657   3.832   2.802   2.139  1.3271  0.5456 -0.4673
 7399SOL     OW33658   3.290   0.298   6.244 -0.4430  0.2509 -0.0556
 7399SOL    HW133659   3.342   0.241   6.187 -2.2959 -1.5731  0.0721
 7399SOL    HW233660   3.312   0.273   6.333  1.7059 -0.7500 -0.8696
 7400SOL     OW33661   1.486   1.814  16.114 -0.1242  0.4894  0.1392
 7400SOL    HW133662   1.554   1.815  16.046 -0.8006 -1.1474 -0.5481
 7400SOL    HW233663   1.456   1.723  16.113 -1.3596  0.9014 -0.9126
 7401SOL     OW33664   1.616   2.217   1.306 -0.3695 -0.3085 -0.0286
 7401SOL    HW133665   1.606   2.254   1.219 -3.8301 -2.6264 -0.6447
 7401SOL    HW233666   1.658   2.292   1.349 -2.0351  0.7707 -0.3046
 7402SOL     OW33667   2.413   3.916   8.498  0.3300  0.2341 -0.2446
 7402SOL    HW133668   2.386   3.869   8.419  1.4680 -2.3552  0.9180
 7402SOL    HW233669   2.415   3.839   8.554 -1.6465 -0.3584 -0.9961
 7403SOL     OW33670   0.175   2.278   2.668  0.4684  0.1515 -0.1442
 7403SOL    HW133671   0.139   2.217   2.732 -1.4263  0.9344 -0.4432
 7403SOL    HW233672   0.134   2.361   2.693  0.1359 -0.2376  0.6290
 7404SOL     OW33673   3.106   1.581  11.369  0.8436 -0.5161 -0.3947
 7404SOL    HW133674   3.105   1.671  11.401  0.0161 -0.3486 -0.8691
 7404SOL    HW233675   3.071   1.538  11.447 -0.0045 -0.0720 -0.5183
 7405SOL     OW33676   0.929   1.757   8.412  0.8531 -0.3164  0.5862
 7405SOL    HW133677   1.021   1.771   8.389 -0.1131  1.8876 -1.9214
 7405SOL    HW233678   0.907   1.678   8.364  1.0620 -0.8272  1.3302
 7406SOL     OW33679   3.601   1.264   2.690  0.6707 -0.0096 -0.2319
 7406SOL    HW133680   3.571   1.185   2.644  1.3241 -0.6380  0.4394
 7406SOL    HW233681   3.515   1.302   2.712  1.0319  0.4361  0.4049
 7407SOL     OW33682   1.058   2.289   7.472 -0.0156  0.4544  0.0172
 7407SOL    HW133683   1.060   2.375   7.430 -0.5894 -0.5194 -1.9984
 7407SOL    HW233684   0.974   2.257   7.441 -0.3087 -1.0704  2.3973
 7408SOL     OW33685   3.594   4.104   1.450 -0.3993 -1.0081 -0.0922
 7408SOL    HW133686   3.605   4.064   1.364 -2.5855  0.1155 -0.8692
 7408SOL    HW233687   3.499   4.103   1.454 -0.3700 -0.8014  0.6834
 7409SOL     OW33688   1.837   0.411  14.114  0.5542 -0.1321  0.1329
 7409SOL    HW133689   1.840   0.333  14.059 -2.3282 -0.8710  1.0265
 7409SOL    HW233690   1.913   0.459  14.080 -0.3362  0.5621 -0.8582
 7410SOL     OW33691   0.906   3.754   4.137 -0.1289  0.0249  0.7948
 7410SOL    HW133692   0.914   3.744   4.232 -1.8887  1.1118  1.0599
 7410SOL    HW233693   0.852   3.679   4.110  1.9246 -1.2690  0.3108
 7411SOL     OW33694   0.293   2.071   7.029  0.3369  0.1290 -0.0550
 7411SOL    HW133695   0.380   2.077   6.990  0.4605  0.2249  0.2347
 7411SOL    HW233696   0.274   1.977   7.021  1.9299 -0.0790 -1.2485
 7412SOL     OW33697   1.046   3.220   6.896 -0.1222  0.8494  0.3440
 7412SOL    HW133698   1.007   3.209   6.982 -1.7804 -0.3222 -0.5650
 7412SOL    HW233699   1.133   3.247   6.926  0.2493 -1.3645  1.2444
 7413SOL     OW33700   3.679   3.778   3.946  0.0288 -0.2169  0.4236
 7413SOL    HW133701   3.745   3.847   3.936 -0.6203  0.9158  3.7899
 7413SOL    HW233702   3.713   3.725   4.018  1.4071  0.5539  0.3455
 7414SOL     OW33703   0.398   1.099   4.682  0.4335  0.2761 -0.4527
 7414SOL    HW133704   0.476   1.068   4.730  1.4474  0.3321 -2.0769
 7414SOL    HW233705   0.330   1.100   4.750  2.5951 -2.3167  1.7587
 7415SOL     OW33706   3.599   2.031   0.401  0.2095  0.0087 -0.0860
 7415SOL    HW133707   3.511   2.068   0.410  0.3699  0.0833  1.1058
 7415SOL    HW233708   3.580   1.938   0.408  1.9318 -0.6507 -4.0130
 7416SOL     OW33709   3.894   2.464   3.826 -0.3481 -0.7697  0.0282
 7416SOL    HW133710   3.818   2.440   3.879 -0.9002  0.9143 -0.0154
 7416SOL    HW233711   3.863   2.477   3.737 -0.7441  0.4803  0.3473
 7417SOL     OW33712   4.397   4.055   1.463 -0.1181 -0.4345 -0.1689
 7417SOL    HW133713   4.337   4.128   1.480 -0.5649 -0.6327 -0.9170
 7417SOL    HW233714   4.433   4.082   1.379  1.6519 -4.7078 -0.7658
 7418SOL     OW33715   1.289   3.499   2.846  0.2104 -0.0866 -0.0442
 7418SOL    HW133716   1.361   3.437   2.856 -0.3372 -0.2610  2.7046
 7418SOL    HW233717   1.337   3.567   2.799 -1.4051  0.4747 -0.9008
 7419SOL     OW33718   3.236   3.366   5.462 -0.0956  0.1046  0.5155
 7419SOL    HW133719   3.146   3.336   5.471  0.2277 -0.1896  2.8124
 7419SOL    HW233720   3.223   3.426   5.388 -1.6603 -0.8912 -0.0036
 7420SOL     OW33721   4.652   2.215   1.409  0.6825  0.4135  0.5127
 7420SOL    HW133722   4.623   2.125   1.392  2.0753  0.0876 -0.1520
 7420SOL    HW233723   4.622   2.254   1.328 -0.7806  0.5098  1.0985
 7421SOL     OW33724   1.858   2.359   3.505 -0.2343  0.1507 -0.2382
 7421SOL    HW133725   1.921   2.428   3.524 -0.2393  0.5654 -1.7785
 7421SOL    HW233726   1.850   2.370   3.411 -1.9676  0.8449 -0.0094
 7422SOL     OW33727   2.419   3.867   6.501  0.1341  0.5762 -0.3687
 7422SOL    HW133728   2.345   3.924   6.482 -0.5758 -0.4727 -0.7123
 7422SOL    HW233729   2.418   3.797   6.435  1.4098  1.3117 -1.1908
 7423SOL     OW33730   3.653   2.787   8.765 -0.1829  0.4060  0.2170
 7423SOL    HW133731   3.686   2.875   8.782 -1.1269  0.4956  1.5711
 7423SOL    HW233732   3.572   2.798   8.816 -1.7663  2.8166 -2.9008
 7424SOL     OW33733   3.692   2.255   8.569 -0.2529 -0.1893 -0.5970
 7424SOL    HW133734   3.755   2.249   8.642 -0.0408  0.7861 -0.7029
 7424SOL    HW233735   3.605   2.230   8.600  0.2583  2.2529  2.8047
 7425SOL     OW33736   4.124   2.176  15.410 -0.3209 -0.0315  0.0242
 7425SOL    HW133737   4.154   2.098  15.456  0.1326  1.3060  1.9820
 7425SOL    HW233738   4.090   2.148  15.325 -2.2199  0.6446  0.5700
 7426SOL     OW33739   0.482   0.035   2.312  0.2100  0.1974  0.2407
 7426SOL    HW133740   0.530   4.681   2.341  1.7892  0.9917 -0.2374
 7426SOL    HW233741   0.394   0.007   2.335 -0.2848  0.1561 -1.6950
 7427SOL     OW33742   2.363   0.096  14.368 -0.4767 -0.1188 -0.3372
 7427SOL    HW133743   2.387   0.189  14.368 -1.8672  0.2406  2.0683
 7427SOL    HW233744   2.299   0.099  14.439 -0.8473  0.7347 -0.7027
 7428SOL     OW33745   3.357   2.327   4.569  0.0792 -0.9063  0.3999
 7428SOL    HW133746   3.418   2.283   4.627 -0.6178  1.2841  2.8377
 7428SOL    HW233747   3.336   2.254   4.511 -2.3941  0.1853 -0.1188
 7429SOL     OW33748   0.318   3.549   5.690  0.0090  0.2482  0.0944
 7429SOL    HW133749   0.223   3.551   5.700 -0.2174  1.4713 -2.3611
 7429SOL    HW233750   0.332   3.621   5.753  2.1935  0.1041 -0.2400
 7430SOL     OW33751   2.615   3.970   3.526 -0.2223  0.0229  0.0397
 7430SOL    HW133752   2.522   3.963   3.546 -0.3347  0.7488 -0.2067
 7430SOL    HW233753   2.623   3.929   3.440 -1.2411  2.3831 -1.1977
 7431SOL     OW33754   0.508   2.692   1.540 -0.2414  0.6808  0.1703
 7431SOL    HW133755   0.455   2.626   1.495 -0.0747  0.7060 -0.0680
 7431SOL    HW233756   0.592   2.646   1.528  0.2119  1.5932 -0.1967
 7432SOL     OW33757   4.444   3.908   9.707  0.0951 -0.1691 -0.3984
 7432SOL    HW133758   4.454   3.968   9.781 -0.4136 -0.0262 -0.4442
 7432SOL    HW233759   4.524   3.858   9.724  0.1284 -0.5141 -1.5315
 7433SOL     OW33760   2.677   1.334   5.298  0.6138 -0.3497 -0.4574
 7433SOL    HW133761   2.683   1.340   5.202  0.8602 -1.4080 -0.5030
 7433SOL    HW233762   2.689   1.240   5.308 -2.8546 -1.0056 -2.6794
 7434SOL     OW33763   3.901   0.586  10.908 -0.0859  0.0837 -0.4284
 7434SOL    HW133764   3.958   0.509  10.901  2.0289  1.5137  1.1703
 7434SOL    HW233765   3.831   0.551  10.853 -0.4156 -1.1333  0.7653
 7435SOL     OW33766   0.366   0.308   4.712 -0.8166 -1.0987  0.6351
 7435SOL    HW133767   0.281   0.330   4.673 -1.9861 -3.6391  1.7559
 7435SOL    HW233768   0.360   0.218   4.679  1.4920 -0.9523 -0.1894
 7436SOL     OW33769   0.847   1.547   4.573  0.2565  0.0411  0.6218
 7436SOL    HW133770   0.817   1.515   4.658  0.4899 -1.2023  0.2402
 7436SOL    HW233771   0.811   1.479   4.516  1.8360  0.3624 -0.7700
 7437SOL     OW33772   3.996   2.509   8.803  0.0987 -0.1715 -0.0001
 7437SOL    HW133773   4.001   2.467   8.890 -1.4577 -0.9701 -0.2838
 7437SOL    HW233774   3.903   2.490   8.787 -0.2884  0.0872  1.8861
 7438SOL     OW33775   4.676   4.458  11.091 -0.0497  0.4133 -0.3098
 7438SOL    HW133776   4.593   4.420  11.061  0.7285 -1.6732  0.1824
 7438SOL    HW233777   4.707   4.519  11.024  0.3246 -1.0151 -1.4289
 7439SOL     OW33778   3.721   2.371   6.043  0.3067  0.1673  0.0139
 7439SOL    HW133779   3.730   2.464   6.063  0.9804 -0.2211  1.4786
 7439SOL    HW233780   3.790   2.342   6.102  0.7337 -0.3719 -0.7533
 7440SOL     OW33781   0.777   4.179   7.975  0.0323  0.2103  0.0961
 7440SOL    HW133782   0.802   4.266   8.006  1.8171  0.0047 -0.7393
 7440SOL    HW233783   0.833   4.124   8.031  0.0279 -0.4043 -0.4994
 7441SOL     OW33784   4.682   4.621   2.715 -0.0370  0.9866  1.1568
 7441SOL    HW133785   4.595   4.586   2.699  0.4957  0.3350 -0.2618
 7441SOL    HW233786   4.661   4.711   2.740  0.8129  1.9492 -1.5944
 7442SOL     OW33787   3.988   1.055   7.291 -0.2763  0.2198  0.5596
 7442SOL    HW133788   4.025   1.125   7.345 -0.2240  0.1484  0.6161
 7442SOL    HW233789   4.065   1.037   7.238 -0.7672 -0.2862  0.0227
 7443SOL     OW33790   3.080   4.449   6.995 -0.6109 -0.2857  0.1635
 7443SOL    HW133791   3.136   4.468   6.920  0.2376  0.7790  1.0683
 7443SOL    HW233792   2.990   4.440   6.964 -0.5627 -1.8228  0.4824
 7444SOL     OW33793   0.896   3.938   7.369  0.2057  0.1895  0.2684
 7444SOL    HW133794   0.846   3.932   7.450 -0.7878 -1.2531 -0.4558
 7444SOL    HW233795   0.829   3.918   7.304  0.9102 -2.3702  0.3000
 7445SOL     OW33796   2.051   3.079  11.775 -0.4548  0.0396  0.5064
 7445SOL    HW133797   1.964   3.039  11.774 -0.0876 -0.7800  1.0129
 7445SOL    HW233798   2.023   3.161  11.734  0.5668 -0.6092 -1.4644
 7446SOL     OW33799   3.224   0.096   3.520  0.5929 -0.2456 -0.3417
 7446SOL    HW133800   3.162   0.050   3.578  0.8312 -1.1572 -0.8087
 7446SOL    HW233801   3.242   0.171   3.576 -3.4351 -0.6283  1.4960
 7447SOL     OW33802   4.624   4.073   7.696 -0.2985 -0.3580  0.3826
 7447SOL    HW133803   4.559   4.141   7.715  2.8827  2.6503  0.4088
 7447SOL    HW233804   4.559   4.010   7.665 -0.5745  0.3391 -0.4554
 7448SOL     OW33805   2.790   3.208   8.878 -0.0553  0.0830 -0.1150
 7448SOL    HW133806   2.790   3.204   8.783  0.2517  2.4389 -0.2160
 7448SOL    HW233807   2.699   3.219   8.904  0.3506  0.4468  1.1631
 7449SOL     OW33808   1.755   3.751   7.441  0.3742  0.3460 -0.4129
 7449SOL    HW133809   1.821   3.688   7.468  0.3716 -0.6507 -2.7462
 7449SOL    HW233810   1.762   3.743   7.346  0.4623 -0.8907 -0.2993
 7450SOL     OW33811   2.306   1.281   4.698 -0.0474  0.5058  0.3879
 7450SOL    HW133812   2.264   1.273   4.784  1.7790 -1.0808  1.1392
 7450SOL    HW233813   2.329   1.189   4.680  0.1303  0.9593 -1.6323
 7451SOL     OW33814   1.206   4.700   4.486 -0.4699  0.2690  0.6480
 7451SOL    HW133815   1.218   0.019   4.402 -0.3618  1.2686  1.1669
 7451SOL    HW233816   1.226   4.611   4.459 -1.9175  0.3338 -0.5923
 7452SOL     OW33817   3.031   3.144   6.990 -0.0759  0.2300  0.3576
 7452SOL    HW133818   2.979   3.211   7.035  0.5755  1.6425 -0.9729
 7452SOL    HW233819   3.044   3.177   6.901 -0.3966 -0.0134  0.2183
 7453SOL     OW33820   1.990   0.282   8.719 -0.6616 -0.1117  0.7299
 7453SOL    HW133821   1.979   0.329   8.802  0.8872 -1.1330  1.5105
 7453SOL    HW233822   1.968   0.191   8.735  0.1799 -0.4250  0.0871
 7454SOL     OW33823   2.962   0.372  12.878  0.3670  0.0257 -0.3895
 7454SOL    HW133824   3.052   0.337  12.878  0.2516 -0.2843 -1.0555
 7454SOL    HW233825   2.941   0.347  12.967 -2.0007  0.4029 -0.8401
 7455SOL     OW33826   1.002   0.979  17.654  0.1068  0.3224  0.5667
 7455SOL    HW133827   1.052   0.990  17.573  0.3291 -2.2765  0.3575
 7455SOL    HW233828   0.955   1.062  17.662  1.4874  1.2560 -1.1210
 7456SOL     OW33829   1.445   2.665   9.261  0.5693  0.8376 -0.3853
 7456SOL    HW133830   1.356   2.699   9.251  1.0294  2.0390 -0.3899
 7456SOL    HW233831   1.446   2.635   9.351 -2.9217  0.6153 -0.3969
 7457SOL     OW33832   3.311   3.405   9.316 -0.1545  0.5867  0.5822
 7457SOL    HW133833   3.262   3.352   9.379  2.6305 -0.6258  1.7519
 7457SOL    HW233834   3.235   3.449   9.277 -0.6302 -1.5198 -0.8298
 7458SOL     OW33835   2.943   0.372   1.387 -0.1357  0.1478 -0.4714
 7458SOL    HW133836   2.944   0.392   1.293 -0.9897  0.7468 -0.3602
 7458SOL    HW233837   2.884   0.296   1.380 -0.6218  0.5140 -0.3854
 7459SOL     OW33838   0.862   2.709   6.679 -0.3855  0.0496 -0.2863
 7459SOL    HW133839   0.859   2.770   6.752 -1.7894  0.6117 -0.8029
 7459SOL    HW233840   0.942   2.727   6.630  0.6000 -1.4870  0.7776
 7460SOL     OW33841   1.967   0.926   5.321 -0.1686 -0.4729 -0.2610
 7460SOL    HW133842   2.024   0.850   5.307 -0.7486 -1.1579  1.1138
 7460SOL    HW233843   1.959   0.925   5.416  1.5618  0.3525 -0.0870
 7461SOL     OW33844   0.450   0.781   3.209  0.7673  0.1099 -0.2664
 7461SOL    HW133845   0.471   0.715   3.143 -0.4038  0.0869 -0.6151
 7461SOL    HW233846   0.461   0.859   3.155 -1.1192  1.3005  1.0532
 7462SOL     OW33847   3.668   3.605   2.313 -0.4011 -0.0957 -0.0540
 7462SOL    HW133848   3.682   3.568   2.400 -0.9289  0.8619  0.4465
 7462SOL    HW233849   3.639   3.536   2.253 -1.3889  0.1136  0.1851
 7463SOL     OW33850   0.672   1.578   4.793 -0.2670  0.4092 -0.2750
 7463SOL    HW133851   0.610   1.595   4.864 -1.7259 -0.8243 -1.2586
 7463SOL    HW233852   0.611   1.520   4.748 -0.0722  0.7229 -0.9390
 7464SOL     OW33853   4.050   0.828   1.237  0.2548 -0.1819  0.0395
 7464SOL    HW133854   3.967   0.800   1.277 -1.8101  2.3363 -2.5225
 7464SOL    HW233855   4.104   0.757   1.272 -1.0271 -0.5090  1.3948
 7465SOL     OW33856   3.851   2.905   6.151 -0.3500  0.5634  0.7934
 7465SOL    HW133857   3.802   2.966   6.095 -0.6489  0.1016  0.5516
 7465SOL    HW233858   3.938   2.907   6.111 -0.2914  0.2740  0.9082
 7466SOL     OW33859   3.146   3.072   5.326  0.0151 -0.0814 -0.4400
 7466SOL    HW133860   3.191   2.988   5.314 -1.8390 -0.9970 -0.9499
 7466SOL    HW233861   3.175   3.130   5.256 -0.6936  0.7832 -0.0217
 7467SOL     OW33862   1.033   2.235   7.807  0.4388 -0.1268 -0.4198
 7467SOL    HW133863   0.952   2.222   7.757  0.3562 -2.5314  0.3245
 7467SOL    HW233864   1.068   2.147   7.816  1.4919  0.3673  0.3434
 7468SOL     OW33865   3.410   2.012  13.620 -0.2615  0.6588 -0.2783
 7468SOL    HW133866   3.484   1.951  13.616 -0.4398  0.4514 -0.4090
 7468SOL    HW233867   3.411   2.037  13.713 -2.5034 -0.2222 -0.0292
 7469SOL     OW33868   0.589   2.394  12.357  0.1764  0.2714  0.0524
 7469SOL    HW133869   0.499   2.429  12.361  0.9793  2.0644  2.3778
 7469SOL    HW233870   0.569   2.306  12.326  2.8117 -0.3055  0.0038
 7470SOL     OW33871   1.561   4.185   7.845 -0.3570  0.0911  0.0975
 7470SOL    HW133872   1.562   4.204   7.751  0.6755 -1.9863 -0.3006
 7470SOL    HW233873   1.493   4.118   7.852  0.3280 -0.7874 -1.6137
 7471SOL     OW33874   1.374   1.700   8.786 -0.1934  0.1533  0.6927
 7471SOL    HW133875   1.290   1.665   8.817 -0.2213  0.8978  1.4701
 7471SOL    HW233876   1.415   1.726   8.869 -1.1086  2.0530  0.5460
 7472SOL     OW33877   3.963   3.252   6.708 -0.0613 -0.2177  0.2170
 7472SOL    HW133878   3.925   3.194   6.641  0.8056 -0.8266  0.2541
 7472SOL    HW233879   4.055   3.242   6.682 -0.1634 -0.1841 -0.1679
 7473SOL     OW33880   2.452   4.502   9.076 -0.4558 -0.4235  0.4302
 7473SOL    HW133881   2.409   4.529   8.995  1.9059 -0.7223 -0.9285
 7473SOL    HW233882   2.374   4.478   9.127 -0.9918  0.0498 -0.1751
 7474SOL     OW33883   0.236   3.646  17.452  0.3969 -0.0721  0.6398
 7474SOL    HW133884   0.267   3.734  17.474  1.0783 -0.5580  1.6272
 7474SOL    HW233885   0.171   3.677  17.389  0.6256 -0.5453  0.1722
 7475SOL     OW33886   2.855   3.040   0.224 -0.3222 -0.2495  0.5638
 7475SOL    HW133887   2.867   3.126   0.263 -1.2274 -0.0920  0.4762
 7475SOL    HW233888   2.947   3.013   0.222  0.1607  1.4217  0.1818
 7476SOL     OW33889   0.491   2.414  13.637 -0.2156  0.7515  0.6849
 7476SOL    HW133890   0.485   2.507  13.657 -1.2887  1.0913 -1.1694
 7476SOL    HW233891   0.540   2.385  13.714  2.6511  0.4542 -1.2489
 7477SOL     OW33892   1.829   3.374   3.886  0.1387  0.4209  0.4849
 7477SOL    HW133893   1.816   3.454   3.937  0.8658 -1.3218  3.3417
 7477SOL    HW233894   1.887   3.326   3.945 -0.6785  1.3275  2.0266
 7478SOL     OW33895   4.499   3.749   3.086  0.0640  0.3487 -0.1298
 7478SOL    HW133896   4.454   3.700   3.017  0.6154  0.4697 -0.5780
 7478SOL    HW233897   4.550   3.677   3.125  0.5685  1.2127  0.7962
 7479SOL     OW33898   2.697   0.841   4.800  1.2647  0.1089  0.4443
 7479SOL    HW133899   2.607   0.837   4.768  1.7451 -0.6681 -0.7989
 7479SOL    HW233900   2.688   0.815   4.891 -0.6330 -2.5634 -0.5175
 7480SOL     OW33901   0.744   0.466  15.943  0.6013 -0.7530 -0.3594
 7480SOL    HW133902   0.727   0.532  16.010 -0.5610 -1.0349 -0.3839
 7480SOL    HW233903   0.668   0.468  15.885  0.2617  1.2688  0.1460
 7481SOL     OW33904   1.156   4.470   7.365 -0.0421  0.0855  0.2301
 7481SOL    HW133905   1.151   4.471   7.269 -0.2091  0.4012  0.2405
 7481SOL    HW233906   1.069   4.438   7.390 -0.0696  1.7376  2.2395
 7482SOL     OW33907   3.178   1.291  14.402  0.2340 -0.8234 -0.9575
 7482SOL    HW133908   3.094   1.328  14.432  0.7720  0.7285 -1.3493
 7482SOL    HW233909   3.178   1.200  14.431  2.4444 -0.3028  0.6260
 7483SOL     OW33910   1.574   1.943   4.579 -1.0403 -0.4888  0.0691
 7483SOL    HW133911   1.600   1.859   4.619  1.0463  0.7237  1.2394
 7483SOL    HW233912   1.657   1.991   4.585 -1.1828  0.0606 -2.4540
 7484SOL     OW33913   2.077   4.646   0.163 -0.9004  0.0171  0.5918
 7484SOL    HW133914   2.028   4.576   0.206  2.5335 -1.7183  1.6473
 7484SOL    HW233915   2.155   4.647   0.219 -0.6120 -0.8465  0.2013
 7485SOL     OW33916   2.827   0.178   6.929 -0.6806  0.6931 -0.7309
 7485SOL    HW133917   2.795   0.179   6.839  1.6849  0.3016 -1.5528
 7485SOL    HW233918   2.914   0.138   6.931 -0.1969  1.7702 -0.1793
 7486SOL     OW33919   2.549   0.411   0.170 -0.3541  0.5199  0.1821
 7486SOL    HW133920   2.540   0.486   0.229 -1.8453  0.7428 -0.3354
 7486SOL    HW233921   2.608   0.356   0.220  0.8301  0.4664 -1.2746
 7487SOL     OW33922   3.673   1.375  14.697 -0.3721  0.3123 -0.1569
 7487SOL    HW133923   3.601   1.312  14.710  0.1641 -0.2295  0.1820
 7487SOL    HW233924   3.636   1.462  14.682  0.9058  0.7337 -0.8788
 7488SOL     OW33925   2.236   0.114  14.608  0.0789  0.3598  0.4623
 7488SOL    HW133926   2.206   0.029  14.640  1.5099 -0.4533 -0.4074
 7488SOL    HW233927   2.300   0.139  14.675  0.6055  2.4026 -0.8089
 7489SOL     OW33928   4.022   3.994  14.040  0.2724 -0.1844 -0.3167
 7489SOL    HW133929   4.057   4.039  13.963  0.0036  1.6552  0.6245
 7489SOL    HW233930   4.099   3.979  14.096  1.8485  0.5268 -2.2919
 7490SOL     OW33931   0.990   4.483   8.268  0.1179 -0.4914 -0.0751
 7490SOL    HW133932   1.035   4.465   8.350  0.0882 -2.3256 -0.4592
 7490SOL    HW233933   1.010   4.400   8.225  0.9354  0.6149 -1.8390
 7491SOL     OW33934   1.340   3.703   3.891 -0.1320  0.3428  0.5406
 7491SOL    HW133935   1.342   3.713   3.986 -0.8227 -0.4288  0.6437
 7491SOL    HW233936   1.287   3.623   3.898  0.1257  0.3193  2.1670
 7492SOL     OW33937   4.421   1.267   2.024  0.9717 -0.2989  0.4030
 7492SOL    HW133938   4.442   1.336   2.086  1.5612 -0.9185  0.8982
 7492SOL    HW233939   4.514   1.245   2.014  0.7573 -1.1000  0.1016
 7493SOL     OW33940   0.953   1.979   2.717 -0.2325 -0.3212 -0.9086
 7493SOL    HW133941   1.005   1.901   2.733 -1.1733 -0.8168 -0.2976
 7493SOL    HW233942   0.912   1.965   2.632 -0.2543  0.8464 -1.0994
 7494SOL     OW33943   2.671   0.541   2.184 -0.4921  0.6776  0.1362
 7494SOL    HW133944   2.627   0.616   2.144 -2.3494 -0.6326 -0.2990
 7494SOL    HW233945   2.610   0.518   2.254 -0.8295  1.6509  0.1641
 7495SOL     OW33946   1.621   2.586   2.258 -0.1126 -0.2255  0.1455
 7495SOL    HW133947   1.557   2.544   2.200  0.1691  1.9129 -1.7105
 7495SOL    HW233948   1.689   2.612   2.197 -0.3533 -1.2505 -0.5623
 7496SOL     OW33949   4.292   4.357   5.944  0.3447 -0.2776 -0.1167
 7496SOL    HW133950   4.334   4.437   5.914  0.5962 -0.4528 -0.2331
 7496SOL    HW233951   4.302   4.305   5.864 -0.0455 -1.3194  0.5063
 7497SOL     OW33952   4.339   1.391   7.888  0.2753  0.3885 -0.4898
 7497SOL    HW133953   4.342   1.304   7.928 -0.2504 -0.9666 -3.4007
 7497SOL    HW233954   4.270   1.426   7.944  0.4220  0.2176 -0.2008
 7498SOL     OW33955   4.592   1.729   6.646  0.3899  0.3346 -0.1290
 7498SOL    HW133956   4.660   1.761   6.587  1.7162 -0.5079  0.9423
 7498SOL    HW233957   4.516   1.728   6.588  0.8398  0.0685 -0.7097
 7499SOL     OW33958   4.015   4.398  13.675  0.1149  0.5053  0.2043
 7499SOL    HW133959   4.015   4.489  13.645 -0.9442  0.6128  0.5468
 7499SOL    HW233960   3.922   4.376  13.684 -0.1192  1.3027 -0.2682
 7500SOL     OW33961   1.249   4.108   7.908  0.3076  0.0113 -0.5810
 7500SOL    HW133962   1.211   4.150   7.830  0.9096  0.4674 -0.6356
 7500SOL    HW233963   1.205   4.024   7.901  1.0867 -0.3656 -0.9758
 7501SOL     OW33964   1.911   0.503   2.122 -0.2832 -0.7385 -0.3103
 7501SOL    HW133965   1.831   0.521   2.073 -0.8547  0.8188  1.1981
 7501SOL    HW233966   1.951   0.430   2.074  0.1560 -1.9271  1.8763
 7502SOL     OW33967   1.985   1.735  15.849  0.5861  0.1873 -0.2676
 7502SOL    HW133968   1.936   1.665  15.893  0.8753  1.4800  2.1635
 7502SOL    HW233969   2.047   1.770  15.914  2.0573 -2.3407 -0.3052
 7503SOL     OW33970   1.338   0.868   7.028  0.4697  0.2471 -0.0595
 7503SOL    HW133971   1.268   0.813   7.062  0.9144 -0.5917 -0.5128
 7503SOL    HW233972   1.296   0.917   6.957 -1.5674  0.5292  1.3614
 7504SOL     OW33973   1.195   3.913   8.378 -0.3371 -0.1480  0.1836
 7504SOL    HW133974   1.152   3.935   8.296 -0.3680 -0.2563  0.1703
 7504SOL    HW233975   1.279   3.960   8.382  0.7048 -2.0054  0.2675
 7505SOL     OW33976   3.351   0.702   0.839  0.2814  0.4236 -0.1482
 7505SOL    HW133977   3.287   0.754   0.887  0.7137  1.1858 -0.3886
 7505SOL    HW233978   3.425   0.692   0.899 -0.6838 -2.9695  0.4376
 7506SOL     OW33979   1.315   0.945   5.144 -0.2302  0.1304  0.1029
 7506SOL    HW133980   1.377   0.914   5.210 -0.4700 -0.3318  0.1062
 7506SOL    HW233981   1.235   0.944   5.196 -2.0118  0.5391 -2.6693
 7507SOL     OW33982   2.703   0.334   7.147 -0.6015 -0.4110 -0.2998
 7507SOL    HW133983   2.652   0.349   7.068 -0.3502  3.3738  0.2468
 7507SOL    HW233984   2.769   0.280   7.103  0.5050  0.3845  0.3689
 7508SOL     OW33985   0.128   0.527  16.523  0.3669  0.0930  0.1738
 7508SOL    HW133986   0.040   0.546  16.491  0.2012  0.0929  0.6263
 7508SOL    HW233987   0.122   0.581  16.601 -4.0509  0.0384 -0.1084
 7509SOL     OW33988   1.431   4.355   8.035 -0.2160  0.7373  0.8873
 7509SOL    HW133989   1.486   4.294   7.986 -1.7033 -1.0997  1.5363
 7509SOL    HW233990   1.498   4.393   8.092  0.5836  0.9752 -0.2141
 7510SOL     OW33991   1.469   2.466  15.192  0.1007 -0.8903 -0.0836
 7510SOL    HW133992   1.505   2.378  15.207 -0.2433 -0.5697  2.7135
 7510SOL    HW233993   1.468   2.494  15.284 -0.1829 -0.9238 -0.0773
 7511SOL     OW33994   2.867   0.054  11.671  0.0941 -0.4194  0.2523
 7511SOL    HW133995   2.936   4.716  11.694 -1.2983 -1.3614  1.9561
 7511SOL    HW233996   2.913   0.135  11.690 -0.9660  0.1876  0.2253
 7512SOL     OW33997   2.377   3.671   7.411  0.9767 -0.4749  0.6400
 7512SOL    HW133998   2.358   3.728   7.337  0.4226  0.5788  1.5822
 7512SOL    HW233999   2.360   3.731   7.484  0.8281  1.0741 -0.6702
 7513SOL     OW34000   1.430   0.977   0.151 -0.7514  0.0354  0.3929
 7513SOL    HW134001   1.366   0.924   0.198 -2.3365  0.8814 -0.7917
 7513SOL    HW234002   1.381   1.031   0.088  0.7787 -0.6062 -1.3641
 7514SOL     OW34003   2.028   3.421  15.520  0.1030 -0.0668  0.5451
 7514SOL    HW134004   1.989   3.476  15.588  1.1999  0.5022  0.7032
 7514SOL    HW234005   2.091   3.372  15.572  0.9099  0.6766  0.2640
 7515SOL     OW34006   1.778   1.168   3.739  0.0587 -0.4594 -0.3175
 7515SOL    HW134007   1.816   1.117   3.668  2.5634  0.5685  0.2883
 7515SOL    HW234008   1.703   1.204   3.691 -0.2500 -1.0174 -0.2462
 7516SOL     OW34009   0.820   0.656   5.198  0.0573 -0.7025  0.3843
 7516SOL    HW134010   0.825   0.584   5.261 -0.2537  0.1867  1.4223
 7516SOL    HW234011   0.786   0.612   5.120 -1.1463 -0.1506  0.5989
 7517SOL     OW34012   0.624   1.933   2.693  0.1775  0.0842 -0.3620
 7517SOL    HW134013   0.578   1.989   2.755 -1.2651 -0.0060 -1.3578
 7517SOL    HW234014   0.690   1.884   2.742  0.9322  0.6508 -0.8131
 7518SOL     OW34015   4.695   2.668   4.234 -0.8004  0.1776 -0.2202
 7518SOL    HW134016   4.603   2.666   4.211 -0.2233 -3.0244 -2.2908
 7518SOL    HW234017   4.707   2.755   4.271  1.8194 -0.5960  0.8058
 7519SOL     OW34018   4.629   2.836   5.707 -0.5340 -0.6498  0.2600
 7519SOL    HW134019   4.661   2.758   5.661  0.0468  0.0167 -0.4598
 7519SOL    HW234020   4.628   2.805   5.798  1.3077  4.9573  2.1987
 7520SOL     OW34021   2.895   1.564   8.450 -0.1022 -0.1563  0.6053
 7520SOL    HW134022   2.924   1.517   8.527  1.0621  0.7607  0.7145
 7520SOL    HW234023   2.800   1.572   8.459 -0.3399  0.6125 -2.4424
 7521SOL     OW34024   1.727   0.946  15.708  0.2805 -0.2655  0.4585
 7521SOL    HW134025   1.668   1.006  15.663  0.8866  1.2733  1.6599
 7521SOL    HW234026   1.767   0.891  15.641  3.0771 -0.7810  2.5197
 7522SOL     OW34027   2.203   3.604   5.009 -0.3024 -0.7148 -0.4104
 7522SOL    HW134028   2.215   3.550   5.087  0.2342 -0.0906 -0.0630
 7522SOL    HW234029   2.129   3.662   5.028  1.5104  1.2539  0.6419
 7523SOL     OW34030   3.544   4.482  11.972 -0.0332 -0.8052 -0.2253
 7523SOL    HW134031   3.612   4.444  12.026 -0.5142  1.1749  1.7939
 7523SOL    HW234032   3.497   4.412  11.926 -1.9580  0.3105  0.0198
 7524SOL     OW34033   0.703   1.295   8.250  0.2181 -0.7648  0.6862
 7524SOL    HW134034   0.626   1.341   8.283  0.4086 -0.3526  0.5537
 7524SOL    HW234035   0.659   1.231   8.193 -1.9411 -0.0143  1.5037
 7525SOL     OW34036   4.057   0.319   4.829 -0.2829 -0.0877  0.0295
 7525SOL    HW134037   4.143   0.360   4.817 -0.9455  2.1985  3.0033
 7525SOL    HW234038   4.038   0.332   4.922  2.9414  2.0274  0.3886
 7526SOL     OW34039   3.729   3.706   7.557 -0.3848 -0.0028 -0.0428
 7526SOL    HW134040   3.665   3.663   7.613 -1.2035 -0.1113 -1.0500
 7526SOL    HW234041   3.752   3.639   7.492  1.4181  1.1377 -0.6073
 7527SOL     OW34042   0.926   1.373   1.186  0.0122 -0.1367  0.2638
 7527SOL    HW134043   0.837   1.399   1.209  0.7158  3.3294 -0.9377
 7527SOL    HW234044   0.918   1.393   1.093  0.2024  0.3231  0.3491
 7528SOL     OW34045   4.416   3.463   8.397 -0.4188  0.0766  0.1239
 7528SOL    HW134046   4.464   3.460   8.480 -1.1304  0.5336  0.5463
 7528SOL    HW234047   4.482   3.477   8.328 -0.3094 -1.9938 -0.1877
 7529SOL     OW34048   2.438   2.613   7.560 -0.2866  0.0501 -0.2243
 7529SOL    HW134049   2.411   2.698   7.525  2.9498  0.6779 -1.1977
 7529SOL    HW234050   2.351   2.574   7.565  0.6014 -1.8596  0.4011
 7530SOL     OW34051   2.408   2.993  17.234 -0.6462 -0.5921  0.1857
 7530SOL    HW134052   2.484   2.937  17.253 -0.5885 -0.9505 -1.1024
 7530SOL    HW234053   2.358   2.938  17.174  0.7235 -0.3417 -1.2061
 7531SOL     OW34054   3.229   0.904   8.539 -0.1107 -0.1779  0.0802
 7531SOL    HW134055   3.281   0.934   8.615 -0.4296 -0.9184  0.5923
 7531SOL    HW234056   3.141   0.941   8.546  0.5834  1.4342  0.4835
 7532SOL     OW34057   3.040   2.722   9.741 -0.5057 -0.3829 -0.0276
 7532SOL    HW134058   3.049   2.634   9.779 -1.8831 -0.3908  0.2933
 7532SOL    HW234059   3.044   2.767   9.825 -0.8979 -2.1939  0.9704
 7533SOL     OW34060   4.691   3.978  17.064  0.2317 -0.2073 -0.9492
 7533SOL    HW134061   4.668   4.049  17.005 -0.1808  1.9626  1.8001
 7533SOL    HW234062   4.661   4.030  17.139 -1.4037 -1.3452 -0.8230
 7534SOL     OW34063   3.329   0.370   0.211  0.3026  0.4626 -0.3893
 7534SOL    HW134064   3.326   0.332   0.124  3.8959  0.3298 -0.4677
 7534SOL    HW234065   3.274   0.321   0.272 -1.6254 -0.4660 -2.9161
 7535SOL     OW34066   0.468   1.298   6.549  0.2494 -0.1350  1.0362
 7535SOL    HW134067   0.480   1.224   6.608 -2.5284 -0.6613  0.9195
 7535SOL    HW234068   0.551   1.287   6.502 -1.7012 -4.0367 -1.5233
 7536SOL     OW34069   2.746   3.399   5.201 -0.3570 -0.5956 -0.3815
 7536SOL    HW134070   2.758   3.327   5.262  0.6850 -0.7738 -0.7854
 7536SOL    HW234071   2.745   3.354   5.117 -1.5068 -0.9067 -0.2042
 7537SOL     OW34072   1.512   1.608   8.147  0.2923  0.2184  0.1071
 7537SOL    HW134073   1.595   1.559   8.144  0.7101  0.9683 -0.5158
 7537SOL    HW234074   1.535   1.689   8.102  1.5528  1.2036  2.5179
 7538SOL     OW34075   0.090   4.328  15.003 -0.0656 -0.5742 -0.2691
 7538SOL    HW134076   4.722   4.317  15.027 -0.4187 -1.2842 -1.9748
 7538SOL    HW234077   0.094   4.300  14.912 -1.7193  0.6656 -0.7096
 7539SOL     OW34078   0.337   4.284   9.341  0.0999 -0.5106  0.3817
 7539SOL    HW134079   0.369   4.217   9.401  2.9010  1.1380  0.6914
 7539SOL    HW234080   0.422   4.325   9.327 -0.7051  0.1847 -2.5928
 7540SOL     OW34081   0.928   3.281  17.174  0.3692  0.3699  0.0266
 7540SOL    HW134082   0.860   3.254  17.236 -2.5450 -1.7170 -4.1393
 7540SOL    HW234083   0.934   3.374  17.196 -3.0229  0.4984  0.4106
 7541SOL     OW34084   4.367   1.205  12.305 -0.0521 -0.0970  0.2319
 7541SOL    HW134085   4.439   1.183  12.364 -0.8585 -1.1906  0.8342
 7541SOL    HW234086   4.325   1.274  12.355 -1.0326 -0.3708 -0.2109
 7542SOL     OW34087   3.631   3.414   0.633  0.0878 -0.8303  0.1855
 7542SOL    HW134088   3.568   3.355   0.674 -0.0074 -0.6111  0.3540
 7542SOL    HW234089   3.627   3.371   0.548  4.5524 -0.2498 -0.3272
 7543SOL     OW34090   1.543   3.784   0.713  0.6220  0.1237  0.1747
 7543SOL    HW134091   1.507   3.865   0.750  2.0185  0.5064  0.6765
 7543SOL    HW234092   1.578   3.808   0.628 -0.1632 -0.0289 -0.1942
 7544SOL     OW34093   3.844   0.023   9.862 -0.6880 -0.2657  0.6807
 7544SOL    HW134094   3.853   0.046   9.954 -1.5684 -2.6287  1.3744
 7544SOL    HW234095   3.859   4.652   9.856  1.4559  0.0447  1.0888
 7545SOL     OW34096   1.890   0.572   7.271  0.7852 -0.3722 -0.0345
 7545SOL    HW134097   1.896   0.527   7.356 -0.2682 -0.3524  0.0593
 7545SOL    HW234098   1.971   0.538   7.234  0.3574 -0.7521 -0.6336
 7546SOL     OW34099   1.802   0.198   1.302  0.5229  0.8565 -0.1849
 7546SOL    HW134100   1.863   0.270   1.288  1.8440  0.0620  1.4955
 7546SOL    HW234101   1.808   0.180   1.396  0.7583  0.9928 -0.1749
 7547SOL     OW34102   2.096   2.893   5.057 -0.0984  0.0408  0.1487
 7547SOL    HW134103   2.187   2.866   5.046  0.2530  1.1446  0.2620
 7547SOL    HW234104   2.091   2.964   4.993  0.2755  0.6058  0.7463
 7548SOL     OW34105   0.099   4.403   7.440 -0.4021  0.0279 -0.2356
 7548SOL    HW134106   0.069   4.347   7.512 -1.2147  1.1512  0.3028
 7548SOL    HW234107   0.079   4.344   7.368  0.2779  2.9061 -2.7620
 7549SOL     OW34108   0.267   4.035   2.107  0.0697 -0.2160 -0.4311
 7549SOL    HW134109   0.295   3.944   2.095 -2.8696 -1.3336  1.1982
 7549SOL    HW234110   0.214   4.030   2.186  0.0222  0.7985 -0.3955
 7550SOL     OW34111   3.757   4.587  16.446  0.6629 -0.2957 -0.0606
 7550SOL    HW134112   3.718   4.506  16.414 -0.5202  0.4359 -0.4305
 7550SOL    HW234113   3.773   4.559  16.536  1.1244  1.1171  0.2934
 7551SOL     OW34114   0.683   4.477   7.640 -0.3158  0.2000  0.0671
 7551SOL    HW134115   0.669   4.567   7.611 -0.1441 -0.2555 -1.4271
 7551SOL    HW234116   0.771   4.458   7.608 -0.1961  2.2608 -0.7713
 7552SOL     OW34117   2.916   3.895   9.411 -0.3450  0.1374  0.0383
 7552SOL    HW134118   2.825   3.901   9.439 -0.4983 -1.1207 -0.1963
 7552SOL    HW234119   2.906   3.937   9.325 -2.3404 -0.2502  0.0885
 7553SOL     OW34120   1.754   0.325   3.490  0.0442 -0.0048 -0.2877
 7553SOL    HW134121   1.747   0.336   3.585 -0.7869 -1.4707 -0.1825
 7553SOL    HW234122   1.839   0.284   3.473  0.1391 -0.0123  0.1999
 7554SOL     OW34123   2.525   4.500   6.014  0.2809 -0.0453  0.2984
 7554SOL    HW134124   2.452   4.549   6.052 -1.5021 -1.7477 -0.9137
 7554SOL    HW234125   2.512   4.545   5.931 -0.1457 -2.3699 -0.9151
 7555SOL     OW34126   2.510   3.333   2.349  0.2448 -0.2754 -0.1251
 7555SOL    HW134127   2.594   3.356   2.389  1.3338 -2.5337 -1.0866
 7555SOL    HW234128   2.465   3.417   2.355  2.7159  1.0217  0.4968
 7556SOL     OW34129   0.884   1.679   1.173 -0.4150  0.2224 -0.1924
 7556SOL    HW134130   0.906   1.623   1.098 -2.2069  0.3331 -0.8174
 7556SOL    HW234131   0.971   1.711   1.198  1.2352 -3.7905 -0.7639
 7557SOL     OW34132   1.392   1.371   8.701  0.5067  0.1288  0.0927
 7557SOL    HW134133   1.401   1.421   8.781 -0.7884 -1.3109  1.1399
 7557SOL    HW234134   1.486   1.354   8.689  0.7659 -0.8512  3.4350
 7558SOL     OW34135   1.650   1.230  15.955 -0.4208  0.0137  0.4805
 7558SOL    HW134136   1.653   1.136  15.973  2.4294 -0.0309 -0.2744
 7558SOL    HW234137   1.678   1.278  16.033  1.4222  1.3074 -0.9739
 7559SOL     OW34138   2.134   3.070  14.488 -0.1920 -0.1116  0.4172
 7559SOL    HW134139   2.112   3.048  14.397 -1.3081  0.0420  0.6569
 7559SOL    HW234140   2.143   2.985  14.532  2.1808 -1.4962 -2.7071
 7560SOL     OW34141   3.850   2.119  10.732  0.0750 -0.2943  0.2377
 7560SOL    HW134142   3.881   2.031  10.710 -0.3384 -0.6987  1.2575
 7560SOL    HW234143   3.931   2.157  10.765 -0.6581 -0.2427  1.9893
 7561SOL     OW34144   2.894   1.700   3.424  0.0502  0.0928  0.7385
 7561SOL    HW134145   2.985   1.688   3.452 -0.4322 -2.1210  1.3747
 7561SOL    HW234146   2.867   1.747   3.503 -2.0408  0.2302 -0.0701
 7562SOL     OW34147   3.819   4.038   7.908 -0.1321  0.1247 -0.2659
 7562SOL    HW134148   3.800   4.002   7.822 -0.9479  0.7627 -0.3514
 7562SOL    HW234149   3.865   3.965   7.950 -0.2308  0.2168  0.0005
 7563SOL     OW34150   4.418   1.810   7.514  0.2982  0.2057 -0.4217
 7563SOL    HW134151   4.459   1.724   7.524  1.1611  0.5153 -1.2800
 7563SOL    HW234152   4.491   1.871   7.502  0.7832 -0.3039 -0.0833
 7564SOL     OW34153   0.206   4.268   3.266 -0.2860  0.4004  0.3012
 7564SOL    HW134154   0.211   4.226   3.352  1.6242 -0.2454 -0.1500
 7564SOL    HW234155   0.190   4.192   3.211 -0.5336  1.5952 -1.2715
 7565SOL     OW34156   0.023   0.804   8.164  0.1462 -0.2743 -0.2519
 7565SOL    HW134157   0.010   0.847   8.080 -0.8078  1.2821  0.7022
 7565SOL    HW234158   4.683   0.736   8.144 -1.7026  1.5825 -0.6203
 7566SOL     OW34159   2.152   3.749   2.403  0.3025 -0.0448  0.1064
 7566SOL    HW134160   2.090   3.821   2.416  1.6850  1.4978 -1.9401
 7566SOL    HW234161   2.236   3.784   2.374  0.6737 -0.2616  0.9298
 7567SOL     OW34162   1.280   0.800  13.322 -0.1429 -0.1605 -0.1951
 7567SOL    HW134163   1.301   0.710  13.345  1.6503 -0.1326 -1.8066
 7567SOL    HW234164   1.235   0.826  13.403  0.7099 -2.3258  0.9502
 7568SOL     OW34165   4.452   1.302   8.873  0.6216  0.5694  0.1785
 7568SOL    HW134166   4.431   1.247   8.948  1.4046  2.1202  1.5087
 7568SOL    HW234167   4.499   1.371   8.919  0.2373  1.1912 -0.3566
 7569SOL     OW34168   0.477   3.582   4.578  0.6115  0.0340  0.0779
 7569SOL    HW134169   0.456   3.526   4.503  2.9893 -0.1564 -0.4579
 7569SOL    HW234170   0.513   3.507   4.625  0.0695  1.1119  2.2291
 7570SOL     OW34171   3.406   1.048   6.834 -0.1304  0.2844  0.9496
 7570SOL    HW134172   3.391   0.955   6.855 -0.8589  0.0812 -0.4505
 7570SOL    HW234173   3.332   1.078   6.887 -1.7967  0.9657 -1.7804
 7571SOL     OW34174   1.411   3.419  11.105 -0.0927 -0.2789 -0.3651
 7571SOL    HW134175   1.432   3.469  11.183  1.6104 -1.8970  0.2267
 7571SOL    HW234176   1.498   3.385  11.080 -0.5526 -0.4480 -1.7646
 7572SOL     OW34177   1.065   2.679  14.458  0.5307  0.6312 -0.4013
 7572SOL    HW134178   0.980   2.721  14.447 -0.0902 -0.7576 -0.9187
 7572SOL    HW234179   1.118   2.732  14.518 -0.1624 -0.3308  1.0483
 7573SOL     OW34180   1.881   1.601   1.810  0.0210 -0.2233 -0.2858
 7573SOL    HW134181   1.891   1.512   1.844 -2.7452  0.1330  1.4498
 7573SOL    HW234182   1.971   1.625   1.791 -0.4539  1.0432 -0.8877
 7574SOL     OW34183   3.088   1.615   5.770  0.1456 -0.0998 -0.6579
 7574SOL    HW134184   3.156   1.683   5.773  2.4032 -2.5306  2.0215
 7574SOL    HW234185   3.038   1.642   5.693  0.7424  0.1929 -0.9509
 7575SOL     OW34186   3.824   0.828   4.563 -0.3866  0.1416 -0.4941
 7575SOL    HW134187   3.780   0.911   4.549  1.8387  1.1873 -1.3083
 7575SOL    HW234188   3.849   0.844   4.654  0.2513  0.4423 -0.7209
 7576SOL     OW34189   3.454   2.593   8.890  0.8561 -0.1495  0.0793
 7576SOL    HW134190   3.378   2.575   8.835  1.3122 -2.7785  0.3452
 7576SOL    HW234191   3.478   2.503   8.909  0.6278 -0.0983  0.6079
 7577SOL     OW34192   3.514   4.416   4.219 -0.3032 -0.1201  0.2460
 7577SOL    HW134193   3.563   4.378   4.146  1.5876  1.0478  0.9024
 7577SOL    HW234194   3.502   4.341   4.277 -0.9395 -0.6083 -0.5427
 7578SOL     OW34195   3.031   0.297   8.606 -0.3836  0.6691 -0.3444
 7578SOL    HW134196   3.029   0.206   8.637  0.8270  0.0367 -2.1549
 7578SOL    HW234197   2.961   0.305   8.541  0.2372 -0.6815 -1.1705
 7579SOL     OW34198   3.467   2.654  10.532  0.3830  0.6943 -0.4111
 7579SOL    HW134199   3.433   2.568  10.511  1.7489 -0.0446  0.3670
 7579SOL    HW234200   3.502   2.634  10.619 -1.4909  0.4994  0.2994
 7580SOL     OW34201   0.824   2.979   7.655 -0.1549  0.2879 -0.5601
 7580SOL    HW134202   0.776   3.038   7.596 -0.3117  2.9280  2.2581
 7580SOL    HW234203   0.792   3.008   7.740 -0.6911 -1.9571  0.0172
 7581SOL     OW34204   3.470   1.148   0.843  0.2713 -0.1639 -0.3716
 7581SOL    HW134205   3.452   1.188   0.929  0.6398 -0.0778 -0.3337
 7581SOL    HW234206   3.380   1.130   0.815  0.2429  0.0943 -0.4501
 7582SOL     OW34207   1.552   4.245   5.367  0.0287 -0.5484  0.6072
 7582SOL    HW134208   1.551   4.203   5.281  0.7595 -0.4018  0.5344
 7582SOL    HW234209   1.466   4.284   5.382  0.5982  1.2720 -0.9611
 7583SOL     OW34210   3.273   4.224   4.200 -0.0593 -0.2991 -0.0885
 7583SOL    HW134211   3.231   4.310   4.194  0.5763  0.1438  1.6998
 7583SOL    HW234212   3.339   4.239   4.268 -0.5909  2.0044 -0.0765
 7584SOL     OW34213   3.479   3.944   5.364 -0.5896  0.1560  0.2220
 7584SOL    HW134214   3.546   3.927   5.298 -0.4632  0.6999  0.2105
 7584SOL    HW234215   3.466   4.037   5.348  2.7420  0.9185  2.2376
 7585SOL     OW34216   2.356   0.065   8.656  0.7697  0.1866  0.3248
 7585SOL    HW134217   2.316   0.151   8.656 -1.1959 -0.7235 -0.8215
 7585SOL    HW234218   2.444   0.071   8.694  0.0855 -2.8001  2.4016
 7586SOL     OW34219   1.597   2.641   9.048 -0.4310 -0.3163 -0.0573
 7586SOL    HW134220   1.668   2.647   9.112 -0.4942 -0.0002 -0.0189
 7586SOL    HW234221   1.517   2.654   9.098  1.2539 -0.8869  2.8208
 7587SOL     OW34222   3.801   1.534  15.612 -0.0526  0.1566 -0.0166
 7587SOL    HW134223   3.841   1.545  15.526 -1.1176  2.3060 -0.2391
 7587SOL    HW234224   3.790   1.628  15.628  1.2410  0.3878 -0.4885
 7588SOL     OW34225   0.020   4.690   5.123  0.2304 -0.0583  0.1061
 7588SOL    HW134226   4.675   4.630   5.094 -0.0370  0.1034  0.3974
 7588SOL    HW234227   4.693   0.007   5.194  2.4405 -1.2215  2.3448
 7589SOL     OW34228   2.890   4.487  17.218  0.7730 -0.0184  0.0175
 7589SOL    HW134229   2.943   4.567  17.216  0.8652 -0.0832 -0.2239
 7589SOL    HW234230   2.891   4.457  17.309 -1.4956  0.2890  0.1206
 7590SOL     OW34231   1.869   0.793   7.926  0.0366  0.4427 -0.1192
 7590SOL    HW134232   1.809   0.866   7.937 -1.0451 -0.2551 -1.3921
 7590SOL    HW234233   1.931   0.816   7.857 -0.0887  1.4357  0.1082
 7591SOL     OW34234   4.166   0.504   2.298  0.3620  0.7897 -0.1394
 7591SOL    HW134235   4.138   0.490   2.389  0.7824  1.2383  0.0613
 7591SOL    HW234236   4.259   0.501   2.321  0.0483  0.1461  1.0579
 7592SOL     OW34237   4.221   3.608  13.259 -0.2783  0.2838 -0.1613
 7592SOL    HW134238   4.275   3.651  13.325 -1.4953  0.9877  0.3712
 7592SOL    HW234239   4.281   3.547  13.215  0.0096  1.6984 -1.7613
 7593SOL     OW34240   0.833   0.915   5.286 -0.4852  0.4555 -0.6803
 7593SOL    HW134241   0.826   0.820   5.275 -1.8570  0.4589  0.2028
 7593SOL    HW234242   0.873   0.940   5.203  2.0234 -0.4860  0.2333
 7594SOL     OW34243   0.576   4.226   1.343  0.2414  0.7393  0.5065
 7594SOL    HW134244   0.498   4.259   1.389  0.3412  3.1076 -1.0546
 7594SOL    HW234245   0.652   4.241   1.399  1.9363 -0.0376 -1.6373
 7595SOL     OW34246   3.039   2.179   4.525 -0.3300 -0.2444 -0.3487
 7595SOL    HW134247   3.045   2.103   4.583  2.1651 -0.8706 -1.4163
 7595SOL    HW234248   3.131   2.185   4.498 -0.5499 -1.0981 -1.2596
 7596SOL     OW34249   0.881   3.500   3.504 -0.0086  0.5650  0.6454
 7596SOL    HW134250   0.813   3.507   3.570 -0.6629  2.3791 -0.1995
 7596SOL    HW234251   0.831   3.499   3.422  1.8914 -0.1428 -0.5072
 7597SOL     OW34252   4.188   1.403   2.941  0.3555 -0.0097 -0.2870
 7597SOL    HW134253   4.211   1.482   2.892  2.7373 -1.3087 -1.2815
 7597SOL    HW234254   4.190   1.346   2.864 -2.0064  2.6743 -2.3193
 7598SOL     OW34255   1.571   3.756  17.026  0.4795  0.3377 -0.1588
 7598SOL    HW134256   1.595   3.771  16.935  1.5677 -0.5491 -0.0160
 7598SOL    HW234257   1.477   3.775  17.030  0.3152 -0.7534  1.1019
 7599SOL     OW34258   0.543   2.060   6.916  0.8429  0.5353 -0.4673
 7599SOL    HW134259   0.560   2.104   6.833 -0.7226  1.1906 -0.4305
 7599SOL    HW234260   0.632   2.023   6.916  0.4615 -0.3711  0.9978
 7600SOL     OW34261   2.520   0.132  11.686  0.3682 -0.0350  0.4293
 7600SOL    HW134262   2.547   0.186  11.760  0.8816  0.6805 -0.2792
 7600SOL    HW234263   2.426   0.113  11.694  0.3779 -0.1750  0.2215
 7601SOL     OW34264   4.094   2.439   9.540 -0.2412  0.0002  0.5296
 7601SOL    HW134265   4.140   2.522   9.528 -0.9322 -0.1086 -3.1333
 7601SOL    HW234266   4.072   2.423   9.448  1.4779  1.0131 -0.0580
 7602SOL     OW34267   3.506   0.610   9.182 -0.0455 -0.2388 -0.6856
 7602SOL    HW134268   3.577   0.596   9.119 -0.6387 -1.6141 -1.0751
 7602SOL    HW234269   3.544   0.686   9.224 -1.1097  0.6549 -1.3373
 7603SOL     OW34270   3.597   0.395   9.992 -0.6486 -0.0483 -0.2806
 7603SOL    HW134271   3.652   0.460   9.946 -0.7492  0.0107 -0.3172
 7603SOL    HW234272   3.515   0.442   9.977 -0.4067  0.4280 -0.1396
 7604SOL     OW34273   0.731   0.574   6.173 -0.6598 -0.1950 -0.1401
 7604SOL    HW134274   0.670   0.636   6.131 -1.0283  0.4080  1.2839
 7604SOL    HW234275   0.752   0.609   6.259  1.6614 -3.0030  0.4451
 7605SOL     OW34276   3.117   2.130  17.189  0.4781  0.2077 -0.9839
 7605SOL    HW134277   3.107   2.135  17.094 -1.6217  0.9464 -0.7254
 7605SOL    HW234278   3.200   2.172  17.211  0.6060 -0.7719  0.3615
 7606SOL     OW34279   0.841   4.380  15.653  0.0111  0.2983  1.0352
 7606SOL    HW134280   0.810   4.293  15.630  1.2610  0.1205  0.0044
 7606SOL    HW234281   0.810   4.374  15.743 -0.1074  2.3432  1.1249
 7607SOL     OW34282   1.689   2.634   4.813  0.0905 -0.1252  0.0123
 7607SOL    HW134283   1.594   2.628   4.824 -0.1575  0.1074 -2.0412
 7607SOL    HW234284   1.700   2.570   4.743  1.8274  1.0648 -0.7788
 7608SOL     OW34285   1.963   1.473   2.900 -0.1259 -0.6191 -0.4289
 7608SOL    HW134286   1.898   1.417   2.856  0.6444  0.0904 -2.4508
 7608SOL    HW234287   1.937   1.559   2.867 -3.1003 -0.8620  1.2863
 7609SOL     OW34288   3.285   4.700   7.040  0.0965  0.0414 -0.1591
 7609SOL    HW134289   3.356   4.636   7.044 -1.2166 -1.3768  0.6132
 7609SOL    HW234290   3.336   0.054   7.060 -0.8190  0.6723 -0.3030
 7610SOL     OW34291   4.717   2.989  14.862  0.2533 -0.4947  0.0400
 7610SOL    HW134292   4.666   2.945  14.930  2.2182 -3.6291 -0.4714
 7610SOL    HW234293   0.044   2.918  14.822  0.9741 -0.2436  0.5112
 7611SOL     OW34294   3.972   1.864   4.166  0.2045  0.0711  0.0617
 7611SOL    HW134295   3.976   1.770   4.148 -3.5295 -0.3911  1.4852
 7611SOL    HW234296   3.904   1.893   4.106  0.6138  1.6610  0.3666
 7612SOL     OW34297   1.656   3.777   2.828 -0.1018 -0.5076 -0.1331
 7612SOL    HW134298   1.702   3.732   2.899  0.7734  1.0741  0.2982
 7612SOL    HW234299   1.734   3.775   2.772  0.4913 -1.5519  0.7329
 7613SOL     OW34300   3.558   2.664   5.892  0.0434  0.1759 -0.3962
 7613SOL    HW134301   3.495   2.626   5.954 -0.4160  0.6112 -0.6008
 7613SOL    HW234302   3.569   2.754   5.920  0.8612 -0.3275  0.9017
 7614SOL     OW34303   3.857   4.117   4.677  0.0230 -0.3078 -0.6596
 7614SOL    HW134304   3.816   4.202   4.697  0.0908 -0.2199 -0.8897
 7614SOL    HW234305   3.938   4.124   4.728 -1.2956  0.5154  1.3344
 7615SOL     OW34306   0.985   2.538   5.933 -0.2979  0.3725 -0.4426
 7615SOL    HW134307   0.935   2.603   5.884 -0.0058  0.6059 -0.4266
 7615SOL    HW234308   1.071   2.579   5.934 -0.2425  0.2444 -0.0231
 7616SOL     OW34309   1.796   3.019   0.153 -0.0479  0.6414 -0.1221
 7616SOL    HW134310   1.723   2.984   0.204 -0.5533 -0.8145 -1.8079
 7616SOL    HW234311   1.847   3.054   0.226 -0.0918  3.2420 -1.3493
 7617SOL     OW34312   3.622   0.336   2.569 -0.2719 -0.0186  0.4739
 7617SOL    HW134313   3.624   0.384   2.652  0.7375  0.9832 -0.1332
 7617SOL    HW234314   3.529   0.327   2.550 -0.1411 -1.2105  0.4101
 7618SOL     OW34315   4.468   2.190   2.504 -0.5293 -0.7358 -0.1889
 7618SOL    HW134316   4.560   2.163   2.504 -0.7958 -1.5760 -3.3871
 7618SOL    HW234317   4.439   2.104   2.536  1.1499 -0.7133  1.4091
 7619SOL     OW34318   0.664   1.655  14.226  0.4019 -0.2438 -0.0695
 7619SOL    HW134319   0.603   1.728  14.214 -0.1346 -0.5823  0.5289
 7619SOL    HW234320   0.609   1.579  14.203 -0.1856  0.1631 -0.0174
 7620SOL     OW34321   0.237   4.153   5.305 -0.8680 -0.4055 -0.1984
 7620SOL    HW134322   0.324   4.147   5.265 -1.1982 -0.6906 -0.8768
 7620SOL    HW234323   0.254   4.226   5.364  1.6603 -1.5611  0.5001
 7621SOL     OW34324   1.937   3.064   3.760 -0.5518 -0.6736  0.0879
 7621SOL    HW134325   1.963   3.102   3.844 -0.6490 -0.8483  0.1974
 7621SOL    HW234326   1.996   2.988   3.759  2.5585  1.7628  0.2585
 7622SOL     OW34327   0.006   2.030   7.830  0.0898  0.2740 -0.1629
 7622SOL    HW134328   0.095   2.020   7.797 -0.1823 -1.2008 -0.4567
 7622SOL    HW234329   0.022   2.026   7.925  0.0554  1.2399 -0.1236
 7623SOL     OW34330   0.402   1.109   3.372  0.0838  0.0302 -0.4636
 7623SOL    HW134331   0.467   1.041   3.350 -0.0944 -0.3506  0.1761
 7623SOL    HW234332   0.345   1.117   3.296 -0.5720  0.8425  0.1187
 7624SOL     OW34333   1.363   2.335   1.501 -0.1403  0.6349  0.2337
 7624SOL    HW134334   1.373   2.340   1.596 -0.9398 -0.7421  0.3942
 7624SOL    HW234335   1.273   2.307   1.488  0.0314  0.1766  0.0096
 7625SOL     OW34336   0.842   2.956   4.609  0.0536 -0.1371 -0.2585
 7625SOL    HW134337   0.774   2.974   4.674  0.7915 -1.3182  0.8354
 7625SOL    HW234338   0.798   2.878   4.574 -0.4283 -0.0836  0.2350
 7626SOL     OW34339   3.823   0.524   1.180  0.6936 -0.2583 -0.0148
 7626SOL    HW134340   3.779   0.607   1.199  0.9178 -0.2318  0.3925
 7626SOL    HW234341   3.908   0.555   1.149  0.5926 -1.6430 -1.6900
 7627SOL     OW34342   0.018   3.562   7.457  0.0405 -0.4160  0.3036
 7627SOL    HW134343   4.691   3.492   7.416 -2.5908  1.7160 -0.0689
 7627SOL    HW234344   4.715   3.560   7.549  1.6434 -2.4240  0.7227
 7628SOL     OW34345   2.112   3.840   3.011 -0.3619  0.0285  0.0558
 7628SOL    HW134346   2.134   3.807   2.924 -0.8491  0.4314 -0.2144
 7628SOL    HW234347   2.144   3.930   3.006 -3.6362  0.9553 -4.5623
 7629SOL     OW34348   4.528   4.351   7.783  0.2590  0.2721 -0.1974
 7629SOL    HW134349   4.468   4.377   7.713  0.6609  0.9744 -0.2830
 7629SOL    HW234350   4.514   4.406   7.860 -0.3820  0.9369 -0.7884
 7630SOL     OW34351   1.238   0.540   4.202  0.2752 -0.5887 -0.5478
 7630SOL    HW134352   1.210   0.480   4.271 -3.6974  0.7631 -0.9613
 7630SOL    HW234353   1.331   0.520   4.196  0.6045  1.5036 -2.2263
 7631SOL     OW34354   4.118   2.712   9.082 -0.2538 -0.3778 -0.4724
 7631SOL    HW134355   4.074   2.711   8.997 -0.0399  1.7638 -0.5925
 7631SOL    HW234356   4.195   2.662   9.053 -0.2619 -1.3855  1.2316
 7632SOL     OW34357   3.649   2.754  11.624 -0.5797 -0.3888 -0.3911
 7632SOL    HW134358   3.666   2.844  11.652 -0.3050 -1.1352  1.8004
 7632SOL    HW234359   3.569   2.736  11.674  0.2687  0.0046  1.1181
 7633SOL     OW34360   3.607   4.205   7.834  0.1247  0.0055 -0.6690
 7633SOL    HW134361   3.678   4.144   7.855 -1.1497 -1.1389  0.2995
 7633SOL    HW234362   3.538   4.141   7.853  1.9370 -1.2452  1.8527
 7634SOL     OW34363   3.060   0.914   1.767  0.2959 -0.5881 -0.3904
 7634SOL    HW134364   3.055   0.855   1.842  0.3918  0.6572  0.5981
 7634SOL    HW234365   3.130   0.872   1.719  0.4014 -1.4081  0.4873
 7635SOL     OW34366   0.420   0.690   4.597 -0.5587 -0.0802 -0.0976
 7635SOL    HW134367   0.481   0.754   4.560 -1.3718  0.2441 -0.9067
 7635SOL    HW234368   0.399   0.725   4.683 -0.0993  0.1700 -0.0859
 7636SOL     OW34369   3.641   4.343   5.264 -0.1822  0.2881  0.1740
 7636SOL    HW134370   3.722   4.364   5.311  0.5892  1.4251 -1.6795
 7636SOL    HW234371   3.671   4.288   5.192  1.7536 -0.4968  1.5555
 7637SOL     OW34372   2.895   2.903  16.105  0.2574  0.1779 -0.4270
 7637SOL    HW134373   2.811   2.915  16.062  1.3085 -0.2287 -2.6117
 7637SOL    HW234374   2.885   2.826  16.161 -1.2877 -1.6106 -3.1746
 7638SOL     OW34375   2.093   0.523   2.317 -0.3071  0.4797  0.1883
 7638SOL    HW134376   2.070   0.499   2.406 -0.6976 -1.3159 -0.4039
 7638SOL    HW234377   2.014   0.525   2.262  0.1137 -0.6084 -0.4615
 7639SOL     OW34378   3.831   2.339  17.203  0.0897  0.2340  0.1483
 7639SOL    HW134379   3.882   2.330  17.284 -0.0246 -0.8877  0.0968
 7639SOL    HW234380   3.852   2.426  17.169  0.8698 -0.5125 -1.2630
 7640SOL     OW34381   1.314   3.720  13.088 -0.0732  0.1717  0.2586
 7640SOL    HW134382   1.301   3.713  12.993 -2.3035 -0.2974  0.5946
 7640SOL    HW234383   1.345   3.634  13.117 -0.9640  0.6735  2.6992
 7641SOL     OW34384   2.791   2.638  15.909  0.8867  0.3737 -0.4141
 7641SOL    HW134385   2.773   2.731  15.923  2.9504  0.8804 -1.1956
 7641SOL    HW234386   2.854   2.616  15.977 -0.2892 -1.1291  0.1934
 7642SOL     OW34387   2.074   0.421  14.321  0.3574 -0.7025  0.3396
 7642SOL    HW134388   2.015   0.400  14.249  0.4803  1.5286 -0.4321
 7642SOL    HW234389   2.053   0.514  14.331  2.9692  0.0048 -0.6602
 7643SOL     OW34390   0.400   3.454   1.126 -0.6187  0.1097 -0.0446
 7643SOL    HW134391   0.490   3.462   1.159 -0.3654  2.0999 -1.1946
 7643SOL    HW234392   0.366   3.381   1.178 -2.0397  0.8595  0.0769
 7644SOL     OW34393   4.165   2.374   1.516 -0.1790  0.5472 -0.4024
 7644SOL    HW134394   4.250   2.330   1.503 -1.7337 -1.7010 -3.0990
 7644SOL    HW234395   4.177   2.377   1.611  0.6249  2.8200 -0.5814
 7645SOL     OW34396   1.374   4.301   9.148 -0.3202 -0.3666 -0.0232
 7645SOL    HW134397   1.307   4.247   9.106  1.6362 -2.4671 -0.4180
 7645SOL    HW234398   1.322   4.346   9.215  0.8908 -0.9474  1.2863
 7646SOL     OW34399   3.823   2.997   3.757 -0.1686  0.9988 -0.3722
 7646SOL    HW134400   3.912   3.025   3.734 -0.3551 -0.4218 -2.8609
 7646SOL    HW234401   3.820   2.929   3.690  1.0912  0.3378  0.2517
 7647SOL     OW34402   3.768   0.789  11.599  0.3085 -0.1609  0.5792
 7647SOL    HW134403   3.706   0.761  11.531 -1.3783  1.5601  1.4133
 7647SOL    HW234404   3.840   0.818  11.543 -0.0080  2.0102  1.2920
 7648SOL     OW34405   0.329   0.485   6.621 -0.1376  0.0043  0.1504
 7648SOL    HW134406   0.290   0.562   6.579  0.4102  0.1277 -0.1326
 7648SOL    HW234407   0.393   0.531   6.675 -1.6824  3.6512 -1.1528
 7649SOL     OW34408   1.272   0.191   3.944  0.3085  0.1630 -0.3687
 7649SOL    HW134409   1.306   0.102   3.938  1.9290  0.8494 -1.2686
 7649SOL    HW234410   1.234   0.206   3.857 -0.2953  1.0350  0.0425
 7650SOL     OW34411   4.429   4.575   2.317  0.2616 -0.0282 -0.5180
 7650SOL    HW134412   4.346   4.606   2.353  2.0653  0.5254  3.1567
 7650SOL    HW234413   4.407   4.556   2.226  2.6298 -0.9667 -0.8871
 7651SOL     OW34414   1.617   2.154  16.430  0.1037 -0.0004  0.0195
 7651SOL    HW134415   1.643   2.076  16.382 -0.8572  0.0047 -0.5226
 7651SOL    HW234416   1.628   2.222  16.364 -1.5518  0.4185  0.1498
 7652SOL     OW34417   1.199   2.036   9.393 -0.3907  1.1268 -0.0677
 7652SOL    HW134418   1.154   2.099   9.449  0.4162  1.1370  0.5610
 7652SOL    HW234419   1.194   2.079   9.307  0.7489  1.5399  0.0719
 7653SOL     OW34420   1.631   1.359   3.317  0.2939 -0.2003  0.3505
 7653SOL    HW134421   1.564   1.319   3.262 -1.0758  1.3592  0.8742
 7653SOL    HW234422   1.705   1.300   3.298 -1.1308 -1.6709 -0.5716
 7654SOL     OW34423   3.833   4.121   1.570  0.4927  0.2420 -0.0204
 7654SOL    HW134424   3.743   4.108   1.541  1.2521 -1.0163 -1.8226
 7654SOL    HW234425   3.841   4.215   1.581  0.9932 -0.1804  3.2673
 7655SOL     OW34426   3.593   3.054   8.602  0.1377 -0.1132  0.4663
 7655SOL    HW134427   3.632   3.140   8.616 -0.2896  0.2137 -0.3327
 7655SOL    HW234428   3.558   3.040   8.690 -1.4663  0.7661 -0.0168
 7656SOL     OW34429   3.197   0.025   0.201 -0.6521  0.4202  0.5585
 7656SOL    HW134430   3.195   0.072   0.118  1.5828 -0.2479  0.1138
 7656SOL    HW234431   3.156   0.082   0.266  2.1401  4.0386 -0.8282
 7657SOL     OW34432   0.386   4.180   2.655 -0.5084  0.3880  0.0726
 7657SOL    HW134433   0.402   4.259   2.707 -3.2955  0.8705  0.1871
 7657SOL    HW234434   0.356   4.220   2.573  0.4566  3.9117  1.4257
 7658SOL     OW34435   3.562   0.170   1.790 -0.5832 -0.0782 -0.8587
 7658SOL    HW134436   3.493   0.216   1.743 -1.9543 -0.1015  1.1335
 7658SOL    HW234437   3.644   0.198   1.751 -0.1800  1.1380  0.8521
 7659SOL     OW34438   3.090   3.863  10.222  0.6065  0.1464  0.2874
 7659SOL    HW134439   3.132   3.779  10.241  2.5327  1.0292 -0.1380
 7659SOL    HW234440   3.095   3.860  10.127 -1.8040 -0.5027  0.1876
 7660SOL     OW34441   0.705   3.068  15.248  0.4140 -0.3119 -0.3617
 7660SOL    HW134442   0.723   3.154  15.210 -1.1176 -0.2419 -0.9390
 7660SOL    HW234443   0.622   3.086  15.292  1.4040 -0.1470  1.4273
 7661SOL     OW34444   3.018   2.118   2.155 -0.1804  0.0846 -0.8646
 7661SOL    HW134445   3.113   2.116   2.164 -0.3852 -2.1690  0.8175
 7661SOL    HW234446   3.014   2.209   2.128 -0.8992  0.5756  0.9198
 7662SOL     OW34447   3.360   1.066   9.692 -0.6952  0.7933  0.3453
 7662SOL    HW134448   3.307   1.143   9.673 -2.0451 -0.1472  0.3000
 7662SOL    HW234449   3.333   0.997   9.631  2.3507 -0.2024  0.1374
 7663SOL     OW34450   0.221   1.661   0.318 -0.2068  0.3004  0.2623
 7663SOL    HW134451   0.189   1.748   0.344  0.5848 -0.3317  3.4015
 7663SOL    HW234452   0.242   1.622   0.403 -0.0912  0.1072  0.1430
 7664SOL     OW34453   2.862   4.049  10.263  0.0306 -0.4142 -0.2891
 7664SOL    HW134454   2.823   4.006  10.338 -2.3347  1.3751 -0.4793
 7664SOL    HW234455   2.925   3.983  10.234 -0.5011 -1.0645  0.0610
 7665SOL     OW34456   2.137   4.333   0.821 -0.0259 -0.5676 -0.2748
 7665SOL    HW134457   2.155   4.246   0.859  2.0317 -0.4009 -0.8510
 7665SOL    HW234458   2.217   4.385   0.827 -1.5445  2.0237 -2.5358
 7666SOL     OW34459   0.565   3.443   5.555  0.1017  0.3007 -0.0713
 7666SOL    HW134460   0.493   3.484   5.603 -0.5163 -1.0250  0.1287
 7666SOL    HW234461   0.552   3.489   5.472  0.9754 -0.8420 -0.8535
 7667SOL     OW34462   1.911   0.230   2.552 -0.5858  0.2031 -0.3384
 7667SOL    HW134463   1.951   0.317   2.560 -2.1978  1.2076 -3.3003
 7667SOL    HW234464   1.869   0.239   2.467 -0.7014  2.3738 -0.0677
 7668SOL     OW34465   1.817   2.830   5.560 -0.3030  0.4563 -0.0014
 7668SOL    HW134466   1.896   2.883   5.559 -0.7149  1.0173 -2.0599
 7668SOL    HW234467   1.804   2.829   5.466  0.5975 -3.1567 -0.1021
 7669SOL     OW34468   1.885   2.863   5.210 -0.1892  0.6130  0.1585
 7669SOL    HW134469   1.892   2.780   5.257  1.4296  2.2908  2.8682
 7669SOL    HW234470   1.964   2.869   5.156  1.1648 -1.1071  1.9278
 7670SOL     OW34471   4.127   2.325   0.172  0.2757 -0.5603 -0.0007
 7670SOL    HW134472   4.095   2.239   0.144  2.8857 -1.5377  0.0417
 7670SOL    HW234473   4.147   2.354   0.083  0.2653 -1.3270 -0.2597
 7671SOL     OW34474   0.055   0.787  14.262  0.1900 -0.1032 -0.4899
 7671SOL    HW134475   0.149   0.797  14.275  0.1197  1.0898 -0.9166
 7671SOL    HW234476   0.042   0.815  14.171 -2.5702  0.1808 -0.0011
 7672SOL     OW34477   1.539   3.912   6.941 -0.1631 -0.0373  0.1954
 7672SOL    HW134478   1.471   3.846   6.952  2.0632 -2.1912  0.8707
 7672SOL    HW234479   1.527   3.950   7.028 -0.2448  0.6386 -0.1080
 7673SOL     OW34480   3.526   4.297   1.192  0.7344  1.5099  0.0880
 7673SOL    HW134481   3.600   4.301   1.132  1.3292  0.9985  0.7744
 7673SOL    HW234482   3.548   4.234   1.261 -3.2473  2.0376  1.8398
 7674SOL     OW34483   1.069   4.554   3.456 -0.1749  0.2365 -0.0333
 7674SOL    HW134484   1.084   4.583   3.546  0.4834  2.1556 -0.7590
 7674SOL    HW234485   0.987   4.508   3.473  0.3521 -0.0859  1.6650
 7675SOL     OW34486   3.647   2.142   9.048 -0.6476 -0.2408  0.1273
 7675SOL    HW134487   3.704   2.070   9.020 -1.4380 -0.4482 -0.9301
 7675SOL    HW234488   3.671   2.149   9.140 -2.7464  0.6144  0.6024
 7676SOL     OW34489   4.108   1.086   3.407 -0.1522  0.1675 -0.1403
 7676SOL    HW134490   4.054   1.161   3.382  2.3088  2.3976  1.2749
 7676SOL    HW234491   4.174   1.133   3.457 -0.3351  0.2058  0.0647
 7677SOL     OW34492   2.688   0.047   2.436 -0.2161  0.3574 -0.2019
 7677SOL    HW134493   2.626   4.699   2.450 -0.1734  0.2273 -0.7016
 7677SOL    HW234494   2.640   0.113   2.386  0.6240 -0.5420 -2.1682
 7678SOL     OW34495   0.956   3.998   5.841 -0.0863  0.7629  0.1592
 7678SOL    HW134496   0.969   3.976   5.748 -2.9753 -0.3621  0.0403
 7678SOL    HW234497   0.908   3.920   5.868 -1.3584  2.1877  2.0194
 7679SOL     OW34498   4.660   0.110   8.206  0.3543  0.1064  0.5913
 7679SOL    HW134499   4.580   0.149   8.241 -0.0104  0.1041 -0.2451
 7679SOL    HW234500   4.690   0.066   8.286  0.1861  0.7114  0.9852
 7680SOL     OW34501   0.370   3.577   7.767  0.3479 -0.2048 -0.4618
 7680SOL    HW134502   0.341   3.602   7.679  0.8525  0.8817 -0.3171
 7680SOL    HW234503   0.395   3.488   7.740  1.5211 -0.0958  0.2544
 7681SOL     OW34504   0.179   3.472   0.628 -0.2265 -0.2429  0.4860
 7681SOL    HW134505   0.209   3.483   0.718  0.6015  0.2798  0.1425
 7681SOL    HW234506   0.124   3.393   0.629 -0.2065 -0.2233  2.2832
 7682SOL     OW34507   1.406   3.655   1.816  0.5357  0.4976  0.0276
 7682SOL    HW134508   1.415   3.744   1.850  1.1181  0.6429 -0.5083
 7682SOL    HW234509   1.322   3.664   1.770  0.7951  2.2792 -0.0776
 7683SOL     OW34510   0.660   1.822   4.147  0.3958  0.3776  0.3219
 7683SOL    HW134511   0.698   1.786   4.227 -0.6658 -3.3038 -0.8359
 7683SOL    HW234512   0.715   1.899   4.134 -1.5947  1.1875 -3.3952
 7684SOL     OW34513   0.429   4.134   7.619  0.1952  0.4102  0.0387
 7684SOL    HW134514   0.504   4.093   7.662  0.4707  0.7575 -0.1114
 7684SOL    HW234515   0.368   4.061   7.611 -0.7619  1.3815 -1.5196
 7685SOL     OW34516   2.161   2.842  14.623 -0.1439 -0.4212  0.3341
 7685SOL    HW134517   2.190   2.831  14.713  0.9323  1.3574  0.2131
 7685SOL    HW234518   2.189   2.761  14.582  2.9492  2.0568 -2.3986
 7686SOL     OW34519   2.949   4.251   7.455  0.1866  0.2532 -0.7689
 7686SOL    HW134520   2.963   4.311   7.381  0.6268  2.4258  1.0844
 7686SOL    HW234521   2.909   4.307   7.521  2.6969  1.1440 -0.0012
 7687SOL     OW34522   1.876   4.413  16.347  0.0256  0.0019 -0.1154
 7687SOL    HW134523   1.970   4.420  16.334  0.0495 -0.1358 -0.0201
 7687SOL    HW234524   1.846   4.413  16.256 -0.2297 -1.7080 -0.0468
 7688SOL     OW34525   1.321   1.005  14.308  0.0863  0.4289 -0.0285
 7688SOL    HW134526   1.285   1.079  14.357 -1.4042 -0.3933  0.1405
 7688SOL    HW234527   1.405   1.032  14.273 -0.4501  1.5195 -0.4589
 7689SOL     OW34528   4.302   2.618   3.223 -0.3128 -0.0256 -0.4052
 7689SOL    HW134529   4.217   2.577   3.208 -0.6074 -0.0065  1.1852
 7689SOL    HW234530   4.287   2.712   3.214 -0.4854  0.1513  1.7251
 7690SOL     OW34531   1.958   4.636   8.164  0.2583  0.0286  0.5589
 7690SOL    HW134532   1.928   4.607   8.250  0.2523 -1.4473  0.0614
 7690SOL    HW234533   2.051   4.659   8.173 -0.0424  1.2766  0.5380
 7691SOL     OW34534   2.206   0.843  12.347  0.6666 -0.1727 -0.1680
 7691SOL    HW134535   2.179   0.925  12.305 -0.2118 -0.1730  0.3996
 7691SOL    HW234536   2.246   0.783  12.284  0.7945  1.2452 -1.4333
 7692SOL     OW34537   3.202   4.123   2.394  0.0661 -0.3638 -0.2448
 7692SOL    HW134538   3.147   4.081   2.460 -0.4924  1.9045  0.7370
 7692SOL    HW234539   3.288   4.133   2.435 -1.0114 -0.2832  2.0010
 7693SOL     OW34540   1.970   0.816  15.600  0.2012  0.5959  0.0870
 7693SOL    HW134541   1.988   0.868  15.521  0.0033 -1.1756 -1.1372
 7693SOL    HW234542   2.050   0.833  15.650  0.3056 -0.1945  0.1919
 7694SOL     OW34543   1.434   2.459   3.657 -0.2633  0.5443 -0.1597
 7694SOL    HW134544   1.459   2.551   3.652 -0.9241  0.9043  2.8054
 7694SOL    HW234545   1.507   2.427   3.710  2.2758  2.0392 -2.8165
 7695SOL     OW34546   1.505   3.701   9.669 -0.0747  0.0269  0.2267
 7695SOL    HW134547   1.553   3.744   9.598 -1.4473 -0.3197 -0.9087
 7695SOL    HW234548   1.577   3.655   9.712  0.8194 -1.4094 -2.7939
 7696SOL     OW34549   3.358   0.301  15.271  0.2991 -0.6535  0.2027
 7696SOL    HW134550   3.430   0.240  15.259  1.7929  0.7378  1.9140
 7696SOL    HW234551   3.311   0.257  15.342 -0.7489 -1.1120 -0.7688
 7697SOL     OW34552   0.590   1.104  11.359 -0.3268  0.1735  0.0389
 7697SOL    HW134553   0.500   1.135  11.368  0.1210  1.8384 -1.2335
 7697SOL    HW234554   0.581   1.061  11.274  0.2838  0.0803  0.0230
 7698SOL     OW34555   3.507   1.735   0.222 -0.0638 -0.4726  0.1249
 7698SOL    HW134556   3.424   1.690   0.239  0.2557 -1.2904 -0.4569
 7698SOL    HW234557   3.531   1.764   0.310 -1.3733  0.3056  0.2171
 7699SOL     OW34558   1.015   2.772   4.054  0.4576  0.2552 -0.1289
 7699SOL    HW134559   1.001   2.780   4.149  2.7693 -0.7716  0.3112
 7699SOL    HW234560   1.087   2.709   4.060  0.0804 -0.3695 -2.4473
 7700SOL     OW34561   0.528   4.593   8.982 -0.2712  0.2814  0.3695
 7700SOL    HW134562   0.446   4.604   9.032  0.5283 -0.1610  1.7765
 7700SOL    HW234563   0.549   4.687   8.976  2.5422 -0.3715  0.1545
 7701SOL     OW34564   1.720   0.610   4.727 -0.7367 -0.4025 -0.5001
 7701SOL    HW134565   1.744   0.522   4.755 -2.5416 -0.7024  0.0882
 7701SOL    HW234566   1.669   0.634   4.804  1.1036  1.2186  0.1913
 7702SOL     OW34567   4.654   2.617   5.946  0.3665 -0.0519  0.0138
 7702SOL    HW134568   0.014   2.644   5.908  0.5290 -0.3186  0.1845
 7702SOL    HW234569   4.646   2.539   5.890 -1.2823 -0.4261  0.7810
 7703SOL     OW34570   4.336   2.587   8.979 -0.0645 -0.4303 -0.2248
 7703SOL    HW134571   4.307   2.542   8.899  0.3522 -0.9625 -0.0807
 7703SOL    HW234572   4.402   2.645   8.942  1.9532 -2.4697  0.1792
 7704SOL     OW34573   2.238   3.603   1.560 -0.3652 -0.0793  0.3578
 7704SOL    HW134574   2.236   3.670   1.628  0.5373  0.5154 -0.2052
 7704SOL    HW234575   2.322   3.560   1.578  1.1840  2.3418 -0.9828
 7705SOL     OW34576   3.261   1.516   8.164  0.4174  0.0596 -0.5908
 7705SOL    HW134577   3.325   1.510   8.093 -0.3497 -1.2484 -1.1865
 7705SOL    HW234578   3.325   1.527   8.234 -0.1956  0.7580 -0.1397
 7706SOL     OW34579   1.884   1.199   6.796 -0.0987  0.3185  0.0092
 7706SOL    HW134580   1.969   1.228   6.830 -0.4503  0.9058  0.4002
 7706SOL    HW234581   1.852   1.146   6.869 -0.9517 -1.0793 -1.3905
 7707SOL     OW34582   0.806   0.436   3.532 -0.4171 -0.6068  0.0265
 7707SOL    HW134583   0.766   0.459   3.448  1.1050 -0.0042 -0.5392
 7707SOL    HW234584   0.783   0.505   3.594 -0.1628 -1.6844  1.3083
 7708SOL     OW34585   2.821   3.463   4.552 -0.1555  0.0441 -0.0915
 7708SOL    HW134586   2.910   3.474   4.520  0.5043 -1.4923  1.1985
 7708SOL    HW234587   2.786   3.425   4.472 -2.2563  0.5160  0.5798
 7709SOL     OW34588   1.308   3.996  15.415 -0.0203 -0.1075 -0.0598
 7709SOL    HW134589   1.230   3.989  15.469 -0.3907 -0.3864 -0.6388
 7709SOL    HW234590   1.263   4.005  15.331 -0.2807 -1.3826 -0.0530
 7710SOL     OW34591   0.490   3.616   3.529  0.1286 -0.3293 -0.2363
 7710SOL    HW134592   0.466   3.542   3.473  1.5904 -0.8880 -0.1293
 7710SOL    HW234593   0.559   3.579   3.584  1.3297  0.9945 -0.8497
 7711SOL     OW34594   4.696   2.370   2.252  0.1116  0.1793  0.2011
 7711SOL    HW134595   0.013   2.448   2.214  0.1525 -0.0047 -0.1319
 7711SOL    HW234596   0.036   2.334   2.314  0.3115 -2.2928 -1.4093
 7712SOL     OW34597   4.430   4.399   3.862  0.7429  0.4486 -0.3037
 7712SOL    HW134598   4.389   4.430   3.943  0.5622 -0.7216  0.0505
 7712SOL    HW234599   4.383   4.456   3.801  2.6112  2.7570  0.3765
 7713SOL     OW34600   3.060   3.783   4.453  0.3394 -0.1657 -0.1282
 7713SOL    HW134601   3.111   3.836   4.392  1.2143 -1.0675 -0.1783
 7713SOL    HW234602   2.998   3.847   4.487  0.9268  0.8738 -1.0117
 7714SOL     OW34603   2.997   2.970   7.207 -0.1559 -0.6950 -0.2161
 7714SOL    HW134604   3.010   3.029   7.133  1.7195 -0.2593  0.4483
 7714SOL    HW234605   2.903   2.984   7.209  0.0381  0.6756 -0.5407
 7715SOL     OW34606   1.420   3.918   1.893 -0.0747  0.3028 -0.5740
 7715SOL    HW134607   1.462   3.996   1.856  0.9834  0.3286  0.6608
 7715SOL    HW234608   1.345   3.958   1.936  0.6856  0.0310  1.0396
 7716SOL     OW34609   4.108   4.077   8.268  0.5259  0.5017  0.3787
 7716SOL    HW134610   4.145   4.127   8.195 -1.2303  0.4477 -0.5296
 7716SOL    HW234611   4.174   4.078   8.337  1.4078  0.9709 -0.4635
 7717SOL     OW34612   4.197   3.831   9.861  0.0505  0.0626  0.2030
 7717SOL    HW134613   4.273   3.888   9.850  0.7582 -0.9863 -0.3875
 7717SOL    HW234614   4.148   3.877   9.928  0.9497 -0.5054  1.2402
 7718SOL     OW34615   1.433   0.147  13.413 -0.5059  0.1784  0.3109
 7718SOL    HW134616   1.381   0.084  13.362  0.1338 -0.1359  0.0460
 7718SOL    HW234617   1.519   0.110  13.392 -0.6627 -0.4003  0.6988
 7719SOL     OW34618   0.058   4.229   9.345 -0.5887  0.3280  0.3906
 7719SOL    HW134619   0.149   4.259   9.338  0.3838 -2.4112  1.2575
 7719SOL    HW234620   0.007   4.309   9.337  1.0500  1.3657  0.3777
 7720SOL     OW34621   0.740   2.071   6.424  0.0891  0.4617  0.1547
 7720SOL    HW134622   0.728   2.008   6.495  1.5583  1.0222  0.9050
 7720SOL    HW234623   0.680   2.140   6.451 -2.4402 -0.8011 -2.2990
 7721SOL     OW34624   1.169   1.785   8.273 -0.0022  0.2404  0.4337
 7721SOL    HW134625   1.253   1.772   8.318 -1.5856  2.1578  3.9450
 7721SOL    HW234626   1.177   1.733   8.194 -2.6080  0.8885 -0.2636
 7722SOL     OW34627   2.409   2.200   7.525  0.3800  0.4965 -0.3548
 7722SOL    HW134628   2.420   2.295   7.535 -1.8269  0.7818 -0.6921
 7722SOL    HW234629   2.413   2.165   7.614 -0.8202  0.6128 -0.2566
 7723SOL     OW34630   2.728   3.056  13.694  0.2214  0.1156  0.3376
 7723SOL    HW134631   2.668   3.007  13.638 -1.6748  1.6540  1.0271
 7723SOL    HW234632   2.806   3.045  13.640  0.0894  1.0110 -0.0419
 7724SOL     OW34633   3.991   3.701   7.714 -0.1295 -0.1254 -0.0794
 7724SOL    HW134634   3.948   3.675   7.633 -0.2995 -1.5396  0.4700
 7724SOL    HW234635   3.925   3.682   7.780  0.2848 -1.2566 -0.0000
 7725SOL     OW34636   0.493   1.432   9.685  0.2542 -0.2007  0.3634
 7725SOL    HW134637   0.575   1.438   9.733  1.0233 -2.2815 -0.6981
 7725SOL    HW234638   0.507   1.500   9.619  1.0680 -0.8541 -0.1395
 7726SOL     OW34639   4.422   1.182   4.044  0.2264 -0.4080  0.8592
 7726SOL    HW134640   4.452   1.092   4.048 -0.5902 -0.7154 -0.0912
 7726SOL    HW234641   4.363   1.178   4.119 -0.7737 -3.0230 -0.0760
 7727SOL     OW34642   2.904   4.573   7.908  0.5156  0.0310 -0.3366
 7727SOL    HW134643   2.830   4.628   7.880 -0.3050  0.3627  2.5383
 7727SOL    HW234644   2.970   4.588   7.840 -0.2819  0.9960 -0.9028
 7728SOL     OW34645   3.197   1.821   8.255  0.3886 -0.3873 -0.1198
 7728SOL    HW134646   3.138   1.753   8.223 -0.0364  0.4009 -1.0247
 7728SOL    HW234647   3.157   1.899   8.215 -1.3887 -0.8057  0.8340
 7729SOL     OW34648   2.174   3.467   6.046 -0.1382 -0.2904  0.2535
 7729SOL    HW134649   2.251   3.516   6.075  1.0250 -1.7664 -0.3916
 7729SOL    HW234650   2.115   3.542   6.034 -1.4067 -1.2332  0.5568
 7730SOL     OW34651   1.666   3.310   0.014  0.6383 -0.0739  0.4805
 7730SOL    HW134652   1.632   3.284   0.099 -0.5729  0.7001  0.2335
 7730SOL    HW234653   1.589   3.298  17.655 -0.0403 -1.0729  1.6746
 7731SOL     OW34654   4.209   1.534   3.584  0.1105  0.7216  0.3637
 7731SOL    HW134655   4.122   1.567   3.561 -0.5890  0.1559  2.1884
 7731SOL    HW234656   4.240   1.601   3.644 -2.4021  2.0583  0.1806
 7732SOL     OW34657   2.710   0.063   8.126  0.0392  0.2259  0.7859
 7732SOL    HW134658   2.743   4.700   8.153 -0.2621  0.1202  0.8150
 7732SOL    HW234659   2.737   0.063   8.034 -0.4988 -2.8385  0.6234
 7733SOL     OW34660   1.537   3.421   5.277  0.0894  0.7538 -0.0179
 7733SOL    HW134661   1.621   3.426   5.230  0.0187  0.4661 -0.1760
 7733SOL    HW234662   1.524   3.329   5.300 -2.0717  1.4433  1.5196
 7734SOL     OW34663   1.246   0.259   8.999 -0.0342  0.3915  0.4796
 7734SOL    HW134664   1.191   0.216   8.933  1.2475 -0.7056  0.1208
 7734SOL    HW234665   1.311   0.308   8.948  0.1456 -0.6591 -0.3098
 7735SOL     OW34666   0.698   2.822   4.235 -0.5635  0.0462  0.1242
 7735SOL    HW134667   0.692   2.917   4.245 -1.2102  0.0799 -0.6117
 7735SOL    HW234668   0.708   2.817   4.140  0.3603  1.7432  0.1234
 7736SOL     OW34669   0.622   3.216  11.784 -0.1373 -0.6282 -0.2803
 7736SOL    HW134670   0.560   3.145  11.803  0.0970 -1.2583 -1.8113
 7736SOL    HW234671   0.584   3.247  11.702 -0.0849 -1.4247 -0.6114
 7737SOL     OW34672   1.841   2.580   7.810  0.3378 -0.1304 -0.3847
 7737SOL    HW134673   1.889   2.644   7.758 -0.6469  1.0937  0.2082
 7737SOL    HW234674   1.769   2.554   7.752  1.0202 -0.2495 -1.1716
 7738SOL     OW34675   4.064   2.349   6.022  0.2710  0.5527  0.4892
 7738SOL    HW134676   4.110   2.266   6.029  0.3987  0.5427 -0.4000
 7738SOL    HW234677   4.019   2.356   6.106  0.0871  0.6666  0.3797
 7739SOL     OW34678   2.196   1.436   7.785  0.3982 -0.2574  0.1990
 7739SOL    HW134679   2.279   1.393   7.802 -1.0568 -4.2977 -2.8878
 7739SOL    HW234680   2.134   1.368   7.810 -1.6326  2.5300  2.8300
 7740SOL     OW34681   0.341   0.355   2.469 -0.0776  0.8065 -0.3324
 7740SOL    HW134682   0.420   0.321   2.427 -1.0133 -1.0327 -0.6089
 7740SOL    HW234683   0.376   0.443   2.480  1.5003 -0.0508  1.4424
 7741SOL     OW34684   4.705   4.644   7.860  0.4989 -0.0901 -0.1026
 7741SOL    HW134685   0.059   4.700   7.862  2.0021 -2.2203  1.3278
 7741SOL    HW234686   4.629   4.702   7.866 -0.1479 -0.9300 -0.1538
 7742SOL     OW34687   0.753   3.440  12.200  0.4040 -0.3438 -0.6285
 7742SOL    HW134688   0.789   3.513  12.250  0.8306 -0.2531 -1.0666
 7742SOL    HW234689   0.745   3.477  12.112  0.5364 -1.2540 -1.0214
 7743SOL     OW34690   0.185   1.295   2.556  0.1836  0.5237  0.2488
 7743SOL    HW134691   0.116   1.262   2.613  0.4096  0.4603  0.4823
 7743SOL    HW234692   0.257   1.256   2.605 -1.1194 -0.7643  1.1480
 7744SOL     OW34693   2.094   4.338   4.828 -0.0106 -0.6672 -0.1679
 7744SOL    HW134694   2.130   4.426   4.823 -0.3484 -0.6956 -2.7176
 7744SOL    HW234695   2.148   4.290   4.766  2.2324  1.6053  0.0372
 7745SOL     OW34696   0.428   3.416   4.368 -0.1958 -0.4524  0.0364
 7745SOL    HW134697   0.383   3.342   4.408 -1.5706  0.4270  0.1070
 7745SOL    HW234698   0.373   3.433   4.292  0.3339 -0.7238 -0.3981
 7746SOL     OW34699   1.353   0.850   4.060 -0.0365 -0.8636 -0.5508
 7746SOL    HW134700   1.396   0.933   4.042 -1.4419  0.0592  0.3554
 7746SOL    HW234701   1.413   0.819   4.127 -1.3241 -1.1572  0.4570
 7747SOL     OW34702   1.591   2.911   2.875  0.3823  0.1778 -0.2162
 7747SOL    HW134703   1.510   2.952   2.906 -0.3560 -1.3308 -0.1603
 7747SOL    HW234704   1.631   2.991   2.839  1.6435 -0.6755 -0.7235
 7748SOL     OW34705   4.318   3.161   4.739  0.1120  0.0801 -0.2998
 7748SOL    HW134706   4.358   3.244   4.714 -1.8085  1.0425 -0.1925
 7748SOL    HW234707   4.323   3.115   4.656  1.1158  0.4746 -0.4513
 7749SOL     OW34708   4.458   2.274  12.723  0.2402 -0.0467  0.3802
 7749SOL    HW134709   4.445   2.310  12.810  1.5994  1.4492 -0.0237
 7749SOL    HW234710   4.525   2.206  12.733  0.2613 -0.2823 -1.3013
 7750SOL     OW34711   3.686   4.691   1.434 -0.5167  0.2497 -0.0949
 7750SOL    HW134712   3.655   0.058   1.424  0.0670  0.6953  2.0518
 7750SOL    HW234713   3.656   4.662   1.348 -0.0657  0.0203 -0.1753
 7751SOL     OW34714   4.437   1.756   8.524  0.4791 -0.7763  0.2292
 7751SOL    HW134715   4.343   1.771   8.530  0.5294 -1.0660  1.6966
 7751SOL    HW234716   4.441   1.677   8.578 -0.6019  1.0880  3.0259
 7752SOL     OW34717   0.593   0.934   7.553  0.5125  0.2707  0.0826
 7752SOL    HW134718   0.646   0.926   7.633  0.7566 -2.1209 -0.3118
 7752SOL    HW234719   0.647   0.888   7.488 -0.1894  1.2636 -1.1935
 7753SOL     OW34720   1.697   3.918   2.083  0.1682  0.3053  0.6573
 7753SOL    HW134721   1.650   3.895   2.002 -2.5465  1.5093  1.8763
 7753SOL    HW234722   1.770   3.970   2.049  1.7570 -3.6309 -1.9844
 7754SOL     OW34723   4.355   0.551   1.106 -0.3576  0.1704  0.2266
 7754SOL    HW134724   4.380   0.643   1.101 -1.5215  0.3897 -1.6185
 7754SOL    HW234725   4.417   0.511   1.166 -0.5693 -0.8095 -0.1962
 7755SOL     OW34726   4.421   3.369   9.643 -0.2350  0.6888  0.0127
 7755SOL    HW134727   4.325   3.366   9.640 -0.3158  1.1632  1.8162
 7755SOL    HW234728   4.446   3.298   9.583 -1.4309  0.2392  0.0399
 7756SOL     OW34729   4.314   1.676   4.170 -0.1786 -0.2670 -0.0644
 7756SOL    HW134730   4.257   1.747   4.198 -0.8092 -0.4756 -0.7984
 7756SOL    HW234731   4.260   1.601   4.198  2.3071 -2.8605 -2.3210
 7757SOL     OW34732   1.229   2.533  10.236  0.2291 -0.2232 -0.0280
 7757SOL    HW134733   1.164   2.548  10.305  1.1176  1.0139  0.5313
 7757SOL    HW234734   1.292   2.475  10.279 -1.0731 -0.5697  1.4258
 7758SOL     OW34735   4.450   3.764   8.294  0.0896  0.3134  1.0166
 7758SOL    HW134736   4.483   3.822   8.362  1.9978  2.7544 -1.9906
 7758SOL    HW234737   4.411   3.701   8.355 -2.8987  2.3086  1.1621
 7759SOL     OW34738   3.276   0.890   4.189  0.2762 -0.2132 -0.3348
 7759SOL    HW134739   3.223   0.960   4.151 -0.8173 -1.0067 -0.2954
 7759SOL    HW234740   3.217   0.818   4.164 -1.6771  1.1203  0.4532
 7760SOL     OW34741   1.213   2.905  14.919 -0.5133 -0.0125 -0.4121
 7760SOL    HW134742   1.286   2.953  14.878 -0.0378 -1.3072 -1.0943
 7760SOL    HW234743   1.266   2.847  14.973 -1.6673 -0.7920 -0.1232
 7761SOL     OW34744   3.358   3.587   2.370  0.0325  0.2573  0.2415
 7761SOL    HW134745   3.296   3.515   2.374 -0.3963  0.6793  1.0976
 7761SOL    HW234746   3.371   3.592   2.275  2.7919 -1.2956  0.5366
 7762SOL     OW34747   4.509   0.207   5.540  0.6761  0.1314 -0.0082
 7762SOL    HW134748   4.481   0.281   5.486  3.0411  2.4216  1.8782
 7762SOL    HW234749   4.509   0.256   5.623  0.1903  1.0941 -0.5720
 7763SOL     OW34750   0.194   4.505   6.017  0.0088  0.3181  0.0748
 7763SOL    HW134751   0.116   4.458   5.988 -0.2856  1.7180 -1.3798
 7763SOL    HW234752   0.164   4.514   6.108  1.2953 -0.3778  0.5817
 7764SOL     OW34753   1.658   1.607   3.478 -0.2303  0.1593  0.3314
 7764SOL    HW134754   1.684   1.519   3.449 -0.3005  1.1044 -2.6015
 7764SOL    HW234755   1.582   1.610   3.420  0.0286 -1.4002 -0.0816
 7765SOL     OW34756   1.640   4.213   1.576  0.6143 -0.3504 -0.4518
 7765SOL    HW134757   1.710   4.227   1.513  1.6770 -1.9322  0.3972
 7765SOL    HW234758   1.574   4.193   1.509  0.2801  0.4836 -0.3790
 7766SOL     OW34759   3.633   1.808   4.265 -0.3079 -0.1424 -0.3042
 7766SOL    HW134760   3.549   1.765   4.248 -0.3399 -0.4411  0.5872
 7766SOL    HW234761   3.662   1.839   4.179 -0.5416  3.1644  0.7811
 7767SOL     OW34762   0.127   4.320   7.163 -0.1596 -0.0857  0.2587
 7767SOL    HW134763   0.165   4.237   7.134 -1.0456 -0.1728 -0.6408
 7767SOL    HW234764   0.084   4.357   7.086 -0.9581  0.0388  0.7629
 7768SOL     OW34765   4.716   3.357   6.585 -0.0470  0.3536 -0.3482
 7768SOL    HW134766   4.674   3.378   6.501 -2.4939 -0.8332  0.5646
 7768SOL    HW234767   4.675   3.425   6.639 -2.4399 -0.7796 -0.7127
 7769SOL     OW34768   0.880   2.254   4.636 -0.0186 -0.3510 -0.6418
 7769SOL    HW134769   0.811   2.307   4.676 -0.1016 -1.5712  0.8156
 7769SOL    HW234770   0.942   2.259   4.708 -0.0174  0.1758 -0.6780
 7770SOL     OW34771   4.082   2.002   5.479 -0.1612  0.0863 -0.4671
 7770SOL    HW134772   4.009   1.964   5.528  1.0361 -0.5231  0.8525
 7770SOL    HW234773   4.056   2.094   5.482  0.8524  0.2773  2.9348
 7771SOL     OW34774   1.967   2.911   4.077  0.0779  0.3512 -1.3661
 7771SOL    HW134775   2.050   2.871   4.049  0.9337  0.9905  0.2429
 7771SOL    HW234776   1.906   2.863   4.021  1.7991 -0.8022 -2.2982
 7772SOL     OW34777   3.084   0.065   6.876  0.1947 -0.0359  0.2318
 7772SOL    HW134778   3.165   0.079   6.826  1.0428 -2.3932  0.9485
 7772SOL    HW234779   3.128   0.021   6.949 -1.4480 -2.5259 -0.2853
 7773SOL     OW34780   3.120   2.936  12.582 -0.8482 -0.1825 -0.0899
 7773SOL    HW134781   3.072   2.943  12.665 -3.1006 -2.5471 -1.1779
 7773SOL    HW234782   3.116   3.026  12.550 -0.0732  0.3271  1.2444
 7774SOL     OW34783   3.219   1.307   1.483 -0.3897 -0.2161 -0.0328
 7774SOL    HW134784   3.198   1.222   1.444  2.4044 -0.4277 -1.0872
 7774SOL    HW234785   3.238   1.280   1.573  2.1754 -0.3372 -0.6029
 7775SOL     OW34786   4.465   0.488   8.811 -0.1287  0.4736 -0.1108
 7775SOL    HW134787   4.503   0.517   8.894  0.3967  1.2847 -0.6361
 7775SOL    HW234788   4.467   0.396   8.839 -2.1542  0.4481 -0.0686
 7776SOL     OW34789   3.840   1.323  15.824 -0.1840 -0.3445 -0.2406
 7776SOL    HW134790   3.820   1.389  15.891  0.2828 -0.4863  0.0390
 7776SOL    HW234791   3.823   1.379  15.748  0.6655  0.2093 -0.0184
 7777SOL     OW34792   2.064   1.185   5.840 -0.3101 -0.5183  0.7348
 7777SOL    HW134793   2.071   1.100   5.797  0.7721  0.1992 -0.5158
 7777SOL    HW234794   2.095   1.157   5.926 -4.9145  0.6444  2.7538
 7778SOL     OW34795   3.900   1.844   7.318  0.1730  0.4040 -0.2685
 7778SOL    HW134796   3.982   1.857   7.365  1.6262 -1.3820 -2.3301
 7778SOL    HW234797   3.864   1.932   7.310  1.1245  0.8356  0.1632
 7779SOL     OW34798   0.584   1.607  12.575 -0.6893  0.0150  0.2041
 7779SOL    HW134799   0.603   1.697  12.601  1.1137 -0.9841  2.3240
 7779SOL    HW234800   0.544   1.567  12.652  0.1518 -1.0612  0.0711
 7780SOL     OW34801   0.053   1.736   0.104 -0.1277  0.3757 -0.0654
 7780SOL    HW134802   4.691   1.716   0.144  0.8303 -0.6762  1.4555
 7780SOL    HW234803   0.107   1.694   0.171  0.0261 -1.0192 -1.0666
 7781SOL     OW34804   4.160   3.506   1.686  0.3150 -0.2382  0.7315
 7781SOL    HW134805   4.160   3.476   1.777 -3.0305 -0.1907  0.7669
 7781SOL    HW234806   4.221   3.451   1.636 -1.1882  0.9742 -2.4217
 7782SOL     OW34807   3.302   3.732   1.136  0.0262  0.0587  0.1878
 7782SOL    HW134808   3.274   3.823   1.142  1.8183  0.7140 -1.4838
 7782SOL    HW234809   3.228   3.701   1.084  1.6674 -1.4488 -1.2465
 7783SOL     OW34810   3.739   3.988   2.695 -0.4600  0.3149 -0.2128
 7783SOL    HW134811   3.742   3.913   2.635  0.3169  0.0401  0.1591
 7783SOL    HW234812   3.745   3.950   2.783  0.9734 -2.1718 -1.3675
 7784SOL     OW34813   0.372   4.480  12.595 -0.3101  0.0518  0.1394
 7784SOL    HW134814   0.439   4.424  12.636  1.6862  0.1960 -2.9091
 7784SOL    HW234815   0.433   4.537  12.548 -0.4248 -0.5447 -0.7502
 7785SOL     OW34816   2.919   4.699   2.073 -0.7269 -1.0373 -0.5987
 7785SOL    HW134817   2.949   0.036   2.140  0.9543  1.2201 -3.3993
 7785SOL    HW234818   2.947   4.616   2.112 -2.2035 -0.3491  1.9705
 7786SOL     OW34819   4.201   1.923  17.031 -0.4666  0.1359  0.3133
 7786SOL    HW134820   4.125   1.959  17.077 -0.6685 -0.1690  0.2210
 7786SOL    HW234821   4.230   1.849  17.085  0.1543 -0.5713 -1.0065
 7787SOL     OW34822   3.637   3.475  11.793  0.4103 -0.1016  0.1914
 7787SOL    HW134823   3.610   3.399  11.741 -1.7008  1.4311 -0.9807
 7787SOL    HW234824   3.732   3.485  11.789  0.4597 -0.4806  0.3567
 7788SOL     OW34825   1.943   0.539   5.604 -0.4312  0.0876  0.6257
 7788SOL    HW134826   2.034   0.538   5.632  0.3443  0.5627 -1.9032
 7788SOL    HW234827   1.942   0.485   5.526 -0.5961  0.4959  0.3404
 7789SOL     OW34828   1.782   0.066   8.037 -0.2149  0.1667 -0.7314
 7789SOL    HW134829   1.844   0.012   8.087 -2.0987  1.2567  2.7644
 7789SOL    HW234830   1.770   0.154   8.073 -0.7064 -0.9298  1.7853
 7790SOL     OW34831   1.000   3.226   0.067  0.2521  0.6124 -0.4512
 7790SOL    HW134832   0.905   3.239   0.071 -0.1637 -2.0271 -1.9223
 7790SOL    HW234833   1.030   3.235   0.157  1.3945 -0.0250 -0.7672
 7791SOL     OW34834   2.972   3.987   6.792 -0.0542  0.5620  0.0493
 7791SOL    HW134835   2.963   3.992   6.887  2.6112 -3.6675  0.5039
 7791SOL    HW234836   2.881   3.974   6.764  0.0249 -2.6441  1.2451
 7792SOL     OW34837   0.250   1.945   3.025 -0.1599 -0.1503  0.3571
 7792SOL    HW134838   0.237   1.915   2.935  0.2039  1.9177 -0.3790
 7792SOL    HW234839   0.224   1.869   3.077  1.5546 -2.8505 -2.6889
 7793SOL     OW34840   4.464   2.393   1.896  0.0722  0.1259  0.7581
 7793SOL    HW134841   4.440   2.301   1.904 -1.7405  0.4376 -1.2940
 7793SOL    HW234842   4.404   2.430   1.961 -0.2542 -1.7875  1.5322
 7794SOL     OW34843   1.091   0.738   5.766 -0.5975 -0.3776 -0.3517
 7794SOL    HW134844   1.079   0.833   5.766  0.1198 -0.2861 -0.2460
 7794SOL    HW234845   1.018   0.707   5.711 -1.4537 -1.1632  1.2474
 7795SOL     OW34846   2.072   3.201  12.900  0.3721 -0.1573 -0.1447
 7795SOL    HW134847   2.082   3.295  12.885  0.2636  0.0919  1.3887
 7795SOL    HW234848   2.018   3.180  12.824  2.3392  1.6857 -2.0582
 7796SOL     OW34849   4.349   0.020   8.388  0.0430 -0.7255  0.0071
 7796SOL    HW134850   4.269   0.056   8.349  0.2408 -0.9150 -0.5637
 7796SOL    HW234851   4.399   0.095   8.420 -0.3177 -0.3117 -0.3875
 7797SOL     OW34852   4.684   0.921  12.242 -0.2908 -0.4582  0.4021
 7797SOL    HW134853   0.031   0.978  12.272  0.0515  0.5685 -2.3533
 7797SOL    HW234854   0.007   0.869  12.177 -0.3489  1.0535 -0.8459
 7798SOL     OW34855   3.123   4.213   4.535 -0.0052  0.3333  0.8112
 7798SOL    HW134856   3.162   4.212   4.622 -0.9084 -1.3665  1.1827
 7798SOL    HW234857   3.190   4.262   4.487 -0.8446 -0.1343 -0.8373
 7799SOL     OW34858   4.235   2.221  14.475  0.6171  0.1116  0.3784
 7799SOL    HW134859   4.298   2.292  14.488 -1.7549  2.1944  0.3908
 7799SOL    HW234860   4.265   2.194  14.388 -0.6515  3.0222 -0.9737
 7800SOL     OW34861   0.410   1.951  11.049  0.1509 -0.1471 -0.1060
 7800SOL    HW134862   0.415   1.909  10.964 -3.0322  0.7153 -0.7138
 7800SOL    HW234863   0.436   1.876  11.103 -1.0084  0.7130  1.6810
 7801SOL     OW34864   0.860   1.912  17.579 -0.8885 -0.5268 -0.1347
 7801SOL    HW134865   0.937   1.893  17.526 -0.9111 -0.0767 -0.3238
 7801SOL    HW234866   0.792   1.889  17.516 -0.4590 -0.7421 -0.5145
 7802SOL     OW34867   2.088   0.903   6.968 -0.4205  0.0512 -0.7447
 7802SOL    HW134868   2.007   0.865   6.934 -1.7342  2.7595 -0.6265
 7802SOL    HW234869   2.118   0.950   6.890  2.0360  2.3502  1.6135
 7803SOL     OW34870   0.718   3.770  15.235  0.2795  0.2341  0.4587
 7803SOL    HW134871   0.710   3.863  15.258 -0.9665  0.6900 -1.8098
 7803SOL    HW234872   0.625   3.760  15.215  1.0168  1.1419 -3.2435
 7804SOL     OW34873   0.086   0.005  17.676  0.2321 -0.5904 -0.4917
 7804SOL    HW134874   0.161   4.702  17.622  1.0773  1.8302 -0.5116
 7804SOL    HW234875   0.117   0.090   0.011  1.0370 -1.0152 -0.1469
 7805SOL     OW34876   4.028   0.465   5.799 -0.0964 -0.1378 -0.4336
 7805SOL    HW134877   4.048   0.415   5.719 -2.2333 -1.2801 -0.2594
 7805SOL    HW234878   3.950   0.512   5.770  0.7738  0.7136 -1.4158
 7806SOL     OW34879   2.567   0.024  17.584 -0.1984  0.1544  0.2349
 7806SOL    HW134880   2.522   0.050  17.664  0.7738  1.2405  0.4298
 7806SOL    HW234881   2.618   0.103  17.566 -1.5778  0.5783 -1.7854
 7807SOL     OW34882   2.297   0.222   7.063  0.4318 -0.0405  0.4812
 7807SOL    HW134883   2.380   0.180   7.086 -0.5268 -1.2022  1.8432
 7807SOL    HW234884   2.239   0.161   7.109 -2.2799 -0.0706 -2.9471
 7808SOL     OW34885   3.767   2.433   3.161 -0.1061 -0.1344  0.1973
 7808SOL    HW134886   3.851   2.477   3.152  0.1755 -1.0704 -1.6334
 7808SOL    HW234887   3.737   2.403   3.075 -0.6202 -0.9215  0.6489
 7809SOL     OW34888   2.004   1.307   2.312 -0.1856 -0.0785  0.5227
 7809SOL    HW134889   2.067   1.239   2.337 -3.3302 -2.2225  2.6580
 7809SOL    HW234890   2.005   1.304   2.216  0.2541  2.0255  0.4644
 7810SOL     OW34891   1.921   2.968   7.112 -0.1556 -0.4766 -0.0039
 7810SOL    HW134892   1.871   2.893   7.144  0.2432 -0.3911  0.8208
 7810SOL    HW234893   1.995   2.969   7.172 -1.3076 -1.5054  1.4155
 7811SOL     OW34894   2.706   3.997   9.611  0.4073 -0.2804  0.5152
 7811SOL    HW134895   2.620   4.019   9.573 -0.3391  0.2994  2.5690
 7811SOL    HW234896   2.698   4.019   9.704  1.3479  2.8938 -0.1616
 7812SOL     OW34897   4.678   4.189  11.329  0.4755 -0.4952  0.0938
 7812SOL    HW134898   4.650   4.155  11.414 -1.2845  0.2088 -0.2288
 7812SOL    HW234899   4.605   4.241  11.296  1.5283  0.0246 -1.4278
 7813SOL     OW34900   2.663   4.030   8.425  0.4015  0.1773 -0.3778
 7813SOL    HW134901   2.737   3.977   8.455  0.1152 -0.8814 -1.5577
 7813SOL    HW234902   2.581   3.997   8.461  1.0827 -1.0338  0.0621
 7814SOL     OW34903   3.807   3.985  13.630  0.2194  0.3505  0.8680
 7814SOL    HW134904   3.900   3.998  13.651  0.9132 -0.4882 -1.6208
 7814SOL    HW234905   3.801   3.889  13.629  2.1077  0.2733 -2.3005
 7815SOL     OW34906   0.376   3.651   8.600 -0.3563  0.2573 -0.2391
 7815SOL    HW134907   0.440   3.697   8.546  0.0585  1.6007  1.3851
 7815SOL    HW234908   0.310   3.720   8.594  3.3324  3.9823  1.9003
 7816SOL     OW34909   4.693   0.750   2.535 -0.1807  0.3523  0.3356
 7816SOL    HW134910   4.650   0.680   2.582 -0.4144  0.1408 -0.1925
 7816SOL    HW234911   4.708   0.717   2.446 -0.9196 -1.2969  0.8250
 7817SOL     OW34912   1.790   0.969  11.113  0.0564 -0.2798 -0.5508
 7817SOL    HW134913   1.854   1.032  11.078  1.0724 -0.9202  0.1659
 7817SOL    HW234914   1.722   0.989  11.049  1.3615 -2.0359 -2.4991
 7818SOL     OW34915   1.699   4.628   8.825  0.0356 -0.0826  0.7393
 7818SOL    HW134916   1.661   4.541   8.836  2.5871 -1.1569  0.9785
 7818SOL    HW234917   1.633   4.678   8.873 -1.2951  0.7268 -1.9173
 7819SOL     OW34918   2.036   0.313  14.626 -0.5490  0.2699  0.0335
 7819SOL    HW134919   2.108   0.253  14.607 -1.5453 -0.9298  0.0175
 7819SOL    HW234920   2.028   0.350  14.538  2.1199  0.3278 -0.1696
 7820SOL     OW34921   2.655   1.254  17.168 -0.4822 -0.2074 -0.0294
 7820SOL    HW134922   2.634   1.170  17.208  0.7799 -1.1492 -1.3700
 7820SOL    HW234923   2.633   1.313  17.240  0.4459 -0.8127  0.7534
 7821SOL     OW34924   3.320   1.556   8.769 -0.0465  0.0913  0.5922
 7821SOL    HW134925   3.293   1.468   8.744  0.5397 -0.4195  1.7704
 7821SOL    HW234926   3.239   1.607   8.773 -1.4048 -2.0629  0.3041
 7822SOL     OW34927   2.595   4.128  15.254  0.4677  0.2130  0.5333
 7822SOL    HW134928   2.665   4.177  15.296 -0.0767 -0.0040  1.6934
 7822SOL    HW234929   2.546   4.197  15.209 -0.9918 -0.1959  1.4943
 7823SOL     OW34930   4.272   3.493   2.491  0.3079 -0.0564 -0.1935
 7823SOL    HW134931   4.349   3.536   2.452 -0.8184 -0.5961 -3.0384
 7823SOL    HW234932   4.300   3.402   2.479 -0.8145 -0.5708  1.1203
 7824SOL     OW34933   2.123   3.552   2.036 -0.2791 -0.2508  0.3383
 7824SOL    HW134934   2.214   3.580   2.025 -0.5187  1.1905  2.0594
 7824SOL    HW234935   2.133   3.493   2.111 -0.0668  1.5117  1.7152
 7825SOL     OW34936   2.228   3.011   5.328 -0.8539  0.3395  0.1298
 7825SOL    HW134937   2.157   2.993   5.265  0.7985  0.4005 -1.7452
 7825SOL    HW234938   2.224   2.935   5.385 -0.5188 -0.5931 -1.0961
 7826SOL     OW34939   3.952   4.515   2.345  0.2882 -0.6162  0.1990
 7826SOL    HW134940   3.988   4.582   2.287 -1.0613  0.8109  0.9872
 7826SOL    HW234941   3.860   4.538   2.359  0.4384 -0.0169  0.2195
 7827SOL     OW34942   4.680   2.417   6.613  0.2055  0.1127 -0.4181
 7827SOL    HW134943   4.644   2.357   6.548 -1.5392  0.0833  0.5897
 7827SOL    HW234944   4.617   2.487   6.629  0.8563  0.7937 -0.8670
 7828SOL     OW34945   3.902   1.327   2.318  0.1286 -0.2086  0.0825
 7828SOL    HW134946   3.809   1.312   2.298  1.0714 -2.8841 -2.4003
 7828SOL    HW234947   3.932   1.236   2.324  0.7788 -0.0018 -0.1122
 7829SOL     OW34948   1.271   0.600  16.655 -0.3410 -0.7332 -0.6178
 7829SOL    HW134949   1.203   0.659  16.687 -0.3351 -0.6935 -0.6777
 7829SOL    HW234950   1.332   0.604  16.729 -2.1115  0.8224  0.7568
 7830SOL     OW34951   4.129   0.137  12.481 -0.0464 -0.3849  0.3377
 7830SOL    HW134952   4.177   0.215  12.509  1.0120 -0.8668 -0.1411
 7830SOL    HW234953   4.132   0.159  12.388  0.7282  0.3556  0.5345
 7831SOL     OW34954   0.835   1.348   8.626  0.6364 -0.1887 -0.2319
 7831SOL    HW134955   0.789   1.284   8.681 -3.5185  3.2995  0.3865
 7831SOL    HW234956   0.917   1.366   8.672  0.6642  2.7915 -1.4231
 7832SOL     OW34957   1.165   1.139  10.081  0.1881 -0.3386  0.8520
 7832SOL    HW134958   1.181   1.232  10.100  0.9524 -0.7923  2.3903
 7832SOL    HW234959   1.218   1.130  10.002  1.6467 -0.1376  1.8219
 7833SOL     OW34960   0.857   4.049  10.220 -0.1139 -0.1144  0.0961
 7833SOL    HW134961   0.928   4.067  10.282 -1.3024  1.0006  1.1450
 7833SOL    HW234962   0.775   4.057  10.268  0.6518  0.0784  1.3789
 7834SOL     OW34963   2.488   1.526   5.611  0.1642  0.3055  1.5301
 7834SOL    HW134964   2.483   1.621   5.618 -0.3786  0.2847  1.4109
 7834SOL    HW234965   2.443   1.499   5.691 -1.1467 -0.0830  0.6473
 7835SOL     OW34966   2.494   0.243   1.636  0.3400  0.0380  0.7318
 7835SOL    HW134967   2.559   0.301   1.598  0.2715 -0.2843  0.1261
 7835SOL    HW234968   2.540   0.207   1.712  0.8421 -3.2297 -1.1530
 7836SOL     OW34969   3.200   0.511   8.645  0.1853 -0.5904 -0.0215
 7836SOL    HW134970   3.171   0.426   8.612 -1.7117  0.1637 -0.2557
 7836SOL    HW234971   3.161   0.504   8.732  2.0921  0.0131  0.8824
 7837SOL     OW34972   1.469   3.627   2.681  0.3442  0.4719 -0.3684
 7837SOL    HW134973   1.528   3.680   2.735  0.8292  1.5011 -1.9150
 7837SOL    HW234974   1.419   3.696   2.638 -0.3594 -0.6546 -1.3437
 7838SOL     OW34975   3.894   3.161  15.452 -0.2906  0.0328 -0.5284
 7838SOL    HW134976   3.957   3.108  15.403 -0.9698  0.4371 -1.8232
 7838SOL    HW234977   3.814   3.174  15.401 -0.0333  0.1517 -0.9054
 7839SOL     OW34978   4.531   2.131   2.146 -0.3385  0.4092 -0.0261
 7839SOL    HW134979   4.546   2.076   2.069  0.0812 -1.6762  1.5576
 7839SOL    HW234980   4.616   2.144   2.188 -0.0363  1.7654 -1.0255
 7840SOL     OW34981   3.924   3.307   8.475  0.7461 -0.4523 -0.3955
 7840SOL    HW134982   3.900   3.345   8.390 -1.6092 -0.4268  0.2698
 7840SOL    HW234983   4.016   3.287   8.461  0.4293 -1.8935 -0.4053
 7841SOL     OW34984   4.102   4.025   3.655 -0.0298 -0.0807  0.5013
 7841SOL    HW134985   4.048   3.947   3.669 -0.5332 -0.2621 -2.6251
 7841SOL    HW234986   4.157   3.988   3.587 -0.4185  1.9871 -0.9305
 7842SOL     OW34987   4.539   4.086   3.942 -0.1961  0.2145  0.2837
 7842SOL    HW134988   4.513   4.077   3.850 -0.8732  0.0398  0.4893
 7842SOL    HW234989   4.480   4.155   3.972  0.8407  0.2967  2.1152
 7843SOL     OW34990   3.380   3.812   2.527 -0.1291 -0.1898 -0.0319
 7843SOL    HW134991   3.386   3.738   2.466 -0.0909  0.5536 -0.9187
 7843SOL    HW234992   3.420   3.880   2.472  1.2713 -1.1021 -0.1513
 7844SOL     OW34993   4.351   2.185   3.370 -0.2718  0.6699 -0.0625
 7844SOL    HW134994   4.272   2.197   3.423 -2.4990  1.9439 -3.6720
 7844SOL    HW234995   4.400   2.123   3.424  0.8461  2.3377  0.8442
 7845SOL     OW34996   1.187   3.605  15.438  0.0015 -0.5855 -0.0444
 7845SOL    HW134997   1.176   3.653  15.355  2.1007  0.2940  0.1973
 7845SOL    HW234998   1.122   3.538  15.417 -0.9828  0.4161 -0.1996
 7846SOL     OW34999   1.981   2.741   1.901 -0.2086 -0.1052 -0.1006
 7846SOL    HW135000   2.041   2.720   1.830  0.3312  0.5670  0.1625
 7846SOL    HW235001   1.901   2.703   1.864 -0.8219  2.2937 -1.2614
 7847SOL     OW35002   4.249   3.251   5.917  0.2142 -0.3899 -0.0310
 7847SOL    HW135003   4.335   3.275   5.951 -0.2032 -0.9041  1.4072
 7847SOL    HW235004   4.266   3.168   5.873 -0.6069 -1.3394  1.4191
 7848SOL     OW35005   2.619   4.194   6.393  0.1921  0.0056  0.2355
 7848SOL    HW135006   2.658   4.216   6.309 -0.9161 -0.9313 -0.5133
 7848SOL    HW235007   2.615   4.100   6.376 -0.0421  0.3743 -1.7426
 7849SOL     OW35008   2.442   2.839  12.321 -0.1546  0.0698 -0.5059
 7849SOL    HW135009   2.426   2.921  12.273 -0.7713  0.1078 -0.2396
 7849SOL    HW235010   2.366   2.838  12.379  0.1749  2.1363 -0.0218
 7850SOL     OW35011   1.041   2.507   7.717 -0.2153  0.0022 -0.1161
 7850SOL    HW135012   1.015   2.422   7.752 -1.9583  0.6152  0.0684
 7850SOL    HW235013   1.133   2.506   7.744 -0.1088  2.3581 -0.3585
 7851SOL     OW35014   1.007   4.002   1.802  0.4321  0.2237 -0.1225
 7851SOL    HW135015   1.017   3.945   1.878 -0.1703 -0.1882 -0.3610
 7851SOL    HW235016   1.076   3.958   1.752  1.3090 -0.5985  1.7930
 7852SOL     OW35017   1.752   1.528  12.035 -0.2010  0.1187 -0.0309
 7852SOL    HW135018   1.841   1.531  12.001 -0.9694  0.3847 -2.0203
 7852SOL    HW235019   1.725   1.439  12.013 -0.8873 -0.2670  2.3905
 7853SOL     OW35020   3.096   2.103   5.551 -0.1724 -0.5523 -0.1486
 7853SOL    HW135021   3.099   2.010   5.571  0.1073 -0.0724  2.1125
 7853SOL    HW235022   3.188   2.127   5.563 -0.5346  1.1233 -0.6815
 7854SOL     OW35023   0.176   0.795   1.782  0.2369 -0.2663  0.1825
 7854SOL    HW135024   0.189   0.862   1.715 -0.0905  1.7870  2.1967
 7854SOL    HW235025   0.266   0.785   1.812  0.3400 -0.4095 -0.1730
 7855SOL     OW35026   1.767   3.601   0.770  0.3721 -0.3005  0.6486
 7855SOL    HW135027   1.710   3.675   0.749 -1.2630 -1.1556  2.1727
 7855SOL    HW235028   1.819   3.638   0.842  3.9460 -3.4330 -0.3258
 7856SOL     OW35029   3.363   2.790   5.679 -0.3636  0.1567  0.2906
 7856SOL    HW135030   3.420   2.866   5.683 -1.0383  0.7063 -0.6261
 7856SOL    HW235031   3.428   2.719   5.675 -1.2458 -0.7903  3.2430
 7857SOL     OW35032   1.566   1.780   5.532  0.0704 -0.5572 -0.2270
 7857SOL    HW135033   1.639   1.820   5.484  0.5166  1.9503  2.5714
 7857SOL    HW235034   1.565   1.839   5.607 -1.1773 -0.1533 -0.5546
 7858SOL     OW35035   3.220   0.477   5.717  0.0670  0.8806  0.0273
 7858SOL    HW135036   3.229   0.547   5.782 -3.3799  0.3760  1.0474
 7858SOL    HW235037   3.301   0.427   5.731 -0.3584  0.3036  0.4189
 7859SOL     OW35038   1.557   1.204   2.283 -0.3664 -0.3627 -0.1052
 7859SOL    HW135039   1.517   1.290   2.270 -1.4535 -0.7562  0.6330
 7859SOL    HW235040   1.482   1.150   2.259  1.0456 -1.4512 -2.0638
 7860SOL     OW35041   0.133   3.742   6.642  0.0420  0.0226  0.1293
 7860SOL    HW135042   0.110   3.694   6.563 -0.0308 -2.7961  1.8596
 7860SOL    HW235043   0.044   3.768   6.665  0.3636 -1.6574  3.3317
 7861SOL     OW35044   2.106   1.069  11.888 -0.1157 -0.0056 -0.2078
 7861SOL    HW135045   2.084   1.089  11.797  2.8743  1.0117 -0.6774
 7861SOL    HW235046   2.114   0.974  11.885 -2.4927 -0.1999 -0.5512
 7862SOL     OW35047   0.569   2.250   7.936  0.8109  0.3964  0.1949
 7862SOL    HW135048   0.608   2.304   7.867 -0.1286 -0.1450 -0.7784
 7862SOL    HW235049   0.622   2.171   7.927  1.9106  0.8340  2.9370
 7863SOL     OW35050   0.176   3.385   7.236 -0.8951  0.8601 -0.1518
 7863SOL    HW135051   0.097   3.372   7.184 -0.8671  1.8325 -0.4385
 7863SOL    HW235052   0.191   3.316   7.300  1.8787  1.8329  0.2651
 7864SOL     OW35053   2.926   1.061   6.055  0.4490  0.3648  0.1286
 7864SOL    HW135054   2.883   1.026   6.133  0.9290 -1.6319 -0.4888
 7864SOL    HW235055   2.956   0.983   6.007 -3.7765 -1.8688  1.0806
 7865SOL     OW35056   3.342   1.819   1.245  0.2398 -0.1970  0.1878
 7865SOL    HW135057   3.431   1.821   1.281  0.2272  1.0774  0.1677
 7865SOL    HW235058   3.358   1.825   1.151  1.6744 -3.1112  0.2473
 7866SOL     OW35059   3.828   3.654   4.149 -0.4541  0.6813  0.4348
 7866SOL    HW135060   3.792   3.571   4.116  4.8085 -1.1745 -0.5903
 7866SOL    HW235061   3.767   3.675   4.220  0.5304  0.9329  1.2054
 7867SOL     OW35062   0.756   1.006  11.555  0.3978  0.0785  0.7039
 7867SOL    HW135063   0.810   0.973  11.483 -1.1651 -0.0656 -0.3971
 7867SOL    HW235064   0.692   1.041  11.493  0.4146 -0.1696  0.5452
 7868SOL     OW35065   0.352   3.896   4.375  0.2482  0.1757 -0.0040
 7868SOL    HW135066   0.357   3.992   4.371 -0.1324  0.2707  1.8658
 7868SOL    HW235067   0.274   3.886   4.321  1.4127 -0.7750 -1.4968
 7869SOL     OW35068   0.247   1.118   5.423 -0.0632 -0.3825  0.4020
 7869SOL    HW135069   0.165   1.135   5.470 -0.3769 -0.1377 -0.2320
 7869SOL    HW235070   0.231   1.030   5.391  0.0739 -0.5217  0.7127
 7870SOL     OW35071   2.236   4.488   8.375  0.1452  0.4355  0.3073
 7870SOL    HW135072   2.223   4.562   8.315 -0.6121  0.5663  0.6358
 7870SOL    HW235073   2.216   4.525   8.460 -3.8331 -1.5064  0.2190
 7871SOL     OW35074   2.596   1.277   2.666  0.4516  0.3689 -0.9029
 7871SOL    HW135075   2.565   1.327   2.741 -0.4606  0.0891 -1.0943
 7871SOL    HW235076   2.607   1.188   2.700 -2.6142  1.6022  3.3309
 7872SOL     OW35077   4.142   1.861   5.986 -0.5083 -0.8669  0.0176
 7872SOL    HW135078   4.059   1.901   5.961 -0.6951 -1.6218 -0.5796
 7872SOL    HW235079   4.160   1.801   5.914 -1.7252 -2.4465  1.0034
 7873SOL     OW35080   2.729   1.577   5.428 -0.3331  0.2593 -0.5021
 7873SOL    HW135081   2.713   1.500   5.373 -1.5149 -0.6241  1.0541
 7873SOL    HW235082   2.659   1.564   5.492 -1.0279  0.9703 -1.1204
 7874SOL     OW35083   2.718   1.508   3.820  0.3156  0.4304  0.2394
 7874SOL    HW135084   2.792   1.569   3.826  1.3877 -1.0004  1.4452
 7874SOL    HW235085   2.670   1.548   3.747 -0.3318  2.7563  1.9288
 7875SOL     OW35086   1.392   4.633   5.894  0.2115  0.3469 -0.0208
 7875SOL    HW135087   1.450   4.600   5.962 -0.0576 -1.0427 -0.4715
 7875SOL    HW235088   1.308   4.633   5.938 -1.3404  0.7883 -2.9662
 7876SOL     OW35089   0.329   0.000   7.118 -0.3507 -0.0670  0.4915
 7876SOL    HW135090   0.352   4.633   7.137  1.1828 -0.1847 -1.8840
 7876SOL    HW235091   0.260   0.011   7.183  0.9058  1.9702  1.4781
 7877SOL     OW35092   3.340   4.086  15.352 -0.0088  0.2357  0.2589
 7877SOL    HW135093   3.415   4.044  15.395 -2.2279 -3.2409  0.7556
 7877SOL    HW235094   3.272   4.029  15.387  0.7405 -0.1019  1.1690
 7878SOL     OW35095   3.481   0.731   3.261  0.3545 -0.0975 -0.1172
 7878SOL    HW135096   3.480   0.780   3.343 -2.2236 -1.0138  0.4015
 7878SOL    HW235097   3.572   0.743   3.234  0.2994 -0.2944 -0.3954
 7879SOL     OW35098   0.732   3.274   8.726 -0.6417  0.1636 -0.2890
 7879SOL    HW135099   0.708   3.346   8.784  3.0855  0.0610  1.3259
 7879SOL    HW235100   0.648   3.265   8.680 -0.9747  1.5973  0.0428
 7880SOL     OW35101   3.911   0.011  12.849  0.3373  0.0135  1.1438
 7880SOL    HW135102   3.897   0.054  12.764  2.7367 -0.0100  0.7449
 7880SOL    HW235103   3.839   0.046  12.902 -0.8278 -1.3230  0.4493
 7881SOL     OW35104   4.671   1.955   4.153 -0.0912  0.2903  0.2637
 7881SOL    HW135105   4.698   1.864   4.154 -0.0254  0.3190  1.9230
 7881SOL    HW235106   4.588   1.948   4.201  1.1579  1.1726  2.5718
 7882SOL     OW35107   2.240   2.207   5.245 -0.0762 -0.8813 -0.0891
 7882SOL    HW135108   2.254   2.118   5.211  0.4813 -1.5586  1.8689
 7882SOL    HW235109   2.270   2.263   5.174  2.1122 -2.4410 -0.4315
 7883SOL     OW35110   4.481   4.712   4.780  0.0786 -0.0990 -0.1195
 7883SOL    HW135111   4.498   0.073   4.737 -1.1255 -0.2721 -0.9363
 7883SOL    HW235112   4.511   0.015   4.867 -1.3542  0.7240  0.1174
 7884SOL     OW35113   0.377   2.764   6.120  0.6295  0.1347  0.1351
 7884SOL    HW135114   0.450   2.813   6.083  0.2769  2.1116  2.0105
 7884SOL    HW235115   0.393   2.686   6.067 -2.0898  0.8162 -1.7131
 7885SOL     OW35116   1.668   1.713  15.887  0.0041 -0.0196 -0.2294
 7885SOL    HW135117   1.739   1.776  15.872  0.4829 -0.8939 -1.7042
 7885SOL    HW235118   1.723   1.641  15.916  0.7769  0.2318 -1.0522
 7886SOL     OW35119   3.345   0.026  14.655  0.0335 -0.4110  0.3203
 7886SOL    HW135120   3.256   0.043  14.685 -0.3754 -1.5961 -0.2140
 7886SOL    HW235121   3.395   0.098  14.693 -0.0182 -0.2716  0.1276
 7887SOL     OW35122   3.347   4.122   8.547  0.1643  0.9586  0.4129
 7887SOL    HW135123   3.311   4.211   8.550  1.2722  1.4404 -0.7484
 7887SOL    HW235124   3.388   4.133   8.461 -1.0802 -0.0721 -0.3081
 7888SOL     OW35125   3.540   1.728   5.775 -0.1985 -0.1229  0.4303
 7888SOL    HW135126   3.561   1.688   5.860  1.6305 -0.8898 -0.3982
 7888SOL    HW235127   3.527   1.820   5.798 -0.8454 -0.0490 -0.2150
 7889SOL     OW35128   1.923   3.544   7.518  0.4077  0.0866  0.2157
 7889SOL    HW135129   1.875   3.470   7.555  0.4830 -0.2881 -0.4362
 7889SOL    HW235130   1.989   3.502   7.462 -0.5020  1.0368 -1.5613
 7890SOL     OW35131   1.028   4.633   2.618 -0.0863 -0.3148 -0.3509
 7890SOL    HW135132   0.998   4.550   2.582 -0.6741 -0.5947  0.7853
 7890SOL    HW235133   1.046   4.599   2.705 -2.3001  0.7548  0.5217
 7891SOL     OW35134   1.662   3.141   5.342  0.0920  0.2198  0.6560
 7891SOL    HW135135   1.746   3.104   5.366 -0.4232 -0.7231  1.0084
 7891SOL    HW235136   1.634   3.183   5.424  1.0292  0.4740  0.8435
 7892SOL     OW35137   3.283   2.905  16.404 -0.4375 -0.1053  0.4809
 7892SOL    HW135138   3.217   2.941  16.463  0.0371  1.4217  0.0851
 7892SOL    HW235139   3.247   2.936  16.321  0.8813  0.2428  0.0429
 7893SOL     OW35140   4.309   3.239  13.388  0.0405  0.5636  0.2177
 7893SOL    HW135141   4.391   3.191  13.381 -0.0991  0.3050  0.3647
 7893SOL    HW235142   4.300   3.274  13.299  0.5296  0.5374  0.1605
 7894SOL     OW35143   0.809   4.378   4.233  0.0187 -1.1459  0.1365
 7894SOL    HW135144   0.844   4.463   4.260  1.5692 -1.0082 -2.3564
 7894SOL    HW235145   0.718   4.394   4.258  0.0524  1.5311 -1.5072
 7895SOL     OW35146   4.570   1.502  11.188  0.0387 -0.6213 -0.0742
 7895SOL    HW135147   4.593   1.529  11.100 -0.3996 -1.1221 -0.3444
 7895SOL    HW235148   4.596   1.410  11.197  1.3258 -0.1704  0.9744
 7896SOL     OW35149   3.944   0.887   1.991  0.0234 -0.3913 -0.0855
 7896SOL    HW135150   3.967   0.813   2.046 -0.3335  0.5464  1.3110
 7896SOL    HW235151   4.009   0.881   1.920  1.0331 -3.1046  1.0541
 7897SOL     OW35152   2.234   4.600  16.391 -0.1277 -0.0315  0.2056
 7897SOL    HW135153   2.316   4.613  16.438  0.6072 -1.5278 -0.6739
 7897SOL    HW235154   2.182   4.561  16.461  0.1924 -0.1890  0.3554
 7898SOL     OW35155   1.225   1.214  14.450  0.5067  0.1851 -0.2365
 7898SOL    HW135156   1.272   1.294  14.428 -0.8858  1.6042  2.0706
 7898SOL    HW235157   1.164   1.247  14.516  0.9410 -0.3419  0.4315
 7899SOL     OW35158   2.509   4.299   7.886 -0.0074  0.7107 -0.3895
 7899SOL    HW135159   2.457   4.263   7.957  0.2993  0.8942 -0.0691
 7899SOL    HW235160   2.514   4.393   7.899 -0.1836  0.7164 -0.3732
 7900SOL     OW35161   3.162   1.092  16.776  0.7224  0.8246 -0.1798
 7900SOL    HW135162   3.183   1.042  16.854  0.5842 -2.2255 -2.0806
 7900SOL    HW235163   3.119   1.169  16.812 -1.7887 -0.5439 -0.2856
 7901SOL     OW35164   1.246   4.441   9.338 -0.0485  0.5054  0.0324
 7901SOL    HW135165   1.151   4.433   9.326  0.0997  0.4554 -1.0729
 7901SOL    HW235166   1.252   4.512   9.402 -3.4101 -1.3371  2.4050
 7902SOL     OW35167   2.123   2.043  15.211  0.2072 -0.3367  0.3444
 7902SOL    HW135168   2.166   2.008  15.132 -1.0904 -1.9163  0.3355
 7902SOL    HW235169   2.197   2.058  15.269  1.2476  0.4377 -1.1789
 7903SOL     OW35170   3.752   2.541  12.981 -0.1096  0.1918 -0.1441
 7903SOL    HW135171   3.755   2.633  12.956 -1.2897  0.4318  0.6165
 7903SOL    HW235172   3.839   2.536  13.021 -0.9048 -0.5032  1.4670
 7904SOL     OW35173   2.667   0.657   1.844 -0.1205  0.0654  0.0492
 7904SOL    HW135174   2.669   0.720   1.773  2.3635 -1.5236 -1.3017
 7904SOL    HW235175   2.609   0.697   1.909 -0.4674  0.3907 -0.4629
 7905SOL     OW35176   3.392   0.355   3.395  0.4160  0.2017 -0.4516
 7905SOL    HW135177   3.434   0.271   3.374 -0.5493  0.2510 -2.5349
 7905SOL    HW235178   3.419   0.386   3.481 -1.4861 -0.7606  0.4879
 7906SOL     OW35179   2.740   3.185   0.481 -0.4776  0.1995 -0.1643
 7906SOL    HW135180   2.725   3.092   0.464 -1.3784  0.3175 -0.0336
 7906SOL    HW235181   2.832   3.189   0.458 -0.6402  1.8796 -0.5081
 7907SOL     OW35182   3.907   0.943   4.802  0.1886  0.3708  0.3987
 7907SOL    HW135183   3.883   1.005   4.871 -1.9604  1.1296 -1.0222
 7907SOL    HW235184   3.952   0.999   4.738 -1.5821  0.5558 -0.6663
 7908SOL     OW35185   4.614   3.145   5.166 -0.7497  0.0613  0.1207
 7908SOL    HW135186   4.619   3.216   5.101 -1.6780  0.3460  0.3616
 7908SOL    HW235187   4.625   3.073   5.103  1.0725  0.4631 -0.0256
 7909SOL     OW35188   2.880   3.302   3.995  0.4621 -1.0829  0.6800
 7909SOL    HW135189   2.817   3.372   3.977  2.5184  0.0927 -1.9614
 7909SOL    HW235190   2.933   3.310   3.916 -0.1898  0.5524  0.4095
 7910SOL     OW35191   4.115   3.438   8.809  0.2756  0.0022  0.2087
 7910SOL    HW135192   4.196   3.415   8.764  1.6289 -1.2179  3.2264
 7910SOL    HW235193   4.075   3.358   8.844  0.1452 -1.0657 -2.4132
 7911SOL     OW35194   3.494   0.142   6.051  0.2203 -0.4915  0.3579
 7911SOL    HW135195   3.566   0.168   6.108 -2.4056  1.7223  2.6192
 7911SOL    HW235196   3.512   0.195   5.973 -0.9732 -1.1267 -0.3587
 7912SOL     OW35197   2.133   2.362  10.935 -0.7851 -0.1683 -0.4564
 7912SOL    HW135198   2.211   2.378  10.988 -0.0310 -0.5574 -1.4691
 7912SOL    HW235199   2.153   2.272  10.909 -1.1359 -0.0540 -1.1147
 7913SOL     OW35200   2.058   2.589   0.865 -0.7868  0.4602  0.5468
 7913SOL    HW135201   2.059   2.577   0.770  1.4070 -0.4641  0.6964
 7913SOL    HW235202   2.016   2.675   0.866  1.6797  1.6397  1.8534
 7914SOL     OW35203   0.672   1.532  12.116 -0.2608 -0.2608  0.8628
 7914SOL    HW135204   0.636   1.468  12.054  0.9839 -1.0338  0.9393
 7914SOL    HW235205   0.602   1.536  12.181  0.8875  0.0139  2.0711
 7915SOL     OW35206   4.421   1.851   5.879  0.0839  0.4148  0.0547
 7915SOL    HW135207   4.382   1.840   5.792 -1.7019 -2.3671  1.1936
 7915SOL    HW235208   4.463   1.937   5.873 -2.2348  1.5496 -0.1853
 7916SOL     OW35209   0.383   1.778   3.329 -0.2317 -0.4383 -0.4334
 7916SOL    HW135210   0.398   1.789   3.423  1.9330 -1.6135 -0.6453
 7916SOL    HW235211   0.436   1.700   3.313  2.7418  0.9977  2.4288
 7917SOL     OW35212   0.442   0.419   4.431  0.4546 -0.6711  0.0748
 7917SOL    HW135213   0.434   0.493   4.491  0.7057 -1.0028  0.5193
 7917SOL    HW235214   0.453   0.347   4.494 -0.3082  1.3935  2.5991
 7918SOL     OW35215   4.033   2.856   2.329 -0.0595  0.0711  0.1907
 7918SOL    HW135216   4.099   2.789   2.312 -0.3433 -0.2466  0.3572
 7918SOL    HW235217   4.062   2.927   2.271  2.7471 -1.9208 -0.8277
 7919SOL     OW35218   4.379   1.764   4.738  0.3790  0.0178 -0.2785
 7919SOL    HW135219   4.330   1.741   4.817  1.8161 -0.2516  0.5388
 7919SOL    HW235220   4.335   1.843   4.706  0.0348 -0.5704 -1.2604
 7920SOL     OW35221   3.536   4.426   1.824 -0.0875 -0.6180 -0.0579
 7920SOL    HW135222   3.449   4.419   1.785 -1.3064  1.4848  2.3107
 7920SOL    HW235223   3.592   4.419   1.747 -1.0787 -0.6182 -0.7756
 7921SOL     OW35224   0.763   0.932   6.671 -0.1471  0.1561  0.3223
 7921SOL    HW135225   0.762   0.915   6.765  2.0171 -1.0659  0.1293
 7921SOL    HW235226   0.833   0.871   6.650  0.0824  0.4236  0.2983
 7922SOL     OW35227   1.485   1.858   7.078  0.6523 -0.0181 -0.1556
 7922SOL    HW135228   1.474   1.935   7.021  0.8816 -1.7488 -2.5187
 7922SOL    HW235229   1.485   1.787   7.014  2.8463 -0.0010 -0.1549
 7923SOL     OW35230   1.262   2.862   7.509 -0.1926  0.6515 -0.3866
 7923SOL    HW135231   1.243   2.769   7.496  1.5358  0.3737 -0.9394
 7923SOL    HW235232   1.216   2.870   7.593  0.2890 -1.7598  0.1275
 7924SOL     OW35233   4.317   0.391   4.836  0.1484  0.0992  0.0157
 7924SOL    HW135234   4.385   0.336   4.797  0.9986  0.2272  1.3204
 7924SOL    HW235235   4.333   0.466   4.779 -3.0433  0.6074 -0.2032
 7925SOL     OW35236   1.448   1.607   5.300 -0.0254  0.0154 -0.1009
 7925SOL    HW135237   1.452   1.690   5.252  0.0577 -0.2731 -0.5982
 7925SOL    HW235238   1.486   1.643   5.380 -1.8868  1.3291  0.1928
 7926SOL     OW35239   2.463   4.252   8.815 -0.4045 -0.2875  0.2709
 7926SOL    HW135240   2.404   4.234   8.742  1.0501  0.3419 -1.0641
 7926SOL    HW235241   2.426   4.335   8.845 -1.8367 -1.4763  1.7998
 7927SOL     OW35242   0.723   1.672  13.462 -0.0404  0.0844 -0.2639
 7927SOL    HW135243   0.692   1.621  13.387 -1.0111  2.6268 -1.5994
 7927SOL    HW235244   0.817   1.671  13.448 -0.3802 -2.4793 -2.2264
 7928SOL     OW35245   2.579   3.893  17.639 -0.0664  0.0109 -0.2650
 7928SOL    HW135246   2.630   3.974  17.644 -1.1560  0.6234  0.8515
 7928SOL    HW235247   2.635   3.844   0.003 -0.4089  0.9897  0.8447
 7929SOL     OW35248   2.617   1.806   4.050 -0.2016  0.3549 -0.3429
 7929SOL    HW135249   2.561   1.768   4.118 -0.0245  1.6897  0.5560
 7929SOL    HW235250   2.544   1.828   3.993 -1.2832 -2.0860  0.1178
 7930SOL     OW35251   3.868   3.226   0.177 -0.3925 -0.3218  0.0459
 7930SOL    HW135252   3.850   3.320   0.184  0.1078 -0.2928  0.8324
 7930SOL    HW235253   3.835   3.196   0.092  1.0322  2.3724 -1.4685
 7931SOL     OW35254   2.263   0.314   6.211  0.2387  0.0327  0.1330
 7931SOL    HW135255   2.176   0.294   6.176  0.9182  0.0901 -1.6093
 7931SOL    HW235256   2.246   0.292   6.302 -0.0367 -1.0081 -0.1678
 7932SOL     OW35257   2.027   1.822  15.596  0.4105 -0.1102 -0.1866
 7932SOL    HW135258   2.035   1.917  15.588 -3.6522  0.2661  0.1749
 7932SOL    HW235259   2.016   1.794  15.687  0.5268 -0.1284 -0.1777
 7933SOL     OW35260   3.552   1.221   4.919  0.0867  0.2583  0.2200
 7933SOL    HW135261   3.552   1.312   4.889 -1.4894  0.1417 -0.1348
 7933SOL    HW235262   3.468   1.210   4.963  0.4496  0.1465  0.8715
 7934SOL     OW35263   3.621   2.067   0.808 -0.1693 -0.4077  0.4008
 7934SOL    HW135264   3.654   2.029   0.889  0.4851 -0.1529  0.2509
 7934SOL    HW235265   3.604   1.985   0.762  0.0643 -0.7427  0.9099
 7935SOL     OW35266   0.063   0.295   4.601  0.5715 -0.2593  0.3618
 7935SOL    HW135267   0.094   0.240   4.529 -0.7961 -0.4030 -0.1177
 7935SOL    HW235268   0.071   0.385   4.570  2.8368 -0.0967  1.4400
 7936SOL     OW35269   3.886   4.171   0.574  0.2721 -0.5107 -0.2257
 7936SOL    HW135270   3.969   4.195   0.533 -0.3710  1.8394 -0.1715
 7936SOL    HW235271   3.917   4.088   0.609 -0.3374 -0.4311  0.5048
 7937SOL     OW35272   1.488   0.016   2.714 -0.1777 -0.0562  0.3536
 7937SOL    HW135273   1.421   0.059   2.660 -0.3200 -0.0070  0.5657
 7937SOL    HW235274   1.567   0.022   2.660 -1.3902  1.4456 -1.2680
 7938SOL     OW35275   0.414   3.194   5.289  0.0382  0.2379  0.0267
 7938SOL    HW135276   0.382   3.186   5.200 -1.3732 -0.3518  0.5840
 7938SOL    HW235277   0.436   3.287   5.299  0.8914 -0.0347  0.7615
 7939SOL     OW35278   0.693   0.902   4.980 -0.1079  0.4430  0.0317
 7939SOL    HW135279   0.610   0.938   5.010 -1.3776 -0.9292 -1.7989
 7939SOL    HW235280   0.668   0.809   4.984  0.1685  0.3535 -0.2908
 7940SOL     OW35281   3.923   4.651  17.163 -0.1081  0.0630 -0.3430
 7940SOL    HW135282   3.885   4.714  17.224  2.8408 -0.6821  2.2673
 7940SOL    HW235283   3.865   4.575  17.169 -1.3111  1.1762  2.1543
 7941SOL     OW35284   1.795   3.725  11.687  0.1507  0.0109 -0.0654
 7941SOL    HW135285   1.849   3.652  11.717 -0.9765 -0.7663  0.0620
 7941SOL    HW235286   1.813   3.784  11.760  2.3758  2.0413 -2.2424
 7942SOL     OW35287   0.801   1.760  16.731 -0.0004 -0.2627  0.2461
 7942SOL    HW135288   0.863   1.828  16.755 -1.4991  0.5488  1.7719
 7942SOL    HW235289   0.715   1.786  16.763  0.5573  0.4281  1.1562
 7943SOL     OW35290   4.554   1.091   8.680 -0.4410 -0.2203 -0.1454
 7943SOL    HW135291   4.517   1.152   8.744  0.4808  0.8266 -0.6200
 7943SOL    HW235292   4.500   1.012   8.674 -1.2500  0.4000 -0.8984
 7944SOL     OW35293   0.772   2.227   7.409  0.2409  0.4636 -0.7907
 7944SOL    HW135294   0.756   2.273   7.492 -1.6652 -0.4281 -0.6585
 7944SOL    HW235295   0.749   2.136   7.427  1.1296  0.4841  0.4875
 7945SOL     OW35296   0.904   4.412   8.841  0.1812 -0.5246  0.4023
 7945SOL    HW135297   0.868   4.483   8.894 -0.1715 -0.3331 -0.1016
 7945SOL    HW235298   0.986   4.450   8.810 -0.4345 -0.5002 -1.1953
 7946SOL     OW35299   0.093   2.655   6.207 -0.3425  0.6576 -0.3164
 7946SOL    HW135300   0.057   2.680   6.122  1.3691  0.0787 -1.2032
 7946SOL    HW235301   0.187   2.672   6.198  0.2909 -2.8283 -0.2413
 7947SOL     OW35302   2.904   1.169  16.145 -0.3495  0.2848  0.0143
 7947SOL    HW135303   2.876   1.208  16.062  2.8190  0.5714 -0.9405
 7947SOL    HW235304   2.870   1.234  16.206 -1.8211 -2.8324  2.5067
 7948SOL     OW35305   0.559   1.091   8.062 -0.5823 -0.4587 -0.4919
 7948SOL    HW135306   0.603   1.013   8.096 -0.8594 -0.8705 -1.0836
 7948SOL    HW235307   0.468   1.063   8.054  0.0378 -2.0021 -2.2580
 7949SOL     OW35308   2.646   2.579  11.172  0.1466  0.0197  0.3767
 7949SOL    HW135309   2.637   2.489  11.203 -0.7071  0.2091  0.6806
 7949SOL    HW235310   2.711   2.622  11.227  2.1461 -2.0262 -0.3857
 7950SOL     OW35311   2.848   3.935   2.640 -0.1208  0.7378  0.5850
 7950SOL    HW135312   2.938   3.961   2.660  0.1270  0.0656  0.3341
 7950SOL    HW235313   2.819   4.026   2.632 -0.2894  0.5811 -0.6257
 7951SOL     OW35314   1.140   0.334  14.229  0.3238  0.1425 -0.4478
 7951SOL    HW135315   1.168   0.421  14.199  1.2628  0.4794  1.4070
 7951SOL    HW235316   1.048   0.355  14.249 -0.1880 -3.3083  0.8270
 7952SOL     OW35317   2.397   0.031  11.998  0.4198 -0.1841  0.3674
 7952SOL    HW135318   2.488   0.060  11.990  0.3783 -0.1118  0.1405
 7952SOL    HW235319   2.371   0.013  11.908 -1.7085  0.9466  0.7547
 7953SOL     OW35320   1.404   2.746   1.840  0.1347 -0.4803 -0.5440
 7953SOL    HW135321   1.328   2.729   1.784 -0.1685 -1.1094  0.0505
 7953SOL    HW235322   1.368   2.771   1.925 -1.1254 -1.6110 -0.7343
 7954SOL     OW35323   3.053   1.799   8.497  0.6159  0.3524 -0.0786
 7954SOL    HW135324   2.986   1.735   8.474  1.4510 -0.5503 -0.0246
 7954SOL    HW235325   3.115   1.788   8.426 -0.2095  2.0693 -1.0504
 7955SOL     OW35326   2.432   4.067   8.182 -0.1628  0.0853 -0.6717
 7955SOL    HW135327   2.515   4.044   8.225 -0.5599 -1.4650 -0.7342
 7955SOL    HW235328   2.442   4.161   8.168 -1.1886  0.2046 -0.6250
 7956SOL     OW35329   0.948   3.991  15.258 -0.0481 -0.5713 -0.0196
 7956SOL    HW135330   0.999   4.009  15.338 -1.3038  2.3997  0.0826
 7956SOL    HW235331   0.987   4.058  15.202  1.6466 -2.2366 -0.8679
 7957SOL     OW35332   3.433   1.005  13.943 -0.1491 -0.1279  0.3052
 7957SOL    HW135333   3.492   1.073  13.974 -2.1658  2.0825 -0.7224
 7957SOL    HW235334   3.419   0.960  14.027 -1.4047 -0.1898  0.0698
 7958SOL     OW35335   3.490   3.663   3.780  0.1659 -0.2805 -0.1652
 7958SOL    HW135336   3.483   3.576   3.820 -2.9239 -0.6101 -1.4113
 7958SOL    HW235337   3.577   3.687   3.812 -0.5720  0.3463  1.3896
 7959SOL     OW35338   2.370   2.896  11.706  0.4476 -0.2365 -0.1883
 7959SOL    HW135339   2.392   2.989  11.711 -0.5290 -0.1065  1.4612
 7959SOL    HW235340   2.283   2.889  11.666 -0.2774 -0.5289  1.4543
 7960SOL     OW35341   0.513   1.798   4.610 -0.1998  0.1734 -0.1054
 7960SOL    HW135342   0.594   1.802   4.660 -0.8095  2.2989  0.7149
 7960SOL    HW235343   0.454   1.853   4.662  1.0393 -0.0085  1.4990
 7961SOL     OW35344   2.368   0.687   5.287 -0.0293 -0.0478 -0.1959
 7961SOL    HW135345   2.276   0.690   5.259 -0.1650  2.0710  0.4453
 7961SOL    HW235346   2.405   0.620   5.230  2.7958  2.8959 -1.7800
 7962SOL     OW35347   4.397   0.412   8.052 -0.4895 -0.0741  0.1545
 7962SOL    HW135348   4.386   0.355   8.128  1.1854  0.9479  1.1536
 7962SOL    HW235349   4.308   0.417   8.017  0.5686 -2.3385 -2.8795
 7963SOL     OW35350   1.633   1.840   9.744  0.4307 -0.1793  0.2733
 7963SOL    HW135351   1.538   1.828   9.737  0.0442  2.0492  1.6226
 7963SOL    HW235352   1.643   1.855   9.650 -0.9554 -0.8149  0.0169
 7964SOL     OW35353   2.816   3.671   6.914 -0.2212 -0.5182  0.2479
 7964SOL    HW135354   2.837   3.637   6.827  0.4039 -0.3249  0.3254
 7964SOL    HW235355   2.904   3.680   6.950 -0.3381 -0.1215  0.4334
 7965SOL     OW35356   3.855   3.983   3.967 -0.1481 -0.6792  0.4794
 7965SOL    HW135357   3.800   4.047   3.922  1.9488 -1.6103 -3.4313
 7965SOL    HW235358   3.846   4.017   4.056  1.8253 -2.9227  1.5353
 7966SOL     OW35359   4.288   0.142  17.502 -0.1378 -0.2841 -0.4880
 7966SOL    HW135360   4.345   0.098  17.566 -1.1744 -0.2056  0.4933
 7966SOL    HW235361   4.270   0.228  17.541  1.4432 -0.8388  1.5198
 7967SOL     OW35362   2.854   2.665   4.259 -0.5558 -0.6092  0.3500
 7967SOL    HW135363   2.875   2.734   4.321  1.3454  0.3072 -1.3137
 7967SOL    HW235364   2.782   2.620   4.304 -1.1050 -1.6986 -1.6052
 7968SOL     OW35365   1.586   4.359   2.248  0.6909 -0.8300  0.3669
 7968SOL    HW135366   1.621   4.387   2.163 -2.2456  0.4150 -0.4561
 7968SOL    HW235367   1.529   4.435   2.261 -0.9023 -2.0049  0.2844
 7969SOL     OW35368   2.601   1.871   7.228  0.2542 -0.2690  0.3942
 7969SOL    HW135369   2.554   1.884   7.310  0.1950 -0.9167  0.4661
 7969SOL    HW235370   2.680   1.924   7.234  0.9198 -1.1905 -0.2081
 7970SOL     OW35371   3.483   4.090  11.754  0.3770  0.5657 -0.5063
 7970SOL    HW135372   3.487   4.177  11.713 -0.2356 -0.5118 -2.8883
 7970SOL    HW235373   3.539   4.096  11.831  0.8749 -1.9405 -0.6795
 7971SOL     OW35374   1.660   0.762  13.885  0.0514  0.5921 -0.3377
 7971SOL    HW135375   1.707   0.693  13.839  0.9692  0.4313  0.8350
 7971SOL    HW235376   1.574   0.724  13.904  0.2698  0.9496  1.4470
 7972SOL     OW35377   0.696   1.879   8.522 -0.5249  0.3775  0.0046
 7972SOL    HW135378   0.690   1.818   8.596  1.3579  2.5920  1.9510
 7972SOL    HW235379   0.761   1.826   8.476 -1.2727 -0.2465 -0.3503
 7973SOL     OW35380   0.443   4.455   3.948 -0.3143 -0.3167  0.7790
 7973SOL    HW135381   0.447   4.393   3.875  0.7129 -0.4235  0.9284
 7973SOL    HW235382   0.425   4.534   3.898  0.9392 -0.4615  0.1119
 7974SOL     OW35383   0.591   1.537  13.276  0.0756  0.2829 -0.4918
 7974SOL    HW135384   0.498   1.547  13.297 -0.4699 -2.2754 -1.7037
 7974SOL    HW235385   0.597   1.504  13.186  0.5084  0.4822 -0.5400
 7975SOL     OW35386   2.978   1.358   5.386 -0.5756 -0.3704  0.8622
 7975SOL    HW135387   3.044   1.317   5.441  2.2140 -0.0870 -2.3054
 7975SOL    HW235388   2.983   1.305   5.307  1.9114  0.3767  0.5160
 7976SOL     OW35389   2.271   1.779   4.908 -0.0955 -0.9822  0.0301
 7976SOL    HW135390   2.253   1.685   4.916 -1.6066 -0.5355  2.0292
 7976SOL    HW235391   2.248   1.799   4.818  2.5199 -0.1493 -0.4393
 7977SOL     OW35392   4.260   0.830  11.222  0.6095  0.0459 -0.1105
 7977SOL    HW135393   4.301   0.761  11.274 -2.9678 -3.1944 -1.5421
 7977SOL    HW235394   4.188   0.777  11.187  0.0380 -0.9858  2.6415
 7978SOL     OW35395   2.506   1.960   1.866  0.1671 -0.6336 -0.4438
 7978SOL    HW135396   2.531   1.884   1.920 -2.2699 -1.4604 -0.5116
 7978SOL    HW235397   2.520   1.937   1.774 -1.2505 -1.8882 -0.3445
 7979SOL     OW35398   4.619   2.696  10.397 -0.3224 -0.0732  0.5640
 7979SOL    HW135399   4.640   2.788  10.385  0.5831 -0.2760  0.6452
 7979SOL    HW235400   4.548   2.671  10.338 -2.3688  0.5704  2.7203
 7980SOL     OW35401   0.695   2.182  11.452 -0.3392  0.1954 -0.9688
 7980SOL    HW135402   0.741   2.162  11.534 -0.7682  2.2652 -0.2411
 7980SOL    HW235403   0.702   2.277  11.449  1.3857  0.0803 -0.2935
 7981SOL     OW35404   4.718   4.385  14.231 -0.2754  0.0662 -0.2683
 7981SOL    HW135405   0.058   4.313  14.237  1.1618  1.5416  2.2800
 7981SOL    HW235406   4.710   4.420  14.320 -2.2733  0.1409 -0.4769
 7982SOL     OW35407   1.366   0.573   5.194  0.0985 -0.0042 -0.2315
 7982SOL    HW135408   1.352   0.517   5.271 -0.8127 -1.4176 -1.4316
 7982SOL    HW235409   1.276   0.595   5.171  0.6129  1.7150 -0.5672
 7983SOL     OW35410   0.815   3.343   8.306  0.4778 -0.5782 -0.1490
 7983SOL    HW135411   0.744   3.283   8.284  2.5609 -2.3830 -1.9146
 7983SOL    HW235412   0.850   3.304   8.386 -2.4490 -2.1057  0.4075
 7984SOL     OW35413   2.952   1.814   6.024 -0.0546 -0.2822  0.2678
 7984SOL    HW135414   2.890   1.744   6.001 -1.1006  0.9447 -0.6297
 7984SOL    HW235415   2.910   1.866   6.093 -0.4139 -1.2056  0.7454
 7985SOL     OW35416   3.923   3.117   2.689  0.0932 -0.1645  0.1521
 7985SOL    HW135417   4.014   3.108   2.717 -0.2791 -0.4206  1.2689
 7985SOL    HW235418   3.876   3.116   2.772  0.5460  0.1307  0.4162
 7986SOL     OW35419   4.445   3.113   5.349  0.2713 -0.2689  0.3332
 7986SOL    HW135420   4.526   3.135   5.302 -0.7511  1.3970 -0.6430
 7986SOL    HW235421   4.384   3.176   5.310 -0.2322 -0.3047  1.0764
 7987SOL     OW35422   0.021   0.533   7.804  0.1926  0.1313 -0.1869
 7987SOL    HW135423   0.093   0.523   7.866 -1.7026 -0.3485  1.9341
 7987SOL    HW235424   0.012   0.628   7.796  1.7589  0.4923  2.1510
 7988SOL     OW35425   1.026   1.895   3.355 -0.0983  0.4137  0.3378
 7988SOL    HW135426   0.940   1.855   3.365  0.4242 -1.0953 -1.1459
 7988SOL    HW235427   1.025   1.987   3.382  2.9679  0.1149  1.4989
 7989SOL     OW35428   4.229   1.836   2.347  0.3564 -0.0424 -0.3181
 7989SOL    HW135429   4.270   1.895   2.411  0.0072  1.9137 -1.9144
 7989SOL    HW235430   4.273   1.751   2.356 -1.4796 -1.1146 -1.5691
 7990SOL     OW35431   0.355   4.469   8.750 -0.1313  0.9055  0.0999
 7990SOL    HW135432   0.409   4.534   8.796  1.8195 -1.1508  0.7463
 7990SOL    HW235433   0.388   4.493   8.664 -0.7471  0.4385 -0.2641
 7991SOL     OW35434   4.472   4.495   0.556 -0.3222 -0.5467  0.1316
 7991SOL    HW135435   4.519   4.439   0.493  1.7266  1.5351 -0.1799
 7991SOL    HW235436   4.499   4.458   0.640  0.9797  1.7572  0.7205
 7992SOL     OW35437   3.137   4.634   5.692 -0.8131 -0.1640  0.5928
 7992SOL    HW135438   3.079   4.700   5.655  0.7736  0.2625 -1.1573
 7992SOL    HW235439   3.222   4.677   5.687 -0.4774 -0.6955  1.6513
 7993SOL     OW35440   1.275   2.385   8.459  0.2421  0.8144 -0.0208
 7993SOL    HW135441   1.325   2.445   8.402  3.1682 -2.4658 -0.9189
 7993SOL    HW235442   1.340   2.352   8.521 -1.9118 -0.8828  1.2870
 7994SOL     OW35443   3.682   3.632   8.425 -0.4260  0.0065 -0.3177
 7994SOL    HW135444   3.723   3.626   8.339 -1.5055  1.9453 -0.9644
 7994SOL    HW235445   3.656   3.723   8.437 -1.1093 -0.4289  1.6551
 7995SOL     OW35446   0.736   0.865   0.641 -0.0655 -0.0006  0.3640
 7995SOL    HW135447   0.795   0.813   0.695 -1.9349 -1.4097  1.0416
 7995SOL    HW235448   0.698   0.915   0.714  1.0084  1.0987  0.1608
 7996SOL     OW35449   0.284   1.815   2.789  0.3462  0.3662  0.0252
 7996SOL    HW135450   0.262   1.730   2.750  1.0401  0.8736 -1.4699
 7996SOL    HW235451   0.377   1.815   2.765  0.3935  3.4913  0.1938
 7997SOL     OW35452   4.100   1.005  10.223  0.7798 -0.0010 -0.0280
 7997SOL    HW135453   4.047   1.056  10.163  1.3164 -1.8876 -2.1309
 7997SOL    HW235454   4.029   0.946  10.246  1.3656 -1.2888 -1.5295
 7998SOL     OW35455   1.979   3.371   1.054 -0.4539 -0.2429 -0.1008
 7998SOL    HW135456   2.017   3.359   1.141 -0.3615  3.3647  0.3609
 7998SOL    HW235457   1.989   3.465   1.041 -0.0619 -0.2874 -0.0927
 7999SOL     OW35458   2.255   0.309   6.489 -0.7771  0.4808  0.6886
 7999SOL    HW135459   2.337   0.313   6.538  0.2937  2.2833 -1.2735
 7999SOL    HW235460   2.200   0.274   6.559  1.4179 -2.5618  0.8613
 8000SOL     OW35461   1.633   1.641   4.599 -0.1980 -0.0754  0.0014
 8000SOL    HW135462   1.570   1.577   4.564 -0.1516  1.1351 -2.2633
 8000SOL    HW235463   1.697   1.628   4.529  0.2683 -2.3106  0.8324
 8001SOL     OW35464   0.504   1.489  12.335  1.0173 -0.2341 -0.3604
 8001SOL    HW135465   0.566   1.427  12.373  0.9019  0.5872  1.1572
 8001SOL    HW235466   0.485   1.541  12.413  0.5471 -0.3769 -0.3747
 8002SOL     OW35467   4.041   1.070   2.214  0.3226 -0.3907 -0.1414
 8002SOL    HW135468   4.112   1.077   2.150 -0.8980  1.5103 -1.3178
 8002SOL    HW235469   3.982   1.006   2.173 -1.1376  1.2902 -0.6943
 8003SOL     OW35470   0.920   4.662   7.256 -0.2100 -0.0910  0.1171
 8003SOL    HW135471   0.870   4.685   7.178  3.4736 -0.4663 -2.3596
 8003SOL    HW235472   0.898   0.005   7.321  0.0063  0.6762 -0.5951
 8004SOL     OW35473   4.614   4.577   5.571 -0.1512 -0.4505  0.4983
 8004SOL    HW135474   4.665   4.597   5.650  0.6986  0.6838 -0.3458
 8004SOL    HW235475   4.524   4.586   5.601 -0.3772  0.9252 -0.6145
 8005SOL     OW35476   4.713   2.074   2.493 -0.2062  0.6187 -0.2396
 8005SOL    HW135477   0.068   2.122   2.468 -0.2549  0.0657 -1.4756
 8005SOL    HW235478   4.722   2.054   2.586  0.0752  1.9731  0.0251
 8006SOL     OW35479   1.067   1.297   8.807  0.1482  0.1214  0.2140
 8006SOL    HW135480   1.119   1.223   8.775  0.1052  0.3088 -0.2837
 8006SOL    HW235481   1.057   1.277   8.900 -1.6757  0.0792  0.0224
 8007SOL     OW35482   4.015   0.398  10.533  0.2334  0.1353 -0.0980
 8007SOL    HW135483   3.920   0.393  10.520  0.1452  0.4621  0.3981
 8007SOL    HW235484   4.028   0.493  10.537  4.5335 -0.3014 -3.3284
 8008SOL     OW35485   3.528   2.269   3.813  0.2942  0.4642 -0.0871
 8008SOL    HW135486   3.451   2.298   3.764 -0.8071 -0.8549  0.8660
 8008SOL    HW235487   3.513   2.180   3.845  0.8509 -0.4548 -2.3115
 8009SOL     OW35488   4.492   2.562   2.896  0.6631 -0.0793  0.4054
 8009SOL    HW135489   4.433   2.521   2.959 -1.4245  1.1732 -0.7186
 8009SOL    HW235490   4.548   2.490   2.870 -1.2234 -0.5923 -2.2686
 8010SOL     OW35491   1.611   3.604  16.639 -0.3217 -0.2849  0.1165
 8010SOL    HW135492   1.687   3.581  16.692  0.2323  1.6652  0.1598
 8010SOL    HW235493   1.593   3.692  16.671  0.9531  0.7403 -1.9470
 8011SOL     OW35494   2.451   0.072   8.063 -0.0143  0.1364 -0.0096
 8011SOL    HW135495   2.478   0.140   8.001 -1.6728 -0.9449 -1.9401
 8011SOL    HW235496   2.515   0.085   8.133 -1.5175  2.0944  0.9958
 8012SOL     OW35497   0.495   4.441   2.669 -0.0600 -0.4179 -0.2223
 8012SOL    HW135498   0.442   4.487   2.735  0.3757 -0.7070  0.3298
 8012SOL    HW235499   0.578   4.447   2.716 -1.1692  0.1021  1.7230
 8013SOL     OW35500   0.293   3.407   3.069  0.4263 -0.0041 -0.7309
 8013SOL    HW135501   0.249   3.491   3.053  1.0761  0.4968  0.0710
 8013SOL    HW235502   0.373   3.431   3.117 -0.0370 -0.1582  0.1187
 8014SOL     OW35503   3.176   3.190   7.936 -0.0195  0.2243 -0.3678
 8014SOL    HW135504   3.113   3.137   7.984  0.2533  0.7486  0.5689
 8014SOL    HW235505   3.158   3.157   7.848  1.5400  4.1811 -2.1667
 8015SOL     OW35506   4.408   4.631   5.942  0.3386 -0.1059  0.5394
 8015SOL    HW135507   4.467   4.693   5.985 -1.8141  1.0812  1.7953
 8015SOL    HW235508   4.320   4.670   5.944  0.0650 -0.6648 -0.6715
 8016SOL     OW35509   2.744   1.306  14.408  0.8289 -0.6200 -0.7974
 8016SOL    HW135510   2.706   1.219  14.415  1.2488 -0.6802  0.6895
 8016SOL    HW235511   2.679   1.361  14.453  1.5105 -0.5882  0.1518
 8017SOL     OW35512   4.005   1.900   2.628 -0.0817 -0.1391 -0.2093
 8017SOL    HW135513   3.980   1.884   2.719 -1.2849  0.5231 -0.4296
 8017SOL    HW235514   4.099   1.913   2.642 -0.3430  0.8071  0.6716
 8018SOL     OW35515   3.957   3.397   9.321 -0.2778  0.4919  0.5978
 8018SOL    HW135516   3.879   3.428   9.367 -2.0718 -2.6990 -0.2365
 8018SOL    HW235517   3.971   3.307   9.350 -0.2902  0.9651  2.0879
 8019SOL     OW35518   4.413   0.407  12.408 -0.2428  0.3670 -0.2632
 8019SOL    HW135519   4.455   0.391  12.492  0.2619  0.4151 -0.5102
 8019SOL    HW235520   4.321   0.395  12.434 -0.4239 -5.0682 -3.3849
 8020SOL     OW35521   2.967   4.659   1.801  0.0871  0.2217 -0.9486
 8020SOL    HW135522   2.952   4.678   1.894 -1.5920  1.9429 -1.5798
 8020SOL    HW235523   2.974   4.563   1.799  0.6082  0.2324  0.1195
 8021SOL     OW35524   1.337   2.435   1.211  0.3471 -0.3854  0.5067
 8021SOL    HW135525   1.344   2.401   1.300 -0.4002  1.1070  1.1519
 8021SOL    HW235526   1.242   2.435   1.201  0.2236 -1.9534  1.7521
 8022SOL     OW35527   1.734   2.277   4.435  0.0825 -0.3778  0.0346
 8022SOL    HW135528   1.694   2.220   4.369  1.0097  0.7079 -1.4567
 8022SOL    HW235529   1.823   2.279   4.401 -0.1183 -1.3415 -0.5599
 8023SOL     OW35530   3.385   4.494  15.630 -0.1529  0.5035  0.0659
 8023SOL    HW135531   3.336   4.521  15.708 -0.1649 -1.0408  0.5931
 8023SOL    HW235532   3.454   4.441  15.670 -0.1447 -0.5744 -1.3839
 8024SOL     OW35533   0.544   1.298   3.744  0.1954 -0.0536 -0.1887
 8024SOL    HW135534   0.472   1.268   3.799  0.2401  1.5392  0.7482
 8024SOL    HW235535   0.514   1.389   3.741 -1.4749 -0.6080 -0.5081
 8025SOL     OW35536   4.135   3.561   0.484  0.2337 -0.3613  0.6507
 8025SOL    HW135537   4.201   3.534   0.548 -0.0277 -0.5700  0.8338
 8025SOL    HW235538   4.177   3.527   0.405  2.8577  0.3705  1.7427
 8026SOL     OW35539   1.463   2.000   6.797  0.0985 -0.5807  0.2709
 8026SOL    HW135540   1.484   1.989   6.704  1.4163  2.0705  0.2585
 8026SOL    HW235541   1.538   2.050   6.831 -0.6219 -1.7546  3.6220
 8027SOL     OW35542   2.663   0.347   2.698 -0.1651 -0.8535 -0.1676
 8027SOL    HW135543   2.692   0.257   2.716  1.7074 -0.2443 -0.1533
 8027SOL    HW235544   2.579   0.350   2.744  0.3240 -0.6321  0.7122
 8028SOL     OW35545   1.790   0.671   9.508  0.3586  0.1225 -0.5211
 8028SOL    HW135546   1.710   0.632   9.473  0.2024 -0.3380  0.3393
 8028SOL    HW235547   1.770   0.687   9.600 -0.0559  0.4408 -0.6711
 8029SOL     OW35548   4.612   0.522   8.343 -0.1295  0.1101 -0.3253
 8029SOL    HW135549   4.587   0.571   8.422  1.9667  0.6130  0.0110
 8029SOL    HW235550   4.701   0.497   8.368  0.5738  2.7259 -0.2251
 8030SOL     OW35551   0.598   3.393   5.011  0.2767 -0.0086 -0.0751
 8030SOL    HW135552   0.517   3.424   4.971  0.1197 -1.3240 -0.7760
 8030SOL    HW235553   0.574   3.301   4.997  3.0417 -0.5422 -1.4074
 8031SOL     OW35554   0.877   4.091   4.521 -0.1336 -0.1282  1.2198
 8031SOL    HW135555   0.962   4.089   4.477 -0.7948  2.0563 -0.1511
 8031SOL    HW235556   0.823   4.066   4.445 -0.3119  2.0796  0.6354
 8032SOL     OW35557   4.322   1.471   3.316  0.2496 -0.5243 -0.1206
 8032SOL    HW135558   4.269   1.490   3.393  0.4324  0.8734 -0.3498
 8032SOL    HW235559   4.404   1.512   3.342 -0.6855  1.1979  0.0998
 8033SOL     OW35560   1.995   0.989   8.131  0.2192  0.4148 -0.0614
 8033SOL    HW135561   1.962   1.058   8.188 -0.9669  1.2150 -1.6959
 8033SOL    HW235562   1.920   0.965   8.075  0.4721  0.8645 -0.5993
 8034SOL     OW35563   2.823   1.776   6.607 -0.1276 -0.3068 -0.0312
 8034SOL    HW135564   2.749   1.729   6.646  0.6113 -1.1358  0.3481
 8034SOL    HW235565   2.803   1.866   6.634 -2.8425 -0.4994 -1.3791
 8035SOL     OW35566   2.079   1.313   3.791  0.3341  0.2095  0.3537
 8035SOL    HW135567   2.095   1.251   3.862  1.6173 -0.7618 -0.7641
 8035SOL    HW235568   1.988   1.338   3.807 -0.0819 -0.1506 -1.4724
 8036SOL     OW35569   1.524   3.151   3.252  0.2965 -0.6996 -0.2130
 8036SOL    HW135570   1.511   3.148   3.347  1.6488 -2.4775 -0.0671
 8036SOL    HW235571   1.550   3.243   3.246  1.1000 -0.9214 -0.2116
 8037SOL     OW35572   2.804   1.476  17.322  0.1130  0.1945  0.2495
 8037SOL    HW135573   2.874   1.419  17.354  2.0592  1.0761 -2.4948
 8037SOL    HW235574   2.723   1.443  17.361 -0.5625 -0.8250 -1.9817
 8038SOL     OW35575   2.449   3.836   5.734 -0.7301  0.1722 -0.2311
 8038SOL    HW135576   2.418   3.923   5.757 -0.7745  0.0840  0.0435
 8038SOL    HW235577   2.539   3.856   5.708 -1.2778  2.8917 -0.0472
 8039SOL     OW35578   3.105   1.553  15.704  0.0155 -0.6387  0.3297
 8039SOL    HW135579   3.024   1.517  15.669  0.3677 -2.2493  1.1826
 8039SOL    HW235580   3.085   1.599  15.785  0.2725  0.0610  0.0006
 8040SOL     OW35581   2.852   1.892   2.126 -0.8406  0.3856 -0.2985
 8040SOL    HW135582   2.909   1.969   2.121 -0.9746  0.5997  1.4024
 8040SOL    HW235583   2.856   1.863   2.036  2.2183  1.8348 -0.6695
 8041SOL     OW35584   0.256   2.118   5.069 -0.3668 -0.0094 -0.5240
 8041SOL    HW135585   0.199   2.041   5.064 -0.5892  0.2322 -1.7566
 8041SOL    HW235586   0.177   2.173   5.064  0.4428  1.0755 -1.4137
 8042SOL     OW35587   1.864   3.417   2.042  0.8315  0.5544 -0.5373
 8042SOL    HW135588   1.948   3.461   2.032  0.5838  1.2308  0.2719
 8042SOL    HW235589   1.820   3.425   1.958 -1.1612 -2.7458  0.1539
 8043SOL     OW35590   0.061   0.829  12.848  0.0362 -0.5645 -0.9316
 8043SOL    HW135591   0.030   0.743  12.820 -2.5825  0.2784 -0.5475
 8043SOL    HW235592   4.708   0.880  12.825  1.3849  1.5052 -0.8709
 8044SOL     OW35593   3.505   2.586   7.226  0.5553  0.2620  0.4754
 8044SOL    HW135594   3.441   2.515   7.218 -2.0446  2.9911 -2.8855
 8044SOL    HW235595   3.563   2.550   7.293  0.8657 -1.7915 -0.9055
 8045SOL     OW35596   1.459   2.765   1.333  0.3469 -0.3462  0.4130
 8045SOL    HW135597   1.427   2.843   1.377  1.0048  1.0152 -1.5479
 8045SOL    HW235598   1.540   2.749   1.382  2.0814  0.1387 -2.2985
 8046SOL     OW35599   3.589   1.503   7.660  0.4117  0.0892 -0.0561
 8046SOL    HW135600   3.568   1.440   7.591  0.6243  0.4680 -0.4663
 8046SOL    HW235601   3.581   1.587   7.614 -1.5947 -0.8129 -1.3688
 8047SOL     OW35602   0.948   3.598  13.700  0.0197  0.2714  0.1663
 8047SOL    HW135603   1.025   3.559  13.659  0.9215  0.2752  1.8768
 8047SOL    HW235604   0.924   3.538  13.770  0.3895  0.5105  0.4964
 8048SOL     OW35605   1.308   0.688  11.331  0.4177 -0.0509 -0.0920
 8048SOL    HW135606   1.359   0.714  11.254 -0.9762 -0.6784 -1.2207
 8048SOL    HW235607   1.350   0.732  11.404 -1.3109  1.9808 -0.3203
 8049SOL     OW35608   3.318   0.049   6.423 -0.3765  0.3578  0.1358
 8049SOL    HW135609   3.365   4.693   6.448 -2.5012  0.1119  3.3022
 8049SOL    HW235610   3.315   0.035   6.328 -0.2868  0.9414  0.0450
 8050SOL     OW35611   3.094   2.888   7.774 -0.4369 -1.3731  0.5389
 8050SOL    HW135612   3.037   2.826   7.820  0.5907 -1.8074  1.2069
 8050SOL    HW235613   3.070   2.874   7.682  0.1067  0.9303  0.0567
 8051SOL     OW35614   1.044   3.222   0.325  0.3032 -0.6404  0.2690
 8051SOL    HW135615   0.963   3.182   0.355  0.2709 -1.8418 -1.3808
 8051SOL    HW235616   1.040   3.301   0.378 -1.9310 -0.8084  0.3205
 8052SOL     OW35617   0.774   4.711   0.017 -0.2656 -0.2897  0.2700
 8052SOL    HW135618   0.680   4.722   0.029 -0.2880 -0.7651  0.5558
 8052SOL    HW235619   0.797   4.716   0.110 -0.7449  1.2560  0.3087
 8053SOL     OW35620   2.829   3.613   6.664  0.4091 -0.7053  0.1572
 8053SOL    HW135621   2.905   3.620   6.605  0.4413 -2.3104  0.0254
 8053SOL    HW235622   2.772   3.627   6.588  1.6658  1.3466 -0.4361
 8054SOL     OW35623   4.205   0.073   4.902  0.0686 -0.0883 -0.3871
 8054SOL    HW135624   4.298   0.085   4.881  0.4677 -0.6696  1.0171
 8054SOL    HW235625   4.156   0.140   4.856 -0.5145  0.5163  1.1259
 8055SOL     OW35626   0.119   2.273  16.662  0.6428 -0.3068 -0.3733
 8055SOL    HW135627   0.213   2.255  16.658  1.1514  1.7828  2.0702
 8055SOL    HW235628   0.105   2.301  16.572 -0.2045 -1.7839 -0.7057
 8056SOL     OW35629   4.003   2.151   6.362 -0.1812 -0.7468  0.4475
 8056SOL    HW135630   4.033   2.080   6.419 -0.5624 -1.6087 -0.4376
 8056SOL    HW235631   3.989   2.100   6.283 -0.6753  1.2154 -0.7332
 8057SOL     OW35632   3.822   2.916  14.305 -0.7672  0.0424  0.6417
 8057SOL    HW135633   3.895   2.978  14.314 -0.2863  0.1040 -3.8986
 8057SOL    HW235634   3.856   2.847  14.248 -0.1784  1.1569 -0.3489
 8058SOL     OW35635   3.160   0.275   8.162 -0.0496  0.1915 -0.2530
 8058SOL    HW135636   3.206   0.359   8.163  1.2072 -0.5078 -0.0916
 8058SOL    HW235637   3.133   0.280   8.070  0.0768  1.6810 -0.2071
 8059SOL     OW35638   0.254   4.599   2.087 -0.2099 -0.5542 -0.7966
 8059SOL    HW135639   0.252   4.574   2.180 -0.5354 -1.0025 -0.9231
 8059SOL    HW235640   0.235   4.517   2.042  0.0885  0.3748 -2.5822
 8060SOL     OW35641   1.585   4.112  12.255 -0.2283  0.5494 -0.2562
 8060SOL    HW135642   1.668   4.149  12.227  0.9844 -1.2931  0.8759
 8060SOL    HW235643   1.544   4.110  12.168 -1.8164 -0.3459  0.5174
 8061SOL     OW35644   2.948   1.811   5.300 -0.2869  0.1303  0.4908
 8061SOL    HW135645   2.992   1.875   5.244 -1.0482  0.1336 -0.0962
 8061SOL    HW235646   2.855   1.811   5.278 -0.0936 -0.6387 -0.3038
 8062SOL     OW35647   1.460   2.378   4.885 -0.3148  0.2105  0.0813
 8062SOL    HW135648   1.493   2.294   4.919  0.2392  0.8466  1.1103
 8062SOL    HW235649   1.443   2.354   4.794 -0.1338 -0.3052  0.1840
 8063SOL     OW35650   1.281   0.477  11.519 -0.2147  0.0015  0.4709
 8063SOL    HW135651   1.310   0.515  11.436  0.3379 -1.5616 -0.0699
 8063SOL    HW235652   1.342   0.403  11.516  0.1816  0.3148  0.8319
 8064SOL     OW35653   0.632   0.668  12.349 -0.9619  0.4231  0.4115
 8064SOL    HW135654   0.645   0.761  12.365 -1.8011  0.7343 -0.6860
 8064SOL    HW235655   0.555   0.651  12.402 -1.2707 -3.3436 -1.2294
 8065SOL     OW35656   3.319   0.177  12.239 -0.4885  0.2096  0.3895
 8065SOL    HW135657   3.310   0.107  12.175  3.1108 -2.3353  2.6377
 8065SOL    HW235658   3.401   0.216  12.207 -0.9316  1.3424  0.6380
 8066SOL     OW35659   3.220   3.910   1.839  0.4061 -0.0271  0.1028
 8066SOL    HW135660   3.276   3.987   1.834 -0.8600  0.9424  1.0703
 8066SOL    HW235661   3.292   3.847   1.850 -0.0667 -0.6586 -0.4157
 8067SOL     OW35662   0.715   1.001   3.050  0.1749 -0.3493  0.2573
 8067SOL    HW135663   0.762   0.918   3.052  0.4323 -0.2097  0.0124
 8067SOL    HW235664   0.694   1.012   3.143  1.4101 -0.7835  0.5883
 8068SOL     OW35665   2.847   2.432   8.580  0.0873  0.3325  0.1770
 8068SOL    HW135666   2.772   2.394   8.534 -0.6562  1.2941  0.6034
 8068SOL    HW235667   2.808   2.504   8.629 -1.1912 -0.9132  0.9542
 8069SOL     OW35668   1.194   1.481   8.549  0.5299  0.4239  0.2447
 8069SOL    HW135669   1.250   1.547   8.508 -2.7494  1.5537 -2.4148
 8069SOL    HW235670   1.256   1.444   8.612 -0.4264 -0.3566  0.7308
 8070SOL     OW35671   0.859   0.935   2.275 -0.3223 -0.3733  0.3228
 8070SOL    HW135672   0.923   0.994   2.315 -0.3424 -0.2822  0.2204
 8070SOL    HW235673   0.898   0.848   2.281 -0.1338 -0.4094 -1.3383
 8071SOL     OW35674   4.104   0.924   6.241  0.5211  0.0527 -0.2810
 8071SOL    HW135675   4.170   0.871   6.285 -1.4772  0.7293  3.5036
 8071SOL    HW235676   4.072   0.880   6.162  0.6653 -0.4006 -0.0872
 8072SOL     OW35677   2.423   1.531   4.176 -0.4124 -0.4803 -0.2730
 8072SOL    HW135678   2.487   1.548   4.244 -0.8702  0.0789  0.0131
 8072SOL    HW235679   2.355   1.596   4.193  0.7381  0.0930  2.0503
 8073SOL     OW35680   2.706   0.062   5.854  0.3620  0.2552  0.4889
 8073SOL    HW135681   2.753   4.706   5.831  0.2146  0.6949 -1.3211
 8073SOL    HW235682   2.711   0.059   5.950  2.7395  3.1481  0.4591
 8074SOL     OW35683   0.750   1.882   0.399  0.2573 -0.1551  0.0142
 8074SOL    HW135684   0.664   1.842   0.385  0.5063 -0.3408 -0.9455
 8074SOL    HW235685   0.779   1.827   0.473 -2.7005 -1.9280 -0.1357
 8075SOL     OW35686   4.047   4.151   5.093  0.3139 -0.4175  0.3131
 8075SOL    HW135687   4.097   4.120   5.169 -1.7532 -0.6019  1.6219
 8075SOL    HW235688   4.022   4.240   5.118  2.2249  0.4651 -0.9665
 8076SOL     OW35689   4.013   0.622  12.562  0.0279 -0.2131  0.0492
 8076SOL    HW135690   3.976   0.653  12.479 -0.0478  2.0265  0.9211
 8076SOL    HW235691   3.968   0.679  12.624  0.6471 -0.1645  0.4624
 8077SOL     OW35692   2.206   0.153   3.308 -0.2103  0.0621 -0.0325
 8077SOL    HW135693   2.211   0.088   3.379  1.6665  0.2561  0.0041
 8077SOL    HW235694   2.286   0.152   3.256  0.7667 -1.9831  1.4847
 8078SOL     OW35695   3.546   0.455   0.469  0.3635 -0.0843  0.0741
 8078SOL    HW135696   3.529   0.363   0.489 -1.1695 -0.2816 -2.0798
 8078SOL    HW235697   3.476   0.499   0.519  2.3616  0.7412  2.1411
 8079SOL     OW35698   3.411   1.006   6.426  0.2745 -0.3923  0.2358
 8079SOL    HW135699   3.499   1.038   6.445 -1.0272  2.8320  0.7371
 8079SOL    HW235700   3.433   0.951   6.351  0.0493  1.2117 -1.0117
 8080SOL     OW35701   2.456   1.896   0.713 -0.3764  0.3676 -0.3870
 8080SOL    HW135702   2.513   1.832   0.670 -0.7081 -0.0420 -0.2233
 8080SOL    HW235703   2.515   1.938   0.776  1.8107 -2.2891 -0.6789
 8081SOL     OW35704   4.222   3.254   9.320  0.2230 -0.3392 -0.2129
 8081SOL    HW135705   4.184   3.177   9.362  0.4916 -0.5167 -0.2935
 8081SOL    HW235706   4.164   3.320   9.356  0.0633  0.3914 -1.7986
 8082SOL     OW35707   2.007   2.019   7.284 -0.0855  0.8675 -0.1149
 8082SOL    HW135708   1.939   2.031   7.349  0.6130  0.1992  0.7350
 8082SOL    HW235709   2.088   2.046   7.327  1.3585 -0.5204 -1.9385
 8083SOL     OW35710   4.397   0.075   2.659  0.3502 -0.0359 -0.4339
 8083SOL    HW135711   4.444   0.154   2.631 -0.8199  0.0718 -2.0742
 8083SOL    HW235712   4.411   0.068   2.753  2.3498 -0.5160 -0.7678
 8084SOL     OW35713   0.928   3.006   1.261  0.0169  0.4143 -0.7779
 8084SOL    HW135714   0.867   2.960   1.204  2.1844 -0.8032 -2.0935
 8084SOL    HW235715   0.951   2.948   1.333  0.4730  0.6029 -0.7671
 8085SOL     OW35716   1.808   4.023  13.229 -0.2742  0.3706  0.2113
 8085SOL    HW135717   1.741   3.982  13.284 -1.0470  1.3375 -0.0167
 8085SOL    HW235718   1.756   4.089  13.183  1.1296  0.9091 -0.5967
 8086SOL     OW35719   1.745   0.197   7.296  0.5879 -0.6340 -0.0947
 8086SOL    HW135720   1.688   0.175   7.370 -0.5428  0.4002 -0.6634
 8086SOL    HW235721   1.832   0.164   7.320  1.2312  0.8750 -0.3706
 8087SOL     OW35722   3.738   0.304   6.005  0.5547 -0.3738 -0.6030
 8087SOL    HW135723   3.695   0.361   5.941 -0.0235 -0.1621 -0.0358
 8087SOL    HW235724   3.746   0.377   6.067 -2.3388  0.4573 -1.1821
 8088SOL     OW35725   4.179   2.875  13.052 -0.3973  0.0522  0.3620
 8088SOL    HW135726   4.187   2.959  13.007 -1.9670 -0.4255 -0.7922
 8088SOL    HW235727   4.092   2.895  13.086 -0.5079 -2.4624  1.5714
 8089SOL     OW35728   2.763   0.078   7.875  0.0651 -0.3877 -0.0763
 8089SOL    HW135729   2.675   0.109   7.852 -0.4877 -1.2395  0.8700
 8089SOL    HW235730   2.809   0.147   7.826 -0.4605  0.8608  1.1841
 8090SOL     OW35731   3.476   4.334   0.634  0.0151 -0.1489 -0.3520
 8090SOL    HW135732   3.500   4.392   0.562  1.3064  0.1852  0.3490
 8090SOL    HW235733   3.479   4.399   0.704  1.8596 -2.4047  1.6817
 8091SOL     OW35734   0.594   1.353   5.098  0.5409  0.4956 -0.4730
 8091SOL    HW135735   0.511   1.324   5.136  0.6073  1.2607  0.2327
 8091SOL    HW235736   0.618   1.409   5.171 -0.1374 -0.5145  0.5443
 8092SOL     OW35737   3.994   2.965   2.984  0.1583 -0.1806 -0.0481
 8092SOL    HW135738   3.900   2.972   2.966  0.2404 -0.4287 -0.5715
 8092SOL    HW235739   4.016   2.885   2.937 -0.8272 -0.0187 -0.7711
 8093SOL     OW35740   0.158   3.357   3.940  0.7270  0.0613  0.0998
 8093SOL    HW135741   0.137   3.324   3.852  4.1901 -0.1822 -0.6415
 8093SOL    HW235742   0.078   3.322   3.979 -0.7532  1.5922 -1.5958
 8094SOL     OW35743   0.991   0.207   6.779  0.4237 -0.1350  0.0878
 8094SOL    HW135744   0.900   0.214   6.810 -0.1424 -1.7090 -1.2392
 8094SOL    HW235745   0.981   0.249   6.694  1.2013 -0.9415 -0.4024
 8095SOL     OW35746   3.550   3.222   1.311  0.2882  0.2011 -0.0791
 8095SOL    HW135747   3.535   3.285   1.382 -2.1242 -0.7731  0.3013
 8095SOL    HW235748   3.644   3.209   1.324  0.3570 -1.0205 -1.9107
 8096SOL     OW35749   3.691   4.681   5.482  0.2049  0.0843 -0.1111
 8096SOL    HW135750   3.672   0.045   5.447 -1.1648 -0.5249 -0.9230
 8096SOL    HW235751   3.710   4.624   5.408 -0.9468  0.0663 -0.4061
 8097SOL     OW35752   0.155   1.878   5.105  0.0119 -0.1859  0.1545
 8097SOL    HW135753   0.095   1.867   5.032 -0.0171  0.0876  0.1374
 8097SOL    HW235754   0.106   1.853   5.183  2.3945 -1.0229  1.3997
 8098SOL     OW35755   4.370   1.038   9.448  0.0837 -0.1635  0.3348
 8098SOL    HW135756   4.300   0.982   9.414  2.2423 -1.9714 -1.0999
 8098SOL    HW235757   4.384   1.002   9.535  1.3273 -0.5883 -0.0506
 8099SOL     OW35758   0.132   0.409  11.544 -0.1637  0.1599  0.1461
 8099SOL    HW135759   0.037   0.413  11.535  0.0044 -0.1010 -1.8736
 8099SOL    HW235760   0.150   0.469  11.616 -0.6548  1.1134 -0.5266
 8100SOL     OW35761   1.417   0.208  12.930  0.5219 -0.1054  0.6873
 8100SOL    HW135762   1.379   0.156  12.859 -0.2449  3.1359 -1.2910
 8100SOL    HW235763   1.348   0.205  12.996  0.4941 -1.6452  0.5854
 8101SOL     OW35764   0.162   0.801   2.139  0.0724  0.3133 -0.0204
 8101SOL    HW135765   0.141   0.802   2.045  0.0509 -3.0187 -0.0241
 8101SOL    HW235766   0.213   0.883   2.143 -0.2046  0.5603 -1.3844
 8102SOL     OW35767   2.828   2.576   9.039  0.2924 -0.2220  0.1133
 8102SOL    HW135768   2.734   2.559   9.035  0.2477 -0.3697  1.8396
 8102SOL    HW235769   2.842   2.626   9.120  0.3086 -1.1617  0.6926
 8103SOL     OW35770   0.912   2.348   0.937  0.5130  0.3736 -0.7823
 8103SOL    HW135771   0.937   2.434   0.972 -2.1318  1.0202 -0.4006
 8103SOL    HW235772   0.986   2.294   0.964  1.5906  1.5158 -1.4712
 8104SOL     OW35773   1.436   0.988   3.709 -0.4946  0.0530 -0.2455
 8104SOL    HW135774   1.490   1.039   3.649 -1.1950 -0.9124 -1.7162
 8104SOL    HW235775   1.361   1.046   3.720 -0.4801 -0.1129  0.6992
 8105SOL     OW35776   0.471   1.886   3.967 -0.1535 -0.3468  0.3059
 8105SOL    HW135777   0.536   1.852   4.028  1.8744  2.8316 -0.0770
 8105SOL    HW235778   0.390   1.902   4.014 -0.3097  0.6727 -0.3067
 8106SOL     OW35779   0.497   1.098  11.092 -0.6142  0.6077 -0.3518
 8106SOL    HW135780   0.546   1.043  11.031 -0.9551  2.4080 -2.2368
 8106SOL    HW235781   0.411   1.060  11.078  0.1133 -0.7674 -1.0976
 8107SOL     OW35782   0.954   3.577  16.462 -0.4780 -0.3224  0.2617
 8107SOL    HW135783   1.020   3.541  16.403 -0.0193  2.1394 -0.7443
 8107SOL    HW235784   0.989   3.528  16.536 -1.0161 -0.2736  0.5468
 8108SOL     OW35785   2.295   3.532  10.925  0.1472  0.2746  0.0696
 8108SOL    HW135786   2.231   3.603  10.924  2.3012  2.2214  2.1393
 8108SOL    HW235787   2.246   3.466  10.877 -1.7831  0.0091  2.3653
 8109SOL     OW35788   0.474   4.348   1.767  0.2836  0.0876  0.0006
 8109SOL    HW135789   0.469   4.441   1.787  0.5549 -0.0916  0.8945
 8109SOL    HW235790   0.470   4.305   1.852 -0.0785  1.4201  0.6473
 8110SOL     OW35791   0.148   0.810   3.118  0.2267  0.4105  0.0832
 8110SOL    HW135792   0.224   0.792   3.173  0.8647  2.3109 -0.2050
 8110SOL    HW235793   0.172   0.852   3.036 -1.4040  1.8109  0.3294
 8111SOL     OW35794   2.919   1.716  17.410 -0.6274 -0.0385  0.5344
 8111SOL    HW135795   2.882   1.642  17.362 -0.2259  0.0955  0.0144
 8111SOL    HW235796   2.837   1.754  17.442 -0.7385 -0.5010  0.8036
 8112SOL     OW35797   0.768   4.311   4.645  0.0895 -0.1314  0.4391
 8112SOL    HW135798   0.827   4.249   4.603  1.4897  1.1317  0.5709
 8112SOL    HW235799   0.689   4.257   4.645  0.0421 -0.0687 -0.8682
 8113SOL     OW35800   1.666   1.366   8.671  0.1272 -0.3452 -0.2180
 8113SOL    HW135801   1.674   1.309   8.747 -0.5779 -0.1623 -0.0115
 8113SOL    HW235802   1.717   1.440   8.702  1.5219 -1.7367  0.8130
 8114SOL     OW35803   0.139   1.455   6.002  0.0710 -0.0919  0.0774
 8114SOL    HW135804   0.190   1.512   6.060  2.4042 -0.3239 -1.7428
 8114SOL    HW235805   0.070   1.425   6.062  2.0791  2.8123  3.8546
 8115SOL     OW35806   1.134   0.514   3.912 -0.4556 -0.1300  0.2982
 8115SOL    HW135807   1.093   0.600   3.922  2.5911  1.2528  0.8184
 8115SOL    HW235808   1.147   0.497   4.005  1.1166  0.9091  0.2569
 8116SOL     OW35809   2.692   3.751  11.116 -0.0849 -0.1576  0.3366
 8116SOL    HW135810   2.640   3.718  11.042 -1.2802  0.3688  0.9329
 8116SOL    HW235811   2.728   3.826  11.068  0.7266 -1.3833 -0.9701
 8117SOL     OW35812   3.177   2.689   2.421 -0.1257 -0.5396  0.4213
 8117SOL    HW135813   3.145   2.668   2.333 -1.7044  2.8154  0.1958
 8117SOL    HW235814   3.262   2.645   2.425 -0.3831 -0.8970  2.0020
 8118SOL     OW35815   0.594   3.662  16.200  0.2577  0.1305 -0.3658
 8118SOL    HW135816   0.614   3.640  16.291 -0.7143  1.9715  0.2787
 8118SOL    HW235817   0.677   3.696  16.167  1.0849 -0.7290  0.8294
 8119SOL     OW35818   3.535   0.971   3.738  0.2076 -0.0913  0.0262
 8119SOL    HW135819   3.558   1.056   3.701 -3.7653  0.0588 -2.1300
 8119SOL    HW235820   3.580   0.975   3.822 -1.0335 -0.7520  0.7174
 8120SOL     OW35821   1.162   4.020  12.456  0.3088  0.3159 -0.5400
 8120SOL    HW135822   1.170   3.991  12.547 -3.0097  1.3741  0.1069
 8120SOL    HW235823   1.095   3.958  12.428  0.2967  0.8103 -1.6011
 8121SOL     OW35824   0.348   3.428  17.148 -0.5766  0.7119 -0.0600
 8121SOL    HW135825   0.257   3.438  17.119 -1.0513  0.6156  1.3614
 8121SOL    HW235826   0.379   3.504  17.098  1.2718  2.1806  3.2642
 8122SOL     OW35827   4.557   0.401   1.234 -0.2419  0.0390 -0.7434
 8122SOL    HW135828   4.598   0.429   1.316 -2.7051  0.9913  0.1631
 8122SOL    HW235829   4.567   0.306   1.238  0.0657  0.0522 -1.1119
 8123SOL     OW35830   1.913   3.169   6.912 -0.4630  0.1082 -0.1193
 8123SOL    HW135831   1.921   3.107   6.985  0.2393  1.9925  1.3873
 8123SOL    HW235832   1.991   3.158   6.858  1.4479  0.9017  2.4590
 8124SOL     OW35833   4.146   4.300   3.749 -0.0249  0.1414 -0.1143
 8124SOL    HW135834   4.158   4.212   3.714 -1.8398 -0.6052  1.0955
 8124SOL    HW235835   4.222   4.342   3.711  1.4284 -1.2558  1.2664
 8125SOL     OW35836   2.916   2.890   3.023 -0.4729  0.5627 -0.6071
 8125SOL    HW135837   2.870   2.806   3.023  0.0151  0.2869  2.6628
 8125SOL    HW235838   2.991   2.869   2.968  0.4145  1.3643  0.2982
 8126SOL     OW35839   3.542   4.377  10.119  0.3696 -0.6005  0.3121
 8126SOL    HW135840   3.537   4.292  10.076 -0.5651  0.7952 -2.3177
 8126SOL    HW235841   3.637   4.376  10.130  0.4368 -0.4021 -0.2355
 8127SOL     OW35842   0.223   3.301   9.029  0.0340 -0.1486 -0.0883
 8127SOL    HW135843   0.132   3.305   9.057 -0.3079  0.2660 -1.2388
 8127SOL    HW235844   0.272   3.311   9.110  0.9519  2.1896 -0.9621
 8128SOL     OW35845   0.586   0.078  13.384  0.2181 -0.0549  0.2065
 8128SOL    HW135846   0.632   0.160  13.404  0.1372 -0.5419  2.4406
 8128SOL    HW235847   0.542   0.056  13.466  0.5438 -0.9175  0.1480
 8129SOL     OW35848   1.338   2.909   4.227 -0.4170  0.3098  0.4138
 8129SOL    HW135849   1.410   2.871   4.177 -1.0714 -0.2141 -0.1257
 8129SOL    HW235850   1.378   2.995   4.245  0.2802  0.4747 -2.0118
 8130SOL     OW35851   2.822   2.369   4.113 -0.4199  0.1500  0.1468
 8130SOL    HW135852   2.882   2.437   4.082 -0.6373  0.9842  1.5604
 8130SOL    HW235853   2.872   2.330   4.185 -0.3118  0.6909  0.3632
 8131SOL     OW35854   1.222   3.955   9.616  0.4299  0.6013  0.8933
 8131SOL    HW135855   1.135   3.949   9.656 -1.2628  0.7245 -2.7943
 8131SOL    HW235856   1.189   3.980   9.530  2.7513  1.5873  0.2784
 8132SOL     OW35857   0.388   0.493  16.361 -0.1662  0.1835  0.1189
 8132SOL    HW135858   0.299   0.495  16.398 -0.2173 -0.5247  0.0412
 8132SOL    HW235859   0.395   0.404  16.326  0.3251  0.6340 -0.9042
 8133SOL     OW35860   1.716   1.813   6.674 -0.0818 -0.4947  0.7779
 8133SOL    HW135861   1.679   1.896   6.643 -1.8404 -0.8905  1.8347
 8133SOL    HW235862   1.774   1.830   6.749 -0.4364 -1.1682  1.2054
 8134SOL     OW35863   1.714   3.857  15.869  0.0454  0.7606  0.1083
 8134SOL    HW135864   1.707   3.826  15.779  2.3588 -0.6555  0.4043
 8134SOL    HW235865   1.734   3.774  15.912  1.8689  1.5298  0.7661
 8135SOL     OW35866   4.427   4.717   7.907 -0.4237 -0.0055  0.1491
 8135SOL    HW135867   4.378   0.043   7.972  2.2668  1.6593  0.9383
 8135SOL    HW235868   4.421   4.628   7.944  0.0245 -1.0021 -2.2009
 8136SOL     OW35869   1.410   0.208   4.342  0.3611  0.2962 -0.0886
 8136SOL    HW135870   1.335   0.201   4.283  0.5046  1.3380 -0.3865
 8136SOL    HW235871   1.458   0.138   4.297  0.1346  0.1994 -0.1803
 8137SOL     OW35872   4.636   4.401  16.049  0.0910 -0.4614  0.0331
 8137SOL    HW135873   4.577   4.467  16.083 -1.2918 -2.8652  2.3348
 8137SOL    HW235874   4.595   4.396  15.963 -0.0745  1.1113  0.0280
 8138SOL     OW35875   0.847   2.784   2.119 -0.7969  0.0866  0.2432
 8138SOL    HW135876   0.845   2.844   2.045  1.3548  0.1410  0.2381
 8138SOL    HW235877   0.792   2.827   2.184 -0.1240  1.4621 -0.1119
 8139SOL     OW35878   2.162   4.156   8.168 -0.0655  0.4187  0.3713
 8139SOL    HW135879   2.249   4.138   8.202 -0.6651 -0.7589  1.3003
 8139SOL    HW235880   2.183   4.212   8.093  4.4541  3.0327  3.5931
 8140SOL     OW35881   2.427   1.968   4.659 -0.0098  0.1842  0.1643
 8140SOL    HW135882   2.468   1.886   4.631  0.1831  0.9230 -1.6859
 8140SOL    HW235883   2.335   1.941   4.658 -0.1626  0.6755  1.6640
 8141SOL     OW35884   2.061   3.862   6.604 -0.1777  0.1409  0.6526
 8141SOL    HW135885   2.123   3.902   6.543  0.0312 -2.6844 -0.9641
 8141SOL    HW235886   1.977   3.888   6.568  1.5175  1.1261 -2.6077
 8142SOL     OW35887   0.525   0.126   8.873  0.0011  0.8797  0.5135
 8142SOL    HW135888   0.536   0.132   8.778 -0.2539 -0.9486  0.3623
 8142SOL    HW235889   0.564   0.207   8.905  2.0498  0.0895  0.0330
 8143SOL     OW35890   2.891   1.739   5.609 -0.3319 -0.0075 -0.2304
 8143SOL    HW135891   2.870   1.817   5.557  0.3145  0.5644  0.3663
 8143SOL    HW235892   2.842   1.673   5.559 -0.4372 -0.8200  0.9402
 8144SOL     OW35893   2.752   4.386   4.316 -0.4847 -0.1847  0.0035
 8144SOL    HW135894   2.752   4.306   4.263 -1.0377  0.4358 -0.9346
 8144SOL    HW235895   2.685   4.438   4.272  1.4646  2.0089 -0.3533
 8145SOL     OW35896   2.280   4.657   4.211 -0.1361  0.0876 -0.2848
 8145SOL    HW135897   2.335   0.003   4.246 -3.4787  2.2429  0.6524
 8145SOL    HW235898   2.257   4.612   4.293  0.5683  0.3481  0.0571
 8146SOL     OW35899   3.219   4.318   6.080 -0.1176 -0.1445  0.5310
 8146SOL    HW135900   3.229   4.262   6.003  1.3878 -0.4958  1.0031
 8146SOL    HW235901   3.261   4.400   6.054 -0.7572 -0.0388 -0.1760
 8147SOL     OW35902   4.207   2.860   1.052  0.3179  0.4756  0.0466
 8147SOL    HW135903   4.232   2.910   0.974 -0.7122  0.6853 -0.1568
 8147SOL    HW235904   4.131   2.911   1.082  1.5444  3.8787 -2.6125
 8148SOL     OW35905   1.311   1.958   2.269  0.4082  0.2186  0.2749
 8148SOL    HW135906   1.370   1.940   2.196  1.1734  0.6669  0.7788
 8148SOL    HW235907   1.240   2.001   2.222  0.8629  1.1932  0.4759
 8149SOL     OW35908   0.542   2.694  13.696 -0.2983  0.0321 -0.1889
 8149SOL    HW135909   0.515   2.677  13.786  0.3307  0.8399  0.1531
 8149SOL    HW235910   0.541   2.790  13.692 -0.9435 -0.0049 -0.8893
 8150SOL     OW35911   2.238   2.758   6.891 -0.2746  0.3675 -0.4730
 8150SOL    HW135912   2.170   2.731   6.830 -0.3640  0.5790 -0.4662
 8150SOL    HW235913   2.310   2.753   6.828  1.6273  1.6076  1.5953
 8151SOL     OW35914   3.004   3.703   1.859 -0.4075  0.0070 -0.3385
 8151SOL    HW135915   3.071   3.635   1.861 -1.2744 -0.8258  0.7992
 8151SOL    HW235916   3.063   3.777   1.847 -0.5910  0.3524  0.8401
 8152SOL     OW35917   0.413   2.075  13.565 -0.0824  0.9679  0.2745
 8152SOL    HW135918   0.450   2.033  13.488  0.8794  1.8273  0.2643
 8152SOL    HW235919   0.409   2.002  13.627  0.5953  0.4773 -0.2660
 8153SOL     OW35920   2.612   1.332   2.400  0.1107  0.5290 -0.0027
 8153SOL    HW135921   2.600   1.308   2.492 -0.9417 -0.1899 -0.3235
 8153SOL    HW235922   2.589   1.251   2.353  1.6653  0.4006 -0.5313
 8154SOL     OW35923   0.108   3.304   2.808  0.6085 -0.0397 -0.7324
 8154SOL    HW135924   0.171   3.322   2.878 -2.6945 -1.6419  2.6679
 8154SOL    HW235925   0.127   3.373   2.745 -0.7177  1.1535  0.1967
 8155SOL     OW35926   3.116   2.629   8.181  0.5737 -0.8591 -0.0812
 8155SOL    HW135927   3.140   2.542   8.212  0.1088 -0.3866  1.5850
 8155SOL    HW235928   3.199   2.643   8.135  0.5953 -0.5916  0.0410
 8156SOL     OW35929   3.649   0.455  17.135 -0.2304 -0.7961 -0.2748
 8156SOL    HW135930   3.570   0.478  17.183  1.6023 -1.1476  2.9404
 8156SOL    HW235931   3.690   0.536  17.104 -1.5430  0.3971  1.1133
 8157SOL     OW35932   2.841   1.985   4.065 -0.0034 -0.6251 -0.1226
 8157SOL    HW135933   2.804   2.043   3.998 -2.8079 -0.9920  1.1516
 8157SOL    HW235934   2.780   1.912   4.064  0.6495 -1.1641 -2.5352
 8158SOL     OW35935   2.685   2.734   7.659 -0.1688 -0.3657 -0.0551
 8158SOL    HW135936   2.599   2.701   7.634  0.2779 -1.7832  0.3107
 8158SOL    HW235937   2.673   2.817   7.613 -0.2055 -0.0720  0.4871
 8159SOL     OW35938   0.053   4.701   3.469 -0.5831 -0.0927 -0.3346
 8159SOL    HW135939   0.120   4.668   3.529  1.2284  0.7356 -1.9073
 8159SOL    HW235940   4.711   0.012   3.530  0.8684  1.1079  0.5359
 8160SOL     OW35941   3.315   1.889  16.003  0.2092 -0.0455 -0.3870
 8160SOL    HW135942   3.394   1.846  15.971  2.9907  2.0794  3.5929
 8160SOL    HW235943   3.281   1.924  15.920 -0.8486  2.8780  1.2670
 8161SOL     OW35944   0.762   2.786   2.550  0.0356 -0.4954 -0.1643
 8161SOL    HW135945   0.825   2.856   2.564 -0.9046  1.0278 -3.4866
 8161SOL    HW235946   0.794   2.726   2.616  1.9692  0.2593 -0.4245
 8162SOL     OW35947   0.248   0.030   6.526 -0.1663 -0.4532  0.0242
 8162SOL    HW135948   0.343   0.043   6.527 -0.5825  2.7137 -0.7033
 8162SOL    HW235949   0.211   0.118   6.523  0.3365 -0.2963 -1.5369
 8163SOL     OW35950   3.312   3.177   7.027  0.3384  0.2217  0.3364
 8163SOL    HW135951   3.235   3.215   7.070 -1.3378  0.6522 -2.9956
 8163SOL    HW235952   3.278   3.151   6.941  1.4210 -1.9732  0.5866
 8164SOL     OW35953   2.987   3.990  15.138  0.0598  0.2665 -0.3027
 8164SOL    HW135954   3.052   4.061  15.144  1.8077 -1.3892  0.4938
 8164SOL    HW235955   3.041   3.924  15.095 -0.8373  0.1202 -1.1942
 8165SOL     OW35956   2.958   2.084  17.422  0.3790  0.3931 -0.0824
 8165SOL    HW135957   2.885   2.048  17.371 -1.2175 -0.2291  2.6753
 8165SOL    HW235958   3.020   2.113  17.354  1.7960 -0.4999  0.8245
 8166SOL     OW35959   1.240   2.506  10.643  0.1144  0.5655 -0.0265
 8166SOL    HW135960   1.199   2.471  10.722  2.6696 -1.3868  0.4123
 8166SOL    HW235961   1.334   2.497  10.660  0.0829 -0.6796 -0.5181
 8167SOL     OW35962   3.989   0.859   7.492  0.2614  0.2844 -0.4331
 8167SOL    HW135963   4.035   0.822   7.417  0.3409  4.2317 -2.3600
 8167SOL    HW235964   3.975   0.948   7.458 -0.9240  0.2108 -0.1308
 8168SOL     OW35965   3.748   3.586   7.886  0.6228 -0.1505 -0.1045
 8168SOL    HW135966   3.685   3.537   7.834 -1.0738  0.4216  1.4335
 8168SOL    HW235967   3.716   3.569   7.974  0.3896  0.3241 -0.0981
 8169SOL     OW35968   1.889   0.583   3.929 -0.4614 -0.2430 -0.2246
 8169SOL    HW135969   1.952   0.511   3.941 -0.6094 -0.2885  0.2964
 8169SOL    HW235970   1.867   0.605   4.020  0.5045 -0.1082 -0.0199
 8170SOL     OW35971   0.305   2.176   1.293  0.7000  0.1600 -0.2233
 8170SOL    HW135972   0.225   2.194   1.243  1.1770 -0.9246 -1.3832
 8170SOL    HW235973   0.374   2.145   1.235 -0.7579 -0.5703 -1.5777
 8171SOL     OW35974   1.901   3.378   3.602  0.1905  0.1990 -0.0990
 8171SOL    HW135975   1.997   3.379   3.601  0.2040 -1.1672 -0.0942
 8171SOL    HW235976   1.883   3.362   3.695 -1.8010 -0.0098 -0.5391
 8172SOL     OW35977   3.639   2.092   3.509 -0.0128 -0.0532 -0.3767
 8172SOL    HW135978   3.547   2.105   3.486 -0.4896 -0.3856  1.3925
 8172SOL    HW235979   3.662   2.063   3.420  1.3125 -1.7555  0.5370
 8173SOL     OW35980   2.206   2.917   8.085  0.5006 -0.0122 -0.8409
 8173SOL    HW135981   2.191   2.902   8.178  1.8585 -0.4304 -0.6895
 8173SOL    HW235982   2.124   2.880   8.053 -0.2951  1.6931 -0.7902
 8174SOL     OW35983   0.525   0.537   7.452  0.4614  0.0088  0.1233
 8174SOL    HW135984   0.454   0.569   7.508 -1.2231 -1.3219 -1.2510
 8174SOL    HW235985   0.476   0.489   7.386 -0.6871  0.1111  0.8971
 8175SOL     OW35986   3.874   3.853   3.739 -0.8562 -0.5614  0.6201
 8175SOL    HW135987   3.881   3.869   3.833  0.4046 -0.1960  0.4578
 8175SOL    HW235988   3.857   3.759   3.742  0.5109 -0.8456 -0.7800
 8176SOL     OW35989   0.440   2.218   5.711 -0.7947  0.1655  0.0060
 8176SOL    HW135990   0.387   2.150   5.750 -1.8962  0.6150 -0.7201
 8176SOL    HW235991   0.498   2.169   5.652 -0.0681  2.0726 -0.8753
 8177SOL     OW35992   2.626   1.429   7.337 -0.1563  0.2798  1.0119
 8177SOL    HW135993   2.568   1.364   7.376 -0.0586 -1.6333 -2.0450
 8177SOL    HW235994   2.611   1.509   7.387  0.7880  0.5691  0.8353
 8178SOL     OW35995   1.610   4.435   3.003  0.0819 -0.2423 -0.2698
 8178SOL    HW135996   1.677   4.501   2.989  0.3717 -0.7666 -1.3373
 8178SOL    HW235997   1.530   4.485   3.022 -0.7708 -0.3343 -3.6085
 8179SOL     OW35998   2.636   1.000   2.797  0.2667  0.2171  0.1001
 8179SOL    HW135999   2.620   0.905   2.797 -0.4243  0.3351 -0.3186
 8179SOL    HW236000   2.622   1.021   2.889  0.4331 -1.7478  0.5753
 8180SOL     OW36001   0.133   1.120  11.265  0.5105  0.1967 -0.5424
 8180SOL    HW136002   0.063   1.152  11.207  0.2652  3.8774  1.7788
 8180SOL    HW236003   0.085   1.047  11.305  0.4534  0.0787 -0.8248
 8181SOL     OW36004   2.602   0.294   5.200 -0.0024 -0.9975 -0.0550
 8181SOL    HW136005   2.556   0.339   5.130 -0.7986  1.3005  1.9389
 8181SOL    HW236006   2.534   0.301   5.268 -0.4171 -3.3430 -0.2081
 8182SOL     OW36007   3.440   3.666   6.952  0.0779 -0.0515  0.0442
 8182SOL    HW136008   3.531   3.677   6.923  0.0213  1.3954  0.4399
 8182SOL    HW236009   3.438   3.724   7.028 -0.0773  1.0948 -0.8298
 8183SOL     OW36010   0.512   2.234   6.475 -0.4896 -0.7938  0.2909
 8183SOL    HW136011   0.516   2.277   6.561  1.7370  2.2802 -1.3422
 8183SOL    HW236012   0.487   2.147   6.506 -1.1214 -0.6347  0.2347
 8184SOL     OW36013   1.136   2.664   6.861  0.0543  0.2737  0.0698
 8184SOL    HW136014   1.198   2.599   6.827 -1.2241 -0.2001 -1.3610
 8184SOL    HW236015   1.181   2.745   6.836  1.6938 -1.0135 -1.1789
 8185SOL     OW36016   3.720   4.582   9.278 -0.0502 -0.6958 -0.0450
 8185SOL    HW136017   3.763   4.569   9.362 -0.9428 -0.6687  0.4137
 8185SOL    HW236018   3.630   4.597   9.308 -0.6547 -1.3171 -1.5451
 8186SOL     OW36019   1.970   2.801   8.660  0.2305 -0.0877 -0.2788
 8186SOL    HW136020   1.947   2.788   8.568 -0.2653  1.3171 -0.3566
 8186SOL    HW236021   1.915   2.877   8.680 -1.3219 -1.3644  0.1880
 8187SOL     OW36022   1.669   2.998   5.087 -0.0670 -0.3466  0.0125
 8187SOL    HW136023   1.671   3.071   5.149  2.7884  0.7835 -1.4498
 8187SOL    HW236024   1.747   2.954   5.120 -0.4834 -1.4591 -0.4721
 8188SOL     OW36025   3.302   1.782   6.427  0.1000  0.1009 -0.6845
 8188SOL    HW136026   3.391   1.817   6.429  0.8488 -1.8308  0.2826
 8188SOL    HW236027   3.318   1.690   6.449  0.5508  0.7597  1.7538
 8189SOL     OW36028   2.535   3.287   3.854 -0.7374  0.2027  0.1009
 8189SOL    HW136029   2.598   3.311   3.922  0.0001  0.4704 -0.6793
 8189SOL    HW236030   2.567   3.206   3.814  2.3795  0.3908  2.2367
 8190SOL     OW36031   0.542   3.799   5.541  0.1146 -0.5307  0.1910
 8190SOL    HW136032   0.446   3.798   5.545  0.1799 -2.7906  1.5393
 8190SOL    HW236033   0.571   3.824   5.629 -0.2666  0.9438 -0.1128
 8191SOL     OW36034   1.494   4.252   2.483 -0.1897 -0.1300 -0.2569
 8191SOL    HW136035   1.446   4.186   2.434  0.2943  0.7549 -1.9013
 8191SOL    HW236036   1.512   4.304   2.405  0.0350 -2.1368 -1.5462
 8192SOL     OW36037   0.696   3.930   3.923 -0.5058  0.5608  0.4866
 8192SOL    HW136038   0.608   3.903   3.949 -1.2888  4.0977  1.5824
 8192SOL    HW236039   0.684   4.021   3.950 -1.2000  0.7656 -0.5348
 8193SOL     OW36040   1.084   1.698  15.681 -0.1508  0.5626  0.0370
 8193SOL    HW136041   1.132   1.616  15.685  0.4083  0.8661 -0.4560
 8193SOL    HW236042   1.110   1.730  15.595  1.6439 -0.8715  0.0482
 8194SOL     OW36043   2.477   3.077   5.856  0.1950  0.3611 -0.2889
 8194SOL    HW136044   2.445   3.165   5.834  2.2741  0.8993 -1.1316
 8194SOL    HW236045   2.570   3.096   5.847  0.3738 -0.0860  0.7105
 8195SOL     OW36046   4.292   4.617   2.088  0.7243  0.2921 -0.7211
 8195SOL    HW136047   4.270   4.652   2.001  0.5544  0.5547 -0.5739
 8195SOL    HW236048   4.214   4.637   2.141 -0.9621 -1.1691 -2.6306
 8196SOL     OW36049   2.246   1.101   7.624 -0.2947  0.0582  0.0801
 8196SOL    HW136050   2.160   1.138   7.609 -0.9932 -1.7750 -0.4751
 8196SOL    HW236051   2.256   1.100   7.719  0.3259 -0.9480  0.0123
 8197SOL     OW36052   4.522   1.894   8.899  0.4865 -0.1385  0.3129
 8197SOL    HW136053   4.581   1.954   8.944  0.6775  1.1550 -1.6720
 8197SOL    HW236054   4.562   1.809   8.917 -0.9072 -1.0571 -0.9085
 8198SOL     OW36055   3.584   1.002  12.822 -0.0206 -0.4145 -0.4094
 8198SOL    HW136056   3.629   0.927  12.861  0.7349  0.9479  1.3657
 8198SOL    HW236057   3.634   1.031  12.746 -0.2567 -1.5536 -0.9943
 8199SOL     OW36058   1.850   2.213  13.820  0.0159 -0.2508  0.0305
 8199SOL    HW136059   1.873   2.224  13.912 -0.1513  1.7717 -0.1560
 8199SOL    HW236060   1.755   2.215  13.830 -0.0147 -2.1295  0.1257
 8200SOL     OW36061   2.730   2.435   7.261 -0.2900  0.4099 -0.4183
 8200SOL    HW136062   2.638   2.460   7.260 -0.2769  0.4828  0.9206
 8200SOL    HW236063   2.764   2.507   7.313  0.6013 -1.1936  1.2119
 8201SOL     OW36064   3.033   1.136   7.928  0.3967  0.5306  0.2058
 8201SOL    HW136065   3.057   1.106   7.840 -0.0969  3.3129 -0.8537
 8201SOL    HW236066   3.104   1.198   7.946 -0.2133  0.8393  1.4827
 8202SOL     OW36067   4.379   1.242   5.572 -0.7079 -0.4308  0.1997
 8202SOL    HW136068   4.421   1.206   5.650 -0.9862 -0.7937  0.1876
 8202SOL    HW236069   4.409   1.172   5.514 -0.7838  0.1075 -0.4742
 8203SOL     OW36070   2.784   1.598   6.137 -0.2503 -0.2359  0.3314
 8203SOL    HW136071   2.813   1.628   6.223  1.2303 -0.5032 -0.0645
 8203SOL    HW236072   2.837   1.519   6.123  3.1307  2.0202  0.4493
 8204SOL     OW36073   0.441   2.022   4.794 -0.5896 -0.0449 -0.3316
 8204SOL    HW136074   0.450   2.107   4.749 -0.5842  0.0442 -0.1622
 8204SOL    HW236075   0.357   1.988   4.765 -0.6871 -0.2544  0.2025
 8205SOL     OW36076   2.468   3.422   7.400 -0.8425 -0.3122  0.0374
 8205SOL    HW136077   2.455   3.413   7.305  0.1615 -0.3917 -0.0981
 8205SOL    HW236078   2.447   3.515   7.412  0.8141  0.0150  0.3943
 8206SOL     OW36079   0.883   1.243   5.510 -0.0042 -0.4575 -0.0690
 8206SOL    HW136080   0.961   1.280   5.467 -0.8741 -0.1986 -1.3938
 8206SOL    HW236081   0.896   1.281   5.597 -1.0897 -0.8947  0.2748
 8207SOL     OW36082   1.717   1.379   6.435 -0.4156  0.5074 -0.2573
 8207SOL    HW136083   1.756   1.306   6.483  0.7834  0.3715 -1.4320
 8207SOL    HW236084   1.790   1.410   6.381 -0.7880 -0.2770 -1.2092
 8208SOL     OW36085   4.719   1.174   5.605  0.2094  0.2873 -0.1307
 8208SOL    HW136086   0.039   1.254   5.632 -1.0597  0.4962  1.2825
 8208SOL    HW236087   4.652   1.173   5.674  1.7732  0.2758  1.3862
 8209SOL     OW36088   0.427   0.389   4.964 -0.4170 -0.3255 -0.3028
 8209SOL    HW136089   0.401   0.351   4.880 -0.6759  1.4931 -1.0582
 8209SOL    HW236090   0.475   0.315   5.000 -2.2531 -1.9013 -1.1049
 8210SOL     OW36091   4.526   1.118  12.482  0.5569  0.2167  0.2417
 8210SOL    HW136092   4.562   1.030  12.492  0.9633  0.6026  2.1891
 8210SOL    HW236093   4.535   1.151  12.572  2.3440  0.0706  0.1097
 8211SOL     OW36094   3.623   0.177   3.782  0.1851 -0.5198 -0.8348
 8211SOL    HW136095   3.650   0.224   3.703 -0.0780 -1.2357 -1.3415
 8211SOL    HW236096   3.657   0.089   3.767  0.8963 -0.3606 -0.1498
 8212SOL     OW36097   2.504   3.913   7.094  0.4399 -0.5779  0.2561
 8212SOL    HW136098   2.587   3.946   7.128 -0.4922  2.3692 -0.3578
 8212SOL    HW236099   2.522   3.819   7.099 -1.4908 -1.0092 -0.7666
 8213SOL     OW36100   4.518   3.650   8.592  0.3169 -0.4862  0.6642
 8213SOL    HW136101   4.431   3.685   8.572  1.4678  1.7250 -0.5693
 8213SOL    HW236102   4.557   3.737   8.602 -1.8460  0.4083  1.3226
 8214SOL     OW36103   3.727   1.717   4.494 -0.6114  0.9740 -0.5199
 8214SOL    HW136104   3.708   1.739   4.403 -1.7687  0.3828 -0.4159
 8214SOL    HW236105   3.722   1.621   4.489  1.1351  0.9093 -1.1869
 8215SOL     OW36106   2.841   0.236   7.657 -0.1781 -0.2694  0.4061
 8215SOL    HW136107   2.863   0.325   7.629 -2.2604  0.7273  1.9674
 8215SOL    HW236108   2.918   0.194   7.618  0.5692 -0.7103  2.3573
 8216SOL     OW36109   3.855   1.974   0.655 -0.2942 -0.3769  0.0514
 8216SOL    HW136110   3.782   2.036   0.662  0.9657  0.8561  2.2801
 8216SOL    HW236111   3.934   2.021   0.683 -0.3332 -0.6782  0.6751
 8217SOL     OW36112   2.719   1.097  10.673  0.1762 -0.6298  0.4963
 8217SOL    HW136113   2.734   1.089  10.768  0.1872 -1.1266  0.4521
 8217SOL    HW236114   2.629   1.127  10.669  0.4040  0.1114  0.9626
 8218SOL     OW36115   2.221   0.400  13.513  0.3951 -0.2000  0.2030
 8218SOL    HW136116   2.202   0.332  13.577  1.3642  1.0197  1.7770
 8218SOL    HW236117   2.203   0.343  13.438  0.2654 -1.3391  1.1109
 8219SOL     OW36118   3.492   0.077   7.620 -0.5025  0.3591 -0.6282
 8219SOL    HW136119   3.581   0.112   7.610 -0.8086  0.4748 -2.9428
 8219SOL    HW236120   3.459   0.093   7.532  2.3238  0.4862 -1.6886
 8220SOL     OW36121   1.581   1.363  13.841 -0.0346 -0.0604  0.2524
 8220SOL    HW136122   1.643   1.399  13.905 -0.2136 -0.4901  0.6700
 8220SOL    HW236123   1.621   1.288  13.798  1.4517  0.3378  0.9171
 8221SOL     OW36124   2.652   2.326  11.508 -0.5521  0.3458 -0.2701
 8221SOL    HW136125   2.669   2.310  11.415 -0.9443  0.5886 -0.3842
 8221SOL    HW236126   2.740   2.304  11.539 -0.6126 -0.2093 -0.4867
 8222SOL     OW36127   2.239   4.046   4.070  0.5284 -0.2513  0.0897
 8222SOL    HW136128   2.244   3.951   4.075 -0.9809 -0.2771  1.0459
 8222SOL    HW236129   2.277   4.065   3.984  0.6464 -0.8358  0.0182
 8223SOL     OW36130   0.444   1.642  15.193 -0.2039  0.0349 -0.7365
 8223SOL    HW136131   0.520   1.690  15.224 -1.7182  0.2767  2.5213
 8223SOL    HW236132   0.427   1.581  15.265 -0.9048 -0.4057 -1.2769
 8224SOL     OW36133   4.215   4.597  16.640  0.6068 -0.9130  0.0747
 8224SOL    HW136134   4.278   4.634  16.702  2.6049 -0.2129 -2.3718
 8224SOL    HW236135   4.170   4.680  16.621 -2.4110 -2.2599  1.3246
 8225SOL     OW36136   3.886   2.526  10.465 -0.0420  0.7807 -0.0199
 8225SOL    HW136137   3.896   2.616  10.432  0.0708 -0.0846 -2.3617
 8225SOL    HW236138   3.973   2.511  10.503 -0.4182  0.0717  0.5590
 8226SOL     OW36139   2.598   3.324  11.237  0.1253  0.7404 -0.1907
 8226SOL    HW136140   2.602   3.261  11.309 -1.9759 -0.6472 -1.2792
 8226SOL    HW236141   2.680   3.370  11.251  1.1387 -0.6121 -1.6391
 8227SOL     OW36142   0.698   0.020   6.418 -0.0649 -0.1717  1.0655
 8227SOL    HW136143   0.676   0.095   6.362  0.3294  1.5083  3.1739
 8227SOL    HW236144   0.794   0.029   6.422  0.0524 -1.4235  0.9885
 8228SOL     OW36145   0.296   2.852  16.077 -0.5346  0.8968  0.3664
 8228SOL    HW136146   0.237   2.777  16.068  2.8544 -1.8826  1.3048
 8228SOL    HW236147   0.302   2.865  16.172  1.5473  1.5506  0.1534
 8229SOL     OW36148   0.891   2.503  13.743 -0.6748  0.1082 -0.7008
 8229SOL    HW136149   0.950   2.518  13.817 -0.0732 -2.7874 -0.6242
 8229SOL    HW236150   0.948   2.463  13.677  0.6105  0.7247  0.0285
 8230SOL     OW36151   1.522   3.255   5.989 -0.0364 -0.2393  0.3622
 8230SOL    HW136152   1.486   3.323   5.934  0.7977  1.2925  1.7034
 8230SOL    HW236153   1.608   3.295   6.001  1.5130 -3.9555  1.7256
 8231SOL     OW36154   0.598   1.669   8.230 -0.2703 -0.0692  0.4328
 8231SOL    HW136155   0.666   1.639   8.290 -0.3726 -2.9762 -0.8653
 8231SOL    HW236156   0.639   1.658   8.144  1.1092 -0.4372  1.1437
 8232SOL     OW36157   3.151   4.142   3.056 -0.5258 -0.1341 -0.1857
 8232SOL    HW136158   3.164   4.090   3.135  0.4267 -0.7405 -0.7462
 8232SOL    HW236159   3.175   4.229   3.088  0.7069  0.3352 -2.3667
 8233SOL     OW36160   2.113   0.875   2.892 -0.2812  0.5355  0.3925
 8233SOL    HW136161   2.043   0.941   2.894  0.0383  0.8370  1.5653
 8233SOL    HW236162   2.195   0.922   2.878 -0.7719  0.9774 -0.9895
 8234SOL     OW36163   0.861   0.186  14.049 -0.4104  0.2251 -0.2611
 8234SOL    HW136164   0.775   0.159  14.083 -0.9037  3.2739  0.9923
 8234SOL    HW236165   0.834   0.278  14.043  2.3018  1.0933  1.1735
 8235SOL     OW36166   0.877   4.479   3.802 -0.1011 -0.1256 -0.2556
 8235SOL    HW136167   0.951   4.418   3.798  0.8223  0.8048  2.9515
 8235SOL    HW236168   0.816   4.415   3.838 -0.2344 -0.5290 -1.1933
 8236SOL     OW36169   1.465   1.145   8.092  0.5371  0.2155  0.9014
 8236SOL    HW136170   1.410   1.215   8.056 -1.2670 -0.6985  1.8824
 8236SOL    HW236171   1.453   1.164   8.186 -0.3386  3.0894  0.2198
 8237SOL     OW36172   4.677   0.146  13.401  0.1591  0.1268  0.1900
 8237SOL    HW136173   0.028   0.206  13.412  0.5850 -0.1429 -1.2660
 8237SOL    HW236174   4.704   0.102  13.321  0.6450 -0.4404  0.6685
 8238SOL     OW36175   2.933   3.341   6.801  0.3889  0.1964  0.1902
 8238SOL    HW136176   2.993   3.414   6.788  0.7360 -0.3153 -1.0891
 8238SOL    HW236177   2.929   3.298   6.715  2.1359 -2.8579  1.6390
 8239SOL     OW36178   0.847   3.454   5.555  0.4155  0.0649  0.2041
 8239SOL    HW136179   0.755   3.470   5.533  0.6275 -0.0904 -0.7958
 8239SOL    HW236180   0.846   3.373   5.606  0.5747  0.2464  0.4989
 8240SOL     OW36181   1.490   0.706   3.343  0.7184  0.0075  0.0187
 8240SOL    HW136182   1.543   0.745   3.413  0.6546 -0.5143  0.3629
 8240SOL    HW236183   1.533   0.739   3.264  1.0858  1.9735  1.0480
 8241SOL     OW36184   3.680   3.522   9.351 -0.0659  0.1374  0.1768
 8241SOL    HW136185   3.615   3.577   9.308  0.0666  0.8787  0.9179
 8241SOL    HW236186   3.695   3.451   9.288  0.2968  1.5200 -1.3049
 8242SOL     OW36187   1.545   4.140  15.165 -0.1661  0.3581 -0.9088
 8242SOL    HW136188   1.613   4.196  15.127  1.7903 -1.0292  0.5409
 8242SOL    HW236189   1.476   4.144  15.098 -1.3066 -1.3177  0.1721
 8243SOL     OW36190   4.531   0.229   4.673 -0.2376 -0.1808 -0.1007
 8243SOL    HW136191   4.509   0.240   4.580 -1.1544 -0.6184  0.0652
 8243SOL    HW236192   4.620   0.262   4.656 -0.4896 -0.0318 -1.1717
 8244SOL     OW36193   2.961   2.057   8.512 -0.1865  0.2011 -0.2057
 8244SOL    HW136194   3.006   1.973   8.509 -1.3616 -0.3453 -2.3603
 8244SOL    HW236195   2.885   2.024   8.466  0.3895  0.9019 -1.6584
 8245SOL     OW36196   1.794   3.447   5.146 -0.2019  0.0371 -0.0576
 8245SOL    HW136197   1.865   3.385   5.131  0.0810 -0.0051  1.4606
 8245SOL    HW236198   1.753   3.443   5.060 -0.9618 -1.7598  0.3769
 8246SOL     OW36199   4.545   0.201   6.636 -0.2869  0.1666  0.0367
 8246SOL    HW136200   4.505   0.134   6.581 -0.9540  0.5120  0.1050
 8246SOL    HW236201   4.576   0.260   6.567  0.6898 -1.6534 -1.0756
 8247SOL     OW36202   1.181   3.192   2.934 -0.0857  0.4206 -0.0432
 8247SOL    HW136203   1.095   3.233   2.939  0.7545  2.4650 -2.4029
 8247SOL    HW236204   1.198   3.163   2.844  1.9825  1.2878  0.0452
 8248SOL     OW36205   0.669   2.370  13.860  0.2489 -0.0361 -0.1452
 8248SOL    HW136206   0.649   2.430  13.932  0.5670 -0.7158  0.5201
 8248SOL    HW236207   0.742   2.416  13.820  0.5018 -0.0295  0.3265
 8249SOL     OW36208   1.882   2.445   8.261 -0.5488 -0.0845  0.0154
 8249SOL    HW136209   1.920   2.511   8.202  0.6640 -1.4049 -0.6788
 8249SOL    HW236210   1.806   2.434   8.203 -0.3989 -2.3041  0.2595
 8250SOL     OW36211   0.192   2.666  10.144  0.2957 -0.1210 -0.0555
 8250SOL    HW136212   0.260   2.607  10.109 -0.1496 -0.8879  0.3654
 8250SOL    HW236213   0.235   2.720  10.209  2.0073 -0.9459 -0.4916
 8251SOL     OW36214   3.534   1.632   3.933  0.3494 -0.2352  0.8415
 8251SOL    HW136215   3.537   1.554   3.988 -0.8662 -2.1160 -1.7774
 8251SOL    HW236216   3.482   1.697   3.980 -3.4099 -0.8039 -2.6026
 8252SOL     OW36217   2.026   0.639  13.609  0.4497  0.0757 -0.0851
 8252SOL    HW136218   2.077   0.558  13.602  1.3562  0.5128  1.4654
 8252SOL    HW236219   2.094   0.701  13.634 -1.2634  2.6647 -1.9057
 8253SOL     OW36220   2.774   2.368  10.027  0.2961  0.0117  0.0517
 8253SOL    HW136221   2.790   2.313   9.950 -2.0811  0.9189 -1.0966
 8253SOL    HW236222   2.723   2.318  10.090  0.0440  0.5170  0.2513
 8254SOL     OW36223   3.600   4.359   2.206  0.1832  0.1154  1.1225
 8254SOL    HW136224   3.662   4.324   2.269 -1.2091 -2.3710  1.0933
 8254SOL    HW236225   3.614   4.451   2.229 -0.0683  0.4128  0.1141
 8255SOL     OW36226   4.563   0.134   3.122  0.1575  0.1221 -0.0404
 8255SOL    HW136227   4.640   0.190   3.111  0.6036  0.1956  3.3723
 8255SOL    HW236228   4.528   0.173   3.202 -1.2998  0.6866 -0.9451
 8256SOL     OW36229   3.389   2.871  15.470 -0.4266 -0.8386 -0.0806
 8256SOL    HW136230   3.332   2.907  15.402  3.6052  0.0689 -2.9276
 8256SOL    HW236231   3.386   2.778  15.448 -2.1141 -0.8650  0.2275
 8257SOL     OW36232   0.102   3.684   3.401 -0.7242  0.1990 -0.5829
 8257SOL    HW136233   0.051   3.764   3.415  0.4740  0.6794  0.9677
 8257SOL    HW236234   0.187   3.725   3.387 -0.7802  0.3314 -0.5375
 8258SOL     OW36235   4.688   1.159   1.955  0.0009 -0.1129 -0.0517
 8258SOL    HW136236   0.032   1.168   1.888 -0.6093 -0.1451 -0.6723
 8258SOL    HW236237   0.016   1.147   2.035  1.3682  0.8601 -0.7903
 8259SOL     OW36238   4.107   1.236   4.753  0.5023 -0.1629 -0.3910
 8259SOL    HW136239   4.122   1.288   4.674  0.0355  0.3111 -0.1644
 8259SOL    HW236240   4.114   1.154   4.703 -1.0576  0.8957 -2.3927
 8260SOL     OW36241   0.699   4.149   5.688  0.1634 -0.0148  0.0456
 8260SOL    HW136242   0.785   4.137   5.648  1.0303 -1.5179  2.3234
 8260SOL    HW236243   0.650   4.215   5.639  0.2315  1.5447  2.0892
 8261SOL     OW36244   3.242   3.110   8.251  1.0926 -0.2748 -0.3185
 8261SOL    HW136245   3.317   3.104   8.309  1.2467  0.8501 -0.3900
 8261SOL    HW236246   3.261   3.041   8.188  0.6544 -0.3342 -0.3890
 8262SOL     OW36247   3.097   1.882   5.003 -0.1300  0.2095  0.0544
 8262SOL    HW136248   3.015   1.931   5.010 -0.7910 -0.9009  0.1900
 8262SOL    HW236249   3.160   1.948   5.031 -1.4280  1.0030  1.1328
 8263SOL     OW36250   4.012   1.202   9.559 -0.0037 -0.3278  0.4000
 8263SOL    HW136251   4.041   1.158   9.639  3.4769  2.9511  0.9590
 8263SOL    HW236252   3.992   1.288   9.596 -0.5511 -0.1102 -0.3985
 8264SOL     OW36253   3.489   3.090  16.440 -0.0837 -0.1762  0.4899
 8264SOL    HW136254   3.448   3.004  16.434 -1.2667  0.3896  0.3390
 8264SOL    HW236255   3.434   3.130  16.373  2.3351  2.3453 -0.0103
 8265SOL     OW36256   1.885   3.350  16.659  0.0007  0.0530 -0.1809
 8265SOL    HW136257   1.927   3.381  16.578  0.0598 -1.2441 -0.6515
 8265SOL    HW236258   1.963   3.323  16.708  0.3647  0.7329 -0.3869
 8266SOL     OW36259   3.008   4.171   1.954 -0.2247 -0.7840  0.7322
 8266SOL    HW136260   3.066   4.167   2.029  1.6408  1.5369 -0.5702
 8266SOL    HW236261   3.028   4.096   1.899  0.3027  0.2587 -0.5114
 8267SOL     OW36262   3.475   4.257   7.432  0.5410 -0.0661  0.1067
 8267SOL    HW136263   3.391   4.228   7.468  0.6699 -1.0212 -0.3513
 8267SOL    HW236264   3.515   4.170   7.432  0.5635 -0.0597  2.0232
 8268SOL     OW36265   2.795   2.106   7.510 -0.2010 -0.2621  0.0133
 8268SOL    HW136266   2.833   2.186   7.546 -0.9024  0.6436 -1.2635
 8268SOL    HW236267   2.757   2.132   7.426 -3.7204 -1.3092  1.3146
 8269SOL     OW36268   0.749   3.569   0.879  0.4307  0.0298  0.0517
 8269SOL    HW136269   0.777   3.555   0.969 -1.4100  1.4423  0.8423
 8269SOL    HW236270   0.670   3.617   0.902  1.7385  1.5628  1.3396
 8270SOL     OW36271   3.835   3.313   3.625 -0.4148  0.0491  0.4890
 8270SOL    HW136272   3.873   3.346   3.544  0.7123  0.1876  1.0860
 8270SOL    HW236273   3.905   3.255   3.654  0.9547  0.8388 -1.2431
 8271SOL     OW36274   4.127   0.523   8.617 -0.7111  0.6306 -0.5439
 8271SOL    HW136275   4.044   0.484   8.645 -0.3532 -0.3514 -0.8559
 8271SOL    HW236276   4.130   0.512   8.522  0.6220 -1.7905 -0.2271
 8272SOL     OW36277   1.820   1.405   7.913 -0.2807  0.0526 -0.2162
 8272SOL    HW136278   1.777   1.419   7.997  1.0085 -2.0263  0.8059
 8272SOL    HW236279   1.891   1.342   7.928 -2.2423 -1.6765  1.6874
 8273SOL     OW36280   2.543   2.593  16.592 -0.3206 -0.0278  0.1911
 8273SOL    HW136281   2.511   2.592  16.683  2.1698  0.5263  1.0734
 8273SOL    HW236282   2.514   2.504  16.574 -1.6637  0.7544 -1.5652
 8274SOL     OW36283   2.612   0.053   9.876 -0.1123 -0.0261 -0.4416
 8274SOL    HW136284   2.620   4.713   9.947  0.8233  1.4135  0.7529
 8274SOL    HW236285   2.518   0.057   9.860  0.2250 -0.1573 -2.5011
 8275SOL     OW36286   1.242   2.149  10.532 -0.4391  0.0384  0.3278
 8275SOL    HW136287   1.308   2.081  10.519 -2.2800 -1.9585  1.4761
 8275SOL    HW236288   1.291   2.220  10.574 -0.2806  2.1756 -3.4529
 8276SOL     OW36289   4.121   0.032   4.361  0.6539 -0.4689 -0.2005
 8276SOL    HW136290   4.100   0.125   4.369 -1.1670 -1.0852  1.9651
 8276SOL    HW236291   4.086   4.716   4.441 -1.4704  0.8534 -0.4920
 8277SOL     OW36292   0.783   2.499   2.905 -0.6467 -0.0676  0.3994
 8277SOL    HW136293   0.814   2.483   2.816 -1.5554 -0.3240  0.1263
 8277SOL    HW236294   0.860   2.528   2.953 -1.4069  2.1644  0.2885
 8278SOL     OW36295   0.535   4.398   0.926  0.0357 -0.1482 -0.4200
 8278SOL    HW136296   0.469   4.466   0.914  0.5876  0.5439  0.5102
 8278SOL    HW236297   0.555   4.404   1.019 -0.3906 -1.8116 -0.2138
 8279SOL     OW36298   1.319   3.646   5.688 -0.0844  0.7055 -0.5677
 8279SOL    HW136299   1.311   3.600   5.604  1.5182  0.5568 -0.6413
 8279SOL    HW236300   1.258   3.713   5.658 -0.3771  0.4060 -0.6429
 8280SOL     OW36301   1.722   2.695   8.813 -0.2084  0.4848  0.1698
 8280SOL    HW136302   1.798   2.751   8.831  1.6287 -1.1692 -2.4885
 8280SOL    HW236303   1.672   2.698   8.895  1.7333  0.8119  1.3638
 8281SOL     OW36304   3.385   1.022  16.608  0.0507 -0.2095  0.1825
 8281SOL    HW136305   3.317   1.007  16.673  0.7315 -0.1071  0.9203
 8281SOL    HW236306   3.413   1.113  16.619 -0.7783  0.1164 -0.4608
 8282SOL     OW36307   1.059   0.089   9.323 -0.3251 -0.9269 -0.7427
 8282SOL    HW136308   0.988   0.027   9.307  0.0906 -2.1962  2.3720
 8282SOL    HW236309   1.043   0.102   9.417  0.5451 -0.2811 -0.6800
 8283SOL     OW36310   2.510   4.505   7.079  0.0127 -0.1064 -0.1676
 8283SOL    HW136311   2.492   4.498   6.985  0.1547  0.7547 -0.2673
 8283SOL    HW236312   2.544   4.595   7.072 -0.3196  0.0347  0.0030
 8284SOL     OW36313   3.002   0.632  14.402 -0.1557 -0.4696 -0.0948
 8284SOL    HW136314   3.008   0.693  14.328 -0.1208 -0.8370 -0.3975
 8284SOL    HW236315   3.024   0.549  14.359  0.4366  1.0907 -2.8429
 8285SOL     OW36316   2.443   0.169  13.658 -0.3839 -0.1147 -0.2497
 8285SOL    HW136317   2.452   0.077  13.632  0.2253  0.4224 -1.9593
 8285SOL    HW236318   2.521   0.189  13.710  0.9767 -0.3148 -2.2097
 8286SOL     OW36319   3.416   2.559   2.604 -0.1486 -0.3723 -0.3962
 8286SOL    HW136320   3.469   2.585   2.529 -0.5121  1.6201  0.0580
 8286SOL    HW236321   3.402   2.465   2.594  2.1387 -0.9787  2.0123
 8287SOL     OW36322   3.668   1.069   6.481  0.4601  0.3528 -0.0444
 8287SOL    HW136323   3.729   1.062   6.407  3.1650 -3.5011  2.5059
 8287SOL    HW236324   3.730   1.089   6.551  1.7379  0.3074 -1.1570
 8288SOL     OW36325   3.063   0.149   7.524 -0.2856  0.8392  0.1702
 8288SOL    HW136326   3.090   0.230   7.479  0.8619 -0.1244 -0.8941
 8288SOL    HW236327   3.083   0.089   7.452 -0.7403  1.4301 -0.4569
 8289SOL     OW36328   2.114   0.301   3.084 -0.0483  0.5217 -0.1708
 8289SOL    HW136329   2.144   0.275   3.172 -0.1630  1.8186  0.2417
 8289SOL    HW236330   2.051   0.370   3.102  0.5826  0.5071  2.0802
 8290SOL     OW36331   0.900   3.297   7.670  0.5846  0.1713 -0.4510
 8290SOL    HW136332   0.866   3.262   7.752  0.8488 -0.1062 -0.4605
 8290SOL    HW236333   0.954   3.224   7.641  2.0417  1.3225 -0.6891
 8291SOL     OW36334   3.640   0.678  14.695  0.2362 -0.0370  0.2446
 8291SOL    HW136335   3.717   0.680  14.638 -1.7072  0.7036 -2.3493
 8291SOL    HW236336   3.656   0.748  14.758 -0.8547 -0.6197  1.1772
 8292SOL     OW36337   3.056   0.524   4.034  0.7839  0.0537  0.0711
 8292SOL    HW136338   3.116   0.541   3.961  1.5184  0.0065  0.6631
 8292SOL    HW236339   3.023   0.612   4.052 -0.8899 -0.4759 -0.4186
 8293SOL     OW36340   3.479   2.935   9.525 -0.6066 -0.5670 -0.0683
 8293SOL    HW136341   3.419   2.871   9.565 -2.3274 -0.0913 -1.9176
 8293SOL    HW236342   3.417   3.004   9.502  0.1530 -0.3160 -1.3233
 8294SOL     OW36343   3.603   4.175  10.608  0.0609  0.1213  0.1261
 8294SOL    HW136344   3.616   4.211  10.695  1.2900  0.9866 -0.4209
 8294SOL    HW236345   3.621   4.082  10.624  0.2316 -0.3662 -2.7677
 8295SOL     OW36346   3.427   4.600   1.107 -0.1795  0.3125  0.5207
 8295SOL    HW136347   3.490   4.658   1.063 -0.8727  0.5460 -0.1605
 8295SOL    HW236348   3.464   4.517   1.076 -0.2129 -0.4107  2.4362
 8296SOL     OW36349   2.942   0.650   0.076 -0.1515 -0.0406  0.5676
 8296SOL    HW136350   2.988   0.714   0.132 -0.1360 -1.2227  1.9037
 8296SOL    HW236351   2.875   0.714   0.049  0.7397  1.2426  1.3798
 8297SOL     OW36352   1.578   0.285   6.002 -0.2762  0.2025 -0.1964
 8297SOL    HW136353   1.582   0.380   6.006 -2.9257  0.3087 -0.1251
 8297SOL    HW236354   1.497   0.266   6.050 -1.2782  1.1096 -1.5372
 8298SOL     OW36355   3.125   4.294  14.868 -0.4700  0.0728 -0.3264
 8298SOL    HW136356   3.140   4.323  14.778 -0.7383  0.5427 -0.2193
 8298SOL    HW236357   3.175   4.213  14.870  1.9960  1.6368  2.8992
 8299SOL     OW36358   1.999   1.786   2.264 -0.0830 -0.3721  0.7035
 8299SOL    HW136359   2.033   1.700   2.292 -0.1968 -1.1157 -1.4187
 8299SOL    HW236360   1.930   1.760   2.204  1.3948 -3.6797  0.3898
 8300SOL     OW36361   4.027   2.647   4.371  0.5162 -0.1262  0.4681
 8300SOL    HW136362   3.999   2.730   4.332  1.5265  1.2108  2.5631
 8300SOL    HW236363   4.038   2.597   4.290 -1.6630  1.4463 -0.7964
 8301SOL     OW36364   1.811   1.536  11.132 -0.2200  0.3070  0.1489
 8301SOL    HW136365   1.786   1.613  11.183  0.2097  2.6193 -3.1233
 8301SOL    HW236366   1.906   1.547  11.125  0.0351 -1.1515  1.3700
 8302SOL     OW36367   0.262   1.201   8.385  0.0366 -0.2679 -0.3013
 8302SOL    HW136368   0.196   1.166   8.445  0.9347 -0.9336  0.3018
 8302SOL    HW236369   0.303   1.126   8.341 -1.2893 -1.1596 -0.0069
 8303SOL     OW36370   3.547   4.331  11.642 -0.6998 -0.0015 -0.0696
 8303SOL    HW136371   3.454   4.331  11.617 -0.1430 -0.3093 -2.0518
 8303SOL    HW236372   3.580   4.354  11.556  0.3171 -1.3059 -0.0204
 8304SOL     OW36373   3.447   1.219   4.276  0.2210 -0.0400  0.1235
 8304SOL    HW136374   3.537   1.193   4.298 -0.1943 -1.3498  0.2399
 8304SOL    HW236375   3.425   1.148   4.216 -3.3416  0.4065  0.9017
 8305SOL     OW36376   1.924   3.094   0.376 -0.8043 -0.0642  0.4171
 8305SOL    HW136377   1.983   3.158   0.416  0.4459 -0.9517 -0.0159
 8305SOL    HW236378   1.864   3.056   0.441 -0.5159 -0.1622  0.6309
 8306SOL     OW36379   0.959   2.563   2.549 -0.3401  0.2561  0.1521
 8306SOL    HW136380   1.038   2.569   2.602  0.7116 -3.6143 -1.0229
 8306SOL    HW236381   0.987   2.566   2.458 -1.1048 -0.7823 -0.1104
 8307SOL     OW36382   3.952   4.212   0.224  0.2449 -0.3483 -0.3317
 8307SOL    HW136383   3.869   4.197   0.270  0.4927  0.0880  0.2600
 8307SOL    HW236384   3.917   4.226   0.136  2.4332  3.5661 -0.6152
 8308SOL     OW36385   0.949   2.323   6.959 -0.0397  0.3276  0.2182
 8308SOL    HW136386   0.965   2.324   6.865 -1.4230 -0.0518 -0.0305
 8308SOL    HW236387   0.927   2.230   6.965  1.3733 -0.2300 -3.1111
 8309SOL     OW36388   0.131   0.802   4.400 -0.7923  0.3044  0.1014
 8309SOL    HW136389   0.189   0.851   4.458  1.2683  0.8758 -2.4343
 8309SOL    HW236390   0.059   0.860   4.377 -1.6972 -0.7895  0.1510
 8310SOL     OW36391   2.109   1.773   5.261  0.2315  0.5068 -0.3139
 8310SOL    HW136392   2.177   1.709   5.282 -1.4268 -0.4991  2.0166
 8310SOL    HW236393   2.097   1.812   5.348  3.5174  1.5653 -0.3296
 8311SOL     OW36394   4.111   2.684   9.390  0.0122 -0.6317 -0.4549
 8311SOL    HW136395   4.175   2.633   9.340  1.3764  0.9500 -0.2954
 8311SOL    HW236396   4.047   2.692   9.318 -0.4739 -0.8701 -0.0491
 8312SOL     OW36397   3.702   0.548   3.778 -0.4900  0.0599 -0.0406
 8312SOL    HW136398   3.706   0.502   3.694 -1.8958 -0.5586  0.2231
 8312SOL    HW236399   3.768   0.617   3.772  1.5089 -1.7820  0.7655
 8313SOL     OW36400   0.308   4.266   8.133  0.6130  0.3889  0.0419
 8313SOL    HW136401   0.273   4.266   8.044 -0.3444 -1.8563  0.4281
 8313SOL    HW236402   0.233   4.295   8.185  0.9753  0.2433  0.6452
 8314SOL     OW36403   3.074   3.409   2.187 -0.0487  0.1793 -0.3464
 8314SOL    HW136404   3.101   3.438   2.274 -0.1645 -2.4179  0.5665
 8314SOL    HW236405   3.143   3.347   2.163 -1.6011 -1.8633  0.4245
 8315SOL     OW36406   0.036   3.884  10.392 -0.2556 -1.1112 -0.0684
 8315SOL    HW136407   0.115   3.924  10.428  1.0512 -0.5984 -3.5204
 8315SOL    HW236408   4.694   3.911  10.456 -0.3253 -1.0400 -0.1689
 8316SOL     OW36409   2.603   0.979   3.712  0.2645  0.5472  0.8243
 8316SOL    HW136410   2.544   1.029   3.769 -1.5864  0.1165 -0.7099
 8316SOL    HW236411   2.613   0.899   3.764 -3.2060 -0.6265 -0.2901
 8317SOL     OW36412   1.397   0.973   4.726  0.1023  0.4201 -0.1612
 8317SOL    HW136413   1.491   0.985   4.741  0.1241 -1.4470  1.2101
 8317SOL    HW236414   1.398   0.973   4.630  0.5293  0.0096 -0.1599
 8318SOL     OW36415   0.964   1.761   1.802 -0.4536 -0.3854  0.9444
 8318SOL    HW136416   1.048   1.805   1.792 -0.2174 -1.2013 -0.7645
 8318SOL    HW236417   0.938   1.753   1.710 -0.6123  1.0083  0.8689
 8319SOL     OW36418   4.518   4.043   3.672 -0.4637 -0.5373  0.1139
 8319SOL    HW136419   4.605   4.006   3.684  0.5083  1.2255 -1.4736
 8319SOL    HW236420   4.522   4.089   3.588  0.8124 -2.4427 -0.8725
 8320SOL     OW36421   3.308   2.747  12.597  0.0581  0.0070 -0.0178
 8320SOL    HW136422   3.298   2.711  12.509 -0.6554  0.5072 -0.1352
 8320SOL    HW236423   3.238   2.811  12.592  0.1649 -0.0901 -2.7441
 8321SOL     OW36424   1.489   1.052   3.985 -0.5624 -0.3712 -0.0801
 8321SOL    HW136425   1.477   1.032   3.892  3.7645 -0.9879 -0.4746
 8321SOL    HW236426   1.566   1.003   4.013  0.0295 -0.5028 -1.8987
 8322SOL     OW36427   4.258   3.760   5.945  0.0083 -0.2152 -0.9877
 8322SOL    HW136428   4.319   3.721   5.883  0.0016 -1.7935  0.0115
 8322SOL    HW236429   4.254   3.691   6.011  1.6174  0.8359  0.2132
 8323SOL     OW36430   2.429   3.612   6.375 -0.1074  0.1834  0.4218
 8323SOL    HW136431   2.441   3.518   6.365 -0.0800  0.5414 -2.7229
 8323SOL    HW236432   2.409   3.628   6.283  1.7319 -1.3671 -0.2439
 8324SOL     OW36433   1.797   2.598  13.556  0.4155  0.2896 -0.1282
 8324SOL    HW136434   1.721   2.540  13.566  1.1559 -0.4551  1.2689
 8324SOL    HW236435   1.863   2.529  13.548  0.1438  0.0535 -0.3406
 8325SOL     OW36436   3.712   2.037   3.246 -0.1879 -0.0493  0.0466
 8325SOL    HW136437   3.686   1.996   3.163 -0.7451 -1.1352  0.7525
 8325SOL    HW236438   3.805   2.047   3.228 -0.2330 -2.1236 -1.3560
 8326SOL     OW36439   2.710   0.410   9.176  0.0883 -0.2803 -0.3129
 8326SOL    HW136440   2.620   0.389   9.203 -0.0507  1.2298  0.4292
 8326SOL    HW236441   2.719   0.495   9.220 -2.6639 -0.5687  0.8292
 8327SOL     OW36442   4.190   1.546   8.596 -0.7265  0.1297  0.7112
 8327SOL    HW136443   4.192   1.520   8.688 -1.3081 -0.9647  0.4162
 8327SOL    HW236444   4.097   1.564   8.587 -0.7736 -0.6238 -0.3476
 8328SOL     OW36445   3.611   3.033   1.925  0.1785 -0.8662 -0.4121
 8328SOL    HW136446   3.572   3.112   1.888 -1.9479 -1.3761  0.7116
 8328SOL    HW236447   3.600   2.980   1.847 -1.8126  0.9964 -1.3646
 8329SOL     OW36448   1.587   4.229  17.536  0.6082 -0.0417  0.5800
 8329SOL    HW136449   1.653   4.187  17.481  1.4470  2.4728 -0.2963
 8329SOL    HW236450   1.580   4.164  17.607 -1.1545  0.6689  1.0464
 8330SOL     OW36451   1.504   0.599   6.520  0.2282  1.0608  0.4834
 8330SOL    HW136452   1.563   0.659   6.473  0.6524  1.6523  1.7620
 8330SOL    HW236453   1.575   0.545   6.557  0.9573  0.9604 -1.0773
 8331SOL     OW36454   3.607   2.494   3.933  0.0751 -0.0936  0.2023
 8331SOL    HW136455   3.579   2.416   3.883 -1.2524  0.6979 -0.2870
 8331SOL    HW236456   3.556   2.476   4.012 -3.3577  0.9417 -1.7529
 8332SOL     OW36457   4.709   2.979   7.147 -0.1165 -0.7204 -0.5425
 8332SOL    HW136458   4.658   3.021   7.078 -0.0875  0.9103  0.4434
 8332SOL    HW236459   0.028   2.915   7.090  0.9646 -0.1936 -0.3084
 8333SOL     OW36460   4.529   0.745  16.776 -0.2095  0.2054  0.2003
 8333SOL    HW136461   4.479   0.663  16.773 -1.5250  0.9226  2.1492
 8333SOL    HW236462   4.477   0.797  16.715 -0.6491 -2.5277 -1.8016
 8334SOL     OW36463   2.084   2.267   3.267  0.1364 -0.2059  0.2115
 8334SOL    HW136464   2.042   2.224   3.193  1.0488 -1.7310  0.5659
 8334SOL    HW236465   2.051   2.357   3.268 -0.2239 -0.3269 -1.0196
 8335SOL     OW36466   2.310   2.913   1.725  0.3586 -0.3547  0.0144
 8335SOL    HW136467   2.275   2.908   1.813  0.2316  0.1194 -0.0058
 8335SOL    HW236468   2.282   2.833   1.680 -2.1724  0.1582  0.7007
 8336SOL     OW36469   2.225   1.644   2.838 -0.1216 -0.7892 -0.0495
 8336SOL    HW136470   2.210   1.555   2.869 -1.9699 -0.6166 -0.4442
 8336SOL    HW236471   2.218   1.638   2.743 -1.3488 -1.2443  0.0734
 8337SOL     OW36472   0.049   3.413   9.403  0.7218 -0.2883 -0.7940
 8337SOL    HW136473   0.039   3.320   9.420 -0.2541 -0.5154 -2.6309
 8337SOL    HW236474   0.138   3.405   9.368  0.3062 -0.6378 -1.7566
 8338SOL     OW36475   0.606   0.632   3.951  0.3596 -0.4420 -0.1297
 8338SOL    HW136476   0.598   0.714   3.901 -2.2458  1.3036  3.1744
 8338SOL    HW236477   0.701   0.634   3.964  0.4943  1.0709 -1.3341
 8339SOL     OW36478   0.561   4.596  14.418 -0.5238  0.3525  0.2409
 8339SOL    HW136479   0.494   4.548  14.465 -1.9187  0.7011 -1.4149
 8339SOL    HW236480   0.639   4.571  14.468 -0.8467 -0.5413  0.2840
 8340SOL     OW36481   3.054   2.572   4.905 -0.3567 -0.1546  0.6873
 8340SOL    HW136482   3.093   2.501   4.854  0.7511  0.4944  0.6282
 8340SOL    HW236483   2.960   2.559   4.893  0.1551 -1.1365 -2.1618
 8341SOL     OW36484   2.122   2.556   6.373  0.1642  0.1494  0.1945
 8341SOL    HW136485   2.045   2.501   6.357  0.9792 -0.5669 -1.3243
 8341SOL    HW236486   2.181   2.494   6.414 -0.7986 -1.0479 -0.2134
 8342SOL     OW36487   3.216   0.583   0.382  0.4095  0.3180 -0.2289
 8342SOL    HW136488   3.271   0.554   0.455 -1.3462  0.2342  1.0723
 8342SOL    HW236489   3.200   0.503   0.334 -0.7399 -0.1155  0.8818
 8343SOL     OW36490   1.981   3.006   5.923  0.0967 -0.5304  0.9170
 8343SOL    HW136491   1.978   2.917   5.960 -1.1558 -0.0757  1.9048
 8343SOL    HW236492   2.009   3.058   5.998 -1.0511  0.6334  0.5431
 8344SOL     OW36493   2.274   4.233   6.255  0.7562 -0.6521 -0.1160
 8344SOL    HW136494   2.323   4.289   6.316  0.5235 -1.1700  0.5439
 8344SOL    HW236495   2.343   4.231   6.188 -2.2503  0.6996 -3.2483
 8345SOL     OW36496   2.334   0.471   4.763 -0.5830  0.4463  0.3033
 8345SOL    HW136497   2.244   0.495   4.784 -1.1386 -1.6511  0.2863
 8345SOL    HW236498   2.329   0.482   4.668  0.0621 -1.0634  0.0941
 8346SOL     OW36499   3.030   2.147   7.316  0.3895  0.3384  0.0250
 8346SOL    HW136500   3.054   2.238   7.337  2.4474  0.5035 -2.9415
 8346SOL    HW236501   3.054   2.124   7.226  0.4384 -1.3237  0.4746
 8347SOL     OW36502   1.009   4.521   9.166  0.0948  0.0655  0.0618
 8347SOL    HW136503   0.948   4.560   9.103  0.4074  1.2815  0.5144
 8347SOL    HW236504   1.087   4.569   9.139  0.0958  1.3107  2.2881
 8348SOL     OW36505   4.551   3.040   1.814 -0.1277  0.0707  0.4032
 8348SOL    HW136506   4.480   3.103   1.803  0.8782  0.8376 -1.7424
 8348SOL    HW236507   4.491   2.965   1.817  0.2115 -0.1948  0.4937
 8349SOL     OW36508   2.922   3.107  14.718 -0.6113  0.6118  0.3116
 8349SOL    HW136509   2.964   3.108  14.803 -0.7085 -2.1115  0.4024
 8349SOL    HW236510   2.907   3.200  14.702  0.0859  0.4705 -1.1931
 8350SOL     OW36511   0.551   2.433  13.344 -0.5606 -0.3643  0.3465
 8350SOL    HW136512   0.627   2.463  13.294  0.6222 -3.1796  0.4664
 8350SOL    HW236513   0.590   2.396  13.423 -1.3790 -1.2160  0.3566
 8351SOL     OW36514   2.200   3.369   3.594  0.7348  0.1294  0.0785
 8351SOL    HW136515   2.253   3.402   3.667 -0.1293 -1.3772  1.3738
 8351SOL    HW236516   2.262   3.372   3.521 -1.5887 -4.5795 -2.0534
 8352SOL     OW36517   0.211   2.125   5.369  0.2281  0.8772 -0.1865
 8352SOL    HW136518   0.266   2.091   5.440 -0.0438 -2.1255 -1.4332
 8352SOL    HW236519   0.274   2.115   5.298  0.3896 -0.5758  0.1577
 8353SOL     OW36520   1.933   1.541  10.472  0.2229  0.2649  0.4006
 8353SOL    HW136521   2.000   1.582  10.418 -2.5690  0.7907 -2.6504
 8353SOL    HW236522   1.868   1.612  10.475  0.7330  0.6910  1.3081
 8354SOL     OW36523   3.099   0.964   3.507 -0.1321 -0.0496  0.3459
 8354SOL    HW136524   3.016   0.917   3.516  0.6011 -1.5058 -0.5476
 8354SOL    HW236525   3.144   0.942   3.589  0.1321  0.7691  0.4177
 8355SOL     OW36526   3.564   2.141  10.446 -0.6661  0.3196 -0.0849
 8355SOL    HW136527   3.528   2.086  10.377  1.3741  0.9707 -1.6485
 8355SOL    HW236528   3.483   2.149  10.497 -0.8920 -2.0332 -0.0584
 8356SOL     OW36529   0.197   1.792   8.706 -0.5478  0.5090  0.2028
 8356SOL    HW136530   0.218   1.874   8.750 -3.2814  1.1578  0.2764
 8356SOL    HW236531   0.259   1.782   8.633  1.2303 -1.3768  1.9787
 8357SOL     OW36532   3.355   0.363   7.574 -0.0322  0.3425  0.5322
 8357SOL    HW136533   3.353   0.420   7.497  2.1264 -2.1914 -1.3899
 8357SOL    HW236534   3.439   0.386   7.613  0.3518  2.3477 -1.4763
 8358SOL     OW36535   1.082   3.804   8.609 -0.4440  0.2473 -0.5513
 8358SOL    HW136536   1.107   3.845   8.527  1.0137 -0.6046 -0.5383
 8358SOL    HW236537   1.166   3.784   8.652 -1.1819  2.9398  2.0917
 8359SOL     OW36538   3.318   1.641  17.491 -0.0472 -0.3951 -0.7903
 8359SOL    HW136539   3.280   1.567  17.443  1.2416 -2.0766  0.7683
 8359SOL    HW236540   3.271   1.717  17.457 -0.8760 -1.5412 -2.2449
 8360SOL     OW36541   4.442   0.868   5.903 -0.0148  0.2859 -0.6386
 8360SOL    HW136542   4.514   0.918   5.941  0.6796 -0.1047 -1.4379
 8360SOL    HW236543   4.426   0.801   5.970  1.4437  0.2993 -0.2877
 8361SOL     OW36544   0.534   3.561   7.996 -0.4239 -0.5619  0.1363
 8361SOL    HW136545   0.469   3.574   7.927 -0.1330 -0.4536 -0.1198
 8361SOL    HW236546   0.489   3.581   8.078 -1.2133  0.2198 -0.4895
 8362SOL     OW36547   2.820   3.203   7.988 -0.1750  0.2307 -0.3349
 8362SOL    HW136548   2.860   3.214   7.902 -0.1909 -0.3961 -0.4254
 8362SOL    HW236549   2.857   3.121   8.021  0.5682  0.8537  0.3660
 8363SOL     OW36550   4.028   3.819   6.637 -0.3407 -0.0286 -0.3474
 8363SOL    HW136551   4.051   3.774   6.718 -1.9710 -0.1233  0.0540
 8363SOL    HW236552   3.962   3.882   6.666  1.0900  2.0197 -1.5215
 8364SOL     OW36553   1.598   4.291   5.748 -0.2210 -0.7655  0.2606
 8364SOL    HW136554   1.624   4.341   5.826  1.4021 -0.8797 -0.2013
 8364SOL    HW236555   1.668   4.315   5.688  0.7521 -2.2402  0.8066
 8365SOL     OW36556   0.907   2.110   3.869  0.2042 -0.0557  0.0199
 8365SOL    HW136557   0.888   2.157   3.788 -1.6711 -0.3718  0.2717
 8365SOL    HW236558   0.857   2.030   3.858 -1.1898  0.7677  0.2772
 8366SOL     OW36559   3.729   1.458   7.932  0.2468 -0.1923 -0.3416
 8366SOL    HW136560   3.742   1.551   7.949 -5.3256  0.4340  0.5634
 8366SOL    HW236561   3.635   1.440   7.942  0.6229 -1.8431  0.1999
 8367SOL     OW36562   4.451   3.538  11.678  0.5018  0.4833  0.2927
 8367SOL    HW136563   4.522   3.602  11.671 -0.1607  1.1557 -0.3791
 8367SOL    HW236564   4.419   3.557  11.590 -2.4799  0.8980  1.4728
 8368SOL     OW36565   4.679   3.209   7.513  0.2158 -0.4896 -0.3182
 8368SOL    HW136566   4.636   3.258   7.442  0.2323  1.5969  1.1094
 8368SOL    HW236567   4.672   3.273   7.584  1.8841  0.4076 -0.9597
 8369SOL     OW36568   2.698   4.444   4.975 -0.8662  0.0987 -0.2941
 8369SOL    HW136569   2.655   4.471   4.894 -1.3950 -0.1459 -0.0923
 8369SOL    HW236570   2.633   4.381   5.007 -0.6496  0.9300  1.8210
 8370SOL     OW36571   1.947   1.774   7.871  0.1559 -0.2071 -0.2223
 8370SOL    HW136572   1.973   1.684   7.891  1.2773  0.1461 -0.0674
 8370SOL    HW236573   2.014   1.817   7.925  0.8940 -0.1879 -1.1536
 8371SOL     OW36574   4.424   3.196  14.452  0.1680  0.4499 -0.7769
 8371SOL    HW136575   4.517   3.206  14.435  0.4959 -0.8473  0.2000
 8371SOL    HW236576   4.425   3.160  14.541  0.1227  0.6862 -0.6814
 8372SOL     OW36577   2.315   0.364   7.365  0.7246 -0.0211  0.2593
 8372SOL    HW136578   2.371   0.416   7.307  1.0420  0.7086  1.2092
 8372SOL    HW236579   2.375   0.358   7.440  1.7117  1.2146 -0.4247
 8373SOL     OW36580   3.464   0.633   1.259  0.1893 -0.9369 -0.4582
 8373SOL    HW136581   3.381   0.609   1.218 -0.7240  2.0844 -0.4374
 8373SOL    HW236582   3.511   0.645   1.177  1.9538  2.2197  0.9985
 8374SOL     OW36583   2.938   3.340  12.405  0.0908 -0.1670  0.9898
 8374SOL    HW136584   2.875   3.274  12.376  0.8572 -1.1122  1.5038
 8374SOL    HW236585   2.969   3.380  12.323 -0.4579  1.5333  1.6149
 8375SOL     OW36586   3.236   2.411   3.367  0.1264  0.5503  0.3937
 8375SOL    HW136587   3.316   2.449   3.332  0.1898 -1.7259 -1.8987
 8375SOL    HW236588   3.223   2.460   3.449  1.4245 -0.0109  0.9261
 8376SOL     OW36589   1.327   1.451  16.070  0.1927 -0.2305  0.4241
 8376SOL    HW136590   1.399   1.500  16.110  0.1123  0.5895 -0.4292
 8376SOL    HW236591   1.320   1.364  16.109 -1.2031  0.7380  2.3035
 8377SOL     OW36592   0.807   4.143  11.539  0.1282  0.7528  0.2385
 8377SOL    HW136593   0.859   4.220  11.562  0.4864  0.7993 -0.6975
 8377SOL    HW236594   0.730   4.183  11.498  0.1737  2.2164  1.6069
 8378SOL     OW36595   3.650   0.365   8.194 -0.4407  0.1658  0.2275
 8378SOL    HW136596   3.598   0.342   8.117  0.8395 -1.7788 -0.0342
 8378SOL    HW236597   3.623   0.293   8.252  0.0317 -0.5320 -0.4291
 8379SOL     OW36598   0.793   0.504   4.949 -0.5753  0.0077 -0.1750
 8379SOL    HW136599   0.715   0.454   4.925 -0.5468 -0.2672  0.3042
 8379SOL    HW236600   0.867   0.451   4.918 -1.8859 -1.5769 -0.5928
 8380SOL     OW36601   3.832   1.727   2.512 -0.4041 -0.2410  0.3007
 8380SOL    HW136602   3.880   1.782   2.573  0.3774 -0.4426 -0.1325
 8380SOL    HW236603   3.799   1.653   2.563 -1.3624  0.2985  0.4576
 8381SOL     OW36604   4.289   0.734   6.385 -0.0320  0.6186  0.2325
 8381SOL    HW136605   4.300   0.759   6.476  0.5681  0.9963  0.0563
 8381SOL    HW236606   4.236   0.654   6.390 -0.5817  0.7940 -2.6700
 8382SOL     OW36607   0.530   2.622   5.584  0.4767  0.2476  0.2067
 8382SOL    HW136608   0.439   2.649   5.570  0.9123  0.9302 -1.3277
 8382SOL    HW236609   0.533   2.566   5.662 -0.3478  0.1577  0.1731
 8383SOL     OW36610   2.910   3.681   2.281 -0.0400 -0.2147  0.0360
 8383SOL    HW136611   2.979   3.628   2.239  2.9764  2.2584  1.8697
 8383SOL    HW236612   2.944   3.767   2.256 -0.3568  0.2348  1.1752
 8384SOL     OW36613   1.722   3.412   5.672  0.0494 -0.1417 -0.5130
 8384SOL    HW136614   1.778   3.484   5.700  0.3531  0.1180 -1.7962
 8384SOL    HW236615   1.731   3.363   5.754  0.4389 -0.4384 -0.7335
 8385SOL     OW36616   2.004   2.049   4.497 -0.0837  0.2053 -0.0025
 8385SOL    HW136617   1.930   2.050   4.557  0.0445 -0.2613  0.1696
 8385SOL    HW236618   1.969   2.000   4.423 -0.2952 -0.1154  0.3089
 8386SOL     OW36619   3.278   4.357   7.910  0.3876  0.5154 -0.0921
 8386SOL    HW136620   3.344   4.392   7.849  0.4206 -1.3382 -1.1405
 8386SOL    HW236621   3.318   4.271   7.925  1.2011  0.3605 -2.9898
 8387SOL     OW36622   3.025   3.777   4.925  0.0705  0.0009 -0.1121
 8387SOL    HW136623   3.008   3.857   4.976 -1.1680  0.2477 -0.9054
 8387SOL    HW236624   3.096   3.803   4.866  0.5463 -3.1383 -0.8840
 8388SOL     OW36625   2.410   2.610  11.034  0.3557 -0.1810 -0.5232
 8388SOL    HW136626   2.495   2.601  11.079 -0.1307  2.3273  0.9086
 8388SOL    HW236627   2.361   2.533  11.063 -1.3551  1.4677  0.9591
 8389SOL     OW36628   1.444   1.285  10.211  0.4507  0.7778  0.2959
 8389SOL    HW136629   1.375   1.349  10.193  2.4459  2.8611  0.0329
 8389SOL    HW236630   1.509   1.339  10.167  0.2076 -1.4525 -2.7974
 8390SOL     OW36631   1.274   4.536  12.672  0.1359  0.3168  0.2388
 8390SOL    HW136632   1.346   4.500  12.619 -0.2338 -2.1231  1.3945
 8390SOL    HW236633   1.283   4.630  12.658  2.6529  0.2876  1.6149
 8391SOL     OW36634   1.625   1.650   7.297 -0.4256 -0.2472  0.0587
 8391SOL    HW136635   1.613   1.675   7.206  0.8484  0.5962  0.1280
 8391SOL    HW236636   1.683   1.575   7.283 -1.3772 -1.3234  1.8822
 8392SOL     OW36637   3.136   4.506   8.867 -0.3496  0.5046  0.4452
 8392SOL    HW136638   3.103   4.593   8.887  0.1346  1.3878 -2.5048
 8392SOL    HW236639   3.084   4.457   8.930 -0.3056 -0.5607 -0.3299
 8393SOL     OW36640   4.609   0.220   1.898 -0.3633  0.2913 -0.6537
 8393SOL    HW136641   4.577   0.148   1.843 -0.1951 -1.3563  1.3784
 8393SOL    HW236642   4.693   0.182   1.923  0.7496  2.7463 -0.6651
 8394SOL     OW36643   2.248   3.989   2.609  0.0814 -0.3621 -0.0178
 8394SOL    HW136644   2.268   4.071   2.565  2.2900  0.7974  3.1568
 8394SOL    HW236645   2.262   4.021   2.698 -0.0771  0.0399 -0.1400
 8395SOL     OW36646   1.920   1.373   5.510  0.5418  0.0937  0.1450
 8395SOL    HW136647   1.876   1.288   5.515 -1.2866  0.9723 -1.1132
 8395SOL    HW236648   1.899   1.402   5.422  1.2888  0.5658  0.1262
 8396SOL     OW36649   0.446   2.686   5.154 -0.2615 -0.2201 -0.2901
 8396SOL    HW136650   0.525   2.679   5.209 -0.2734 -0.0483 -0.2497
 8396SOL    HW236651   0.410   2.597   5.156 -1.8812  0.4419 -0.6723
 8397SOL     OW36652   4.416   2.309   1.561 -0.7510 -0.4454  0.0081
 8397SOL    HW136653   4.510   2.314   1.543 -0.6560  1.7108  1.1089
 8397SOL    HW236654   4.413   2.328   1.655  1.2389 -1.9897  0.3874
 8398SOL     OW36655   3.547   3.041   3.292  0.2465 -0.3163 -0.5012
 8398SOL    HW136656   3.483   2.989   3.243  2.6182 -1.4476 -2.3812
 8398SOL    HW236657   3.517   3.020   3.381 -3.1780 -3.6110 -2.3977
 8399SOL     OW36658   4.270   3.287   3.529 -0.3108  0.1952  0.0660
 8399SOL    HW136659   4.358   3.251   3.540 -0.4021  0.6256  2.2099
 8399SOL    HW236660   4.244   3.256   3.442 -1.7123  1.2667  0.1010
 8400SOL     OW36661   3.838   1.409   7.412 -0.1804 -0.0345  0.4030
 8400SOL    HW136662   3.916   1.367   7.450  1.4455  0.1560 -2.7347
 8400SOL    HW236663   3.897   1.471   7.370 -1.1965  1.0190  0.5267
 8401SOL     OW36664   3.750   3.259   8.675  0.1091 -0.0656 -0.0225
 8401SOL    HW136665   3.801   3.265   8.594 -1.3103 -3.1841 -1.1792
 8401SOL    HW236666   3.694   3.336   8.665 -1.8384 -1.4604  0.0365
 8402SOL     OW36667   0.158   0.390  12.056  0.2939  0.5603  0.2069
 8402SOL    HW136668   0.169   0.298  12.035 -0.0509  0.3471  0.9504
 8402SOL    HW236669   0.071   0.382  12.096 -0.1311  0.1812 -0.7984
 8403SOL     OW36670   1.485   4.216   4.435 -0.0104 -0.1160 -0.2218
 8403SOL    HW136671   1.578   4.210   4.460 -0.0653 -3.7732 -0.9380
 8403SOL    HW236672   1.465   4.124   4.454  0.0069  0.2764  1.6253
 8404SOL     OW36673   2.488   2.537   5.010 -0.4119 -0.2206 -0.5653
 8404SOL    HW136674   2.580   2.547   5.036 -0.8826  3.6384 -0.4100
 8404SOL    HW236675   2.488   2.625   4.971 -1.8435  0.4564  1.0031
 8405SOL     OW36676   1.804   2.005   9.117  0.0972  0.3806 -0.1931
 8405SOL    HW136677   1.825   2.096   9.136  0.3043 -0.0594  1.7525
 8405SOL    HW236678   1.734   2.020   9.054 -1.3167 -1.3347  0.9458
 8406SOL     OW36679   1.698   1.025  13.983 -0.2518 -0.4678  0.1742
 8406SOL    HW136680   1.789   1.051  13.972  0.8006 -3.4095  1.8624
 8406SOL    HW236681   1.707   0.939  13.942  1.2435 -0.1676 -0.1264
 8407SOL     OW36682   0.244   1.931   4.647  0.4053  0.3740  0.3302
 8407SOL    HW136683   0.198   2.014   4.661  2.1447  1.6112 -1.2971
 8407SOL    HW236684   0.205   1.908   4.563  0.0546 -0.2573  0.6634
 8408SOL     OW36685   1.043   0.770   7.138  0.0727 -0.4369 -0.5424
 8408SOL    HW136686   0.981   0.721   7.084 -2.7663  2.2059  0.2582
 8408SOL    HW236687   1.105   0.701   7.161  2.3015  1.4413 -0.9068
 8409SOL     OW36688   4.145   4.548  17.036 -0.3524  0.0464  0.0513
 8409SOL    HW136689   4.081   4.601  17.082 -1.0333  0.0548 -0.9041
 8409SOL    HW236690   4.079   4.501  16.985 -0.5192 -1.0002  1.2465
 8410SOL     OW36691   0.053   4.008   8.013  0.4878  0.2411 -0.9130
 8410SOL    HW136692   4.711   3.954   8.056 -0.4440  1.2081 -1.1252
 8410SOL    HW236693   0.128   3.995   8.072 -0.0395 -3.0646 -0.9857
 8411SOL     OW36694   1.950   1.068  11.371 -0.3710 -0.2702  0.1179
 8411SOL    HW136695   2.014   1.007  11.333 -1.8071 -1.4928 -0.3419
 8411SOL    HW236696   1.964   1.141  11.311 -4.2636 -0.2168 -0.7123
 8412SOL     OW36697   1.714   2.693   1.839 -0.4949  0.0846  0.6601
 8412SOL    HW136698   1.618   2.690   1.833 -0.3258  0.1003 -1.8612
 8412SOL    HW236699   1.726   2.629   1.909 -1.2378  0.2733  0.9641
 8413SOL     OW36700   1.050   4.647  10.380  0.0967 -0.3141  0.7132
 8413SOL    HW136701   1.103   4.658  10.459 -0.6456 -0.7213  1.2683
 8413SOL    HW236702   1.005   4.563  10.394 -0.4285 -0.2234 -0.4114
 8414SOL     OW36703   2.806   0.053   8.430  0.1266 -0.0195 -0.3765
 8414SOL    HW136704   2.884   0.000   8.411  1.0102  0.1998  2.6736
 8414SOL    HW236705   2.818   0.132   8.376  0.9105  1.3603  1.8121
 8415SOL     OW36706   1.960   1.549   4.060 -0.4984 -0.0476 -0.2907
 8415SOL    HW136707   1.914   1.501   3.991  1.3601 -0.8387 -0.9781
 8415SOL    HW236708   1.981   1.477   4.119 -1.5320 -1.2145 -1.3518
 8416SOL     OW36709   2.741   2.482   5.139  0.4656 -0.1075  0.1336
 8416SOL    HW136710   2.756   2.527   5.223  0.0937  0.8023 -0.2889
 8416SOL    HW236711   2.783   2.397   5.154  2.6022  0.9904  0.4489
 8417SOL     OW36712   1.719   0.449   0.509  0.1244 -0.2051 -0.2137
 8417SOL    HW136713   1.693   0.539   0.489 -1.4782 -0.7111 -0.4334
 8417SOL    HW236714   1.715   0.405   0.424  1.1601 -1.4958  0.4012
 8418SOL     OW36715   3.520   3.387   6.993  0.2570  0.3346  1.1652
 8418SOL    HW136716   3.482   3.466   6.957 -0.0614 -0.1758  0.3804
 8418SOL    HW236717   3.457   3.320   6.964 -0.4803  0.8814  1.5088
 8419SOL     OW36718   4.258   2.923   0.331 -0.4391 -1.0414  0.1693
 8419SOL    HW136719   4.170   2.950   0.305  0.3020  0.0889 -1.1780
 8419SOL    HW236720   4.232   2.836   0.362  1.2296 -1.5175  0.2377
 8420SOL     OW36721   3.538   4.370  15.172  0.2710  0.4642  0.3365
 8420SOL    HW136722   3.549   4.465  15.178  1.6689  0.2185  1.6688
 8420SOL    HW236723   3.490   4.344  15.094  1.0555 -1.5073  0.5160
 8421SOL     OW36724   0.655   1.285  12.508  0.3489  0.0849 -0.3708
 8421SOL    HW136725   0.707   1.238  12.442 -1.5359  0.3655 -2.0666
 8421SOL    HW236726   0.654   1.224  12.581  0.5378  1.3966  0.7206
 8422SOL     OW36727   2.303   4.496  13.399  0.5494 -0.6538 -0.1699
 8422SOL    HW136728   2.295   4.528  13.309  1.4798  2.3184  0.7975
 8422SOL    HW236729   2.240   4.424  13.402 -0.4742  0.3173  1.6994
 8423SOL     OW36730   2.535   1.508  12.045 -0.8284 -0.2524 -0.5643
 8423SOL    HW136731   2.475   1.434  12.041 -1.9498  0.4946  2.3919
 8423SOL    HW236732   2.563   1.534  11.957  0.6600  0.1627  0.0351
 8424SOL     OW36733   4.427   0.204   7.054 -0.4499 -0.8049  0.5834
 8424SOL    HW136734   4.425   0.214   7.149 -0.6340 -0.0491  0.5037
 8424SOL    HW236735   4.505   0.149   7.048  0.3650  0.4403 -0.4073
 8425SOL     OW36736   1.246   2.829  14.639  0.4575 -0.7307 -0.2368
 8425SOL    HW136737   1.225   2.819  14.731  0.1874  2.4484  0.0607
 8425SOL    HW236738   1.342   2.830  14.638  0.4689  0.1596  1.7362
 8426SOL     OW36739   1.721   4.414   3.991  0.2088  0.1855 -0.1181
 8426SOL    HW136740   1.695   4.366   3.913  1.8197 -0.6169 -0.1516
 8426SOL    HW236741   1.689   4.503   3.975  1.2600  0.1364 -2.3704
 8427SOL     OW36742   2.634   0.451   8.417  0.0170  0.5538 -0.2733
 8427SOL    HW136743   2.719   0.417   8.390 -0.1930  0.6492 -1.0712
 8427SOL    HW236744   2.627   0.416   8.506  2.7119 -0.0469 -0.2993
 8428SOL     OW36745   0.349   1.089  13.107  0.1842  0.1725 -0.6480
 8428SOL    HW136746   0.330   1.181  13.121  0.7391  0.7424 -3.5388
 8428SOL    HW236747   0.296   1.063  13.182 -1.3810 -0.2180 -1.8832
 8429SOL     OW36748   3.018   3.801   8.981 -0.2084 -0.4989  0.1251
 8429SOL    HW136749   3.007   3.871   9.045 -0.4173 -1.8944  1.6309
 8429SOL    HW236750   3.081   3.847   8.926 -0.5222 -0.3534 -0.1087
 8430SOL     OW36751   1.752   4.613   7.286 -0.3277 -0.5097 -0.0621
 8430SOL    HW136752   1.774   4.609   7.193 -1.6241 -0.2290 -0.3872
 8430SOL    HW236753   1.819   4.670   7.322 -1.0531 -1.5011  2.8582
 8431SOL     OW36754   4.678   1.979  15.532  0.6729 -0.0681  0.7494
 8431SOL    HW136755   4.660   2.073  15.534  0.7640  0.0002 -1.8789
 8431SOL    HW236756   0.004   1.968  15.613  0.2371  4.4789  1.6333
 8432SOL     OW36757   0.024   0.294   6.945 -0.3237 -0.1924 -0.1554
 8432SOL    HW136758   4.690   0.365   6.917  1.4403  0.6811 -1.5941
 8432SOL    HW236759   0.007   0.292   7.039  0.8112 -0.8644  0.0321
 8433SOL     OW36760   4.533   3.760  16.975 -0.5763  0.0245  0.1667
 8433SOL    HW136761   4.588   3.699  16.927 -2.3401 -1.4551  0.0141
 8433SOL    HW236762   4.595   3.810  17.028  0.5457 -1.6749  0.4698
 8434SOL     OW36763   1.787   2.429   4.652  0.5784  0.0157 -0.2393
 8434SOL    HW136764   1.746   2.356   4.605 -2.4394  1.0020  0.8525
 8434SOL    HW236765   1.852   2.447   4.584 -2.2170  1.2919 -2.5994
 8435SOL     OW36766   4.552   1.888   2.319  0.3383 -0.2229 -0.6403
 8435SOL    HW136767   4.502   1.956   2.274 -0.1486  0.2119  0.5503
 8435SOL    HW236768   4.596   1.946   2.381  3.0763  1.1696 -3.8812
 8436SOL     OW36769   3.745   0.284   7.603 -0.0425  0.4442  0.2379
 8436SOL    HW136770   3.833   0.322   7.593  0.2925 -0.3424  0.1704
 8436SOL    HW236771   3.687   0.352   7.637  3.4328  2.9323  1.2260
 8437SOL     OW36772   3.989   2.702   7.579 -0.1933  0.1771  0.1240
 8437SOL    HW136773   4.009   2.793   7.601  1.7994 -0.7914  2.3310
 8437SOL    HW236774   4.056   2.654   7.627  0.3563 -2.0708 -2.8246
 8438SOL     OW36775   4.644   1.231  13.440  0.1888  0.3265  0.6436
 8438SOL    HW136776   4.630   1.186  13.524 -1.5619 -2.3956 -1.1041
 8438SOL    HW236777   4.563   1.277  13.417  0.1270 -0.6106 -1.0238
 8439SOL     OW36778   2.050   3.605   1.366  0.0116 -0.0946  0.2918
 8439SOL    HW136779   2.027   3.513   1.350 -0.5409  0.5311 -2.3756
 8439SOL    HW236780   2.106   3.601   1.444  1.4281  0.8628 -0.6705
 8440SOL     OW36781   4.195   0.154   3.039 -0.0591  0.4576 -0.3756
 8440SOL    HW136782   4.206   0.245   3.012  4.4730  0.0568  0.1320
 8440SOL    HW236783   4.287   0.129   3.044  0.3176  2.2362  1.4342
 8441SOL     OW36784   0.330   1.924   6.404 -1.0584  0.6902  0.7257
 8441SOL    HW136785   0.362   1.918   6.494 -2.8158 -0.7627  1.2719
 8441SOL    HW236786   0.392   1.979   6.356  2.3791 -2.1878  1.8422
 8442SOL     OW36787   0.325   2.460   5.752  0.5775 -0.0485 -0.2124
 8442SOL    HW136788   0.236   2.437   5.725 -0.1701 -2.8460  4.7385
 8442SOL    HW236789   0.371   2.381   5.722  0.3729  0.2317 -1.2723
 8443SOL     OW36790   0.900   0.992   6.906 -0.2566 -0.0145 -0.4343
 8443SOL    HW136791   0.900   1.035   6.992  0.0344 -1.3541  0.2349
 8443SOL    HW236792   0.920   0.900   6.925  0.9955 -0.0614 -1.9793
 8444SOL     OW36793   3.985   3.347   3.403 -0.6500 -0.0945  0.2654
 8444SOL    HW136794   3.932   3.334   3.324  0.8059 -0.3617 -0.6643
 8444SOL    HW236795   4.013   3.435   3.379 -1.3940  0.6277  2.0724
 8445SOL     OW36796   3.851   1.478  14.026 -0.2658  0.0989 -0.2524
 8445SOL    HW136797   3.930   1.525  13.998 -1.1003  1.9239  0.4610
 8445SOL    HW236798   3.886   1.400  13.983  0.5871  0.6880 -0.6363
 8446SOL     OW36799   1.472   0.925  11.834 -0.1348 -0.5389 -0.7332
 8446SOL    HW136800   1.439   1.000  11.884 -2.4426 -1.1863 -1.2926
 8446SOL    HW236801   1.494   0.973  11.754 -0.3990 -2.0500 -1.7101
 8447SOL     OW36802   2.457   3.912  11.489  0.2879  0.3392  0.1855
 8447SOL    HW136803   2.427   3.878  11.405 -2.7588  0.0848  1.3616
 8447SOL    HW236804   2.541   3.869  11.502  0.0568 -0.4424 -0.8812
 8448SOL     OW36805   4.146   4.218   3.176 -0.0706  0.2702 -0.4438
 8448SOL    HW136806   4.085   4.270   3.123 -1.1757  1.2959  1.8518
 8448SOL    HW236807   4.080   4.155   3.202 -0.6952  2.3995  3.1568
 8449SOL     OW36808   0.189   2.609  16.011 -0.2532  0.0925 -0.1265
 8449SOL    HW136809   0.250   2.545  15.975 -0.9042  0.4118 -1.8233
 8449SOL    HW236810   0.145   2.556  16.077  0.7161 -0.3970  0.1190
 8450SOL     OW36811   3.817   0.644   1.960  0.0854 -0.2972 -0.3027
 8450SOL    HW136812   3.836   0.712   1.896 -1.2113 -0.4703 -0.8609
 8450SOL    HW236813   3.897   0.592   1.948  0.0639  0.1066 -2.0883
 8451SOL     OW36814   3.781   4.395  13.499 -0.1862  0.3525  0.1075
 8451SOL    HW136815   3.865   4.402  13.454  1.0766 -3.6571  1.8157
 8451SOL    HW236816   3.729   4.428  13.426  0.7294 -2.7428 -1.9308
 8452SOL     OW36817   3.725   0.274   7.071  0.2399 -0.0595 -0.7802
 8452SOL    HW136818   3.800   0.315   7.029  0.2481 -0.7683 -1.4501
 8452SOL    HW236819   3.754   0.262   7.162  2.3362 -1.0573 -1.6019
 8453SOL     OW36820   0.166   2.796   3.846  0.3002  0.1266  0.1572
 8453SOL    HW136821   0.106   2.832   3.781  0.0158 -0.6707 -0.0279
 8453SOL    HW236822   0.199   2.714   3.808 -0.9928  0.9227 -2.6543
 8454SOL     OW36823   3.454   3.664   9.671 -0.1148 -0.4842 -0.4916
 8454SOL    HW136824   3.413   3.748   9.689 -0.9560 -1.0463  0.2314
 8454SOL    HW236825   3.406   3.636   9.593 -0.3466 -3.6362  0.7526
 8455SOL     OW36826   4.324   1.055   3.126 -0.5095  0.1071  0.7078
 8455SOL    HW136827   4.311   1.140   3.168  2.6743  1.7909 -1.6729
 8455SOL    HW236828   4.398   1.026   3.178 -0.2444  1.3801  1.0440
 8456SOL     OW36829   4.262   1.597  15.772 -0.3184  0.8561  0.1053
 8456SOL    HW136830   4.208   1.519  15.779  0.2132  0.5792  1.1579
 8456SOL    HW236831   4.306   1.572  15.691 -0.2578  1.4407 -0.0469
 8457SOL     OW36832   4.523   0.656   8.120 -0.1028 -1.0994  0.9564
 8457SOL    HW136833   4.545   0.639   8.212  1.4175 -0.0695  0.7743
 8457SOL    HW236834   4.466   0.581   8.102  0.4454 -1.5708  1.2027
 8458SOL     OW36835   1.496   3.666   8.465 -0.8764 -0.2545 -0.2908
 8458SOL    HW136836   1.582   3.624   8.463 -1.9634 -2.4676  0.1320
 8458SOL    HW236837   1.516   3.746   8.415  0.7446 -0.5223 -0.0648
 8459SOL     OW36838   1.543   1.831   7.491  0.3330 -0.2319  0.3973
 8459SOL    HW136839   1.583   1.782   7.419 -0.9111  0.3432 -0.6682
 8459SOL    HW236840   1.465   1.862   7.446  0.7186  0.5882  0.2910
 8460SOL     OW36841   3.620   0.357   0.169 -0.2439  0.6888 -0.5706
 8460SOL    HW136842   3.603   0.433   0.224 -0.6216 -1.4352  2.2698
 8460SOL    HW236843   3.544   0.307   0.200  2.3699 -1.8614  1.8007
 8461SOL     OW36844   2.963   0.291   1.789  0.1244 -0.2703 -0.1234
 8461SOL    HW136845   2.921   0.359   1.841 -0.2925  0.7937 -1.8667
 8461SOL    HW236846   2.894   0.224   1.795 -0.3096  0.0599 -1.2943
 8462SOL     OW36847   4.312   3.877   0.478 -0.3894 -0.6761 -0.3258
 8462SOL    HW136848   4.344   3.819   0.547 -0.7888 -1.0561 -0.4616
 8462SOL    HW236849   4.314   3.819   0.402 -0.0662 -2.4522  1.0361
 8463SOL     OW36850   0.585   3.338   4.670  0.0204 -0.1776  0.1559
 8463SOL    HW136851   0.627   3.306   4.591 -0.0131 -0.8590  0.4087
 8463SOL    HW236852   0.593   3.257   4.720  0.3916 -0.6120 -0.6179
 8464SOL     OW36853   3.396   0.135   7.365  0.4860  0.4179  0.4733
 8464SOL    HW136854   3.302   0.124   7.352  0.4947  1.0101 -0.0828
 8464SOL    HW236855   3.437   0.140   7.279 -0.7926 -0.8188 -0.2209
 8465SOL     OW36856   2.080   2.866   6.158  0.6477 -0.1417 -0.0945
 8465SOL    HW136857   2.107   2.902   6.243  1.0881  0.1217 -0.3469
 8465SOL    HW236858   2.016   2.805   6.194 -0.6710 -0.3326 -2.7490
 8466SOL     OW36859   0.410   1.673   4.966  0.1319 -0.3851 -0.8286
 8466SOL    HW136860   0.381   1.761   4.990 -1.8732 -0.7973 -1.7102
 8466SOL    HW236861   0.403   1.627   5.049  3.1027 -0.1094 -0.4085
 8467SOL     OW36862   4.646   3.072   1.552 -0.1648  0.5729 -0.5164
 8467SOL    HW136863   4.650   3.059   1.647 -0.6045 -2.3298 -0.8862
 8467SOL    HW236864   4.707   3.011   1.512  0.8331  2.4288 -1.8474
 8468SOL     OW36865   0.129   1.466  15.514 -0.6529  0.0890  0.3809
 8468SOL    HW136866   0.125   1.442  15.607 -1.3704 -1.2848  0.0005
 8468SOL    HW236867   0.059   1.531  15.507  1.4593  2.5393  2.5015
 8469SOL     OW36868   1.880   2.480   8.817 -0.1267 -0.1107 -0.4135
 8469SOL    HW136869   1.810   2.424   8.850 -0.5205 -0.0575 -1.1565
 8469SOL    HW236870   1.833   2.561   8.798  0.9422  1.0372  1.8584
 8470SOL     OW36871   3.594   3.842   5.607 -0.1020  0.2358 -0.2978
 8470SOL    HW136872   3.600   3.769   5.546  2.0025 -0.7616  1.0983
 8470SOL    HW236873   3.581   3.911   5.543 -1.2101  0.3084  0.0004
 8471SOL     OW36874   3.019   1.223   8.679  0.8410 -0.0663  0.1946
 8471SOL    HW136875   2.990   1.313   8.683  0.3962 -0.2275  0.5581
 8471SOL    HW236876   3.103   1.230   8.724  1.8128 -0.6142 -1.5006
 8472SOL     OW36877   4.184   2.780   3.650 -0.2391  0.4256  0.2546
 8472SOL    HW136878   4.270   2.739   3.657  0.3356  1.2499 -2.3037
 8472SOL    HW236879   4.178   2.793   3.556 -0.5437 -3.7511 -0.3074
 8473SOL     OW36880   3.819   3.285   7.611  0.0532  0.0422  0.1217
 8473SOL    HW136881   3.885   3.282   7.680 -1.9771  2.6486  2.1649
 8473SOL    HW236882   3.766   3.207   7.631 -0.0779  0.6029  1.9190
 8474SOL     OW36883   4.275   0.525   5.094 -0.4533  0.3200  0.4840
 8474SOL    HW136884   4.264   0.620   5.106 -0.1598  0.0354  2.9673
 8474SOL    HW236885   4.259   0.534   5.000  0.4562  0.9398  0.3914
 8475SOL     OW36886   2.854   3.955  17.352 -0.3950  0.1379  0.2629
 8475SOL    HW136887   2.765   3.985  17.372 -0.0841  0.6598  0.8784
 8475SOL    HW236888   2.837   3.887  17.287 -2.2203 -0.8313  1.7416
 8476SOL     OW36889   2.906   2.341   7.582 -0.2960 -0.4364 -0.5739
 8476SOL    HW136890   2.988   2.388   7.565  0.0034 -0.8490 -0.2433
 8476SOL    HW236891   2.846   2.416   7.576  0.0810 -0.0314  0.7591
 8477SOL     OW36892   3.074   1.704   7.735  0.8850  0.2220 -0.2392
 8477SOL    HW136893   3.074   1.739   7.646  0.8587  1.0722  0.0907
 8477SOL    HW236894   3.040   1.781   7.780 -0.5748 -0.6402  0.1052
 8478SOL     OW36895   2.530   4.110  10.581  0.1626  0.9060  0.0280
 8478SOL    HW136896   2.443   4.134  10.548 -0.8342 -2.2640  0.3968
 8478SOL    HW236897   2.559   4.038  10.526 -1.8172 -0.7719  1.1787
 8479SOL     OW36898   4.418   2.306   5.165 -0.1018  0.1627 -0.2726
 8479SOL    HW136899   4.346   2.265   5.117  0.6110 -0.5273 -0.7536
 8479SOL    HW236900   4.433   2.394   5.130 -1.1892 -0.2580 -1.8163
 8480SOL     OW36901   4.535   2.450   2.565  0.4170  0.0685  0.2981
 8480SOL    HW136902   4.511   2.358   2.553 -0.0507  0.2795 -0.3452
 8480SOL    HW236903   4.581   2.444   2.649 -0.4190  0.7414  0.7981
 8481SOL     OW36904   1.195   1.569   5.897  0.3483  0.8726  0.0479
 8481SOL    HW136905   1.267   1.610   5.848 -1.0975 -0.1621 -2.9718
 8481SOL    HW236906   1.213   1.607   5.983 -0.0679 -1.4635  1.1654
 8482SOL     OW36907   3.754   0.643  12.793 -0.0012  0.5381 -0.2419
 8482SOL    HW136908   3.818   0.710  12.768  1.0466 -0.1902  0.4946
 8482SOL    HW236909   3.672   0.680  12.759 -1.0786  0.6289  2.4793
 8483SOL     OW36910   2.675   0.530   2.472  0.2160 -0.0094 -0.6049
 8483SOL    HW136911   2.750   0.490   2.428  0.1784 -1.4080  0.5961
 8483SOL    HW236912   2.676   0.475   2.550 -1.7120 -0.2543 -0.7371
 8484SOL     OW36913   3.632   1.433   8.572 -0.1758  0.1782  0.0519
 8484SOL    HW136914   3.723   1.463   8.580  0.0889 -0.1128 -1.9037
 8484SOL    HW236915   3.594   1.428   8.660 -1.2614 -1.5121 -0.5108
 8485SOL     OW36916   4.604   2.082  15.824  0.0206  0.4933 -0.4108
 8485SOL    HW136917   4.687   2.109  15.783  0.5887  0.0750  0.4623
 8485SOL    HW236918   4.560   2.165  15.842 -0.9122 -0.1749  0.3615
 8486SOL     OW36919   2.368   4.149   7.051  0.1531 -0.5973  0.2352
 8486SOL    HW136920   2.403   4.061   7.067 -0.3710 -1.0700 -1.1377
 8486SOL    HW236921   2.341   4.175   7.139  0.7477  0.9659 -0.0546
 8487SOL     OW36922   3.214   3.413   3.175  0.6790  0.6330  0.2106
 8487SOL    HW136923   3.306   3.389   3.189  0.1540 -1.1567  0.6354
 8487SOL    HW236924   3.233   3.506   3.161 -0.6313  0.6948 -1.1138
 8488SOL     OW36925   2.056   4.393   7.074 -0.7931 -0.1975 -0.0937
 8488SOL    HW136926   2.043   4.308   7.114 -0.9376 -0.0383  0.1938
 8488SOL    HW236927   2.113   4.380   6.998 -0.4703  0.7483 -0.0227
 8489SOL     OW36928   2.171   1.064  17.532  0.1578 -0.2465 -0.2535
 8489SOL    HW136929   2.233   1.039  17.462  0.5807  0.0258  0.0268
 8489SOL    HW236930   2.116   0.988  17.510  0.8844 -0.7544 -0.3238
 8490SOL     OW36931   1.244   0.936   8.948 -0.3832 -1.1244  0.1621
 8490SOL    HW136932   1.273   0.997   9.015 -0.5587 -0.5679 -0.2678
 8490SOL    HW236933   1.226   0.991   8.872 -0.5776 -0.7658  0.4701
 8491SOL     OW36934   1.365   3.607   5.401  0.1961 -0.1954  0.4685
 8491SOL    HW136935   1.431   3.542   5.378 -0.7888 -0.4460 -1.6699
 8491SOL    HW236936   1.414   3.688   5.413  1.5584 -1.2764  2.1384
 8492SOL     OW36937   2.804   4.529   3.659 -0.7332  0.4936  0.4174
 8492SOL    HW136938   2.869   4.513   3.727  1.2480  2.5000 -1.0396
 8492SOL    HW236939   2.728   4.484   3.696 -2.4314  1.3263 -2.0491
 8493SOL     OW36940   4.026   3.644  13.553  0.1406  0.0848  0.2571
 8493SOL    HW136941   3.972   3.612  13.626 -0.9557 -2.8747 -1.8670
 8493SOL    HW236942   4.097   3.580  13.552  0.1216  0.0917 -1.6351
 8494SOL     OW36943   0.687   3.734  12.533 -0.7223 -0.3672 -0.0177
 8494SOL    HW136944   0.605   3.745  12.485 -0.8859 -2.0816 -0.1321
 8494SOL    HW236945   0.652   3.692  12.611 -0.1634  2.8234  1.9367
 8495SOL     OW36946   3.703   4.171   0.368 -0.2594 -0.5930  1.2115
 8495SOL    HW136947   3.635   4.119   0.410 -2.2722 -0.4742 -1.8825
 8495SOL    HW236948   3.761   4.184   0.443  0.2742  0.6514  0.5905
 8496SOL     OW36949   2.472   3.720   6.728  0.5151  0.2086 -1.0974
 8496SOL    HW136950   2.477   3.633   6.688 -0.2842  0.7878 -2.4486
 8496SOL    HW236951   2.476   3.777   6.651  1.4914 -1.7523 -2.4988
 8497SOL     OW36952   1.801   0.668   4.178  0.9687 -0.0259 -0.3423
 8497SOL    HW136953   1.758   0.711   4.252  1.4526 -2.0157  1.0820
 8497SOL    HW236954   1.768   0.578   4.187  2.7891 -0.5822  0.7301
 8498SOL     OW36955   2.611   2.978   3.158  0.0317  0.2043 -0.4930
 8498SOL    HW136956   2.699   2.981   3.194  0.0609 -1.7737 -0.3752
 8498SOL    HW236957   2.572   2.906   3.207  0.6833  0.2301  0.0525
 8499SOL     OW36958   1.831   4.458   8.007  0.2444  0.3012 -0.3216
 8499SOL    HW136959   1.751   4.467   8.058 -0.3025  0.1415 -1.1437
 8499SOL    HW236960   1.898   4.502   8.060  1.7400 -2.3890  0.0242
 8500SOL     OW36961   4.100   3.548   7.110  0.8814 -0.1721 -0.5142
 8500SOL    HW136962   4.086   3.455   7.131 -2.1465  0.2104 -0.7851
 8500SOL    HW236963   4.195   3.551   7.123  0.3439  3.3594  2.5039
 8501SOL     OW36964   3.129   0.934   8.247 -0.0939 -0.5966  0.1277
 8501SOL    HW136965   3.071   0.908   8.175  2.0257  2.3553 -2.6194
 8501SOL    HW236966   3.067   0.934   8.320  0.2013 -2.4083  0.3723
 8502SOL     OW36967   2.247   0.469   4.524 -0.0952  0.0081  0.0861
 8502SOL    HW136968   2.199   0.389   4.502 -1.8969  0.8860  0.8362
 8502SOL    HW236969   2.192   0.531   4.477 -1.0779 -0.5887  0.4521
 8503SOL     OW36970   4.184   1.106   9.195  0.0636 -0.1254 -0.7902
 8503SOL    HW136971   4.097   1.122   9.159  0.4946 -0.8942 -2.1739
 8503SOL    HW236972   4.162   1.033   9.254 -0.1458  0.6969  0.1491
 8504SOL     OW36973   4.208   3.313  10.777  0.2670  0.1934  0.6993
 8504SOL    HW136974   4.155   3.357  10.712  0.3282 -0.8229 -0.0364
 8504SOL    HW236975   4.289   3.300  10.728 -0.0976 -0.7962  0.3504
 8505SOL     OW36976   1.652   2.140   8.897  0.2019  0.3952  0.2220
 8505SOL    HW136977   1.668   2.230   8.924 -1.2331  0.7043  0.0437
 8505SOL    HW236978   1.569   2.117   8.940 -1.9102  1.7056 -3.1152
 8506SOL     OW36979   1.518   1.988   5.703 -0.5906  0.3155  0.1809
 8506SOL    HW136980   1.593   2.023   5.751  0.2424  0.1195 -0.9801
 8506SOL    HW236981   1.500   2.042   5.626  0.8259 -0.5123 -0.7257
 8507SOL     OW36982   4.231   3.288   5.260 -0.2604 -0.0218 -0.0878
 8507SOL    HW136983   4.256   3.369   5.216 -1.5077 -0.4978 -1.6612
 8507SOL    HW236984   4.136   3.290   5.249 -0.4405 -1.2686  1.2894
 8508SOL     OW36985   0.952   0.063   2.907  0.3147  0.1685 -0.1931
 8508SOL    HW136986   0.996   4.704   2.890 -1.4308 -0.2728 -2.5620
 8508SOL    HW236987   0.875   0.038   2.959  0.0926 -1.3132 -1.2362
 8509SOL     OW36988   3.208   0.996  17.039  0.2067 -0.1036  0.1782
 8509SOL    HW136989   3.122   0.985  17.079  0.7782  1.0719  1.7115
 8509SOL    HW236990   3.235   0.906  17.020  0.8862  0.2087 -0.3640
 8510SOL     OW36991   4.216   3.915  15.112  0.1742  0.9581  0.2546
 8510SOL    HW136992   4.236   3.980  15.179 -2.3236  0.9192  1.0355
 8510SOL    HW236993   4.296   3.863  15.120  0.0359  0.1916 -3.3942
 8511SOL     OW36994   0.726   2.694   7.663  0.0727 -0.0279 -0.0639
 8511SOL    HW136995   0.789   2.682   7.735 -0.3443  0.2532  0.3486
 8511SOL    HW236996   0.743   2.781   7.628  0.0387  1.6141  3.9767
 8512SOL     OW36997   1.307   2.022   1.037  0.2292 -0.0828 -0.5383
 8512SOL    HW136998   1.318   2.064   1.122  1.3704  0.4828 -0.9551
 8512SOL    HW236999   1.250   2.086   0.993  0.8764  0.1838 -0.9957
 8513SOL     OW37000   1.409   1.370   6.069  0.7160 -0.3687 -0.1615
 8513SOL    HW137001   1.455   1.418   6.000 -2.0121  3.0825  0.4134
 8513SOL    HW237002   1.341   1.329   6.016 -1.7089  2.3910  0.8102
 8514SOL     OW37003   4.151   0.291   5.221 -0.5500  0.6711  0.1746
 8514SOL    HW137004   4.111   0.361   5.169 -0.2005 -1.1046 -2.4867
 8514SOL    HW237005   4.244   0.313   5.209  0.2135 -3.7392 -2.1194
 8515SOL     OW37006   0.169   1.330   1.179 -0.6018  0.5852  0.1019
 8515SOL    HW137007   0.109   1.330   1.104 -0.8717  0.4230  0.3198
 8515SOL    HW237008   0.252   1.330   1.132  0.1555 -2.4311  1.4273
 8516SOL     OW37009   0.700   3.796   7.234  0.3606  0.5428 -0.5651
 8516SOL    HW137010   0.746   3.850   7.170  0.8767  0.5075 -0.2300
 8516SOL    HW237011   0.676   3.717   7.187 -1.0951  0.7983 -0.2328
 8517SOL     OW37012   0.487   0.401   8.057 -0.1661 -0.2777 -0.2600
 8517SOL    HW137013   0.566   0.374   8.104  0.2245 -0.1505 -0.8534
 8517SOL    HW237014   0.433   0.427   8.132 -0.5721 -0.6823 -0.4118
 8518SOL     OW37015   0.336   1.580  16.113  0.0921  0.2027  0.1339
 8518SOL    HW137016   0.299   1.500  16.150 -0.5302  0.4350  0.0118
 8518SOL    HW237017   0.398   1.602  16.182  1.6282 -1.4794 -0.7099
 8519SOL     OW37018   0.764   0.011   7.056  0.6173  0.4421  0.6936
 8519SOL    HW137019   0.736   4.667   6.994  0.1444 -1.4608  3.0175
 8519SOL    HW237020   0.746   0.088   7.001  0.0147  1.0411  1.7148
 8520SOL     OW37021   3.171   3.280   9.512  0.0138  0.8965  0.0155
 8520SOL    HW137022   3.125   3.331   9.579  0.1717  2.5180 -1.1238
 8520SOL    HW237023   3.199   3.209   9.569 -2.5231  0.9414  1.3386
 8521SOL     OW37024   0.434   2.826   3.535  0.4862 -0.2473  0.3294
 8521SOL    HW137025   0.519   2.817   3.493 -1.2443 -2.6988 -2.6483
 8521SOL    HW237026   0.384   2.777   3.469  0.0944  2.4071 -1.3336
 8522SOL     OW37027   0.361   3.708   5.917  0.5234 -0.6558 -0.2681
 8522SOL    HW137028   0.311   3.783   5.948 -0.4001 -2.0278  1.6172
 8522SOL    HW237029   0.443   3.755   5.899  0.8417 -1.0709  0.0862
 8523SOL     OW37030   4.600   2.178  17.588  0.6895  0.2465  0.6809
 8523SOL    HW137031   4.525   2.202  17.641  1.4480  0.7975  1.5035
 8523SOL    HW237032   4.621   2.096  17.632  0.1557  0.0233  0.5224
 8524SOL     OW37033   2.391   3.368   5.812 -0.9109  0.0726 -0.4405
 8524SOL    HW137034   2.451   3.436   5.841  3.2458 -2.8658 -2.0225
 8524SOL    HW237035   2.302   3.402   5.823 -1.1993 -0.2272 -1.8882
 8525SOL     OW37036   2.674   3.116  16.216 -0.4162  0.0613  0.4329
 8525SOL    HW137037   2.741   3.075  16.161  0.1702  0.9937  0.4517
 8525SOL    HW237038   2.722   3.160  16.286  0.9054 -0.8037  0.0504
 8526SOL     OW37039   4.321   0.529  12.737  0.3366  0.1120 -0.4934
 8526SOL    HW137040   4.379   0.523  12.813  0.4919 -3.2739 -0.8493
 8526SOL    HW237041   4.246   0.568  12.782  0.4194  0.4599 -0.6591
 8527SOL     OW37042   0.110   2.741   8.585  0.0554  0.3497 -0.6896
 8527SOL    HW137043   0.116   2.797   8.662 -0.3869  1.6424 -1.6121
 8527SOL    HW237044   0.094   2.659   8.632 -2.5339  0.4663 -1.3724
 8528SOL     OW37045   3.377   1.988   1.757  0.3430 -0.5129 -0.1526
 8528SOL    HW137046   3.334   1.913   1.716  1.4512  0.3586 -2.9266
 8528SOL    HW237047   3.462   1.954   1.782  0.5206 -0.1120 -0.2060
 8529SOL     OW37048   4.063   2.658   5.583  0.0609  0.8067  0.0742
 8529SOL    HW137049   4.036   2.708   5.506 -0.7569 -0.3438 -0.3836
 8529SOL    HW237050   4.016   2.694   5.659  1.4700  3.1185 -0.1600
 8530SOL     OW37051   0.139   2.325   5.599  0.4979 -0.1401 -0.4179
 8530SOL    HW137052   0.193   2.305   5.522 -0.3484  0.6820 -1.2438
 8530SOL    HW237053   0.109   2.238   5.624  0.9824  0.4277  2.0676
 8531SOL     OW37054   3.963   0.111  15.355 -0.4483  0.2205  1.0125
 8531SOL    HW137055   4.050   0.109  15.315 -1.2053 -0.6405 -0.6014
 8531SOL    HW237056   3.968   0.031  15.408  2.2714 -0.1432  0.2277
 8532SOL     OW37057   3.511   0.064  14.149 -0.1581 -0.2396 -0.0893
 8532SOL    HW137058   3.521   4.724  14.219  1.1492 -0.1479 -0.1876
 8532SOL    HW237059   3.554   0.136  14.195 -2.7274 -0.6932  2.9897
 8533SOL     OW37060   1.973   4.051   5.100 -0.1033 -0.1821  0.1511
 8533SOL    HW137061   1.945   4.123   5.043  1.3342  0.9988  0.9379
 8533SOL    HW237062   2.048   4.093   5.142  1.5216 -1.8330 -1.1150
 8534SOL     OW37063   3.467   0.403   4.994 -0.1852 -0.0894  0.7835
 8534SOL    HW137064   3.375   0.424   5.014 -0.9264 -1.4144 -1.1753
 8534SOL    HW237065   3.461   0.399   4.898 -2.4865 -1.0036  0.9427
 8535SOL     OW37066   4.313   1.367   1.786  0.3511  0.6703  0.2959
 8535SOL    HW137067   4.311   1.354   1.881  0.4059  1.2674  0.3825
 8535SOL    HW237068   4.356   1.453   1.778  0.0559  0.9269  1.3479
 8536SOL     OW37069   0.441   1.488   6.335 -0.2142 -0.1949  0.0704
 8536SOL    HW137070   0.477   1.454   6.417  0.8446  0.4986 -0.0946
 8536SOL    HW237071   0.445   1.412   6.278 -1.2080 -0.4271  0.3164
 8537SOL     OW37072   3.552   1.454   8.845  0.6711 -0.0164 -0.0821
 8537SOL    HW137073   3.583   1.539   8.876  1.9311  0.2805 -2.1538
 8537SOL    HW237074   3.467   1.487   8.818 -0.6955 -0.5933  3.5740
 8538SOL     OW37075   1.877   4.036   1.946  0.2755  0.0275  0.1888
 8538SOL    HW137076   1.893   4.113   1.891  2.1079 -0.7247 -0.3330
 8538SOL    HW237077   1.844   3.973   1.882  1.1703 -0.9156  0.6586
 8539SOL     OW37078   4.038   2.893  14.994  0.0266  0.0797  0.4443
 8539SOL    HW137079   4.078   2.957  14.935  1.7225 -1.1308  0.2834
 8539SOL    HW237080   4.094   2.816  14.979  2.9459  2.3844 -0.5156
 8540SOL     OW37081   3.484   1.140   2.276  0.2135  0.2321  0.3368
 8540SOL    HW137082   3.553   1.074   2.278 -0.4419 -0.4320  1.0681
 8540SOL    HW237083   3.541   1.217   2.277 -1.0524  1.1921 -0.7942
 8541SOL     OW37084   3.137   1.161  16.439  0.1506  0.0013  0.0000
 8541SOL    HW137085   3.192   1.100  16.489 -0.3176  0.2444  0.7992
 8541SOL    HW237086   3.179   1.245  16.455 -1.7823  0.8379  0.6490
 8542SOL     OW37087   1.776   3.016   8.695  0.0781  0.0586 -0.0504
 8542SOL    HW137088   1.780   3.105   8.662 -0.2755 -0.1110 -0.5561
 8542SOL    HW237089   1.688   2.982   8.708 -0.0859  1.7120  3.1879
 8543SOL     OW37090   0.359   0.884   7.002  0.1148  0.6710 -0.0016
 8543SOL    HW137091   0.425   0.915   7.064 -0.5446 -1.8000  1.9574
 8543SOL    HW237092   0.310   0.821   7.055 -2.1560  3.1150  0.8118
 8544SOL     OW37093   0.398   0.684   2.751 -0.4258  0.0416  0.3075
 8544SOL    HW137094   0.358   0.754   2.803  0.5492  3.1144 -3.0087
 8544SOL    HW237095   0.456   0.643   2.815  0.0430  1.5240  0.8307
 8545SOL     OW37096   2.270   3.753   7.752 -0.2288 -0.3375  0.0104
 8545SOL    HW137097   2.294   3.821   7.690 -2.1984  1.3698  1.0776
 8545SOL    HW237098   2.330   3.765   7.826 -1.9475 -1.0092  1.5388
 8546SOL     OW37099   2.012   1.399   7.302 -0.4306 -0.0916  0.0271
 8546SOL    HW137100   2.071   1.399   7.377  0.6550 -0.0233 -0.8308
 8546SOL    HW237101   1.929   1.372   7.342 -0.3928 -0.4962 -0.1737
 8547SOL     OW37102   2.775   1.688   8.729 -0.2221 -0.0595 -0.7735
 8547SOL    HW137103   2.843   1.747   8.764 -1.9943  0.1089  2.3909
 8547SOL    HW237104   2.702   1.703   8.789  0.4308 -4.1121  1.0680
 8548SOL     OW37105   0.386   2.327   8.373 -0.4481  0.0357 -0.0792
 8548SOL    HW137106   0.313   2.378   8.338 -0.4544 -0.2650 -0.5103
 8548SOL    HW237107   0.459   2.355   8.318  0.0600  0.1010  0.6304
 8549SOL     OW37108   2.694   2.875   2.651 -1.1037 -0.3379 -0.4573
 8549SOL    HW137109   2.753   2.847   2.581 -0.8008 -0.4713 -0.1466
 8549SOL    HW237110   2.733   2.958   2.677 -1.0192 -0.7323  0.6646
 8550SOL     OW37111   4.536   3.805   1.829  0.3512  0.2848  0.6785
 8550SOL    HW137112   4.469   3.753   1.785  0.6350  2.3025 -2.1195
 8550SOL    HW237113   4.583   3.835   1.751 -1.0003  0.1674 -0.1667
 8551SOL     OW37114   1.977   1.519   7.028  0.0988 -0.1105 -0.0062
 8551SOL    HW137115   2.029   1.449   6.988 -0.1159 -0.9404  1.1662
 8551SOL    HW237116   2.019   1.505   7.113  1.8051 -0.4101 -0.8930
 8552SOL     OW37117   3.125   3.811   6.659 -0.7829  0.3456  0.1431
 8552SOL    HW137118   3.110   3.865   6.582  4.1442  0.6185 -0.6304
 8552SOL    HW237119   3.086   3.873   6.720  1.0476  1.9548 -0.3107
 8553SOL     OW37120   1.754   4.336   8.383  0.5821  0.2016 -0.2305
 8553SOL    HW137121   1.848   4.353   8.372  0.6067  1.0768  1.3525
 8553SOL    HW237122   1.747   4.377   8.469 -2.7849 -0.8949  0.0131
 8554SOL     OW37123   1.768   3.609   9.621  0.3015 -0.2131  0.1362
 8554SOL    HW137124   1.718   3.619   9.539 -0.0514 -2.3033  0.0995
 8554SOL    HW237125   1.810   3.523   9.617  0.1538 -0.3068  0.6670
 8555SOL     OW37126   2.208   0.101   7.474  0.3617  0.3387 -0.1875
 8555SOL    HW137127   2.281   0.048   7.507 -0.0281 -0.1086 -0.0523
 8555SOL    HW237128   2.252   0.166   7.418  0.5123  1.1684  0.8737
 8556SOL     OW37129   0.909   1.001   2.731 -0.0955  0.6583 -0.3206
 8556SOL    HW137130   0.836   1.016   2.671  0.6786 -1.9797 -1.8864
 8556SOL    HW237131   0.896   0.909   2.754  2.0112  0.8578  1.6652
 8557SOL     OW37132   0.039   0.413   4.886  0.2509  0.0244 -0.1929
 8557SOL    HW137133   0.114   0.409   4.826  0.3996 -0.8404  0.0397
 8557SOL    HW237134   4.707   0.338   4.863 -0.9862 -0.3975  4.1742
 8558SOL     OW37135   0.932   3.286   2.949  0.0477  0.3647 -0.0311
 8558SOL    HW137136   0.923   3.344   2.873 -0.1938 -0.3726 -0.5757
 8558SOL    HW237137   0.870   3.218   2.923 -0.6133  0.5569  1.0457
 8559SOL     OW37138   4.301   4.433  11.799 -0.4003 -0.3545 -0.2421
 8559SOL    HW137139   4.395   4.419  11.787 -0.5216 -1.2893 -0.1225
 8559SOL    HW237140   4.305   4.529  11.796  0.0853 -0.4297 -1.6253
 8560SOL     OW37141   1.312   0.495  10.019 -0.6431  0.5177 -1.0294
 8560SOL    HW137142   1.341   0.444   9.943 -0.6285 -2.5200  1.0061
 8560SOL    HW237143   1.226   0.453  10.023 -1.1962  1.6693 -0.9855
 8561SOL     OW37144   2.564   3.323   1.241 -0.2507 -0.5738 -0.3352
 8561SOL    HW137145   2.586   3.267   1.166  2.3782 -0.9008  0.6595
 8561SOL    HW237146   2.469   3.316   1.251  0.0422 -1.7087  1.7226
 8562SOL     OW37147   4.425   3.577  10.538  0.2672  0.8690 -0.1458
 8562SOL    HW137148   4.473   3.521  10.599 -0.7170  0.2832  0.0970
 8562SOL    HW237149   4.421   3.512  10.468 -0.8006  1.3991 -0.5753
 8563SOL     OW37150   2.134   1.919   3.453 -0.2821  0.3701  0.6267
 8563SOL    HW137151   2.078   1.875   3.516  0.5386 -3.5853 -1.4068
 8563SOL    HW237152   2.121   2.012   3.473  2.7667  0.6216  1.5508
 8564SOL     OW37153   0.516   4.298  13.235  0.3937  0.3423 -0.1126
 8564SOL    HW137154   0.519   4.375  13.178  0.6452  0.0496 -0.4880
 8564SOL    HW237155   0.451   4.242  13.194  3.1035 -1.3905 -2.0014
 8565SOL     OW37156   1.228   3.132  14.645 -0.3858 -0.6947  0.1665
 8565SOL    HW137157   1.292   3.116  14.715 -0.4890 -0.0139  0.4278
 8565SOL    HW237158   1.149   3.095  14.684 -0.2729 -1.7711 -0.6408
 8566SOL     OW37159   1.009   2.566   1.447 -0.0273 -0.2645  0.4468
 8566SOL    HW137160   1.006   2.513   1.526  1.3118  0.1649  0.7807
 8566SOL    HW237161   1.049   2.504   1.387  2.0266 -0.8214  2.4263
 8567SOL     OW37162   3.329   2.050   7.462  0.5199  0.0853 -0.6772
 8567SOL    HW137163   3.278   2.096   7.395 -1.1324  1.0804  1.2891
 8567SOL    HW237164   3.391   2.011   7.399 -1.4755 -1.9558 -1.3847
 8568SOL     OW37165   0.948   3.454   4.208  0.1693 -0.0516  0.4623
 8568SOL    HW137166   0.855   3.439   4.222  0.3533 -0.1529  1.5977
 8568SOL    HW237167   0.978   3.366   4.185  1.7812  0.9393 -1.2090
 8569SOL     OW37168   3.647   3.250   4.785  0.3369 -0.3524  0.0199
 8569SOL    HW137169   3.706   3.197   4.732  1.3881  1.7039 -0.8639
 8569SOL    HW237170   3.597   3.302   4.722 -0.8376 -1.8386 -0.2881
 8570SOL     OW37171   2.569   0.220  16.575  0.4806 -0.8126 -0.0480
 8570SOL    HW137172   2.629   0.266  16.517 -1.5448  0.4689 -1.1295
 8570SOL    HW237173   2.481   0.244  16.544  0.7802  2.0254  1.3147
 8571SOL     OW37174   4.121   1.641   5.802 -0.0610 -0.8064  0.3055
 8571SOL    HW137175   4.099   1.601   5.886  0.3486 -1.6557  0.0027
 8571SOL    HW237176   4.175   1.579   5.754  0.5191  2.8788 -3.8042
 8572SOL     OW37177   2.492   0.844   0.817  0.0116 -0.0669 -0.6475
 8572SOL    HW137178   2.498   0.755   0.781 -1.6562 -0.5765  0.3199
 8572SOL    HW237179   2.415   0.832   0.872  0.4848  3.3496  0.7303
 8573SOL     OW37180   1.630   1.349   7.218  0.0128  0.3584  0.1569
 8573SOL    HW137181   1.580   1.268   7.206 -0.9050  0.7001  1.5460
 8573SOL    HW237182   1.685   1.321   7.292  0.0267 -1.1693 -0.4484
 8574SOL     OW37183   2.861   0.610   1.582 -0.1688 -0.4201 -0.5302
 8574SOL    HW137184   2.828   0.566   1.660 -1.7471  0.0547 -0.9278
 8574SOL    HW237185   2.869   0.533   1.525 -0.4946 -0.7957 -0.0579
 8575SOL     OW37186   1.432   3.721  15.496  0.5649  0.4340  0.3842
 8575SOL    HW137187   1.453   3.653  15.560  1.3766  0.3807  0.0689
 8575SOL    HW237188   1.356   3.671  15.468 -0.4374  1.5816  1.0793
 8576SOL     OW37189   4.181   4.596   5.083  0.1442 -0.0998  0.5771
 8576SOL    HW137190   4.217   4.660   5.022  2.6872 -3.2739 -1.1778
 8576SOL    HW237191   4.193   4.637   5.169  1.0450  1.1465 -0.1448
 8577SOL     OW37192   1.138   1.776   1.221 -0.4176 -0.2819  0.2940
 8577SOL    HW137193   1.196   1.839   1.179  0.3086 -1.0856  0.0828
 8577SOL    HW237194   1.182   1.764   1.304  0.4191 -0.6914 -0.2096
 8578SOL     OW37195   2.462   3.880   0.626 -0.1193 -0.4270 -0.3451
 8578SOL    HW137196   2.408   3.818   0.575 -0.6002  0.7591 -1.2883
 8578SOL    HW237197   2.547   3.884   0.582  0.1183 -2.6202 -0.0913
 8579SOL     OW37198   1.255   0.450   5.858 -0.4204  0.1717  0.6088
 8579SOL    HW137199   1.350   0.461   5.868 -0.3833  1.8461 -1.5021
 8579SOL    HW237200   1.231   0.543   5.861 -1.3809 -0.0950  1.1602
 8580SOL     OW37201   2.867   4.420   7.657 -0.2876 -0.7351  0.5463
 8580SOL    HW137202   2.931   4.491   7.660 -2.2669  1.0392  0.5148
 8580SOL    HW237203   2.882   4.377   7.742 -0.7332 -0.2991  0.8416
 8581SOL     OW37204   1.563   3.341  10.809 -0.1614  0.1344  0.1840
 8581SOL    HW137205   1.493   3.407  10.809  1.2863  1.6795 -0.0101
 8581SOL    HW237206   1.629   3.395  10.852  1.1253 -0.2537 -1.2773
 8582SOL     OW37207   0.673   3.619  16.442  0.3783 -0.2752 -0.2810
 8582SOL    HW137208   0.658   3.571  16.524  0.5591 -0.4213 -0.3342
 8582SOL    HW237209   0.768   3.610  16.432  0.7029  1.6247  1.1627
 8583SOL     OW37210   3.972   1.819  13.995 -0.3355 -0.4750 -0.0894
 8583SOL    HW137211   4.016   1.742  13.958  0.6922  1.1105 -2.0949
 8583SOL    HW237212   3.889   1.828  13.949 -0.1923  1.0850 -0.0284
 8584SOL     OW37213   3.243   0.885   7.693  0.0190  0.0037  0.3062
 8584SOL    HW137214   3.306   0.907   7.624 -0.2131 -0.6579 -0.1137
 8584SOL    HW237215   3.181   0.954   7.672 -1.5254 -0.8807  1.9872
 8585SOL     OW37216   0.763   2.683  10.865  0.5139  0.5745 -0.0384
 8585SOL    HW137217   0.815   2.753  10.903  0.4966  1.2044 -1.1721
 8585SOL    HW237218   0.690   2.675  10.927  0.4932 -1.7196 -0.3734
 8586SOL     OW37219   1.911   4.357   6.748  0.2517  0.2385  0.4023
 8586SOL    HW137220   1.876   4.336   6.834 -0.0929 -0.3395  0.1233
 8586SOL    HW237221   1.938   4.266   6.734 -2.6105 -0.4478 -0.6719
 8587SOL     OW37222   3.132   1.200   5.818 -0.1087  0.7126  0.0195
 8587SOL    HW137223   3.058   1.241   5.864 -2.2939 -4.0675  0.8123
 8587SOL    HW237224   3.185   1.280   5.825 -1.0711  0.9589  4.4094
 8588SOL     OW37225   1.178   1.494  13.126 -0.6853  0.8122  0.2386
 8588SOL    HW137226   1.162   1.549  13.049 -2.5857 -1.1828 -0.7867
 8588SOL    HW237227   1.087   1.477  13.152 -0.0382 -0.9085  1.3375
 8589SOL     OW37228   3.075   2.699   7.236 -0.2105  0.4239  0.4303
 8589SOL    HW137229   3.161   2.732   7.260  0.7424 -1.9468  0.1960
 8589SOL    HW237230   3.037   2.780   7.200  1.4675  0.2182 -1.8125
 8590SOL     OW37231   1.675   4.645   7.829  0.5812 -0.0659  0.4607
 8590SOL    HW137232   1.721   4.567   7.858 -1.2270 -1.5084 -0.5741
 8590SOL    HW237233   1.687   4.702   7.905 -0.2008 -0.3055  0.7565
 8591SOL     OW37234   2.591   0.022   5.519 -0.2819  0.2812 -0.2405
 8591SOL    HW137235   2.672   4.700   5.497 -0.4185  0.3773 -0.9316
 8591SOL    HW237236   2.559   0.051   5.434 -0.3769  0.4108 -0.1614
 8592SOL     OW37237   1.198   1.415   0.654 -0.5800  0.1256  0.1897
 8592SOL    HW137238   1.107   1.386   0.651 -0.9962  1.3210  1.1786
 8592SOL    HW237239   1.246   1.342   0.692 -0.6293  0.5068  0.9922
 8593SOL     OW37240   0.776   0.512   4.618 -0.3013 -0.5899  0.0602
 8593SOL    HW137241   0.831   0.473   4.551  1.6400 -0.8953  1.8393
 8593SOL    HW237242   0.736   0.433   4.654 -0.8880 -0.5006 -0.3884
 8594SOL     OW37243   4.491   4.329   1.883  0.7692 -0.2449  0.0586
 8594SOL    HW137244   4.578   4.303   1.850  1.1391 -1.0615  1.6644
 8594SOL    HW237245   4.448   4.244   1.869 -0.0919  0.6783 -2.8724
 8595SOL     OW37246   0.612   4.499   4.738  0.0975 -0.1265 -0.1134
 8595SOL    HW137247   0.684   4.517   4.799 -0.7708  1.2611  0.5047
 8595SOL    HW237248   0.659   4.437   4.682 -0.9267 -0.7551 -0.2738
 8596SOL     OW37249   0.983   2.432  11.855  0.9206 -0.4942  0.0478
 8596SOL    HW137250   1.061   2.440  11.800  1.3226  0.0961  0.6977
 8596SOL    HW237251   0.920   2.480  11.800  1.0842  0.5815  0.7974
 8597SOL     OW37252   0.557   2.778  11.462 -0.1767 -0.1392 -0.1721
 8597SOL    HW137253   0.523   2.819  11.383  0.4431  0.3223 -0.2035
 8597SOL    HW237254   0.507   2.823  11.530  2.4084  0.2489  1.4968
 8598SOL     OW37255   1.681   0.905   9.081 -0.0857  0.2675 -0.2406
 8598SOL    HW137256   1.711   0.902   9.172 -0.6578  1.8161  0.0004
 8598SOL    HW237257   1.761   0.887   9.032 -0.5239 -0.9039 -0.5227
 8599SOL     OW37258   4.218   4.660   2.481  0.4848 -0.1338 -0.0716
 8599SOL    HW137259   4.137   4.710   2.480 -0.0245 -0.9576  0.0896
 8599SOL    HW237260   4.257   4.689   2.564 -0.0225  0.8765 -0.1981
 8600SOL     OW37261   0.948   3.474   3.919 -0.1562  0.1066 -0.0987
 8600SOL    HW137262   0.908   3.558   3.895 -1.9147  0.0235  2.5841
 8600SOL    HW237263   0.980   3.508   4.003  0.6146  1.6933 -1.0301
 8601SOL     OW37264   4.085   3.114   4.912 -0.2200  0.3175  0.2609
 8601SOL    HW137265   4.169   3.138   4.872  1.9104 -1.0079  3.9792
 8601SOL    HW237266   4.030   3.192   4.898 -0.2764  0.4824  1.4347
 8602SOL     OW37267   0.167   2.768   7.538 -0.5447 -0.2261  0.5640
 8602SOL    HW137268   0.253   2.777   7.578 -0.4503  1.2641  0.0233
 8602SOL    HW237269   0.182   2.719   7.457 -2.5489  2.7527 -1.6069
 8603SOL     OW37270   2.349   3.495  11.193 -0.0623  0.1142  0.0625
 8603SOL    HW137271   2.419   3.430  11.193  0.3507  0.5700 -1.8208
 8603SOL    HW237272   2.327   3.502  11.100  1.5785  0.0694 -0.3319
 8604SOL     OW37273   2.379   1.119   6.840  0.0110  0.3674 -0.1564
 8604SOL    HW137274   2.421   1.123   6.926 -3.1685  1.4016  1.3464
 8604SOL    HW237275   2.424   1.191   6.797 -1.5906 -0.2168 -2.8007
 8605SOL     OW37276   0.149   1.867   9.033  0.0948  0.0906  0.2033
 8605SOL    HW137277   0.218   1.894   8.972 -0.4662  1.2207  0.0655
 8605SOL    HW237278   0.203   1.834   9.105 -0.9558 -0.7483  0.6012
 8606SOL     OW37279   2.604   3.518   7.735 -0.1748  0.1951 -0.0955
 8606SOL    HW137280   2.619   3.471   7.653  0.2986  0.8417 -0.3797
 8606SOL    HW237281   2.673   3.476   7.786  0.3834  2.0887  0.7185
 8607SOL     OW37282   4.091   0.898   1.718 -0.1013  0.3181  0.0286
 8607SOL    HW137283   4.185   0.881   1.713  0.1109  1.2969  0.6403
 8607SOL    HW237284   4.081   0.992   1.707 -2.6973  0.1467  0.8844
 8608SOL     OW37285   2.226   4.711   8.202  0.0410  0.6454  0.2110
 8608SOL    HW137286   2.308   4.723   8.156 -0.4049 -0.9931 -1.0265
 8608SOL    HW237287   2.224   0.076   8.237  0.4075  1.5124 -2.0266
 8609SOL     OW37288   2.026   3.510   8.521 -0.0736  0.0437 -0.0397
 8609SOL    HW137289   2.079   3.481   8.447 -1.4657 -0.2293 -0.9179
 8609SOL    HW237290   2.041   3.604   8.526 -0.6504  0.0724  1.1096
 8610SOL     OW37291   2.060   0.504  13.996  0.3873  0.4153  0.1772
 8610SOL    HW137292   2.049   0.586  14.042 -0.7608  0.5174 -0.2901
 8610SOL    HW237293   2.152   0.500  13.968 -0.0133 -0.1360 -1.0888
 8611SOL     OW37294   0.303   3.279   8.775 -0.7527  0.2001 -0.2451
 8611SOL    HW137295   0.243   3.224   8.725 -2.5644  1.1972  0.8410
 8611SOL    HW237296   0.280   3.260   8.866 -0.7883  2.0882  0.1471
 8612SOL     OW37297   0.926   3.204   9.770 -0.4149  0.1579 -0.2485
 8612SOL    HW137298   0.958   3.167   9.852 -1.6900  0.3726  0.3509
 8612SOL    HW237299   0.850   3.252   9.806 -0.3319  1.0640 -1.2674
 8613SOL     OW37300   2.139   1.111   3.142  0.1325  0.1567 -0.2856
 8613SOL    HW137301   2.112   1.027   3.106 -1.4497 -0.1188  1.5521
 8613SOL    HW237302   2.182   1.153   3.068  0.1541 -1.6672 -1.2947
 8614SOL     OW37303   1.862   0.092  14.589 -0.6593  0.4166  0.0717
 8614SOL    HW137304   1.919   0.159  14.626 -0.1406 -0.5980  1.1208
 8614SOL    HW237305   1.776   0.120  14.620  0.5326  0.6991  3.1039
 8615SOL     OW37306   1.520   0.115   3.547 -0.2362  0.5011 -0.0813
 8615SOL    HW137307   1.583   0.187   3.555 -0.9256  0.8443  2.1542
 8615SOL    HW237308   1.453   0.158   3.494  1.2514  3.6911  0.6147
 8616SOL     OW37309   3.080   2.443   8.425  0.6506 -0.1309 -0.0003
 8616SOL    HW137310   3.054   2.382   8.356 -2.6364 -0.4921  1.5256
 8616SOL    HW237311   3.000   2.457   8.476  0.1602 -0.7827 -0.5902
 8617SOL     OW37312   3.770   2.535   4.463  0.2578  0.2071 -0.1128
 8617SOL    HW137313   3.731   2.552   4.377  0.1656  0.2374 -0.0650
 8617SOL    HW237314   3.858   2.569   4.447  0.1857  0.5492  0.2299
 8618SOL     OW37315   4.493   2.251   6.293  0.3432 -0.7229  0.8233
 8618SOL    HW137316   4.538   2.212   6.368 -2.0821 -3.3615  0.9278
 8618SOL    HW237317   4.564   2.280   6.236 -0.3997 -0.8374 -0.1614
 8619SOL     OW37318   2.815   1.395   5.624  0.5691 -0.6090 -0.1115
 8619SOL    HW137319   2.814   1.305   5.591  1.7963 -1.1432  1.2959
 8619SOL    HW237320   2.813   1.449   5.545  1.1302 -0.8396 -0.2854
 8620SOL     OW37321   4.095   3.460   3.109  0.0542  0.1695 -0.1142
 8620SOL    HW137322   4.073   3.370   3.085  1.0353 -0.3512  0.9373
 8620SOL    HW237323   4.189   3.454   3.097  0.1761  0.0954  0.8960
 8621SOL     OW37324   1.215   1.128   3.755  0.2460 -0.3448  0.3193
 8621SOL    HW137325   1.218   1.199   3.819 -1.5457  0.5574 -0.6110
 8621SOL    HW237326   1.139   1.162   3.708  0.9868  0.5245 -0.2679
 8622SOL     OW37327   1.245   0.806   7.970 -0.0397 -0.5772  0.2301
 8622SOL    HW137328   1.306   0.874   7.942  1.2524 -2.3403 -1.1998
 8622SOL    HW237329   1.288   0.723   7.950 -1.0361 -1.2369  0.8209
 8623SOL     OW37330   1.734   3.887   1.752 -0.1371 -0.0741 -0.0681
 8623SOL    HW137331   1.668   3.860   1.688 -0.5137  2.9172 -0.9563
 8623SOL    HW237332   1.803   3.831   1.717  1.5671  2.1411 -0.2251
 8624SOL     OW37333   2.677   3.791  11.598 -0.5765  0.5065  0.5689
 8624SOL    HW137334   2.725   3.870  11.624  0.9573  0.3059 -1.6672
 8624SOL    HW237335   2.659   3.746  11.681 -0.8498 -1.5694 -0.6188
 8625SOL     OW37336   0.118   2.151  14.203  0.0587 -0.2830 -0.6390
 8625SOL    HW137337   0.086   2.195  14.124  0.3423  0.1155 -0.5318
 8625SOL    HW237338   0.096   2.060  14.185 -1.9346 -0.4116  2.5098
 8626SOL     OW37339   1.854   1.711  14.740  0.6382  0.7599  0.3992
 8626SOL    HW137340   1.882   1.620  14.741  2.3851  1.3178  1.6818
 8626SOL    HW237341   1.779   1.705  14.681 -0.8757  2.3326  2.1477
 8627SOL     OW37342   2.416   2.797   7.230  0.0327 -0.0017  0.2756
 8627SOL    HW137343   2.493   2.770   7.180  0.0288  0.7713 -0.1485
 8627SOL    HW237344   2.380   2.863   7.172 -0.5489  0.3211  0.9984
 8628SOL     OW37345   3.915   2.378   2.418  0.3864  0.0369 -0.1102
 8628SOL    HW137346   3.919   2.289   2.453  0.8996  0.5742  1.2086
 8628SOL    HW237347   4.000   2.410   2.450 -0.8744  1.9419  1.3750
 8629SOL     OW37348   3.991   2.143   2.008  0.7008 -0.0693 -0.0390
 8629SOL    HW137349   3.999   2.077   2.077  0.1862  0.2948  0.3682
 8629SOL    HW237350   4.080   2.141   1.972  1.5632  1.9254  2.0006
 8630SOL     OW37351   3.228   3.847   1.543 -0.2333 -0.8852  0.9303
 8630SOL    HW137352   3.153   3.789   1.533 -0.1132 -1.2126  1.8754
 8630SOL    HW237353   3.236   3.858   1.638 -1.4967 -1.8003  1.1395
 8631SOL     OW37354   0.465   2.699   7.898 -0.3694 -0.3218  0.2654
 8631SOL    HW137355   0.404   2.641   7.943 -2.1090  0.0805 -1.5882
 8631SOL    HW237356   0.554   2.683   7.930  0.2809 -0.2743 -1.4766
 8632SOL     OW37357   0.003   3.704  17.593  0.2293 -0.5552 -0.2754
 8632SOL    HW137358   0.050   3.621  17.591  2.0832  0.5488 -3.5554
 8632SOL    HW237359   0.012   3.741  17.505  3.3895 -0.3735  0.1379
 8633SOL     OW37360   3.904   1.492  13.072  0.2859 -0.0448 -0.3708
 8633SOL    HW137361   3.880   1.423  13.009  1.3302 -0.5457 -0.2175
 8633SOL    HW237362   3.965   1.454  13.134 -1.1190 -0.7724  0.5758
 8634SOL     OW37363   0.160   1.448   3.131 -0.0011  0.3228  0.2436
 8634SOL    HW137364   0.082   1.443   3.077 -0.5767  1.5244  0.9684
 8634SOL    HW237365   0.224   1.421   3.064 -1.2939  0.2767 -0.9621
 8635SOL     OW37366   0.487   2.923  12.924 -0.0454 -0.6782 -0.3899
 8635SOL    HW137367   0.515   2.928  13.016 -1.0354  0.5983 -0.1572
 8635SOL    HW237368   0.566   2.893  12.879  0.6903 -0.7555  0.9519
 8636SOL     OW37369   4.282   0.281  15.050 -0.2292  0.5583  0.3140
 8636SOL    HW137370   4.258   0.204  14.998 -1.6841  0.8230  0.6166
 8636SOL    HW237371   4.301   0.239  15.134  1.5591 -3.0552 -1.8461
 8637SOL     OW37372   2.202   4.550   4.458 -0.1656  0.2048 -0.1378
 8637SOL    HW137373   2.250   4.467   4.452 -1.0603 -0.3132 -0.0293
 8637SOL    HW237374   2.109   4.530   4.461 -0.1244 -0.1563 -1.3122
 8638SOL     OW37375   2.150   0.224   5.007 -0.1749 -0.0576 -0.1385
 8638SOL    HW137376   2.112   0.246   4.922  2.0139 -0.9057 -1.3506
 8638SOL    HW237377   2.106   0.141   5.025  0.4695 -0.0805  1.3464
 8639SOL     OW37378   2.323   2.330   4.411 -0.0504  0.1106  0.2728
 8639SOL    HW137379   2.278   2.345   4.494  0.1697  0.9299  0.2382
 8639SOL    HW237380   2.402   2.284   4.440 -1.2909 -0.1674  3.2315
 8640SOL     OW37381   0.994   1.608  13.416 -0.3494 -0.2253  0.1027
 8640SOL    HW137382   0.985   1.535  13.354 -1.2294  0.2512 -0.3420
 8640SOL    HW237383   1.040   1.677  13.368 -0.8781  1.0818  1.4916
 8641SOL     OW37384   2.404   0.558   7.868  0.0763  0.2488  0.0928
 8641SOL    HW137385   2.491   0.583   7.836  0.7655 -1.0927  0.9238
 8641SOL    HW237386   2.362   0.564   7.782 -0.9260 -1.4850  0.4435
 8642SOL     OW37387   4.108   4.334  14.150  0.3074  0.2603  0.1716
 8642SOL    HW137388   4.132   4.362  14.061  0.8666  0.1726  0.2938
 8642SOL    HW237389   4.173   4.377  14.205  0.2491  1.1921 -0.4951
 8643SOL     OW37390   1.201   1.935   6.868 -0.1126  0.6401  0.4349
 8643SOL    HW137391   1.294   1.946   6.848 -1.0536  2.2228 -2.9927
 8643SOL    HW237392   1.172   2.005   6.926 -0.9714 -1.0925  2.1191
 8644SOL     OW37393   3.628   1.701   2.957 -0.2789  0.4140  0.0935
 8644SOL    HW137394   3.577   1.659   3.025  1.1113 -0.5133  0.5721
 8644SOL    HW237395   3.712   1.657   2.968  0.0184  0.2194 -2.8802
 8645SOL     OW37396   1.712   3.133  16.596 -0.0956  0.0884  0.4571
 8645SOL    HW137397   1.639   3.168  16.647 -2.4827 -0.3438 -2.6144
 8645SOL    HW237398   1.778   3.200  16.613  0.6428  0.1571 -2.5615
 8646SOL     OW37399   4.165   3.208  11.944  0.2421 -0.5741  0.1744
 8646SOL    HW137400   4.225   3.259  11.889 -1.5148 -0.6277 -1.8090
 8646SOL    HW237401   4.146   3.136  11.885  0.6117  0.3568 -1.0842
 8647SOL     OW37402   3.459   1.676   3.402  0.2611  0.6149 -0.3046
 8647SOL    HW137403   3.393   1.705   3.339 -1.7268  0.1670  1.5394
 8647SOL    HW237404   3.437   1.717   3.486  1.4833  1.4103 -0.3771
 8648SOL     OW37405   2.187   1.183   3.558  0.2110 -0.5409  0.4857
 8648SOL    HW137406   2.129   1.243   3.604 -0.6176 -0.9235 -0.0765
 8648SOL    HW237407   2.264   1.206   3.610  0.2177  0.1381  0.1726
 8649SOL     OW37408   1.599   0.060   9.019 -0.7625  0.1439 -0.0421
 8649SOL    HW137409   1.567   0.033   9.105 -2.5961  1.4492 -0.3115
 8649SOL    HW237410   1.623   0.150   9.042  2.7536 -0.5517 -0.9785
 8650SOL     OW37411   4.629   2.318   9.099 -0.2815  0.7255  0.3879
 8650SOL    HW137412   4.557   2.300   9.039 -0.0668 -0.3431  0.4463
 8650SOL    HW237413   4.701   2.258   9.080 -0.2115  0.4863  1.3729
 8651SOL     OW37414   0.166   3.507   5.311 -0.4410  0.0183  0.4277
 8651SOL    HW137415   0.103   3.580   5.315  1.9984  2.1185  0.4933
 8651SOL    HW237416   0.138   3.457   5.387 -0.1940 -1.4348 -0.4472
 8652SOL     OW37417   2.124   0.633  12.126 -0.0498  0.4936  0.4766
 8652SOL    HW137418   2.058   0.698  12.102 -0.3266 -0.0091 -0.0990
 8652SOL    HW237419   2.147   0.601  12.039  0.7562  0.7046  0.6111
 8653SOL     OW37420   2.302   0.230   1.303 -0.6653  0.1984  0.6628
 8653SOL    HW137421   2.392   0.249   1.278 -0.7111  2.2251  1.9562
 8653SOL    HW237422   2.294   0.136   1.290 -1.1291  0.2002  0.9460
 8654SOL     OW37423   2.164   4.606   2.001 -0.1956 -0.2897 -0.9288
 8654SOL    HW137424   2.202   4.554   2.072 -0.6400 -1.0129 -1.2280
 8654SOL    HW237425   2.071   4.587   2.010  0.2376 -0.9432  2.1531
 8655SOL     OW37426   2.505   1.461   2.886 -0.0414 -0.4414 -1.0546
 8655SOL    HW137427   2.592   1.422   2.895 -0.0397 -0.3213 -0.5822
 8655SOL    HW237428   2.535   1.551   2.893 -0.1860 -0.3510 -1.5699
 8656SOL     OW37429   0.531   3.177  10.587  0.1720 -0.0677  0.0223
 8656SOL    HW137430   0.600   3.154  10.525  1.3640  3.7147 -0.0817
 8656SOL    HW237431   0.494   3.090  10.599  2.2312 -0.8254  0.8901
 8657SOL     OW37432   1.599   2.203  15.185 -0.2258 -0.2477 -0.6887
 8657SOL    HW137433   1.677   2.149  15.202  0.7098  0.9235 -1.2444
 8657SOL    HW237434   1.623   2.215  15.093 -0.1185 -0.5336 -0.6998
 8658SOL     OW37435   4.003   4.488   2.716  0.4661 -0.2610  0.0118
 8658SOL    HW137436   3.990   4.397   2.690 -0.2786  0.1393 -0.9896
 8658SOL    HW237437   3.915   4.523   2.706 -0.1526 -2.0761 -0.7919
 8659SOL     OW37438   0.152   2.612  10.662  0.5209  0.3102 -0.4843
 8659SOL    HW137439   0.221   2.547  10.669  0.5266  0.5081  1.3982
 8659SOL    HW237440   0.106   2.571  10.589 -2.3558  0.9338  0.9506
 8660SOL     OW37441   2.632   4.161   6.916  0.2256  0.0643  0.6453
 8660SOL    HW137442   2.540   4.140   6.933  0.0040  1.3521  0.9974
 8660SOL    HW237443   2.672   4.080   6.949  0.3294  0.4739  1.5202
 8661SOL     OW37444   0.679   2.399   8.504 -0.4455 -0.2638 -0.3409
 8661SOL    HW137445   0.724   2.323   8.540  0.1705 -0.4907 -1.5801
 8661SOL    HW237446   0.671   2.364   8.416 -1.6410 -0.3228 -0.2053
 8662SOL     OW37447   1.120   4.221  17.375  0.2528 -0.2346 -0.3177
 8662SOL    HW137448   1.067   4.286  17.329 -0.3193 -0.9790 -0.7088
 8662SOL    HW237449   1.191   4.218  17.310  1.8308  1.5900  1.3187
 8663SOL     OW37450   0.129   2.089  15.978  0.7368  0.3445 -0.3911
 8663SOL    HW137451   0.055   2.045  16.020  0.5096 -0.7926 -1.9980
 8663SOL    HW237452   0.201   2.037  16.013 -0.1709 -0.4986  0.2292
 8664SOL     OW37453   3.103   0.876   8.885  0.0945  0.1644  0.1498
 8664SOL    HW137454   3.111   0.893   8.979 -1.7761  1.7097  0.0266
 8664SOL    HW237455   3.086   0.782   8.884  1.2855 -0.0492 -0.3777
 8665SOL     OW37456   3.479   0.837   5.150 -0.2859  0.6969 -0.6668
 8665SOL    HW137457   3.456   0.801   5.235 -0.8877 -0.7771 -1.4562
 8665SOL    HW237458   3.423   0.784   5.093  0.6786 -1.3624  0.2882
 8666SOL     OW37459   0.241   0.064   8.837  0.0269  0.6106  0.4261
 8666SOL    HW137460   0.329   0.055   8.800  0.1056  1.0618  0.5026
 8666SOL    HW237461   0.258   0.094   8.926  0.3163  0.3190  0.4676
 8667SOL     OW37462   1.594   3.154  10.613 -0.6285  0.0769  0.2663
 8667SOL    HW137463   1.635   3.120  10.693  0.2118  1.3232  0.3734
 8667SOL    HW237464   1.569   3.239  10.650  1.1463 -0.1150  1.9694
 8668SOL     OW37465   2.120   0.445   3.802 -0.0561  0.0120  0.0841
 8668SOL    HW137466   2.185   0.502   3.842 -0.3518 -0.1045  0.7417
 8668SOL    HW237467   2.176   0.424   3.727 -1.3177 -1.8349 -0.3613
 8669SOL     OW37468   0.243   4.596   2.368 -0.3445  0.1309 -0.0112
 8669SOL    HW137469   0.153   4.628   2.369 -0.0252  1.0202 -0.2855
 8669SOL    HW237470   0.232   4.512   2.413 -1.5352  1.0470  1.4021
 8670SOL     OW37471   2.944   0.416   2.440 -0.3076  0.3024  0.2822
 8670SOL    HW137472   3.035   0.420   2.469  0.6738 -0.7667 -2.6610
 8670SOL    HW237473   2.952   0.418   2.344 -3.3125  0.4219  0.0403
 8671SOL     OW37474   3.591   4.076   6.119 -0.0054 -1.1625 -0.2951
 8671SOL    HW137475   3.655   4.005   6.120 -1.5955 -2.6090 -0.6571
 8671SOL    HW237476   3.579   4.079   6.024  0.8668 -0.7894 -0.3953
 8672SOL     OW37477   2.815   4.265   0.602  0.3513 -0.7783  0.3120
 8672SOL    HW137478   2.884   4.282   0.538  0.3870 -0.9279  0.3099
 8672SOL    HW237479   2.840   4.177   0.631  1.6339 -0.7598 -0.6995
 8673SOL     OW37480   3.180   4.625   0.582  0.1827 -0.5655 -0.1967
 8673SOL    HW137481   3.234   4.700   0.607 -3.4838  2.4368 -1.2197
 8673SOL    HW237482   3.246   4.587   0.524 -1.2199  0.0056 -2.1843
 8674SOL     OW37483   1.780   0.036   1.525  0.2339  0.1698  0.1929
 8674SOL    HW137484   1.708   0.035   1.589 -0.0030  0.0246 -0.0776
 8674SOL    HW237485   1.772   4.671   1.490  1.3036  1.1631 -2.5540
 8675SOL     OW37486   2.767   1.046   2.521  0.0952 -0.6032  0.7930
 8675SOL    HW137487   2.759   0.979   2.589 -3.1148 -0.1071  0.9463
 8675SOL    HW237488   2.822   1.115   2.559  1.7640 -0.5689 -1.7321
 8676SOL     OW37489   4.721   0.811   3.761  0.7715 -0.1004  0.5111
 8676SOL    HW137490   0.071   0.838   3.816  0.8453 -0.9466  0.8378
 8676SOL    HW237491   4.661   0.885   3.758  1.0921  0.1175 -0.3721
 8677SOL     OW37492   2.572   1.142   6.423  0.6656  0.2058 -0.2643
 8677SOL    HW137493   2.647   1.193   6.393  1.1287 -1.0902 -1.3004
 8677SOL    HW237494   2.593   1.135   6.516 -1.2754  0.4458  0.1891
 8678SOL     OW37495   1.277   0.522   3.646 -0.3822  0.1292 -0.8185
 8678SOL    HW137496   1.219   0.579   3.698  1.3730 -0.2717  1.5661
 8678SOL    HW237497   1.347   0.527   3.711 -1.0913 -0.3823 -0.0045
 8679SOL     OW37498   1.427   3.336   3.727 -0.1547  0.1069  0.1335
 8679SOL    HW137499   1.448   3.355   3.635 -0.1343  0.8613  0.2894
 8679SOL    HW237500   1.385   3.251   3.713 -0.4967  0.3612 -0.3855
 8680SOL     OW37501   0.942   4.303   9.349  0.3448  0.2325  0.0482
 8680SOL    HW137502   0.947   4.340   9.261  1.3301  1.2090  0.5050
 8680SOL    HW237503   0.881   4.232   9.331 -0.1517  0.4536  0.8740
 8681SOL     OW37504   3.234   0.704   9.124 -0.3589  0.1364  0.7921
 8681SOL    HW137505   3.188   0.623   9.147  0.8238 -0.7624 -0.0064
 8681SOL    HW237506   3.320   0.668   9.105 -0.2827  0.1623  1.0894
 8682SOL     OW37507   1.060   0.620   8.164  0.6940 -0.3195  0.3035
 8682SOL    HW137508   1.097   0.533   8.148  1.8873  0.2440  0.0497
 8682SOL    HW237509   1.032   0.639   8.075  0.6655  1.1219  0.6186
 8683SOL     OW37510   0.484   0.930  12.734  0.1014 -0.8278 -0.6253
 8683SOL    HW137511   0.406   0.948  12.681  0.0909 -0.4842 -0.4959
 8683SOL    HW237512   0.498   0.838  12.716 -0.9511 -1.3711  1.2600
 8684SOL     OW37513   4.722   3.678   6.394 -0.1667  0.4586 -0.4361
 8684SOL    HW137514   4.714   3.592   6.353  1.2251  0.9839 -1.8512
 8684SOL    HW237515   4.648   3.730   6.362 -0.9596  0.6779  1.7636
 8685SOL     OW37516   2.190   1.957  16.370  0.2708 -0.2622  0.2988
 8685SOL    HW137517   2.237   1.945  16.452  1.2862 -0.6364 -0.3277
 8685SOL    HW237518   2.258   1.950  16.303 -0.1726 -1.4549 -0.0253
 8686SOL     OW37519   4.191   1.651   2.770 -0.0675  0.3663  0.3594
 8686SOL    HW137520   4.266   1.688   2.725  0.7935 -1.2511  0.4738
 8686SOL    HW237521   4.193   1.704   2.850 -0.1989 -0.2935  0.8104
 8687SOL     OW37522   4.718   0.436   7.247 -0.2695  0.6463  0.0299
 8687SOL    HW137523   4.635   0.414   7.289 -0.1237  0.2668  0.1231
 8687SOL    HW237524   0.053   0.429   7.322  0.1233  1.4655 -0.1999
 8688SOL     OW37525   1.568   3.026   0.325  0.2305  0.3831  0.3838
 8688SOL    HW137526   1.511   2.997   0.254 -0.1292  1.1190  0.3609
 8688SOL    HW237527   1.552   3.121   0.321  1.6986  0.5977 -0.1007
 8689SOL     OW37528   2.358   3.705   8.650 -0.2195  0.3211  0.3386
 8689SOL    HW137529   2.330   3.630   8.702  1.3519  0.7673  1.8482
 8689SOL    HW237530   2.433   3.718   8.708  0.0417  1.4835 -0.2516
 8690SOL     OW37531   3.370   0.138   5.438 -0.5209 -0.1583  0.4903
 8690SOL    HW137532   3.318   0.058   5.425 -0.9640 -0.0848  1.7487
 8690SOL    HW237533   3.314   0.189   5.497 -0.1699  1.0044 -0.1853
 8691SOL     OW37534   1.468   2.899   1.573  0.0691  0.1757 -0.0039
 8691SOL    HW137535   1.442   2.989   1.596  0.9824  0.1146  1.2821
 8691SOL    HW237536   1.405   2.846   1.621 -0.2041  0.7878  0.3199
 8692SOL     OW37537   3.254   0.635  17.494  0.6556 -0.2959  0.0786
 8692SOL    HW137538   3.255   0.731  17.493  1.1849 -0.2837  1.5686
 8692SOL    HW237539   3.279   0.621  17.586 -1.6477  0.6422  0.8600
 8693SOL     OW37540   3.740   4.641  12.182 -0.3465 -0.1636  0.2117
 8693SOL    HW137541   3.733   4.549  12.160  0.6290  0.0250 -0.8696
 8693SOL    HW237542   3.690   4.645  12.263 -0.2595  0.7355  0.2305
 8694SOL     OW37543   1.626   4.125   6.751  0.0380 -0.5566  0.2469
 8694SOL    HW137544   1.681   4.095   6.679  1.6328  1.1201  0.7559
 8694SOL    HW237545   1.576   4.049   6.779 -0.4967 -0.0631  0.6347
 8695SOL     OW37546   4.430   0.503   2.401  0.3886 -0.0675 -0.1081
 8695SOL    HW137547   4.457   0.498   2.310  1.4679 -3.5502  0.4108
 8695SOL    HW237548   4.512   0.509   2.449  1.2440  1.0817 -1.7335
 8696SOL     OW37549   1.510   1.050   2.890  0.0357  0.5346  0.1225
 8696SOL    HW137550   1.496   0.965   2.849  1.3570  0.4883 -0.2362
 8696SOL    HW237551   1.511   1.103   2.810  0.7897 -0.3522 -0.4574
 8697SOL     OW37552   4.656   4.704  16.256  0.4861 -0.7593 -0.3484
 8697SOL    HW137553   4.614   4.700  16.342 -0.1531  1.3458 -0.5687
 8697SOL    HW237554   4.605   0.050  16.214  0.8547 -0.9764 -1.1631
 8698SOL     OW37555   1.544   3.984   9.611  0.0817  0.2338 -0.2130
 8698SOL    HW137556   1.630   4.027   9.604 -0.9983  2.1235 -1.9267
 8698SOL    HW237557   1.547   3.945   9.523  2.3355 -1.6626  0.6801
 8699SOL     OW37558   0.542   3.865   7.435 -0.2756  0.2666  0.3841
 8699SOL    HW137559   0.607   3.841   7.501  1.6365  0.3705 -1.4559
 8699SOL    HW237560   0.585   3.834   7.355  0.2896  0.4640  0.6077
 8700SOL     OW37561   1.562   1.723   8.587 -0.5520 -0.4704  0.2860
 8700SOL    HW137562   1.494   1.730   8.654  0.2193 -2.9544  1.3078
 8700SOL    HW237563   1.642   1.721   8.639 -0.6934 -0.3041  0.5071
 8701SOL     OW37564   1.711   4.532   8.566 -0.2137 -0.0585  0.0029
 8701SOL    HW137565   1.619   4.552   8.550 -0.1477 -0.7387 -1.2508
 8701SOL    HW237566   1.718   4.541   8.661 -1.9497 -0.1228  0.1397
 8702SOL     OW37567   1.113   0.781   3.357 -0.4970  0.5265  0.7644
 8702SOL    HW137568   1.134   0.871   3.382 -1.0038  0.6288  0.8216
 8702SOL    HW237569   1.197   0.735   3.366  0.3153  1.8941  0.1042
 8703SOL     OW37570   3.487   3.597   2.966 -0.4157 -0.2111  0.3051
 8703SOL    HW137571   3.484   3.674   2.909 -1.2017  0.6596  1.5050
 8703SOL    HW237572   3.404   3.559   2.936 -0.6427  1.0958 -0.7451
 8704SOL     OW37573   3.312   4.551   0.347 -0.5413 -0.1061 -0.3553
 8704SOL    HW137574   3.280   4.628   0.300 -0.0238 -0.3275 -1.0694
 8704SOL    HW237575   3.405   4.542   0.325 -0.7384  0.7541 -1.5473
 8705SOL     OW37576   4.492   3.400   5.988  0.0224  0.1844 -0.7856
 8705SOL    HW137577   4.565   3.338   5.990  0.0445  0.2952  1.1703
 8705SOL    HW237578   4.523   3.490   5.993 -0.3848  0.2293  0.7906
 8706SOL     OW37579   0.653   0.284   5.277  0.0353 -0.3964 -0.8125
 8706SOL    HW137580   0.624   0.260   5.365 -0.3912 -0.2747 -0.9151
 8706SOL    HW237581   0.738   0.326   5.286 -0.9326  1.2016  0.8851
 8707SOL     OW37582   1.914   0.667  14.365  0.8181  0.0901  0.2989
 8707SOL    HW137583   1.945   0.724  14.435  2.6485 -1.3386  0.6415
 8707SOL    HW237584   1.919   0.728  14.291 -1.7061  0.8459  0.7334
 8708SOL     OW37585   2.805   2.840   3.452 -0.0030  0.5816 -0.3156
 8708SOL    HW137586   2.765   2.756   3.428 -2.6394  1.6191  0.3848
 8708SOL    HW237587   2.898   2.827   3.433  0.1311  1.5464 -0.2947
 8709SOL     OW37588   3.217   0.006   8.228 -0.2384  0.0727  0.1255
 8709SOL    HW137589   3.182   0.095   8.226  0.5844  0.3411 -1.6556
 8709SOL    HW237590   3.219   4.709   8.135  2.1191  0.7776  0.0267
 8710SOL     OW37591   0.410   1.517   3.788  0.1919 -0.0069 -0.0319
 8710SOL    HW137592   0.364   1.538   3.869  1.4586  1.9505  0.1972
 8710SOL    HW237593   0.345   1.534   3.720  0.4605  1.8624  0.1644
 8711SOL     OW37594   2.567   1.291   8.752  0.1632  0.1713 -0.0930
 8711SOL    HW137595   2.525   1.230   8.812 -2.0181 -0.7701 -2.5822
 8711SOL    HW237596   2.634   1.325   8.811  1.9608 -0.7286 -1.6544
 8712SOL     OW37597   0.772   0.396   8.573 -0.5481 -0.3031 -0.3102
 8712SOL    HW137598   0.693   0.439   8.540 -2.8195 -2.8737  1.7181
 8712SOL    HW237599   0.826   0.425   8.499 -0.3017  1.0009  0.3833
 8713SOL     OW37600   2.713   0.689  11.851 -0.4107  0.0397  0.1839
 8713SOL    HW137601   2.629   0.653  11.880  0.7283 -2.0338  0.9336
 8713SOL    HW237602   2.729   0.774  11.891  1.3097  0.2950 -1.0235
 8714SOL     OW37603   1.855   3.699   3.037 -0.3888  0.0588  0.2575
 8714SOL    HW137604   1.921   3.763   3.012  0.6158 -1.3807 -0.7785
 8714SOL    HW237605   1.839   3.741   3.121  0.5622  1.4003 -0.2416
 8715SOL     OW37606   1.792   0.277   5.264 -0.1398 -0.7741 -0.0193
 8715SOL    HW137607   1.752   0.281   5.177  1.0746  1.4337 -0.4681
 8715SOL    HW237608   1.711   0.300   5.311  0.2672 -2.1807  1.3674
 8716SOL     OW37609   3.972   2.971   9.085 -0.0079 -0.1872  0.5124
 8716SOL    HW137610   3.931   2.966   9.171 -2.0113 -0.6749 -0.4773
 8716SOL    HW237611   3.981   2.876   9.072  0.8930  0.1312 -1.2976
 8717SOL     OW37612   0.078   1.286   3.340  0.1242 -0.4687 -0.4462
 8717SOL    HW137613   0.136   1.351   3.300  0.0899 -1.1987 -1.6716
 8717SOL    HW237614   0.082   1.214   3.278 -0.0900 -1.6746  0.9584
 8718SOL     OW37615   3.403   3.995   3.214  0.3800 -0.1005  0.2867
 8718SOL    HW137616   3.446   4.065   3.264 -1.4564  0.9388  0.4351
 8718SOL    HW237617   3.320   3.978   3.259  0.9410 -2.2690  0.4658
 8719SOL     OW37618   3.603   2.639   1.819  0.1758 -0.4088 -0.1059
 8719SOL    HW137619   3.603   2.726   1.777 -1.2625  0.6470  2.0509
 8719SOL    HW237620   3.582   2.581   1.746 -2.2456  0.4555 -0.1039
 8720SOL     OW37621   1.072   2.292   5.424 -0.0176  0.0464  0.5222
 8720SOL    HW137622   1.080   2.364   5.487 -0.4292  2.0012 -1.6699
 8720SOL    HW237623   1.074   2.328   5.336  0.6360 -1.9022 -0.2609
 8721SOL     OW37624   2.619   0.955  13.867  0.1048 -0.2312 -0.6056
 8721SOL    HW137625   2.607   0.866  13.833  1.0162 -2.6801  5.6420
 8721SOL    HW237626   2.571   0.943  13.948 -0.8373  3.5681 -0.5816
 8722SOL     OW37627   0.917   1.788   5.806 -0.1160  0.0657 -0.2762
 8722SOL    HW137628   0.993   1.793   5.865  0.3287 -0.8673 -0.7631
 8722SOL    HW237629   0.899   1.882   5.810  0.3099  0.1638 -0.7155
 8723SOL     OW37630   1.919   3.358  15.287 -0.0920  1.0051  0.3607
 8723SOL    HW137631   1.900   3.268  15.312  1.0307  0.7561  0.3171
 8723SOL    HW237632   1.974   3.391  15.359 -2.0391 -1.1742  2.8291
 8724SOL     OW37633   1.509   3.910   1.335 -0.1927 -0.3384 -0.3007
 8724SOL    HW137634   1.525   3.867   1.419 -0.5549 -0.2286 -0.1758
 8724SOL    HW237635   1.491   3.998   1.367 -1.7319 -0.6759 -0.2149
 8725SOL     OW37636   4.562   2.069   7.163 -0.4120 -0.4935  0.1138
 8725SOL    HW137637   4.535   2.092   7.251  2.1992  1.1734  0.4955
 8725SOL    HW237638   4.630   2.134   7.147  0.9541 -2.1277 -0.8117
 8726SOL     OW37639   4.561   3.331   4.193  0.2545 -0.4586  0.0114
 8726SOL    HW137640   4.577   3.306   4.102  3.7737  0.6072  0.3343
 8726SOL    HW237641   4.614   3.269   4.244 -1.3565 -2.3150 -0.5569
 8727SOL     OW37642   2.825   1.738   3.861  0.2994  0.3093  0.7196
 8727SOL    HW137643   2.892   1.721   3.927  2.0074 -1.8864 -1.5966
 8727SOL    HW237644   2.762   1.786   3.915 -2.4324 -2.7759  0.2774
 8728SOL     OW37645   0.919   0.334   8.790 -0.0450 -0.1876 -0.4359
 8728SOL    HW137646   0.880   0.352   8.704  1.0776  1.5952 -0.5613
 8728SOL    HW237647   0.862   0.391   8.841 -0.5948 -1.2198  0.1052
 8729SOL     OW37648   4.691   1.667   5.896  0.1670  0.3300  0.0154
 8729SOL    HW137649   0.061   1.647   5.896  0.2319  0.6345 -0.2406
 8729SOL    HW237650   4.690   1.745   5.841 -1.1323 -0.0272 -0.4651
 8730SOL     OW37651   1.168   0.117   8.536 -0.5224  0.2956  0.2559
 8730SOL    HW137652   1.083   0.090   8.501  0.5619 -2.6659 -0.1082
 8730SOL    HW237653   1.223   0.068   8.475 -3.3307  0.3842 -2.2996
 8731SOL     OW37654   3.344   1.353   2.675  0.4868 -0.1442 -0.5290
 8731SOL    HW137655   3.324   1.433   2.724 -1.9202 -1.0946  0.0391
 8731SOL    HW237656   3.277   1.357   2.607  0.3596  1.7798 -0.2988
 8732SOL     OW37657   4.272   4.282  15.435 -0.1950  0.3867  0.1344
 8732SOL    HW137658   4.287   4.253  15.525 -2.2219 -3.9755 -0.9721
 8732SOL    HW237659   4.268   4.199  15.388 -0.2891  1.1477 -1.2142
 8733SOL     OW37660   4.647   2.848  17.417 -0.9795  0.4453  0.2283
 8733SOL    HW137661   4.690   2.848  17.331  0.5105  0.6441  0.9835
 8733SOL    HW237662   4.617   2.758  17.417 -1.3800  0.5553 -2.6602
 8734SOL     OW37663   3.593   0.217   6.287 -0.3410  0.4130  0.0921
 8734SOL    HW137664   3.611   0.143   6.345 -0.2137  0.5202  0.1899
 8734SOL    HW237665   3.554   0.278   6.349 -1.6151  2.6168 -2.9039
 8735SOL     OW37666   1.748   0.648   8.859 -0.1923  0.0254 -0.3948
 8735SOL    HW137667   1.783   0.737   8.867 -0.3651  0.1039 -0.5196
 8735SOL    HW237668   1.672   0.664   8.803 -0.0646  0.7092 -0.3754
 8736SOL     OW37669   2.306   2.024   3.697  0.3904  0.0799  0.1534
 8736SOL    HW137670   2.351   1.982   3.624  2.3892  0.4270  1.1802
 8736SOL    HW237671   2.260   2.097   3.656 -1.3227 -1.2996 -0.3470
 8737SOL     OW37672   3.020   3.611   8.423 -0.0910 -0.6810  0.8872
 8737SOL    HW137673   3.022   3.534   8.366  1.1799 -0.3866  0.5341
 8737SOL    HW237674   2.963   3.676   8.383 -0.6061 -0.0480  2.6277
 8738SOL     OW37675   2.482   3.006  12.098  0.0010 -0.0023 -0.0841
 8738SOL    HW137676   2.551   2.968  12.045  1.7871  0.5931  1.8183
 8738SOL    HW237677   2.435   3.063  12.037  0.6594  0.0697 -0.5194
 8739SOL     OW37678   4.480   3.489   0.281  0.2334 -0.0769 -1.1192
 8739SOL    HW137679   4.470   3.544   0.359 -1.1001 -1.0349 -0.6013
 8739SOL    HW237680   4.529   3.550   0.227  1.9366 -0.9446 -0.5427
 8740SOL     OW37681   4.682   0.370   0.047  0.4952 -0.2443 -0.0364
 8740SOL    HW137682   0.033   0.311   0.058 -0.3089 -0.5310  3.6666
 8740SOL    HW237683   4.608   0.312   0.063  0.4248  0.3461  1.6603
 8741SOL     OW37684   3.480   2.694   3.778 -0.0998 -0.6468 -0.6181
 8741SOL    HW137685   3.514   2.606   3.795  2.5594  0.6516  0.7951
 8741SOL    HW237686   3.479   2.701   3.683  0.8939  0.0022 -0.5739
 8742SOL     OW37687   4.545   0.069  17.628  0.5550  0.2335  0.1185
 8742SOL    HW137688   4.548   0.012  17.551 -0.3791 -0.3704  0.5315
 8742SOL    HW237689   4.633   0.053  17.662 -0.2123 -0.6185  1.6731
 8743SOL     OW37690   2.237   3.836   6.059 -0.2926 -0.6791 -0.5501
 8743SOL    HW137691   2.262   3.906   5.999  4.5174 -1.0139  1.0531
 8743SOL    HW237692   2.167   3.880   6.107 -0.0891  0.0092 -0.8911
 8744SOL     OW37693   4.158   1.805   3.323  0.1054  0.0398  0.2588
 8744SOL    HW137694   4.132   1.740   3.388  1.0639 -0.9229 -0.3233
 8744SOL    HW237695   4.243   1.837   3.356  1.1146 -1.1996 -1.1629
 8745SOL     OW37696   3.436   4.153   8.289  0.2269 -0.7436  0.0834
 8745SOL    HW137697   3.513   4.114   8.248  1.2217  1.2785  0.0827
 8745SOL    HW237698   3.375   4.089   8.251  0.7072 -1.6698  0.8797
 8746SOL     OW37699   1.380   2.715  15.054 -0.6969  0.0306  0.3465
 8746SOL    HW137700   1.391   2.627  15.090 -1.3938 -0.1821  0.0409
 8746SOL    HW237701   1.409   2.763  15.131 -0.0186 -2.8058  1.8775
 8747SOL     OW37702   4.455   0.370   5.172  0.0826 -0.0880 -0.0585
 8747SOL    HW137703   4.396   0.441   5.150  1.9049  0.5105 -3.0166
 8747SOL    HW237704   4.497   0.400   5.252 -0.3160 -0.7816  0.4067
 8748SOL     OW37705   2.757   3.803   4.277  0.2279 -0.1915  0.0413
 8748SOL    HW137706   2.846   3.815   4.245  0.3979 -2.2329 -0.2109
 8748SOL    HW237707   2.770   3.717   4.316  1.0054 -0.1467 -0.1153
 8749SOL     OW37708   3.156   4.404   4.765 -0.2385 -0.9957  0.2412
 8749SOL    HW137709   3.063   4.379   4.762 -0.1971 -0.8469 -1.9481
 8749SOL    HW237710   3.175   4.388   4.857  2.4862 -1.6973 -0.4487
 8750SOL     OW37711   3.486   1.898  12.706  0.0282 -0.2911 -0.0093
 8750SOL    HW137712   3.427   1.961  12.663  0.0777 -1.1074 -1.2841
 8750SOL    HW237713   3.448   1.811  12.690  0.0863 -0.2767 -0.2202
 8751SOL     OW37714   3.141   3.193   8.571  0.4152  0.0971  0.2763
 8751SOL    HW137715   3.092   3.161   8.495 -1.2618 -0.0851  1.4529
 8751SOL    HW237716   3.068   3.195   8.632  0.1421 -2.1203  0.0511
 8752SOL     OW37717   3.714   0.758   6.106 -0.1400  0.2419  0.3973
 8752SOL    HW137718   3.722   0.740   6.199  0.4399  1.8356  0.6570
 8752SOL    HW237719   3.802   0.778   6.074 -0.1862  0.8257  0.6365
 8753SOL     OW37720   4.292   0.214  16.268  0.1203 -0.0296 -1.1636
 8753SOL    HW137721   4.277   0.228  16.361  1.3540  1.0287 -1.1293
 8753SOL    HW237722   4.213   0.257  16.236  0.5372 -0.5782 -2.9572
 8754SOL     OW37723   1.353   0.579   4.691 -0.1894 -0.7230 -0.2399
 8754SOL    HW137724   1.446   0.582   4.667 -0.6315  0.8269 -1.7523
 8754SOL    HW237725   1.342   0.638   4.765  3.7967  0.9893 -1.0071
 8755SOL     OW37726   0.131   1.717   7.731  0.1012 -0.4843  0.7133
 8755SOL    HW137727   0.211   1.698   7.780  0.8693 -0.6377 -0.6180
 8755SOL    HW237728   0.114   1.809   7.753 -1.4431 -0.6040  0.0020
 8756SOL     OW37729   3.804   2.070  17.593  0.2498  0.1025 -0.1982
 8756SOL    HW137730   3.721   2.030  17.570 -1.5375  3.2884  0.6409
 8756SOL    HW237731   3.855   2.067  17.512  0.6530  1.0017  0.0157
 8757SOL     OW37732   3.766   0.987   2.998  0.6128 -0.2345  0.1189
 8757SOL    HW137733   3.687   1.028   3.031  0.9269 -0.5275  1.2431
 8757SOL    HW237734   3.820   1.066   2.989 -0.6707  0.5357 -0.8010
 8758SOL     OW37735   0.491   4.318   3.029  0.3171 -0.3396 -0.4873
 8758SOL    HW137736   0.517   4.290   2.941  0.0048 -2.2043  0.0203
 8758SOL    HW237737   0.506   4.239   3.081 -0.0549 -0.7116 -0.9429
 8759SOL     OW37738   1.974   2.062   6.582 -0.4798  0.8060  0.3162
 8759SOL    HW137739   1.920   2.141   6.574 -2.8672 -0.8213  0.4106
 8759SOL    HW237740   1.934   2.008   6.514 -0.8179  0.2176  0.9875
 8760SOL     OW37741   4.678   1.907   4.576 -0.0881 -0.3724 -0.3574
 8760SOL    HW137742   4.683   1.890   4.670 -5.0434 -2.2030 -0.4229
 8760SOL    HW237743   4.600   1.964   4.575  0.9351  1.0118 -1.8568
 8761SOL     OW37744   2.741   2.556   4.485 -0.3367 -0.0718  0.7327
 8761SOL    HW137745   2.791   2.498   4.542  0.3281  0.2685  0.5045
 8761SOL    HW237746   2.714   2.612   4.558  0.7029 -0.0738  1.1142
 8762SOL     OW37747   3.743   4.523   5.710  0.0860 -0.2222 -0.1377
 8762SOL    HW137748   3.799   4.597   5.734  2.1334 -2.0653  0.8417
 8762SOL    HW237749   3.706   4.550   5.626 -0.9802 -0.8105  0.1422
 8763SOL     OW37750   3.963   2.531   6.674 -0.0358  0.0420 -0.4549
 8763SOL    HW137751   4.005   2.506   6.756  1.5690  2.7351 -0.4534
 8763SOL    HW237752   3.995   2.467   6.610 -0.4126  0.0164 -0.6176
 8764SOL     OW37753   2.183   0.164   5.405 -0.3266 -0.2331  0.2326
 8764SOL    HW137754   2.160   0.111   5.482 -0.8186  0.4917  0.5837
 8764SOL    HW237755   2.181   0.092   5.342  1.6770  1.4029 -1.6662
 8765SOL     OW37756   3.745   2.343  10.341  0.0545  0.1691  0.7544
 8765SOL    HW137757   3.782   2.398  10.409  0.7490 -0.2904  0.7504
 8765SOL    HW237758   3.692   2.281  10.391 -2.9493  0.2426 -2.2871
 8766SOL     OW37759   3.415   3.254   9.127 -0.0684 -0.1515 -0.5789
 8766SOL    HW137760   3.404   3.326   9.189  2.3240  0.5872 -1.0144
 8766SOL    HW237761   3.332   3.258   9.080 -1.8339  0.6748  2.6087
 8767SOL     OW37762   1.726   3.735   4.761  0.0240  0.2128  0.0349
 8767SOL    HW137763   1.729   3.831   4.766  0.0287  0.2801 -1.4263
 8767SOL    HW237764   1.817   3.706   4.762  0.2252  0.8243 -1.0053
 8768SOL     OW37765   0.466   4.597   6.377 -0.5126 -0.0119 -0.4758
 8768SOL    HW137766   0.493   4.592   6.285 -0.3666  1.3573 -0.4954
 8768SOL    HW237767   0.541   4.645   6.410  0.4951 -1.0781 -1.2007
 8769SOL     OW37768   2.419   0.853   6.739 -0.1747  0.5478  0.1269
 8769SOL    HW137769   2.428   0.941   6.776 -1.1029  0.6577  0.1025
 8769SOL    HW237770   2.367   0.802   6.801  0.2512  0.4784  0.4316
 8770SOL     OW37771   4.550   3.701   9.047 -0.2272  0.5878  0.3537
 8770SOL    HW137772   4.613   3.740   8.986  0.4911 -0.5795  0.3679
 8770SOL    HW237773   4.609   3.651   9.103  2.0111  1.7297 -1.0215
 8771SOL     OW37774   0.971   1.401   8.338  0.1343  0.2408  0.5665
 8771SOL    HW137775   0.956   1.435   8.427 -0.6881  3.1028 -0.6466
 8771SOL    HW237776   0.880   1.374   8.327  0.0223 -0.7099  3.9371
 8772SOL     OW37777   4.590   2.478   9.310  0.2027  0.8861 -0.1830
 8772SOL    HW137778   4.600   2.440   9.223 -1.5880 -1.7582  0.7570
 8772SOL    HW237779   4.661   2.542   9.306  0.7342  0.2456 -0.9800
 8773SOL     OW37780   4.346   0.410   4.026  0.6719  0.6208  0.4571
 8773SOL    HW137781   4.339   0.470   3.952  1.4281  1.8637  1.4025
 8773SOL    HW237782   4.267   0.430   4.076  2.6026 -2.1633  4.6590
 8774SOL     OW37783   2.239   1.347   2.713 -0.0054 -0.1121 -0.1470
 8774SOL    HW137784   2.179   1.318   2.644  0.6949  0.1267 -0.8612
 8774SOL    HW237785   2.279   1.424   2.672  0.7511 -0.2094  0.4202
 8775SOL     OW37786   1.634   2.376   8.552  0.0420  0.2838 -0.4510
 8775SOL    HW137787   1.570   2.362   8.622  0.5001 -1.4950 -0.3976
 8775SOL    HW237788   1.638   2.471   8.557  1.8820  0.1808  0.2936
 8776SOL     OW37789   2.006   3.763  14.125  0.8317 -0.3208 -0.0360
 8776SOL    HW137790   1.925   3.716  14.106 -0.6245  2.8172 -1.4715
 8776SOL    HW237791   2.066   3.692  14.149  0.1024 -1.0326 -0.3242
 8777SOL     OW37792   0.314   3.062  14.232 -0.5823 -0.0222 -0.3343
 8777SOL    HW137793   0.357   3.137  14.272  0.2772 -1.2036  0.9536
 8777SOL    HW237794   0.374   2.990  14.253 -0.2400  0.7865  1.4289
 8778SOL     OW37795   0.419   2.830   1.168  0.1535 -0.7162  0.3272
 8778SOL    HW137796   0.374   2.820   1.252 -1.3246 -0.5525 -0.4456
 8778SOL    HW237797   0.351   2.847   1.103  0.6155  1.4642  0.3808
 8779SOL     OW37798   4.080   2.537   3.045  0.4109  0.0283  0.0946
 8779SOL    HW137799   4.066   2.490   3.127  0.2816 -0.9651 -0.4931
 8779SOL    HW237800   4.150   2.480   3.012 -0.3573 -0.3198 -0.9376
 8780SOL     OW37801   1.481   2.267   7.976 -0.3751  0.3006  0.0879
 8780SOL    HW137802   1.435   2.350   7.964 -0.0296  0.4299 -0.3124
 8780SOL    HW237803   1.433   2.215   7.911  2.4234 -1.7319 -0.3420
 8781SOL     OW37804   4.408   0.561   4.636 -0.2933 -0.3895  0.2738
 8781SOL    HW137805   4.498   0.571   4.603 -1.4349  1.4946 -2.2928
 8781SOL    HW237806   4.397   0.637   4.693 -2.0117 -2.1783  2.3239
 8782SOL     OW37807   1.353   0.044   7.904  0.2054 -0.3223 -0.4088
 8782SOL    HW137808   1.285   0.016   7.965  0.6685  0.6640  0.5505
 8782SOL    HW237809   1.384   4.686   7.864 -1.3386 -0.9477 -0.3218
 8783SOL     OW37810   4.486   0.232   8.873 -0.0415 -0.5981  0.0066
 8783SOL    HW137811   4.445   0.176   8.939 -1.4775  0.0546 -0.3429
 8783SOL    HW237812   4.570   0.191   8.850  0.3027 -0.9422  1.8784
 8784SOL     OW37813   4.267   3.765   8.557  0.6630 -0.1983 -0.5826
 8784SOL    HW137814   4.244   3.797   8.645  0.4713  0.3372 -0.8291
 8784SOL    HW237815   4.183   3.766   8.512  0.1503 -1.2290  0.3611
 8785SOL     OW37816   0.487   4.495  15.982  0.5246  0.0398 -0.3138
 8785SOL    HW137817   0.548   4.564  16.006 -1.7135  1.7481  0.4618
 8785SOL    HW237818   0.462   4.449  16.062  0.8734 -0.0285 -0.2420
 8786SOL     OW37819   1.460   1.197   2.660 -0.1295  0.3835  0.3092
 8786SOL    HW137820   1.390   1.150   2.614  0.2547  1.2883 -1.2037
 8786SOL    HW237821   1.418   1.282   2.670  2.9427  1.8178  1.1919
 8787SOL     OW37822   3.876   3.815  13.417  0.0178  0.0270 -0.2610
 8787SOL    HW137823   3.805   3.817  13.481  1.1253 -0.4279  1.0069
 8787SOL    HW237824   3.924   3.739  13.453  0.8303  1.0377  0.8145
 8788SOL     OW37825   3.680   3.990  16.470 -0.2895  0.1346 -0.6620
 8788SOL    HW137826   3.696   4.031  16.386 -0.5831 -0.6282 -1.0929
 8788SOL    HW237827   3.740   3.917  16.455  0.5114  0.5819  0.3633
 8789SOL     OW37828   3.029   4.145   6.594 -0.4244  0.3908 -0.5336
 8789SOL    HW137829   3.010   4.094   6.672 -1.8492  1.3043 -0.2761
 8789SOL    HW237830   2.953   4.201   6.576  0.6587  1.8422 -0.5562
 8790SOL     OW37831   0.341   4.567   4.676  0.3522 -0.0468 -1.0209
 8790SOL    HW137832   0.335   4.509   4.601 -1.0690 -0.4370 -0.6036
 8790SOL    HW237833   0.436   4.566   4.687  0.4115  1.7422 -1.4406
 8791SOL     OW37834   3.097   4.481   0.790  0.1830 -0.1536 -0.3524
 8791SOL    HW137835   3.119   4.526   0.708  0.4893  0.2080 -0.0683
 8791SOL    HW237836   3.042   4.409   0.757  0.9189 -1.3105  0.9176
 8792SOL     OW37837   1.876   3.892   1.163  0.2106  0.2346 -0.0182
 8792SOL    HW137838   1.874   3.984   1.138  0.2790 -0.1072 -1.3346
 8792SOL    HW237839   1.968   3.871   1.147  0.4281  2.0560 -1.0997
 8793SOL     OW37840   4.140   3.711   8.933 -0.6039 -0.4159  0.5020
 8793SOL    HW137841   4.084   3.771   8.885 -0.1253  0.5991  1.2045
 8793SOL    HW237842   4.096   3.629   8.912  0.4992 -1.4043  2.1213
 8794SOL     OW37843   3.259   2.217   6.645 -0.1304  0.6117  0.4298
 8794SOL    HW137844   3.288   2.257   6.563 -0.2473 -2.0203 -0.8978
 8794SOL    HW237845   3.303   2.280   6.702 -0.9173  0.2972  1.3731
 8795SOL     OW37846   0.582   3.094   4.773 -0.0710  0.0807 -0.2127
 8795SOL    HW137847   0.589   3.047   4.856  2.0092 -0.8919 -0.9434
 8795SOL    HW237848   0.487   3.095   4.758  0.2881 -1.5853 -2.6019
 8796SOL     OW37849   0.877   2.645  11.694 -0.1578 -0.4255  0.2490
 8796SOL    HW137850   0.864   2.680  11.606  2.3172 -0.0081  0.0342
 8796SOL    HW237851   0.838   2.720  11.740  2.5355  0.6163  0.8627
 8797SOL     OW37852   0.909   1.607   7.220  0.1894  0.0540 -0.5742
 8797SOL    HW137853   0.938   1.636   7.133  0.3796 -0.3663 -0.6524
 8797SOL    HW237854   0.948   1.519   7.219  0.4584  0.1752 -1.0373
 8798SOL     OW37855   0.412   0.639   2.492 -0.2740 -0.5419 -0.1993
 8798SOL    HW137856   0.493   0.689   2.486 -1.2081  1.3276  2.7642
 8798SOL    HW237857   0.401   0.634   2.587  1.1596 -1.3551 -0.0807
 8799SOL     OW37858   0.455   0.019  11.058  0.1579  0.1397  0.2470
 8799SOL    HW137859   0.487   0.049  10.973  1.7514 -3.3062 -0.3685
 8799SOL    HW237860   0.382   0.080  11.069 -0.1081  0.0009 -0.7411
 8800SOL     OW37861   3.189   4.129  12.559  0.4525 -0.3295 -0.2257
 8800SOL    HW137862   3.260   4.133  12.494 -0.4993 -1.6685 -1.3315
 8800SOL    HW237863   3.238   4.181  12.623  1.0501 -1.1002 -0.0579
 8801SOL     OW37864   3.140   2.331  10.733 -0.2251 -0.2717 -0.0276
 8801SOL    HW137865   3.197   2.261  10.764 -1.7203 -1.5435 -0.1723
 8801SOL    HW237866   3.106   2.371  10.814  1.8453 -0.3490  0.8888
 8802SOL     OW37867   3.138   2.504   7.569  0.3258  0.2954  0.3156
 8802SOL    HW137868   3.180   2.418   7.572  0.1774  0.2160  0.1121
 8802SOL    HW237869   3.215   2.554   7.598  1.8066 -0.4923 -2.2402
 8803SOL     OW37870   4.384   3.491  12.921  0.1821  0.2515  0.1451
 8803SOL    HW137871   4.423   3.560  12.975 -0.9634  0.3575  0.8580
 8803SOL    HW237872   4.352   3.543  12.848 -1.4321 -1.3738 -0.3088
 8804SOL     OW37873   3.278   4.443   5.175  0.7425 -0.0554  0.2562
 8804SOL    HW137874   3.299   4.391   5.254  0.9977  0.8476  0.7798
 8804SOL    HW237875   3.228   4.379   5.125  0.7681 -1.1221  1.5988
 8805SOL     OW37876   1.150   1.150  11.955 -0.0792 -0.1605 -0.0452
 8805SOL    HW137877   1.163   1.169  11.863  0.3633 -1.7962 -0.3202
 8805SOL    HW237878   1.081   1.084  11.948  0.8809 -1.4346  2.2814
 8806SOL     OW37879   2.458   3.025   2.593  0.4839 -0.0346 -0.0404
 8806SOL    HW137880   2.535   3.071   2.560  1.3355 -0.0491  1.9387
 8806SOL    HW237881   2.499   2.941   2.613  1.9042  0.2890 -1.5945
 8807SOL     OW37882   2.292   1.644   3.189  0.8206  0.3496 -0.0439
 8807SOL    HW137883   2.217   1.625   3.246  0.9399  0.0919  0.0270
 8807SOL    HW237884   2.265   1.735   3.182  3.0982  0.9118 -1.3367
 8808SOL     OW37885   2.644   0.014   6.138 -0.2548  0.4340  0.5087
 8808SOL    HW137886   2.555   0.039   6.110  0.5700  2.3118 -0.4416
 8808SOL    HW237887   2.646   4.643   6.126  3.7093  0.6357 -0.3314
 8809SOL     OW37888   2.030   4.036  17.246  0.3454 -0.2367 -0.1055
 8809SOL    HW137889   2.046   3.949  17.283  1.9849 -1.1691 -2.9521
 8809SOL    HW237890   1.946   4.068  17.278  0.1370  1.4701 -2.3093
 8810SOL     OW37891   3.229   0.359  17.202 -0.1163  0.3069 -0.3651
 8810SOL    HW137892   3.214   0.346  17.295  2.5193 -0.5695 -0.0607
 8810SOL    HW237893   3.291   0.432  17.198  3.0178 -2.4946 -3.4270
 8811SOL     OW37894   4.357   0.182   7.654  0.2759 -0.2079  0.2664
 8811SOL    HW137895   4.377   0.096   7.691  0.7090  0.4652  1.5642
 8811SOL    HW237896   4.412   0.237   7.709 -0.7962  1.4369 -0.2929
 8812SOL     OW37897   0.945   0.641  11.563  0.2134 -0.6627  0.1996
 8812SOL    HW137898   0.934   0.551  11.595  1.8729 -2.0216 -3.1052
 8812SOL    HW237899   0.985   0.676  11.643 -1.7506 -0.3396  1.0429
 8813SOL     OW37900   0.987   4.012   5.293 -0.0543 -0.3024 -0.2380
 8813SOL    HW137901   0.928   4.068   5.242 -2.4808 -0.8609  1.9266
 8813SOL    HW237902   1.064   4.034   5.241  0.7723 -1.0734  0.6772
 8814SOL     OW37903   0.608   1.304   3.464 -0.2979  0.2084 -0.0926
 8814SOL    HW137904   0.522   1.267   3.445 -0.3382 -0.2504  0.9831
 8814SOL    HW237905   0.613   1.282   3.557  2.2924  4.3039  0.7378
 8815SOL     OW37906   4.146   3.409   2.809 -0.0150  0.3847 -0.1265
 8815SOL    HW137907   4.160   3.413   2.715 -1.8326  1.3381 -0.3611
 8815SOL    HW237908   4.159   3.317   2.832 -2.2975  0.8363  3.0240
 8816SOL     OW37909   2.277   2.819   5.539 -0.5093 -0.1570 -0.0095
 8816SOL    HW137910   2.324   2.740   5.513  0.0012 -0.1554  0.8819
 8816SOL    HW237911   2.248   2.805   5.629 -3.7673  1.7689 -0.7489
 8817SOL     OW37912   0.849   0.820   6.290  0.4125  0.8920  0.3007
 8817SOL    HW137913   0.771   0.870   6.268 -1.2250 -2.0759 -0.4721
 8817SOL    HW237914   0.882   0.805   6.202 -2.1047 -2.1036 -0.1259
 8818SOL     OW37915   2.942   1.025   2.983 -0.1865 -0.0633 -0.4467
 8818SOL    HW137916   2.910   1.098   3.037 -0.1455  0.1254 -0.6809
 8818SOL    HW237917   2.967   1.079   2.908  0.8437  1.1556  0.7665
 8819SOL     OW37918   2.480   3.445   6.653  0.4790  0.3156  0.4178
 8819SOL    HW137919   2.543   3.397   6.600  0.2658  2.3266 -1.6588
 8819SOL    HW237920   2.518   3.436   6.740  2.0295 -0.8473 -0.3854
 8820SOL     OW37921   1.550   2.177   2.782 -0.4558 -0.4256  0.1582
 8820SOL    HW137922   1.464   2.135   2.773 -1.3427  0.8897  2.4361
 8820SOL    HW237923   1.599   2.095   2.770  2.8709  2.1209 -3.6439
 8821SOL     OW37924   4.293   4.713   3.720 -0.2707  0.0160 -0.2509
 8821SOL    HW137925   4.287   0.084   3.708 -0.3399 -0.3515 -3.1196
 8821SOL    HW237926   4.240   4.696   3.798  1.8648 -1.2524  0.9493
 8822SOL     OW37927   3.492   2.845   4.384  0.3805 -0.0907 -0.1864
 8822SOL    HW137928   3.416   2.786   4.383  0.4854 -0.2569  1.0855
 8822SOL    HW237929   3.556   2.792   4.338  0.8935  0.1726  0.2275
 8823SOL     OW37930   2.503   1.972   4.986 -0.1637  0.0585  0.2667
 8823SOL    HW137931   2.503   2.053   4.934  0.7391 -0.3085 -0.2938
 8823SOL    HW237932   2.409   1.953   4.987 -0.0783 -0.4579 -0.9534
 8824SOL     OW37933   2.583   0.560   4.537  0.0791 -0.3617 -0.4395
 8824SOL    HW137934   2.631   0.587   4.459 -0.1696  0.2362 -0.3893
 8824SOL    HW237935   2.517   0.508   4.490  0.0024  0.3799 -1.1496
 8825SOL     OW37936   3.070   0.564   5.393  0.1015 -0.2246 -0.1050
 8825SOL    HW137937   2.988   0.599   5.429 -0.1372  0.8189 -1.6830
 8825SOL    HW237938   3.043   0.485   5.345 -1.1721  0.2655 -0.2007
 8826SOL     OW37939   1.387   2.361   2.651  0.5441 -0.4523 -0.6432
 8826SOL    HW137940   1.457   2.322   2.703 -0.6115 -1.0326  0.4997
 8826SOL    HW237941   1.422   2.365   2.562 -0.2211  2.0941 -0.8258
 8827SOL     OW37942   1.676   2.376   3.788 -0.3955  0.7795  0.0499
 8827SOL    HW137943   1.742   2.414   3.847  0.1977 -2.1651  1.3044
 8827SOL    HW237944   1.724   2.385   3.706  0.0506  0.9675  0.3263
 8828SOL     OW37945   0.529   3.711   4.964  0.4910 -0.0149  0.2412
 8828SOL    HW137946   0.467   3.638   4.963 -1.6943  1.8768  0.2443
 8828SOL    HW237947   0.612   3.664   4.951 -0.4213 -1.6830  0.4566
 8829SOL     OW37948   0.498   4.679  13.609  0.2783  0.4318  0.3341
 8829SOL    HW137949   0.500   0.014  13.685 -0.5842  1.1756 -0.2100
 8829SOL    HW237950   0.416   4.635  13.631 -0.1859 -0.0605 -2.3602
 8830SOL     OW37951   0.294   1.042   2.099 -0.7246 -0.3139  0.2456
 8830SOL    HW137952   0.218   1.082   2.141 -0.7701  0.4062 -0.5204
 8830SOL    HW237953   0.358   1.104   2.135  0.1679 -0.3750 -1.2462
 8831SOL     OW37954   2.338   1.388   8.658  0.2028 -0.4898 -0.0473
 8831SOL    HW137955   2.429   1.370   8.682  0.2980  0.0116 -0.0460
 8831SOL    HW237956   2.353   1.392   8.564  0.3340  2.9469  0.1136
 8832SOL     OW37957   1.430   0.725  13.119  0.0916 -0.2472  0.2292
 8832SOL    HW137958   1.380   0.769  13.050  0.4363  0.5754  0.5039
 8832SOL    HW237959   1.383   0.762  13.193 -0.8828  0.4492 -0.7389
 8833SOL     OW37960   1.186   1.972   4.758  0.6988 -0.1322 -0.1201
 8833SOL    HW137961   1.230   2.019   4.687 -0.6055  1.5648  0.1888
 8833SOL    HW237962   1.261   1.924   4.794 -0.9392 -2.4343  0.2033
 8834SOL     OW37963   2.716   4.024   0.445 -0.1432 -0.0491  0.0513
 8834SOL    HW137964   2.789   4.064   0.399  0.8121 -1.6021  0.2137
 8834SOL    HW237965   2.750   3.942   0.482 -0.1206 -1.2193 -2.5493
 8835SOL     OW37966   0.870   1.339   5.771  0.2717  0.1860 -0.0055
 8835SOL    HW137967   0.883   1.277   5.843 -0.6687  0.8062  0.6998
 8835SOL    HW237968   0.795   1.387   5.805  0.0161  0.0353 -0.3576
 8836SOL     OW37969   1.002   2.844   1.837  0.2859 -0.0375 -0.0235
 8836SOL    HW137970   0.924   2.899   1.849 -0.5724 -1.1131 -0.6767
 8836SOL    HW237971   1.043   2.873   1.918 -0.6988  4.2198 -1.0610
 8837SOL     OW37972   0.691   3.147   5.367 -0.3293 -0.6679 -0.1494
 8837SOL    HW137973   0.688   3.072   5.426  1.1808  0.5362  1.4302
 8837SOL    HW237974   0.603   3.139   5.329  0.8190 -0.2546 -2.9170
 8838SOL     OW37975   2.231   3.958  16.284 -0.0883  0.5927 -0.2206
 8838SOL    HW137976   2.209   4.033  16.338 -1.3656  0.2872 -0.3153
 8838SOL    HW237977   2.270   3.897  16.347  1.7005 -0.2724 -2.1373
 8839SOL     OW37978   3.023   2.576   4.074 -0.1556 -0.4756 -0.0967
 8839SOL    HW137979   3.118   2.583   4.068 -0.2159  0.9427  0.6126
 8839SOL    HW237980   2.992   2.619   4.154  1.7669 -0.3772  0.5972
 8840SOL     OW37981   4.200   1.088   5.270 -0.4480  0.3906  0.1479
 8840SOL    HW137982   4.225   0.998   5.251 -2.9895 -0.0098 -1.2224
 8840SOL    HW237983   4.202   1.131   5.185 -2.9927  0.1182 -0.0386
 8841SOL     OW37984   1.758   0.374   3.762  0.5742 -0.1648 -0.1945
 8841SOL    HW137985   1.806   0.446   3.803 -0.1587  0.2767 -0.1334
 8841SOL    HW237986   1.791   0.306   3.821  2.0028 -0.7468 -1.6462
 8842SOL     OW37987   2.369   3.074   6.656 -0.3578  0.6303 -0.4616
 8842SOL    HW137988   2.438   3.069   6.721  0.3132  0.4317 -1.1879
 8842SOL    HW237989   2.418   3.113   6.584 -0.1764 -2.7738 -2.1814
 8843SOL     OW37990   1.774   3.018  16.861  0.1799  0.1856 -0.4974
 8843SOL    HW137991   1.764   3.109  16.834 -0.0377 -0.2967 -2.0210
 8843SOL    HW237992   1.748   3.020  16.953 -1.1542  0.9825 -0.8858
 8844SOL     OW37993   3.480   0.023   4.725 -0.0159 -0.2754 -0.9320
 8844SOL    HW137994   3.431   0.104   4.711 -0.2652  0.0157  1.4815
 8844SOL    HW237995   3.548   0.048   4.789 -0.6142 -0.2181 -0.3122
 8845SOL     OW37996   2.705   1.052   5.321  0.5014 -1.0782 -0.2835
 8845SOL    HW137997   2.734   1.018   5.237  0.0573 -2.0738 -0.0406
 8845SOL    HW237998   2.633   0.997   5.353  0.3944 -0.0503  1.3044
 8846SOL     OW37999   3.311   3.097   3.562 -0.0989 -0.3266  0.4151
 8846SOL    HW138000   3.265   3.148   3.496  1.0571  0.6495  0.3526
 8846SOL    HW238001   3.370   3.159   3.605  0.5067 -0.2186 -0.5604
 8847SOL     OW38002   3.579   0.569   6.924 -0.2288 -0.1623  0.3165
 8847SOL    HW138003   3.620   0.484   6.909 -0.2090 -0.1886  0.5183
 8847SOL    HW238004   3.654   0.628   6.926 -0.6902  0.5415 -2.2817
 8848SOL     OW38005   2.526   1.572   4.803  0.2571 -0.0059 -0.0467
 8848SOL    HW138006   2.438   1.546   4.830  0.3888  0.1826  0.5745
 8848SOL    HW238007   2.540   1.630   4.878 -0.8377  0.5140 -0.2446
 8849SOL     OW38008   0.667   3.027  12.690 -0.5485  0.0190  0.4143
 8849SOL    HW138009   0.647   3.051  12.600  1.3738  0.7217  0.1903
 8849SOL    HW238010   0.608   2.953  12.701  2.2502 -2.1129  1.1036
 8850SOL     OW38011   0.995   3.515   6.865  0.4039  0.0595 -0.4814
 8850SOL    HW138012   0.991   3.421   6.854  1.6833  0.2535 -2.4249
 8850SOL    HW238013   1.090   3.527   6.862  0.2775  1.1210 -0.3333
 8851SOL     OW38014   1.642   3.607   9.373 -0.1295  0.0601 -0.5015
 8851SOL    HW138015   1.668   3.579   9.285  0.8559 -0.9688  0.1233
 8851SOL    HW238016   1.565   3.554   9.397 -0.5553  0.6088 -0.6414
 8852SOL     OW38017   3.756   4.238  13.727 -0.3606  0.1915  0.7777
 8852SOL    HW138018   3.785   4.157  13.686 -2.0717  1.0880 -2.2433
 8852SOL    HW238019   3.741   4.299  13.654  0.0936 -2.4133 -1.4894
 8853SOL     OW38020   3.629   2.980   5.125 -0.5955  0.0062 -0.2032
 8853SOL    HW138021   3.651   2.991   5.218  0.1697  0.9122 -0.5002
 8853SOL    HW238022   3.642   2.888   5.102 -0.8336 -0.3272  0.9877
 8854SOL     OW38023   1.959   4.349   2.540  0.2438  0.5801  0.1707
 8854SOL    HW138024   1.871   4.358   2.579  1.2622  0.6667  2.4565
 8854SOL    HW238025   1.999   4.399   2.611  1.3345 -1.1779  0.7984
 8855SOL     OW38026   1.556   1.089  11.646 -0.2910 -0.3260  0.2093
 8855SOL    HW138027   1.647   1.058  11.643 -1.0873 -2.6842  0.2661
 8855SOL    HW238028   1.559   1.178  11.680  1.5428 -0.3003 -0.0063
 8856SOL     OW38029   0.408   4.391   7.462 -0.2975  0.4560  0.1863
 8856SOL    HW138030   0.313   4.404   7.452 -0.6989 -3.5966 -1.0890
 8856SOL    HW238031   0.418   4.313   7.516 -0.7591  0.2198 -0.0720
 8857SOL     OW38032   1.757   4.143   3.360  1.0072  0.1858  0.2053
 8857SOL    HW138033   1.708   4.064   3.380 -0.1066  0.9947  0.6783
 8857SOL    HW238034   1.701   4.200   3.307 -0.3944 -1.1458  0.2532
 8858SOL     OW38035   2.846   1.185   7.254  0.7288 -0.1234  0.1625
 8858SOL    HW138036   2.850   1.265   7.202  1.5858 -1.6681 -2.1964
 8858SOL    HW238037   2.847   1.119   7.184  1.2932 -1.6442  1.5951
 8859SOL     OW38038   2.967   2.858   5.914 -0.4580 -0.0566  0.5338
 8859SOL    HW138039   2.980   2.763   5.916  0.4685  0.1231  2.2731
 8859SOL    HW238040   3.048   2.870   5.863 -1.9220 -2.4923 -2.3654
 8860SOL     OW38041   2.539   4.045   0.863  0.0510  0.0865 -0.1219
 8860SOL    HW138042   2.513   3.999   0.783  0.1622  0.1928 -0.2187
 8860SOL    HW238043   2.623   4.005   0.882 -0.4955 -1.4108 -0.9103
 8861SOL     OW38044   4.080   2.442  14.701 -0.6442 -0.2109  0.3872
 8861SOL    HW138045   4.089   2.436  14.796 -1.7824 -0.1608  0.5070
 8861SOL    HW238046   4.009   2.506  14.695 -3.6832 -3.4165  2.2118
 8862SOL     OW38047   3.990   1.139   2.966  0.4130  0.3271 -0.4912
 8862SOL    HW138048   4.028   1.213   3.012 -0.6834 -0.1884  1.2240
 8862SOL    HW238049   3.959   1.184   2.888 -1.3537  0.6132  0.3813
 8863SOL     OW38050   4.337   2.831  14.479 -0.3933 -0.1787 -0.0316
 8863SOL    HW138051   4.325   2.868  14.567  2.9124 -0.5294  0.5432
 8863SOL    HW238052   4.431   2.817  14.481 -0.6891 -2.1531 -0.7089
 8864SOL     OW38053   1.840   3.772   1.419 -0.3684 -0.3415 -0.2664
 8864SOL    HW138054   1.898   3.698   1.401 -0.3004 -0.5744  0.9355
 8864SOL    HW238055   1.846   3.812   1.332  1.6409 -0.2338 -0.0620
 8865SOL     OW38056   3.492   1.822  13.905  0.9140  0.0691  0.0278
 8865SOL    HW138057   3.488   1.917  13.901 -0.6029  0.0382  0.9200
 8865SOL    HW238058   3.398   1.803  13.902  0.8614  0.1950  1.1459
 8866SOL     OW38059   0.087   0.286   3.055  0.7785  0.0026 -0.3167
 8866SOL    HW138060   0.149   0.346   3.096  0.8131 -0.1532 -0.1483
 8866SOL    HW238061   0.112   0.296   2.963 -0.9924 -0.0738 -0.8166
 8867SOL     OW38062   0.665   1.832  15.278  0.0777  0.3273 -0.2258
 8867SOL    HW138063   0.628   1.870  15.358  0.3224  0.3888 -0.1415
 8867SOL    HW238064   0.697   1.750  15.315  0.0915  0.6720  0.5349
 8868SOL     OW38065   1.290   1.128   0.663  0.3055 -0.1525  0.7075
 8868SOL    HW138066   1.211   1.076   0.677  0.6164 -0.6599  0.5892
 8868SOL    HW238067   1.346   1.083   0.725  0.8784 -1.5572 -0.8310
 8869SOL     OW38068   0.889   2.956   8.014  0.0453  0.1715  0.1008
 8869SOL    HW138069   0.823   3.006   7.966 -1.6110  0.1847  2.3978
 8869SOL    HW238070   0.960   2.984   7.955  0.2484 -1.5572 -0.4725
 8870SOL     OW38071   3.508   3.041  11.178 -0.2769  0.3827  0.4811
 8870SOL    HW138072   3.564   2.966  11.159 -2.7613 -0.9238 -1.5971
 8870SOL    HW238073   3.544   3.059  11.265 -0.7760  1.1075  0.5417
 8871SOL     OW38074   2.834   1.252   2.144 -0.2619  0.0652 -0.3322
 8871SOL    HW138075   2.744   1.258   2.113  0.2007 -1.0625 -1.8819
 8871SOL    HW238076   2.816   1.296   2.227  2.1647  3.2803 -1.5094
 8872SOL     OW38077   2.969   2.425   6.765 -0.4046  0.3166  0.1272
 8872SOL    HW138078   2.982   2.499   6.824  0.2346  1.4393 -1.4166
 8872SOL    HW238079   2.932   2.475   6.693 -2.1547  0.3508  1.0657
 8873SOL     OW38080   2.582   0.319  11.854 -0.0329  0.2318  0.3374
 8873SOL    HW138081   2.574   0.281  11.942  0.7915  0.6539  0.5849
 8873SOL    HW238082   2.676   0.315  11.838 -0.3773 -0.2149 -1.5924
 8874SOL     OW38083   1.010   1.121   8.473  0.1011  0.1590 -0.0063
 8874SOL    HW138084   1.021   1.177   8.549  0.4283 -1.8513  1.4160
 8874SOL    HW238085   1.076   1.054   8.491 -0.5533  0.0084  1.7533
 8875SOL     OW38086   3.092   3.658   0.456  0.0853 -0.1856  0.2150
 8875SOL    HW138087   3.115   3.565   0.453  1.5764  0.1792  0.5403
 8875SOL    HW238088   3.055   3.657   0.545 -0.0554 -3.6364  0.1282
 8876SOL     OW38089   3.619   3.488   8.678 -0.1352 -0.5615 -0.7111
 8876SOL    HW138090   3.633   3.551   8.749 -0.5908 -1.1928 -0.0533
 8876SOL    HW238091   3.651   3.547   8.610  0.6520  0.2519  0.3675
 8877SOL     OW38092   4.030   4.063  14.591  0.2299 -0.4467 -0.3467
 8877SOL    HW138093   4.082   4.137  14.621 -0.9789  0.5422 -0.7165
 8877SOL    HW238094   3.988   4.036  14.673 -1.6485 -0.0611 -1.1901
 8878SOL     OW38095   2.409   2.968   8.981  0.0026 -0.0505  0.4389
 8878SOL    HW138096   2.434   2.930   9.065 -2.3664 -0.8323  0.7751
 8878SOL    HW238097   2.447   2.905   8.919 -0.6967 -0.8623  0.8334
 8879SOL     OW38098   2.841   0.553   4.283 -0.1479 -0.3219  0.7868
 8879SOL    HW138099   2.866   0.473   4.329 -0.1707  0.4574  2.1580
 8879SOL    HW238100   2.922   0.602   4.298  2.1198 -3.5848 -0.7833
 8880SOL     OW38101   1.462   2.033   9.070  0.1162  0.6640  0.6823
 8880SOL    HW138102   1.480   2.030   9.164 -0.2332  2.0359  0.7993
 8880SOL    HW238103   1.396   1.965   9.059 -0.3666  1.5572 -1.8977
 8881SOL     OW38104   0.983   3.995   4.072 -0.1576  0.4137  0.7751
 8881SOL    HW138105   1.069   3.970   4.037 -0.5623  1.4947 -0.9622
 8881SOL    HW238106   0.953   3.909   4.100 -1.8068  1.0627  1.0038
 8882SOL     OW38107   1.708   2.129   3.173  0.4084  0.1117 -0.1291
 8882SOL    HW138108   1.799   2.150   3.155  0.2956  1.6667  1.1347
 8882SOL    HW238109   1.706   2.042   3.134  0.0841  1.8133 -3.8710
 8883SOL     OW38110   4.049   0.875  17.389 -0.5576  0.3245 -0.5121
 8883SOL    HW138111   4.095   0.881  17.305 -1.5566 -0.5085 -1.1173
 8883SOL    HW238112   3.959   0.856  17.363 -0.8461  0.8236  0.1648
 8884SOL     OW38113   3.297   2.855   5.337  0.5719  0.1079  0.2332
 8884SOL    HW138114   3.258   2.799   5.268  0.7798 -0.7937  0.8485
 8884SOL    HW238115   3.374   2.805   5.364  0.5983 -0.9816 -1.8264
 8885SOL     OW38116   1.176   4.010   5.097 -0.4283  0.2210 -0.3171
 8885SOL    HW138117   1.121   4.010   5.019 -1.9923 -1.6063  0.7930
 8885SOL    HW238118   1.212   3.922   5.107 -0.7204  0.4264  2.5768
 8886SOL     OW38119   1.012   1.171  15.721  0.4095  0.7980  0.1060
 8886SOL    HW138120   1.058   1.233  15.778  0.8544  0.9913 -0.4651
 8886SOL    HW238121   1.004   1.096  15.780  1.9822 -1.3557 -2.3816
 8887SOL     OW38122   3.101   0.309   7.887  0.3733  0.6057  0.1488
 8887SOL    HW138123   3.125   0.238   7.827 -0.8777 -0.4456  0.9072
 8887SOL    HW238124   3.121   0.382   7.829 -0.2013 -0.0242 -0.8412
 8888SOL     OW38125   4.220   4.471   2.861  0.0676  0.3467 -0.4434
 8888SOL    HW138126   4.285   4.504   2.799 -1.5893  2.5552 -0.9874
 8888SOL    HW238127   4.148   4.464   2.799 -0.5350 -0.9228  0.3839
 8889SOL     OW38128   3.044   4.030   7.338  0.0506 -0.3679  0.2996
 8889SOL    HW138129   3.031   4.072   7.253  0.8304 -0.7246 -0.0003
 8889SOL    HW238130   3.009   4.099   7.395 -1.2274 -1.3660  0.7370
 8890SOL     OW38131   3.828   0.459   5.565 -0.8927  0.4400 -0.1601
 8890SOL    HW138132   3.797   0.548   5.582 -2.4938 -0.6169  2.3648
 8890SOL    HW238133   3.745   0.417   5.541 -2.0413  4.0534 -2.5765
 8891SOL     OW38134   4.671   0.154   2.544 -0.1946  0.5974 -0.1919
 8891SOL    HW138135   4.652   0.105   2.464 -2.0273 -0.2352  0.7720
 8891SOL    HW238136   0.030   0.111   2.568 -0.5077  0.7936  1.2146
 8892SOL     OW38137   0.291   0.326   7.035 -0.3170 -0.2600 -0.0318
 8892SOL    HW138138   0.325   0.238   7.021  0.3593  0.0510 -0.3704
 8892SOL    HW238139   0.207   0.315   6.990  0.1665  0.3441 -1.0916
 8893SOL     OW38140   1.166   0.286   7.196  0.5238  0.4371  0.1343
 8893SOL    HW138141   1.171   0.243   7.281  0.4487 -0.0110 -0.0913
 8893SOL    HW238142   1.213   0.227   7.138 -0.0624  0.0414  0.0623
 8894SOL     OW38143   0.261   0.297   5.606  0.2000  0.7484 -0.6261
 8894SOL    HW138144   0.222   0.262   5.525 -1.4160 -0.2973  0.6105
 8894SOL    HW238145   0.195   0.263   5.666  0.9608 -0.9698 -0.7651
 8895SOL     OW38146   2.960   4.281  12.752  0.3386  0.4086  0.5223
 8895SOL    HW138147   2.999   4.296  12.838 -0.3770  2.6904  0.4370
 8895SOL    HW238148   2.908   4.202  12.770 -0.8301  1.1296  0.2907
 8896SOL     OW38149   1.870   1.211   3.258 -0.0162  0.1038  0.0109
 8896SOL    HW138150   1.958   1.188   3.227 -0.2306  0.7145 -1.0502
 8896SOL    HW238151   1.883   1.305   3.255  2.1143 -0.1982 -0.1530
 8897SOL     OW38152   2.639   1.561  12.279 -0.7590 -0.5903 -0.2449
 8897SOL    HW138153   2.589   1.543  12.199 -0.7654  2.4006 -0.9070
 8897SOL    HW238154   2.570   1.535  12.341  1.1031 -2.6189  1.0048
 8898SOL     OW38155   0.939   0.654  15.780  0.1503  0.3178  0.0380
 8898SOL    HW138156   0.907   0.612  15.860 -1.2308  0.2654 -0.5527
 8898SOL    HW238157   0.920   0.585  15.716  1.5201  0.0158 -0.0462
 8899SOL     OW38158   0.065   0.388   7.490 -0.5907  0.3007  0.6985
 8899SOL    HW138159   0.001   0.320   7.511  1.1226 -0.9838  1.7538
 8899SOL    HW238160   0.146   0.355   7.530 -0.1626  1.4706  0.8101
 8900SOL     OW38161   4.320   3.820  10.132 -0.4438  0.1552 -0.1877
 8900SOL    HW138162   4.289   3.734  10.106  1.9897 -0.1359 -2.0583
 8900SOL    HW238163   4.318   3.813  10.228 -2.8854 -0.9729 -0.3234
 8901SOL     OW38164   3.380   2.163   5.529 -0.3202  0.1805 -0.0774
 8901SOL    HW138165   3.384   2.102   5.456 -2.4019 -2.4979  2.0490
 8901SOL    HW238166   3.413   2.247   5.495 -1.1884  1.0822  1.2832
 8902SOL     OW38167   2.247   3.657   3.901  0.1064  0.1275  0.1715
 8902SOL    HW138168   2.168   3.617   3.864 -1.7410  2.2055  1.8321
 8902SOL    HW238169   2.305   3.620   3.835 -1.6003  0.0821 -1.2992
 8903SOL     OW38170   4.651   4.694  15.107 -0.4255  0.4304 -0.2842
 8903SOL    HW138171   4.572   4.660  15.065 -0.0889 -0.9229  0.1836
 8903SOL    HW238172   4.615   0.054  15.135  0.6189  0.9084 -0.3671
 8904SOL     OW38173   0.051   1.915   0.639 -0.3828  0.3199 -0.2017
 8904SOL    HW138174   0.111   1.902   0.712 -1.3173 -1.2448  0.2830
 8904SOL    HW238175   4.696   1.953   0.679 -0.4131 -0.0970  0.1382
 8905SOL     OW38176   1.645   0.666  16.021 -0.4019  0.3882 -0.4425
 8905SOL    HW138177   1.557   0.700  16.004  0.0260  1.6644 -0.1326
 8905SOL    HW238178   1.684   0.680  15.935  1.2119  3.4986  0.7794
 8906SOL     OW38179   0.483   4.061   5.170  0.6118 -0.5324 -0.3500
 8906SOL    HW138180   0.488   4.053   5.075 -1.1540 -1.2601 -0.3909
 8906SOL    HW238181   0.536   3.987   5.201  0.0378 -0.5990  0.4819
 8907SOL     OW38182   2.837   4.326   6.530 -0.4400 -0.0217  0.0984
 8907SOL    HW138183   2.752   4.302   6.491 -1.1408  3.8019 -0.7418
 8907SOL    HW238184   2.824   4.419   6.512 -0.8552  0.0643  0.8364
 8908SOL     OW38185   2.038   2.173   9.062 -0.5497 -0.8454 -0.3296
 8908SOL    HW138186   2.033   2.267   9.043  0.9715 -0.6509  0.1778
 8908SOL    HW238187   2.038   2.178   9.157 -1.0467 -2.1581 -0.2669
 8909SOL     OW38188   4.209   2.474  12.917  0.3330  0.4530 -0.3347
 8909SOL    HW138189   4.290   2.435  12.951 -2.1087 -2.1737  2.3318
 8909SOL    HW238190   4.161   2.398  12.885 -0.1875  0.6778 -0.0838
 8910SOL     OW38191   3.041   1.242   3.605  0.3140 -0.4365  0.3230
 8910SOL    HW138192   3.034   1.161   3.554  1.0410  0.6716 -1.5417
 8910SOL    HW238193   2.975   1.292   3.557  2.2488  0.1867 -1.6904
 8911SOL     OW38194   1.425   2.285   4.614  0.0781 -0.6012 -0.2731
 8911SOL    HW138195   1.445   2.221   4.546 -0.0702 -1.9489  0.9489
 8911SOL    HW238196   1.354   2.329   4.567 -1.5397 -1.3520  1.4539
 8912SOL     OW38197   1.561   3.152   7.506  0.4680  0.4452 -0.5328
 8912SOL    HW138198   1.602   3.073   7.541  0.6854  1.4789  1.5657
 8912SOL    HW238199   1.611   3.221   7.549 -0.5761  1.5311 -1.0567
 8913SOL     OW38200   3.131   0.199   0.395  0.0631 -0.0063 -0.1476
 8913SOL    HW138201   3.175   0.181   0.478  1.6931  0.7612 -0.8561
 8913SOL    HW238202   3.049   0.238   0.428 -0.1094  1.9777 -2.9946
 8914SOL     OW38203   3.732   1.856   4.001 -0.5441  0.2896  1.0812
 8914SOL    HW138204   3.752   1.857   3.908 -0.2326 -0.5932  1.1380
 8914SOL    HW238205   3.685   1.773   3.998  1.0248 -0.6010  1.1981
 8915SOL     OW38206   3.238   3.518  15.816 -0.3190 -0.1241 -0.1255
 8915SOL    HW138207   3.327   3.531  15.849 -0.7994 -0.2042  1.1976
 8915SOL    HW238208   3.236   3.427  15.786 -3.2902 -0.8188  2.2113
 8916SOL     OW38209   0.289   3.202   3.400 -0.9527  0.3261  0.3144
 8916SOL    HW138210   0.294   3.138   3.470  1.1477 -1.0737 -1.1172
 8916SOL    HW238211   0.379   3.232   3.401 -0.6485 -0.5890  0.4880
 8917SOL     OW38212   1.455   3.954  13.114  1.0597 -0.0148  0.3738
 8917SOL    HW138213   1.422   3.866  13.101  0.8596  0.3095 -1.3264
 8917SOL    HW238214   1.391   3.992  13.173  0.6865 -1.2169  0.7328
 8918SOL     OW38215   2.097   0.127   0.841 -0.2585  0.3382  0.4579
 8918SOL    HW138216   2.102   0.065   0.768 -0.9004 -1.1017  1.6283
 8918SOL    HW238217   2.161   0.194   0.818  0.5701 -1.3442 -2.1226
 8919SOL     OW38218   1.970   2.814  12.572 -0.3103  0.0041  0.0756
 8919SOL    HW138219   1.951   2.889  12.629 -1.2664  0.2473 -0.5667
 8919SOL    HW238220   2.039   2.771  12.623  0.2886  1.4428  0.4798
 8920SOL     OW38221   2.945   2.851   4.492 -0.2798  0.3694  0.1274
 8920SOL    HW138222   2.893   2.930   4.477 -1.0921 -0.3954 -1.0804
 8920SOL    HW238223   2.905   2.808   4.568 -2.1232 -1.8112 -2.0595
 8921SOL     OW38224   0.764   3.706   5.377 -0.4178  0.1962 -0.9250
 8921SOL    HW138225   0.705   3.721   5.451 -0.8273 -3.5265 -0.5019
 8921SOL    HW238226   0.718   3.754   5.308  1.2347 -1.6331 -3.2925
 8922SOL     OW38227   0.745   4.252   6.295  0.3497 -0.3140 -0.0851
 8922SOL    HW138228   0.776   4.281   6.209 -0.1228  2.2697  0.6147
 8922SOL    HW238229   0.662   4.209   6.276 -0.6459  1.7667 -0.4569
 8923SOL     OW38230   0.250   0.766  17.688 -0.9332 -0.1663 -0.5426
 8923SOL    HW138231   0.340   0.792  17.667 -0.9024 -0.0413 -0.2514
 8923SOL    HW238232   0.210   0.844   0.030  1.3340  0.5539  0.3816
 8924SOL     OW38233   3.152   3.438   2.452 -0.4706 -0.5717 -0.1914
 8924SOL    HW138234   3.180   3.483   2.532 -1.6989  0.9893 -0.6299
 8924SOL    HW238235   3.171   3.347   2.474  0.7760 -0.4632 -0.8403
 8925SOL     OW38236   3.304   0.143   0.610  0.6743  0.7255 -0.2634
 8925SOL    HW138237   3.358   0.157   0.687  1.9666 -1.5752 -0.7521
 8925SOL    HW238238   3.374   0.119   0.549  1.9699 -3.4979  2.8337
 8926SOL     OW38239   3.774   0.758  14.358 -0.4035  0.4857  0.8331
 8926SOL    HW138240   3.754   0.742  14.266  0.7254 -1.0765  0.8683
 8926SOL    HW238241   3.869   0.755  14.347 -0.5784 -0.1459 -0.5152
 8927SOL     OW38242   4.010   3.629   4.334  0.0800  0.4669  0.1381
 8927SOL    HW138243   4.053   3.571   4.271 -1.4944  0.4857 -0.9580
 8927SOL    HW238244   3.936   3.662   4.283 -0.2950 -0.0419  0.3487
 8928SOL     OW38245   0.565   4.352  12.723  0.5496  0.1675 -0.4361
 8928SOL    HW138246   0.639   4.375  12.779  0.1533  0.3539  0.0081
 8928SOL    HW238247   0.575   4.257  12.720  1.8808  0.2921  0.3068
 8929SOL     OW38248   3.161   2.523   7.894  0.2585  0.1906  0.0577
 8929SOL    HW138249   3.111   2.603   7.907 -3.0144 -1.9591  0.7501
 8929SOL    HW238250   3.251   2.552   7.908  0.2785 -0.8029  2.0340
 8930SOL     OW38251   0.831   2.728  11.435 -0.5652 -0.0364 -0.2887
 8930SOL    HW138252   0.840   2.725  11.339 -1.0614  1.2946 -0.3691
 8930SOL    HW238253   0.736   2.731  11.439 -0.6224  0.7700 -2.0518
 8931SOL     OW38254   2.117   4.193   1.391  1.1555 -0.1351 -0.0763
 8931SOL    HW138255   2.184   4.262   1.390  0.5996  0.4079  2.8232
 8931SOL    HW238256   2.151   4.128   1.329 -0.1189 -0.1752 -0.7382
 8932SOL     OW38257   4.281   2.251  15.164  0.2480  0.0262 -0.2197
 8932SOL    HW138258   4.214   2.195  15.204 -0.1021  0.4750 -0.1879
 8932SOL    HW238259   4.324   2.192  15.101  2.5789  0.6936  0.7512
 8933SOL     OW38260   2.999   2.890   2.099  0.1923  0.2542 -0.9716
 8933SOL    HW138261   3.021   2.953   2.029 -0.0030  1.7075  0.2783
 8933SOL    HW238262   2.911   2.875   2.066  0.2809 -1.3437 -0.4812
 8934SOL     OW38263   1.093   0.613  14.326  0.2042 -0.1032 -0.3099
 8934SOL    HW138264   1.087   0.611  14.231  2.1904 -1.7597 -0.4166
 8934SOL    HW238265   1.186   0.631  14.340  0.7850 -0.9134 -3.1980
 8935SOL     OW38266   2.871   1.238   3.146  0.2686  0.4511  0.0427
 8935SOL    HW138267   2.867   1.322   3.192 -4.1447 -0.4905  1.4151
 8935SOL    HW238268   2.849   1.172   3.213  1.2946 -2.8235 -2.8647
 8936SOL     OW38269   2.949   0.292   4.097 -0.3794  0.1902 -0.3818
 8936SOL    HW138270   2.976   0.260   4.010  0.5773  0.1031 -0.0582
 8936SOL    HW238271   2.973   0.385   4.098 -0.7386  0.2658  0.8642
 8937SOL     OW38272   0.731   1.201   6.192  0.2129 -0.2298  0.2577
 8937SOL    HW138273   0.647   1.248   6.196  0.3552  0.0190  0.2828
 8937SOL    HW238274   0.694   1.113   6.206  0.3587 -0.5809 -1.5831
 8938SOL     OW38275   3.376   3.053   4.227 -0.4821 -0.1165 -0.2438
 8938SOL    HW138276   3.413   2.988   4.286  0.6354 -0.9192 -1.8227
 8938SOL    HW238277   3.285   3.029   4.243 -0.9246  1.2844 -0.6875
 8939SOL     OW38278   3.767   1.713   4.808  0.4695 -0.1059  0.1946
 8939SOL    HW138279   3.767   1.733   4.901 -1.6560  0.5880  0.0576
 8939SOL    HW238280   3.735   1.796   4.773 -0.7954 -0.1962  1.1407
 8940SOL     OW38281   4.094   2.874   3.399 -0.1327  0.2595 -0.1712
 8940SOL    HW138282   4.141   2.863   3.316 -0.5215 -1.0797 -0.2193
 8940SOL    HW238283   4.045   2.952   3.375 -2.4940 -1.5416 -1.2086
 8941SOL     OW38284   1.588   2.995  17.659 -0.3010 -0.3191  0.0813
 8941SOL    HW138285   1.530   2.978   0.036  0.2601 -0.2369  0.5400
 8941SOL    HW238286   1.675   2.995   0.002 -0.6741  0.9655  0.9108
 8942SOL     OW38287   0.253   4.320   4.963  0.3717 -0.4289 -0.3080
 8942SOL    HW138288   0.204   4.392   4.922  0.8504 -1.2655 -2.3686
 8942SOL    HW238289   0.248   4.337   5.057 -0.5536 -0.1223 -0.4036
 8943SOL     OW38290   0.999   3.102   6.644 -0.4807  0.3836  0.7878
 8943SOL    HW138291   1.052   3.161   6.591  1.1468 -0.7464  1.1723
 8943SOL    HW238292   1.023   3.135   6.731 -0.4175  0.0021  0.9170
 8944SOL     OW38293   4.040   3.470   4.599  0.2626 -0.4145 -0.0226
 8944SOL    HW138294   3.993   3.506   4.523  0.9354  1.3007  0.3608
 8944SOL    HW238295   4.127   3.504   4.577 -0.2134 -0.0225 -1.3057
 8945SOL     OW38296   3.487   3.354   5.742  0.1712  0.1282 -0.3467
 8945SOL    HW138297   3.509   3.283   5.682 -1.5536 -0.9275  0.2767
 8945SOL    HW238298   3.568   3.404   5.751 -0.0610  0.2599  1.1281
 8946SOL     OW38299   3.324   2.611   2.870 -0.0483 -0.1412 -0.1309
 8946SOL    HW138300   3.331   2.527   2.916 -1.4513  1.3209  2.7789
 8946SOL    HW238301   3.358   2.590   2.783 -1.6222 -0.1231 -0.7452
 8947SOL     OW38302   1.162   3.463   8.814 -0.0968  0.0511 -0.1398
 8947SOL    HW138303   1.256   3.483   8.811 -0.1489  0.5454  1.7616
 8947SOL    HW238304   1.161   3.416   8.897 -0.9195  0.4946  0.0970
 8948SOL     OW38305   4.407   1.850  16.540  0.0950  0.3165 -0.1648
 8948SOL    HW138306   4.392   1.869  16.633 -0.6043 -0.4010 -0.1373
 8948SOL    HW238307   4.319   1.829  16.509  0.4675 -0.7829 -0.4492
 8949SOL     OW38308   2.179   3.397   8.349 -0.1297  0.2273  0.2271
 8949SOL    HW138309   2.160   3.303   8.345  2.9293 -0.3512 -0.9414
 8949SOL    HW238310   2.200   3.411   8.257 -0.2873  1.8655  0.4461
 8950SOL     OW38311   1.221   3.167   4.934 -0.0413 -0.0864 -0.0903
 8950SOL    HW138312   1.132   3.136   4.915  0.0490 -0.9886  0.9611
 8950SOL    HW238313   1.222   3.158   5.030 -0.6744 -0.0183 -0.0742
 8951SOL     OW38314   3.805   3.877  15.639 -0.2545 -0.3139  0.3474
 8951SOL    HW138315   3.717   3.856  15.605 -0.6402 -0.3800  1.4052
 8951SOL    HW238316   3.827   3.791  15.676 -0.6171 -0.6922 -0.2982
 8952SOL     OW38317   2.618   1.827   3.108 -0.1887 -0.3334 -0.4117
 8952SOL    HW138318   2.597   1.747   3.156 -1.7371  0.0042 -0.5454
 8952SOL    HW238319   2.554   1.821   3.037 -0.0715 -0.8650 -0.4754
 8953SOL     OW38320   2.807   3.800   3.013  0.0089 -0.4703  0.0182
 8953SOL    HW138321   2.760   3.743   2.951 -0.7798  0.8841 -0.6343
 8953SOL    HW238322   2.898   3.778   2.997 -0.5868 -3.7487  1.2372
 8954SOL     OW38323   1.502   1.649   6.899  0.2280  0.4763 -0.2253
 8954SOL    HW138324   1.574   1.591   6.926 -0.6599  0.2574  1.6467
 8954SOL    HW238325   1.426   1.599   6.927  0.1141  0.8654  0.1555
 8955SOL     OW38326   2.946   3.830   7.976  0.8201 -0.3130  0.2943
 8955SOL    HW138327   2.921   3.842   7.885 -1.9865  0.5791  1.1723
 8955SOL    HW238328   2.881   3.764   8.003  0.4727  0.4840  1.3975
 8956SOL     OW38329   3.425   2.018   8.316 -0.2947 -0.4133  0.2784
 8956SOL    HW138330   3.345   1.967   8.326 -0.0181 -0.4792  2.0500
 8956SOL    HW238331   3.387   2.103   8.337  0.7753 -0.1903  1.3221
 8957SOL     OW38332   0.481   3.935   6.458  0.5452  0.4422 -0.1527
 8957SOL    HW138333   0.525   3.947   6.374 -0.4172  1.3217 -0.5221
 8957SOL    HW238334   0.390   3.937   6.428  0.4212 -0.6299  0.1580
 8958SOL     OW38335   0.705   4.459  12.955 -0.3062 -0.1409 -0.0609
 8958SOL    HW138336   0.657   4.501  13.027  0.4125 -2.2607  1.6384
 8958SOL    HW238337   0.791   4.500  12.966  0.2228 -1.7567  1.7888
 8959SOL     OW38338   4.538   2.892  17.071 -0.0144 -0.2156  0.7526
 8959SOL    HW138339   4.576   2.805  17.082 -0.4615 -0.2435  1.9842
 8959SOL    HW238340   4.443   2.879  17.075  0.0177 -0.8866 -0.5211
 8960SOL     OW38341   4.387   2.528   3.436 -0.3259 -0.1695 -0.0001
 8960SOL    HW138342   4.369   2.557   3.346  1.2407  4.0603  1.0505
 8960SOL    HW238343   4.301   2.508   3.473 -0.4758  1.9483  0.7837
 8961SOL     OW38344   4.140   3.022  13.433 -0.1095 -0.3283 -0.4263
 8961SOL    HW138345   4.216   3.076  13.411 -0.3085  0.5538  1.0954
 8961SOL    HW238346   4.076   3.083  13.397  3.1071  1.5639 -2.9774
 8962SOL     OW38347   4.464   0.768  12.743 -0.0878  0.0481  0.4531
 8962SOL    HW138348   4.392   0.715  12.708  0.0892 -0.1759  0.4255
 8962SOL    HW238349   4.522   0.701  12.779 -0.6605 -1.1145 -0.8068
 8963SOL     OW38350   1.214   0.596   7.241 -0.6661  0.0655  0.6129
 8963SOL    HW138351   1.204   0.506   7.209  2.3167 -0.8229  2.1805
 8963SOL    HW238352   1.301   0.588   7.280 -0.4819 -0.0492  0.1865
 8964SOL     OW38353   4.723   4.101   2.752  0.0709  0.2531 -0.4667
 8964SOL    HW138354   0.017   4.190   2.781 -0.3754  0.1495  0.1395
 8964SOL    HW238355   4.651   4.076   2.811  0.0761 -1.9442 -1.3713
 8965SOL     OW38356   2.546   4.390   2.209  0.0217 -0.2303  0.2802
 8965SOL    HW138357   2.625   4.401   2.156  1.0774 -2.9403  1.3052
 8965SOL    HW238358   2.561   4.298   2.232 -2.4201  0.3583  4.1904
 8966SOL     OW38359   0.188   3.991   5.014  0.4077  0.1153  0.0853
 8966SOL    HW138360   0.223   4.046   5.083 -1.4165 -0.3669  1.4079
 8966SOL    HW238361   0.262   3.979   4.955 -0.2140 -0.0020 -0.6751
 8967SOL     OW38362   1.179   4.535  11.708 -0.0628  0.1227  0.3621
 8967SOL    HW138363   1.263   4.529  11.661 -1.6829  1.8450 -2.7298
 8967SOL    HW238364   1.196   4.616  11.755 -1.9643  0.9312 -0.3794
 8968SOL     OW38365   2.864   1.077   7.001 -0.4817  0.1545  0.7681
 8968SOL    HW138366   2.894   0.992   6.969 -2.9454 -0.1095 -0.8380
 8968SOL    HW238367   2.844   1.129   6.923 -0.2187  1.0222  1.2678
 8969SOL     OW38368   2.689   3.935   3.252 -0.3242 -0.4306  0.2272
 8969SOL    HW138369   2.716   3.907   3.165 -2.8927 -0.3205 -0.5844
 8969SOL    HW238370   2.674   4.023   3.219 -0.0779 -0.9202 -1.1826
 8970SOL     OW38371   1.525   0.167   1.249 -0.0270 -0.3760  0.0526
 8970SOL    HW138372   1.609   0.210   1.262  0.3430 -1.0399 -0.1025
 8970SOL    HW238373   1.507   0.161   1.155  1.3072  0.6134 -0.2583
 8971SOL     OW38374   0.646   3.596   6.222 -0.7430  0.0816 -0.0009
 8971SOL    HW138375   0.700   3.674   6.215 -1.3674  0.3284 -1.8873
 8971SOL    HW238376   0.638   3.597   6.318  0.6870 -1.7768  0.1505
 8972SOL     OW38377   3.248   4.002  13.847 -0.0941  0.0531  0.6781
 8972SOL    HW138378   3.244   3.913  13.881  3.0841  0.0177  0.9575
 8972SOL    HW238379   3.219   3.986  13.757  0.0583  2.6386  0.1573
 8973SOL     OW38380   1.623   3.369  16.384 -0.0182  0.1249 -0.2574
 8973SOL    HW138381   1.653   3.441  16.440  2.7862 -2.5570  1.7093
 8973SOL    HW238382   1.552   3.335  16.437  0.8980 -0.6099  0.4913
 8974SOL     OW38383   3.534   1.806   5.153 -0.0977 -0.2950  0.0881
 8974SOL    HW138384   3.597   1.789   5.223 -1.1900  2.4479  1.7128
 8974SOL    HW238385   3.585   1.861   5.094 -0.2409 -1.8542 -1.4899
 8975SOL     OW38386   3.351   3.582   5.583  0.1164 -0.5003 -0.3222
 8975SOL    HW138387   3.428   3.575   5.527 -0.7168  1.0744 -1.6709
 8975SOL    HW238388   3.303   3.512   5.538  0.7369 -0.6072 -0.8113
 8976SOL     OW38389   1.622   1.121   4.345  0.3283  0.1275  0.0293
 8976SOL    HW138390   1.565   1.180   4.294 -1.0254 -1.9456 -0.8827
 8976SOL    HW238391   1.553   1.082   4.399  1.2469  1.2093  1.9793
 8977SOL     OW38392   0.098   0.343   6.657 -0.0016 -0.4196 -0.9991
 8977SOL    HW138393   0.059   0.326   6.743  2.3859 -2.2565 -0.2894
 8977SOL    HW238394   0.181   0.390   6.668  0.6851 -2.0794  1.0147
 8978SOL     OW38395   1.460   2.674  16.517 -0.7133  0.0964  0.4883
 8978SOL    HW138396   1.542   2.634  16.547  1.4852  5.1073  1.1615
 8978SOL    HW238397   1.439   2.716  16.600 -1.8548 -2.2992  1.4133
 8979SOL     OW38398   2.412   2.364  14.050 -0.1553  0.3058  0.3609
 8979SOL    HW138399   2.391   2.329  14.136  0.4779 -1.8832 -0.3853
 8979SOL    HW238400   2.452   2.286  14.013  2.0222  0.3983  2.4487
 8980SOL     OW38401   3.741   0.787   3.189 -0.7269  0.5401  0.1967
 8980SOL    HW138402   3.803   0.811   3.258  0.4434  0.7878 -0.9636
 8980SOL    HW238403   3.780   0.836   3.117  0.9045 -0.3604  0.4808
 8981SOL     OW38404   1.950   2.513   4.463  0.0713  0.6398  0.0137
 8981SOL    HW138405   2.032   2.555   4.489 -0.5869  0.3180  2.6228
 8981SOL    HW238406   1.981   2.436   4.415 -1.9364  1.0973 -2.0322
 8982SOL     OW38407   3.976   3.865   5.811  0.6919  0.6281  0.0404
 8982SOL    HW138408   4.038   3.837   5.744  1.1353  2.0717 -0.1430
 8982SOL    HW238409   3.985   3.789   5.869  2.0163  1.5607  1.0613
 8983SOL     OW38410   3.014   1.642  14.065  0.0412  0.0043 -0.7088
 8983SOL    HW138411   3.013   1.594  13.982 -3.0402  0.3288 -0.8444
 8983SOL    HW238412   2.973   1.576  14.121 -0.5266 -0.4955 -1.7155
 8984SOL     OW38413   3.009   0.765   7.791 -0.2006  0.2275  1.2390
 8984SOL    HW138414   3.097   0.801   7.782  0.4509 -2.1387 -1.9850
 8984SOL    HW238415   2.996   0.719   7.707 -0.5940 -0.6173  1.7589
 8985SOL     OW38416   2.136   0.826   2.534 -0.0294  0.2593 -0.2958
 8985SOL    HW138417   2.067   0.876   2.577 -0.3893 -0.2564 -0.2807
 8985SOL    HW238418   2.140   0.868   2.448 -0.5696 -1.6196 -1.2336
 8986SOL     OW38419   1.011   2.061   6.362 -0.0137 -0.3788  0.5862
 8986SOL    HW138420   1.083   2.050   6.423  1.4607 -2.2049 -1.4765
 8986SOL    HW238421   0.929   2.042   6.407 -1.0643  1.2232 -0.6532
 8987SOL     OW38422   3.834   0.345  16.565 -0.2783 -0.4028 -0.6082
 8987SOL    HW138423   3.757   0.401  16.568 -0.4592 -0.7103  0.3713
 8987SOL    HW238424   3.892   0.381  16.632  0.4614 -1.0190 -0.9144
 8988SOL     OW38425   2.071   3.881  13.709  0.1633  0.1071 -0.3124
 8988SOL    HW138426   2.026   3.921  13.635 -0.8010 -0.1351  0.1365
 8988SOL    HW238427   2.048   3.789  13.691  0.9437  0.3914 -2.8008
 8989SOL     OW38428   3.898   0.371  15.910  0.2619 -0.2436  0.5358
 8989SOL    HW138429   3.898   0.354  15.816  0.9049 -0.2208  0.5305
 8989SOL    HW238430   3.993   0.383  15.918  0.3680 -1.6765  1.5275
 8990SOL     OW38431   0.309   3.000   3.684 -0.1833 -0.7469 -0.2733
 8990SOL    HW138432   0.361   2.936   3.637  0.6081 -0.2337 -0.1102
 8990SOL    HW238433   0.251   2.935   3.723 -1.2713  0.1228 -0.4301
 8991SOL     OW38434   2.818   3.917   6.466  0.6749  1.1555  0.3916
 8991SOL    HW138435   2.807   3.935   6.560 -1.4095 -4.0314  1.1076
 8991SOL    HW238436   2.745   3.857   6.451  1.7758 -0.1236  0.1982
 8992SOL     OW38437   0.269   1.552   9.238  0.1466  0.3345 -0.3043
 8992SOL    HW138438   0.175   1.560   9.259 -0.0755  0.9015 -1.5004
 8992SOL    HW238439   0.289   1.645   9.244 -3.9786  1.1979  0.7087
 8993SOL     OW38440   2.917   2.063   6.518 -0.2499  0.0089 -0.8584
 8993SOL    HW138441   2.964   2.010   6.453 -2.2167 -2.2491 -0.4618
 8993SOL    HW238442   2.952   2.151   6.506 -0.6362  0.3332  0.4618
 8994SOL     OW38443   0.072   0.318   0.367  0.4407 -0.1151  0.0809
 8994SOL    HW138444   0.075   0.405   0.407  0.7581  0.4103 -1.0885
 8994SOL    HW238445   0.123   0.275   0.436 -1.4602 -1.8283  0.4468
 8995SOL     OW38446   2.815   3.551   6.090 -0.2888  0.6541 -0.2614
 8995SOL    HW138447   2.793   3.463   6.120 -1.6521  1.8097  2.1526
 8995SOL    HW238448   2.910   3.557   6.078 -0.1570 -1.4365 -0.1915
 8996SOL     OW38449   3.134   4.350   9.146 -0.1949  0.4030  0.3195
 8996SOL    HW138450   3.067   4.406   9.187 -2.2518  1.8452 -5.0358
 8996SOL    HW238451   3.075   4.302   9.088 -0.6111  0.9451  0.2919
 8997SOL     OW38452   0.424   0.141   2.985  0.2105  0.2433 -0.0826
 8997SOL    HW138453   0.339   0.098   2.976  0.2857  0.3084 -1.0970
 8997SOL    HW238454   0.436   0.115   3.076  0.1465 -1.1609 -0.4676
 8998SOL     OW38455   4.707   2.062   5.231  0.2801  0.1718  0.4190
 8998SOL    HW138456   0.057   2.092   5.284 -0.0069  3.7031 -1.1859
 8998SOL    HW238457   4.697   2.139   5.175 -1.0399 -0.8952 -0.8116
 8999SOL     OW38458   3.641   0.118   4.936 -0.3724  0.3594 -0.1039
 8999SOL    HW138459   3.593   0.201   4.933 -3.8453 -1.6766 -1.2178
 8999SOL    HW238460   3.599   0.078   5.012  0.7446 -1.2983 -0.3682
 9000SOL     OW38461   3.499   3.560   4.878  0.2474  0.7128  0.2223
 9000SOL    HW138462   3.514   3.628   4.813  1.2106 -0.3966 -0.7179
 9000SOL    HW238463   3.517   3.486   4.820 -2.0986  0.2052  0.1450
 9001SOL     OW38464   4.284   3.089  11.638  0.4583  0.1907 -0.3918
 9001SOL    HW138465   4.325   3.103  11.553  0.2198  1.5446 -0.2885
 9001SOL    HW238466   4.339   3.148  11.689  1.9503  0.3903 -2.2319
 9002SOL     OW38467   3.435   3.392   1.527 -0.1472  0.2625 -0.4361
 9002SOL    HW138468   3.422   3.483   1.500  3.1286  1.0841  0.7355
 9002SOL    HW238469   3.369   3.350   1.472 -0.8295 -0.3342  0.8232
 9003SOL     OW38470   2.510   4.367   3.464 -0.6272 -0.1107  0.0686
 9003SOL    HW138471   2.535   4.456   3.489  0.5735 -0.9985  2.0499
 9003SOL    HW238472   2.567   4.318   3.523 -1.9322  0.6647  1.9795
 9004SOL     OW38473   1.319   1.093   6.391  0.7107  0.2386 -0.0420
 9004SOL    HW138474   1.278   1.164   6.440 -1.8612 -0.6847 -0.8524
 9004SOL    HW238475   1.384   1.142   6.341  1.4267 -0.9989 -0.3110
 9005SOL     OW38476   4.323   3.258   9.031 -0.1823  0.0041  0.2652
 9005SOL    HW138477   4.341   3.265   9.125 -0.9535  0.3112  0.3875
 9005SOL    HW238478   4.231   3.284   9.034  0.2773  1.5843  0.3483
 9006SOL     OW38479   2.785   1.651  16.098 -0.0130 -0.2212  0.3542
 9006SOL    HW138480   2.760   1.717  16.162  3.0595  0.1159  1.1985
 9006SOL    HW238481   2.757   1.569  16.139  0.8443 -0.1680  1.0532
 9007SOL     OW38482   2.368   2.439   6.871  0.2096  0.0638  0.4501
 9007SOL    HW138483   2.310   2.515   6.876  1.5230  1.0669  0.4766
 9007SOL    HW238484   2.305   2.368   6.862 -0.1752  0.5444 -0.6509
 9008SOL     OW38485   2.514   3.621   5.857 -0.0952 -0.0903 -0.1708
 9008SOL    HW138486   2.602   3.659   5.866  0.2707 -0.7742 -0.8849
 9008SOL    HW238487   2.472   3.700   5.822 -2.3491 -0.8331  0.8807
 9009SOL     OW38488   1.103   1.410   4.899 -0.1485  0.3760 -0.5124
 9009SOL    HW138489   1.166   1.446   4.961 -1.2193 -0.8322  1.2622
 9009SOL    HW238490   1.045   1.357   4.954  1.7030  0.2735  1.3169
 9010SOL     OW38491   4.513   3.069   0.379  0.3015 -0.2933  0.5659
 9010SOL    HW138492   4.585   3.024   0.424 -0.1516 -0.1113  1.4748
 9010SOL    HW238493   4.452   3.002   0.350 -1.7281  1.4800  0.8093
 9011SOL     OW38494   4.653   0.675   4.617  0.5852  0.3145 -0.4639
 9011SOL    HW138495   4.683   0.761   4.647  2.4213 -0.3489 -0.4093
 9011SOL    HW238496   0.010   0.631   4.590  0.5891  0.0382 -0.0131
 9012SOL     OW38497   1.503   3.386   8.255  0.2551 -0.2570 -0.4298
 9012SOL    HW138498   1.535   3.296   8.252  1.3211  0.1517 -1.4925
 9012SOL    HW238499   1.411   3.362   8.254 -0.0355  0.8438  0.3558
 9013SOL     OW38500   1.871   2.931  11.256 -0.5794  0.1301  0.0153
 9013SOL    HW138501   1.849   3.018  11.222  0.0685  0.4083  0.3063
 9013SOL    HW238502   1.938   2.943  11.322 -0.3744 -2.5252  0.2598
 9014SOL     OW38503   4.584   1.335   9.350 -0.3311  0.3363  0.2193
 9014SOL    HW138504   4.605   1.341   9.443 -0.0330  0.3589  0.1489
 9014SOL    HW238505   4.615   1.248   9.325 -2.0582  0.8336 -3.6029
 9015SOL     OW38506   2.620   2.244   8.172 -0.7106 -0.4936  0.3646
 9015SOL    HW138507   2.626   2.324   8.119 -2.1845  0.8943  2.2605
 9015SOL    HW238508   2.543   2.266   8.225 -1.2844  0.1596 -0.7334
 9016SOL     OW38509   2.086   3.956   1.740 -0.0143  0.0530 -0.0200
 9016SOL    HW138510   2.063   3.863   1.744  0.4102 -0.0917 -1.0840
 9016SOL    HW238511   2.074   3.983   1.649  1.0819 -0.5482 -0.3345
 9017SOL     OW38512   0.572   1.543   5.675  0.3521  0.6311  0.1345
 9017SOL    HW138513   0.492   1.583   5.712 -0.5947 -0.9217 -0.2449
 9017SOL    HW238514   0.633   1.552   5.748  1.0294 -2.5278 -0.0762
 9018SOL     OW38515   4.293   0.930   4.460  0.3517  0.8818 -0.6238
 9018SOL    HW138516   4.364   0.872   4.433 -1.5088 -0.8263 -1.8006
 9018SOL    HW238517   4.347   1.009   4.461  1.0001  0.4603 -2.3790
 9019SOL     OW38518   2.200   1.461  12.656 -0.3419  0.5550 -0.4529
 9019SOL    HW138519   2.158   1.456  12.742  1.6929 -0.8097  0.4732
 9019SOL    HW238520   2.198   1.372  12.620 -0.8379 -0.8363  2.9674
 9020SOL     OW38521   1.017   3.994  10.980 -0.6352 -0.5509  0.3537
 9020SOL    HW138522   0.975   3.922  11.026 -0.6907 -1.6499 -1.4041
 9020SOL    HW238523   0.963   4.063  11.018 -1.3944  0.0315 -1.7844
 9021SOL     OW38524   0.631   4.277   5.386  0.0960 -0.4484 -0.1056
 9021SOL    HW138525   0.561   4.304   5.444  0.7500  0.8899  0.0653
 9021SOL    HW238526   0.607   4.185   5.373 -3.3136  0.3391  0.7982
 9022SOL     OW38527   3.600   1.718   0.900  0.3645  0.1158 -0.3104
 9022SOL    HW138528   3.652   1.791   0.933 -0.4461  0.8429 -0.6185
 9022SOL    HW238529   3.595   1.741   0.807  3.0818 -2.3452 -1.0363
 9023SOL     OW38530   0.231   0.070   3.299 -0.2339 -0.0211  0.0932
 9023SOL    HW138531   0.169   0.035   3.363  0.4577 -0.9943  0.2318
 9023SOL    HW238532   0.173   0.125   3.246 -0.3224 -1.1815 -1.0446
 9024SOL     OW38533   1.587   2.147   4.990  0.3785  0.1626  0.0433
 9024SOL    HW138534   1.664   2.193   4.956  0.7149 -0.3316  0.1364
 9024SOL    HW238535   1.559   2.197   5.067  1.3810  1.2561 -0.3027
 9025SOL     OW38536   1.333   1.628   6.167 -0.8536  0.1234  0.0679
 9025SOL    HW138537   1.411   1.684   6.163  0.7769 -2.3196 -2.1568
 9025SOL    HW238538   1.371   1.543   6.184  1.1140  1.3161  1.5935
 9026SOL     OW38539   2.530   3.932  12.286 -0.1755  0.2788  0.6713
 9026SOL    HW138540   2.590   3.985  12.338  0.7930 -0.5406  0.3891
 9026SOL    HW238541   2.592   3.866  12.256  1.8147  0.8434  3.5344
 9027SOL     OW38542   3.054   0.476   0.651 -0.1182 -0.2703  0.2323
 9027SOL    HW138543   3.045   0.571   0.665 -1.0463 -0.5076  1.1945
 9027SOL    HW238544   3.084   0.448   0.737  2.7008  1.0088 -0.3230
 9028SOL     OW38545   2.378   4.297   4.139 -0.2631  0.4346 -0.1194
 9028SOL    HW138546   2.333   4.274   4.220  1.4411  2.6885  1.4628
 9028SOL    HW238547   2.308   4.273   4.077  0.5420 -0.9022 -0.4953
 9029SOL     OW38548   2.042   1.837   4.031 -0.7556 -0.2120  0.4251
 9029SOL    HW138549   1.966   1.895   4.022  1.0998  2.3859  1.4732
 9029SOL    HW238550   1.999   1.752   4.042 -2.6390  0.5556 -1.0568
 9030SOL     OW38551   2.912   2.978  13.919 -0.4357 -0.6871 -0.2443
 9030SOL    HW138552   2.942   2.996  13.829 -0.7022  0.4898 -0.0940
 9030SOL    HW238553   2.819   2.993  13.905 -0.5062 -1.4881 -0.6660
 9031SOL     OW38554   3.729   0.560   9.848 -0.0019 -0.2775 -0.5404
 9031SOL    HW138555   3.767   0.646   9.830  1.1815 -0.4705  1.0171
 9031SOL    HW238556   3.786   0.510   9.790 -0.2435 -2.5225  1.1406
 9032SOL     OW38557   0.050   4.067   6.879 -0.4437  0.0471  0.1445
 9032SOL    HW138558   0.055   4.163   6.884  0.4412  0.0745 -1.2888
 9032SOL    HW238559   0.002   4.055   6.961 -0.1703  1.6680  0.5516
 9033SOL     OW38560   2.627   4.675   3.947  0.1935 -0.7803  0.7345
 9033SOL    HW138561   2.583   4.654   3.864 -2.4208  3.5134  1.0823
 9033SOL    HW238562   2.556   4.645   4.002 -0.3644  0.5420  0.7118
 9034SOL     OW38563   3.316   2.861   3.354 -0.6214  0.4224  0.6581
 9034SOL    HW138564   3.252   2.825   3.293 -2.0606  1.5793  1.4837
 9034SOL    HW238565   3.257   2.903   3.417 -0.4999 -2.8326  2.9697
 9035SOL     OW38566   1.809   4.065   4.355 -0.0838  0.3385 -0.2008
 9035SOL    HW138567   1.842   3.977   4.372 -0.1694  0.5083  0.8509
 9035SOL    HW238568   1.728   4.046   4.308  0.4459 -1.7393 -0.2520
 9036SOL     OW38569   4.184   0.923  17.137 -0.5495 -0.6940  0.0277
 9036SOL    HW138570   4.206   1.005  17.181 -0.6683  0.3697 -1.8587
 9036SOL    HW238571   4.255   0.919  17.072 -0.6275  1.7573 -0.2035
 9037SOL     OW38572   1.932   2.998  14.734 -0.4961 -0.0367 -0.1534
 9037SOL    HW138573   1.991   2.946  14.679  0.3532 -0.0564  0.7711
 9037SOL    HW238574   1.872   3.030  14.667 -1.0935 -0.6695  0.0811
 9038SOL     OW38575   0.668   4.643  13.175 -0.4809  0.2169  0.1860
 9038SOL    HW138576   0.621   4.694  13.242 -0.0819  0.7853  0.0259
 9038SOL    HW238577   0.729   4.605  13.239 -1.1823  1.6904  1.7447
 9039SOL     OW38578   0.113   3.616   8.191  0.1275  0.6044 -0.5136
 9039SOL    HW138579   0.134   3.709   8.193 -0.9781  0.9533 -4.5453
 9039SOL    HW238580   0.199   3.576   8.201 -1.9366 -3.8410 -0.2765
 9040SOL     OW38581   0.192   3.998   1.837 -0.3242 -0.1213  0.0513
 9040SOL    HW138582   0.220   4.030   1.923 -0.0208  0.2377 -0.1814
 9040SOL    HW238583   0.127   4.062   1.808 -0.2269  0.2682  0.7039
 9041SOL     OW38584   1.570   0.687  10.752 -0.1503  0.0723 -0.8016
 9041SOL    HW138585   1.500   0.732  10.799  0.1177 -0.6963  0.3217
 9041SOL    HW238586   1.559   0.695  10.657  2.8374 -0.3169 -1.1886
 9042SOL     OW38587   1.587   2.009   6.523  0.1046 -0.1018 -0.5732
 9042SOL    HW138588   1.650   2.069   6.484 -0.2252  1.1106  0.7544
 9042SOL    HW238589   1.511   2.027   6.468 -0.7540 -0.1086  0.6074
 9043SOL     OW38590   4.091   4.000  13.644  0.7198  0.1658 -0.0194
 9043SOL    HW138591   4.127   4.055  13.714 -3.7174  0.2529  2.1942
 9043SOL    HW238592   4.152   3.926  13.647  0.3539 -0.2724 -4.1148
 9044SOL     OW38593   0.161   2.847   9.522  0.0805  0.4536 -0.1685
 9044SOL    HW138594   0.150   2.936   9.488 -0.1355  0.3351 -0.4143
 9044SOL    HW238595   0.219   2.860   9.597  0.0046 -0.2276  0.0084
 9045SOL     OW38596   0.558   1.901   3.086  0.2135  0.4767  0.0504
 9045SOL    HW138597   0.627   1.958   3.054  2.6181 -1.9442  0.9189
 9045SOL    HW238598   0.472   1.938   3.064 -0.3508 -2.2507 -2.2474
 9046SOL     OW38599   3.985   4.185   6.754 -0.4902 -0.0768 -0.1702
 9046SOL    HW138600   3.915   4.119   6.749 -2.5344  2.2000 -1.6365
 9046SOL    HW238601   3.931   4.264   6.765 -2.0557 -1.0682 -0.7144
 9047SOL     OW38602   4.680   3.443  13.504  0.0744 -0.2030 -0.1638
 9047SOL    HW138603   4.674   3.400  13.590  0.2088 -2.3596 -1.2200
 9047SOL    HW238604   4.702   3.530  13.536 -0.9246 -0.2001  0.4920
 9048SOL     OW38605   2.659   1.770   0.529  0.0917 -0.0065  0.2302
 9048SOL    HW138606   2.672   1.853   0.483  2.0024 -0.1824  0.4681
 9048SOL    HW238607   2.749   1.741   0.528 -0.0391 -0.4196  0.9049
 9049SOL     OW38608   2.553   4.362  13.976 -0.1290 -0.0306 -0.0098
 9049SOL    HW138609   2.508   4.367  14.060  1.8492  1.0174  0.9927
 9049SOL    HW238610   2.625   4.312  14.014  0.5622 -1.3330 -3.0688
 9050SOL     OW38611   4.531   1.838  13.084  0.3388  0.4246  0.2216
 9050SOL    HW138612   4.437   1.829  13.068  0.6161  1.8412 -2.1169
 9050SOL    HW238613   4.563   1.748  13.082  1.4073  0.8017  0.4390
 9051SOL     OW38614   4.333   0.188   2.329 -0.0225 -0.3638  0.0212
 9051SOL    HW138615   4.407   0.232   2.372 -0.7690  1.0807 -0.1713
 9051SOL    HW238616   4.293   0.134   2.397  0.5351  1.2056  1.5976
 9052SOL     OW38617   3.876   3.258   5.794  0.2191 -0.2109 -0.0111
 9052SOL    HW138618   3.933   3.269   5.870  0.0970  0.6411 -0.0404
 9052SOL    HW238619   3.865   3.345   5.755 -2.1938 -1.2556 -1.6962
 9053SOL     OW38620   0.319   4.180  15.750 -0.1223  0.5707  0.1702
 9053SOL    HW138621   0.287   4.261  15.790 -0.3310  0.8933 -0.6673
 9053SOL    HW238622   0.298   4.191  15.658 -1.0499  1.0531  0.4371
 9054SOL     OW38623   3.167   0.261   2.038  0.2163 -0.4035 -0.1634
 9054SOL    HW138624   3.136   0.222   1.956 -1.3591  2.5765 -0.9893
 9054SOL    HW238625   3.258   0.240   2.015 -0.3636 -0.2997 -2.6193
 9055SOL     OW38626   3.833   4.349   4.187 -0.3281  0.2324  0.0359
 9055SOL    HW138627   3.760   4.365   4.126  0.8261  1.1037 -1.1002
 9055SOL    HW238628   3.905   4.353   4.125  1.5576  0.2052  2.2287
 9056SOL     OW38629   2.158   2.465   7.282 -0.1864 -0.0704  0.0003
 9056SOL    HW138630   2.067   2.484   7.303 -0.3901  0.5372 -1.4244
 9056SOL    HW238631   2.185   2.409   7.355 -0.2601 -0.3589 -0.1961
 9057SOL     OW38632   3.619   4.030   4.520  0.1167  0.6735  0.1891
 9057SOL    HW138633   3.680   4.062   4.586 -2.2299 -0.3829  2.8816
 9057SOL    HW238634   3.680   3.998   4.453 -2.2344 -1.8684 -0.7536
 9058SOL     OW38635   0.839   0.718   4.056  0.4890  0.1496  0.6148
 9058SOL    HW138636   0.807   0.755   4.138  0.7654 -1.3052  1.3851
 9058SOL    HW238637   0.854   0.795   4.002 -0.4091 -0.1398 -0.0442
 9059SOL     OW38638   0.115   2.284  16.377  0.1175  0.0097  0.2219
 9059SOL    HW138639   0.168   2.209  16.350  0.8108  0.5508  0.0997
 9059SOL    HW238640   0.068   2.303  16.295  2.0212  1.8394 -0.4297
 9060SOL     OW38641   3.985   3.142   9.411 -0.0507 -0.4462  0.1161
 9060SOL    HW138642   3.954   3.171   9.497 -1.4054 -0.1531 -0.4569
 9060SOL    HW238643   3.910   3.097   9.371 -0.1277 -0.7951  0.6583
 9061SOL     OW38644   4.087   0.987   2.718  0.3185 -0.2972  0.2541
 9061SOL    HW138645   4.133   1.069   2.736  3.4802 -2.1693  0.7102
 9061SOL    HW238646   4.152   0.949   2.660 -2.3639 -1.9585 -1.6537
 9062SOL     OW38647   1.322   4.431   4.433  0.5457  0.0243  0.0214
 9062SOL    HW138648   1.392   4.365   4.426  0.6624  0.3619 -2.1121
 9062SOL    HW238649   1.247   4.384   4.470 -0.7242  2.2726  0.2800
 9063SOL     OW38650   0.012   2.596   9.604  0.0340 -0.6435 -0.1241
 9063SOL    HW138651   0.079   2.653   9.567  1.3427 -1.2758  1.2410
 9063SOL    HW238652   0.056   2.551   9.677  2.4333  0.6614 -0.7719
 9064SOL     OW38653   3.774   3.736   6.976  0.3282 -0.0284 -0.1725
 9064SOL    HW138654   3.825   3.814   6.957  1.3429 -0.7508 -0.4310
 9064SOL    HW238655   3.819   3.700   7.052  1.0084 -0.2235 -0.6633
 9065SOL     OW38656   2.383   3.603   4.822  0.2957 -0.1014  0.2317
 9065SOL    HW138657   2.316   3.586   4.889 -0.8928 -1.1832 -1.2169
 9065SOL    HW238658   2.407   3.692   4.847  2.4411 -0.4000 -0.7338
 9066SOL     OW38659   0.724   3.329   7.948  0.4037 -0.4243  0.8225
 9066SOL    HW138660   0.761   3.375   8.023 -0.3233  2.8005 -0.7668
 9066SOL    HW238661   0.651   3.391   7.937  1.5323  0.5290 -1.3286
 9067SOL     OW38662   3.407   0.519  13.530  0.2487 -0.7277  0.1129
 9067SOL    HW138663   3.427   0.529  13.623  0.2255  1.4187 -0.1089
 9067SOL    HW238664   3.327   0.466  13.532  0.2201 -0.6901 -0.0317
 9068SOL     OW38665   1.527   2.832   7.068  0.4341 -0.6813 -0.8919
 9068SOL    HW138666   1.485   2.883   7.137 -1.8873 -0.8424 -2.1661
 9068SOL    HW238667   1.558   2.907   7.017  1.7830  0.3700  1.5141
 9069SOL     OW38668   1.796   3.384   4.357 -0.2677  0.0735 -0.0122
 9069SOL    HW138669   1.802   3.389   4.453 -1.5934 -1.8760  0.1596
 9069SOL    HW238670   1.701   3.377   4.351 -0.2940 -0.9060  1.4636
 9070SOL     OW38671   0.293   3.383   9.310 -0.0542  0.3166 -0.4348
 9070SOL    HW138672   0.330   3.453   9.256  0.0499  0.3001 -0.3827
 9070SOL    HW238673   0.368   3.365   9.366  1.0923  1.6190 -1.5422
 9071SOL     OW38674   2.853   0.866   3.529 -0.4707  0.7261  0.1449
 9071SOL    HW138675   2.760   0.885   3.538 -0.9218 -0.5812 -1.6862
 9071SOL    HW238676   2.850   0.774   3.556  2.5452  0.2604 -1.1047
 9072SOL     OW38677   2.905   1.305   6.813  0.5599 -0.2291 -0.5360
 9072SOL    HW138678   2.913   1.252   6.733 -0.4006 -0.5060 -0.4546
 9072SOL    HW238679   2.959   1.378   6.784 -0.9757  1.3970  0.7661
 9073SOL     OW38680   3.174   0.664   5.891 -0.6440  0.0584  0.3478
 9073SOL    HW138681   3.084   0.669   5.925  0.2809  2.4130  2.5039
 9073SOL    HW238682   3.225   0.684   5.970 -1.4404 -0.2600  0.9425
 9074SOL     OW38683   3.808   0.288   1.726 -0.2308  0.4319 -0.1966
 9074SOL    HW138684   3.768   0.374   1.714  0.1138  0.6489  0.2455
 9074SOL    HW238685   3.899   0.314   1.739  0.0061  0.3447 -1.6663
 9075SOL     OW38686   1.323   1.843  11.924  0.0700  0.6905 -0.0427
 9075SOL    HW138687   1.388   1.823  11.992  0.6497 -1.0395 -1.1086
 9075SOL    HW238688   1.316   1.937  11.940 -1.5582  0.3259  1.4421
 9076SOL     OW38689   0.080   1.659  13.748  0.1487  0.0836 -0.1542
 9076SOL    HW138690   0.039   1.572  13.743 -0.3454  0.2017  2.0100
 9076SOL    HW238691   0.147   1.646  13.816  0.7608 -0.0239 -0.7682
 9077SOL     OW38692   2.690   4.297   7.173  0.2179 -0.4963 -0.0430
 9077SOL    HW138693   2.701   4.262   7.085  2.0026 -0.8909  0.3399
 9077SOL    HW238694   2.628   4.369   7.158  1.4033  0.7145  0.8380
 9078SOL     OW38695   1.115   4.372   5.962 -0.5673  0.2314  0.7906
 9078SOL    HW138696   1.183   4.316   5.924 -1.4573  0.1770 -0.7242
 9078SOL    HW238697   1.153   4.396   6.046  0.4754 -0.2594  0.4631
 9079SOL     OW38698   4.405   4.015   4.405 -0.3497 -0.2286 -0.2784
 9079SOL    HW138699   4.358   4.088   4.445  1.5692  1.4571 -1.1108
 9079SOL    HW238700   4.494   4.049   4.403 -0.7522  0.9539  1.6235
 9080SOL     OW38701   2.696   2.970   4.433  0.5736 -0.0483 -0.1409
 9080SOL    HW138702   2.631   2.901   4.445  0.0787  0.3862 -0.3035
 9080SOL    HW238703   2.642   3.049   4.422 -0.5635 -1.0624 -1.7802
 9081SOL     OW38704   1.792   4.718   9.576  0.4594  0.7390  0.3231
 9081SOL    HW138705   1.776   4.676   9.660 -1.7050  1.7873  0.4517
 9081SOL    HW238706   1.856   0.061   9.601  0.4089  0.5317  0.9965
 9082SOL     OW38707   0.559   2.153   5.077  0.1068 -0.2835 -0.1673
 9082SOL    HW138708   0.610   2.071   5.075  1.5861  0.5722  1.6548
 9082SOL    HW238709   0.471   2.124   5.056  0.3370  0.1352 -1.6574
 9083SOL     OW38710   0.290   2.095  17.196 -0.0009  0.3650 -0.1270
 9083SOL    HW138711   0.381   2.123  17.208  0.6862 -1.3468 -1.2346
 9083SOL    HW238712   0.257   2.132  17.277  3.4826  0.3408  1.3020
 9084SOL     OW38713   3.298   4.025   0.426  0.5720  0.1704  0.3496
 9084SOL    HW138714   3.234   3.984   0.367  2.2791 -1.2720 -0.4967
 9084SOL    HW238715   3.344   4.078   0.362 -1.5349  0.3918 -0.9816
 9085SOL     OW38716   4.651   3.840   0.915  0.3503  0.1385  0.3061
 9085SOL    HW138717   0.002   3.865   0.861  1.1578  1.0538  1.8453
 9085SOL    HW238718   4.697   3.777   0.970 -0.3495 -0.3426  0.3450
 9086SOL     OW38719   2.680   1.802   2.608  0.3031 -0.2825  0.1550
 9086SOL    HW138720   2.732   1.722   2.610  1.0092  0.1663 -0.1171
 9086SOL    HW238721   2.612   1.784   2.673 -1.9435  0.8923 -1.8997
 9087SOL     OW38722   1.649   0.466   7.537  0.1319 -0.1177 -0.3677
 9087SOL    HW138723   1.718   0.401   7.520  0.4108  0.0190  0.2312
 9087SOL    HW238724   1.575   0.409   7.557 -0.4704  0.0955 -2.0250
 9088SOL     OW38725   4.375   3.846   2.139  0.0011  0.0695 -0.5519
 9088SOL    HW138726   4.328   3.818   2.060 -0.0649  0.8659 -0.7962
 9088SOL    HW238727   4.318   3.922   2.154  0.9572  0.3235  1.8093
 9089SOL     OW38728   2.672   2.783   8.571  0.0294  0.7449 -0.3544
 9089SOL    HW138729   2.632   2.792   8.484  0.4548  2.1323 -0.4008
 9089SOL    HW238730   2.737   2.852   8.570 -1.4445  2.1265 -0.4511
 9090SOL     OW38731   3.843   4.395   5.421  0.2013  0.0833  0.3941
 9090SOL    HW138732   3.850   4.362   5.510 -0.7065  0.9729  0.7896
 9090SOL    HW238733   3.935   4.411   5.401  0.4024 -0.5451  0.8117
 9091SOL     OW38734   0.123   1.812   6.551  0.2024 -0.1036  0.2573
 9091SOL    HW138735   0.120   1.889   6.607 -1.6483  0.4493 -0.6116
 9091SOL    HW238736   0.201   1.837   6.500 -1.8166  3.5813 -1.0395
 9092SOL     OW38737   0.145   3.189   0.822 -0.1149 -0.0236  0.2089
 9092SOL    HW138738   0.224   3.137   0.834 -1.4937 -1.9938  0.6850
 9092SOL    HW238739   0.172   3.277   0.849 -0.5095  0.1130  0.1571
 9093SOL     OW38740   2.556   1.626   7.514  0.1381  0.0157  0.1488
 9093SOL    HW138741   2.469   1.665   7.512  0.1939  0.2008  1.3185
 9093SOL    HW238742   2.608   1.704   7.494  2.8578 -1.4731  1.3047
 9094SOL     OW38743   3.105   0.727   2.283 -0.1042 -0.2274 -0.4019
 9094SOL    HW138744   3.191   0.713   2.245  1.3328  0.4013  2.6700
 9094SOL    HW238745   3.065   0.645   2.253 -0.6977  0.3753 -1.2803
 9095SOL     OW38746   2.044   0.075   1.433  0.7954 -0.0486  0.4772
 9095SOL    HW138747   2.074   0.162   1.460  1.3529 -0.8085  2.3096
 9095SOL    HW238748   1.951   0.075   1.455  0.6053  2.4527 -0.3737
 9096SOL     OW38749   4.295   2.842   5.165  0.1123 -0.5671 -0.0184
 9096SOL    HW138750   4.363   2.859   5.099 -0.0125 -1.2055 -0.3140
 9096SOL    HW238751   4.336   2.776   5.222  1.7087 -2.0834 -2.8596
 9097SOL     OW38752   3.368   2.656   8.076  0.3727 -0.2564  0.0825
 9097SOL    HW138753   3.370   2.561   8.083  0.4229 -0.4716 -2.9905
 9097SOL    HW238754   3.451   2.680   8.119  0.7095 -0.9335 -0.2014
 9098SOL     OW38755   2.426   2.822   4.684  0.0921 -0.2282  0.1755
 9098SOL    HW138756   2.452   2.768   4.759 -1.6375  1.2279  1.8219
 9098SOL    HW238757   2.481   2.800   4.609 -1.0220  0.1726 -0.7647
 9099SOL     OW38758   1.091   0.657   4.722 -0.3601 -0.0339 -0.1393
 9099SOL    HW138759   1.060   0.743   4.692 -2.2705 -0.1019  1.7217
 9099SOL    HW238760   1.186   0.662   4.707 -0.6720  0.7908 -1.8842
 9100SOL     OW38761   3.350   2.515   6.574 -0.2395 -0.1329  0.3698
 9100SOL    HW138762   3.332   2.539   6.665  1.7199  0.2945  0.6392
 9100SOL    HW238763   3.268   2.541   6.532 -0.3055 -0.0221  0.5682
 9101SOL     OW38764   1.499   0.590   7.345  0.4236 -0.1845  0.7497
 9101SOL    HW138765   1.572   0.652   7.348 -0.0331  0.4220 -0.4682
 9101SOL    HW238766   1.493   0.541   7.427  1.7733 -1.1486  0.2659
 9102SOL     OW38767   3.510   3.720  11.576 -0.1742  0.1299  0.3717
 9102SOL    HW138768   3.558   3.798  11.550  1.2978 -0.7474  0.4655
 9102SOL    HW238769   3.430   3.766  11.601  0.3930  0.5910  1.3316
 9103SOL     OW38770   1.510   3.417  17.285  0.0418  0.7490 -0.0435
 9103SOL    HW138771   1.576   3.476  17.322 -0.8774 -0.6947  3.8222
 9103SOL    HW238772   1.510   3.355  17.357  0.8476  2.3363  1.3112
 9104SOL     OW38773   2.134   0.630  15.100 -0.0368 -0.4389 -0.5833
 9104SOL    HW138774   2.149   0.658  15.190 -2.3692 -2.2253  0.3393
 9104SOL    HW238775   2.086   0.708  15.072 -2.2770 -1.1529  1.3110
 9105SOL     OW38776   4.131   3.841   6.336  0.1167 -0.2207 -0.1392
 9105SOL    HW138777   4.112   3.809   6.424  1.1428  1.2397  0.6045
 9105SOL    HW238778   4.223   3.820   6.324  0.3772 -0.0061  1.4859
 9106SOL     OW38779   4.623   0.757   6.450 -0.1822  0.3333 -0.5828
 9106SOL    HW138780   4.691   0.764   6.383 -1.3477 -2.5074 -2.0861
 9106SOL    HW238781   4.567   0.833   6.430  0.4470  0.8622 -0.3360
 9107SOL     OW38782   0.195   1.989   7.631 -0.3863 -0.4635  0.1410
 9107SOL    HW138783   0.286   2.011   7.650 -0.6097 -0.2557  0.9644
 9107SOL    HW238784   0.186   2.048   7.556 -1.7774  0.2551  0.8754
 9108SOL     OW38785   0.052   4.338   6.884  0.0263  0.0411 -0.6038
 9108SOL    HW138786   4.698   4.393   6.882  1.1925  1.7803  1.1923
 9108SOL    HW238787   0.122   4.384   6.838 -0.4844  0.2453 -1.1720
 9109SOL     OW38788   2.556   1.134  17.546 -0.0400 -0.1365 -0.8943
 9109SOL    HW138789   2.556   1.165  17.637  0.7111 -1.4290 -0.4547
 9109SOL    HW238790   2.494   1.062  17.535 -2.0029  1.1968  1.2766
 9110SOL     OW38791   0.472   4.229   8.545 -0.6006  0.3214  0.0792
 9110SOL    HW138792   0.490   4.321   8.526 -1.3203  0.5683  0.5508
 9110SOL    HW238793   0.519   4.230   8.629 -1.4676  2.0353  0.5507
 9111SOL     OW38794   0.783   4.050   9.280  0.4231  0.5502 -0.0578
 9111SOL    HW138795   0.695   4.071   9.250 -0.0178  0.6663  1.3197
 9111SOL    HW238796   0.779   3.955   9.280 -0.1378  0.5698 -0.6940
 9112SOL     OW38797   1.917   2.410   1.405 -0.0973  0.6931  0.0940
 9112SOL    HW138798   1.889   2.428   1.315 -1.2132  0.1244  0.3384
 9112SOL    HW238799   1.843   2.420   1.463  1.4537 -0.1792  2.2202
 9113SOL     OW38800   1.759   1.611   3.126  0.0627  0.1483 -0.0875
 9113SOL    HW138801   1.845   1.579   3.155  0.4059  1.3667  0.2524
 9113SOL    HW238802   1.697   1.548   3.162 -0.8968  1.6134  0.8429
 9114SOL     OW38803   3.575   1.449   5.137 -0.1477  0.4399 -0.0108
 9114SOL    HW138804   3.575   1.434   5.232  2.4446 -2.3384 -0.4281
 9114SOL    HW238805   3.497   1.502   5.124 -2.7923 -3.6072 -0.7522
 9115SOL     OW38806   0.260   3.417   8.526 -0.2038  0.3398  0.1409
 9115SOL    HW138807   0.315   3.479   8.574 -0.6568  1.8414 -1.2706
 9115SOL    HW238808   0.176   3.463   8.533 -0.3286  0.0808  0.3616
 9116SOL     OW38809   3.540   0.088   0.440  0.2976 -0.2715 -0.8767
 9116SOL    HW138810   3.621   0.124   0.477  0.4489 -1.1589 -0.3395
 9116SOL    HW238811   3.573   0.039   0.364 -0.4895 -0.6295 -0.9869
 9117SOL     OW38812   2.572   3.982   8.867  0.4766 -0.3452 -0.4855
 9117SOL    HW138813   2.524   4.059   8.838  0.0173 -0.9720 -1.3872
 9117SOL    HW238814   2.634   4.016   8.932 -1.5349 -0.1887  1.3160
 9118SOL     OW38815   4.565   1.997   3.530  0.1871 -0.2309 -0.0914
 9118SOL    HW138816   4.566   2.006   3.625 -1.0115 -0.8587 -0.0143
 9118SOL    HW238817   4.609   2.071   3.490  2.2737 -0.0036  2.6044
 9119SOL     OW38818   2.533   3.049   1.975 -0.0689 -0.2581 -0.2151
 9119SOL    HW138819   2.461   2.993   1.946  0.3009 -1.3800  1.0244
 9119SOL    HW238820   2.498   3.098   2.050 -1.6657 -1.8274  0.0610
 9120SOL     OW38821   0.513   2.683   8.477  0.0933 -0.4797  0.0682
 9120SOL    HW138822   0.525   2.694   8.571  0.6901  0.6590 -0.1473
 9120SOL    HW238823   0.513   2.587   8.471 -1.0974 -0.6205  2.3179
 9121SOL     OW38824   3.424   2.545   4.390  0.6367  0.7767 -0.2807
 9121SOL    HW138825   3.408   2.606   4.463 -0.6474  1.1719 -0.8942
 9121SOL    HW238826   3.425   2.473   4.452 -0.7564  0.0018 -1.1749
 9122SOL     OW38827   2.905   1.379   7.517 -0.1021  0.4933 -0.6007
 9122SOL    HW138828   2.940   1.466   7.496  0.4328  0.4801  0.2282
 9122SOL    HW238829   2.866   1.344   7.438 -2.7482  1.1537  0.4301
 9123SOL     OW38830   0.648   2.607   3.307  0.4947  0.2227  0.5103
 9123SOL    HW138831   0.622   2.692   3.344  1.2589  0.4519  0.5132
 9123SOL    HW238832   0.590   2.605   3.231 -0.5600  1.9880  1.2549
 9124SOL     OW38833   3.772   3.475  12.851 -0.3438  0.2016  0.3862
 9124SOL    HW138834   3.804   3.450  12.764 -0.5629  2.6809 -0.4015
 9124SOL    HW238835   3.677   3.467  12.840 -0.3223 -0.1585  0.4544
 9125SOL     OW38836   3.189   3.408  16.968 -0.4588  0.3507  0.1488
 9125SOL    HW138837   3.281   3.394  16.946 -0.7141  1.6112 -1.7658
 9125SOL    HW238838   3.142   3.359  16.901  1.5525  0.0370 -1.0199
 9126SOL     OW38839   2.625   2.109  12.749 -0.1500  0.1011  0.1007
 9126SOL    HW138840   2.555   2.047  12.730  0.0142 -0.2876  0.7446
 9126SOL    HW238841   2.653   2.125  12.659  0.0927 -0.0942  0.1414
 9127SOL     OW38842   3.731   4.261   3.391  0.3178 -0.2277 -0.3222
 9127SOL    HW138843   3.787   4.234   3.464 -0.7497 -0.2375  0.4979
 9127SOL    HW238844   3.764   4.345   3.360  0.9603 -0.3207  0.1056
 9128SOL     OW38845   4.094   0.778   9.108 -0.1493 -0.0442  0.2485
 9128SOL    HW138846   4.007   0.740   9.125  0.5463 -1.5172  0.5410
 9128SOL    HW238847   4.108   0.794   9.015 -1.9702  0.1094 -0.0067
 9129SOL     OW38848   3.816   0.441   7.842  0.4498  0.3490 -0.5337
 9129SOL    HW138849   3.908   0.450   7.868  0.7673  1.5798 -2.0944
 9129SOL    HW238850   3.827   0.464   7.750 -3.0043 -1.4080 -1.3712
 9130SOL     OW38851   3.370   3.377   6.250 -0.3298  0.1618 -0.0620
 9130SOL    HW138852   3.356   3.404   6.159 -0.5089  1.2969  0.3016
 9130SOL    HW238853   3.337   3.288   6.252 -1.3798  0.4992 -2.7181
 9131SOL     OW38854   2.386   1.772   6.518 -0.2619  0.4851 -0.2701
 9131SOL    HW138855   2.380   1.848   6.460  1.9516 -0.3070 -1.5222
 9131SOL    HW238856   2.298   1.735   6.514 -1.2304  2.7646 -0.2853
 9132SOL     OW38857   2.632   1.610   8.470 -0.3144 -0.5122 -0.0274
 9132SOL    HW138858   2.579   1.680   8.507  2.8870  2.0670 -0.3395
 9132SOL    HW238859   2.563   1.544   8.467 -0.2954 -0.6672  2.7289
 9133SOL     OW38860   2.939   1.859  14.632  0.4030  0.5336 -0.3760
 9133SOL    HW138861   2.983   1.912  14.566  0.7629 -1.8647 -2.0623
 9133SOL    HW238862   2.977   1.771  14.632 -0.3638  0.2071  2.5306
 9134SOL     OW38863   3.896   1.068   6.324 -0.5879  0.1497  0.0960
 9134SOL    HW138864   3.976   1.098   6.367 -0.2846  0.5298 -0.7331
 9134SOL    HW238865   3.938   1.010   6.261  0.8658 -0.9811  2.0927
 9135SOL     OW38866   0.208   1.567   3.616 -0.0448  0.6058 -0.0282
 9135SOL    HW138867   0.261   1.619   3.555 -1.6810  2.5483  0.1746
 9135SOL    HW238868   0.124   1.609   3.596  0.0970  0.3848 -1.1175
 9136SOL     OW38869   2.173   1.157   6.492 -0.1871  0.1106 -0.0152
 9136SOL    HW138870   2.226   1.237   6.494  3.4281 -2.2971  0.1798
 9136SOL    HW238871   2.223   1.098   6.436  0.1169  0.9619 -0.6433
 9137SOL     OW38872   0.759   2.985   1.934  0.1850 -0.0521  0.0105
 9137SOL    HW138873   0.737   3.036   1.856  1.1144 -1.2923 -1.0629
 9137SOL    HW238874   0.680   2.932   1.934 -0.9785  1.7011 -1.1852
 9138SOL     OW38875   3.758   4.425   7.367 -0.1664  0.1834  0.6886
 9138SOL    HW138876   3.742   4.457   7.457  1.9998  0.1319  1.0857
 9138SOL    HW238877   3.850   4.400   7.370 -0.1785 -0.0191 -1.1619
 9139SOL     OW38878   4.160   2.411  14.965 -0.0055  0.7702  0.2416
 9139SOL    HW138879   4.254   2.431  14.962  0.3431 -0.8519  0.1712
 9139SOL    HW238880   4.162   2.342  15.031  0.6596  1.3966  0.8740
 9140SOL     OW38881   3.029   3.671   5.414 -0.3257  0.0227 -0.1262
 9140SOL    HW138882   3.107   3.711   5.376 -0.4874  1.2412  0.8304
 9140SOL    HW238883   2.970   3.653   5.340 -0.7659 -0.7334  0.3987
 9141SOL     OW38884   0.959   3.576   5.782  0.0587  0.0077  0.0316
 9141SOL    HW138885   0.929   3.512   5.718  0.6518  0.7248 -0.9711
 9141SOL    HW238886   0.998   3.647   5.731  2.2595 -0.4837  1.0122
 9142SOL     OW38887   1.549   2.991   2.183 -0.0010  0.0357  0.0992
 9142SOL    HW138888   1.613   2.920   2.183 -0.9487 -0.8273 -1.3917
 9142SOL    HW238889   1.583   3.054   2.120 -0.6075 -0.7721 -1.0445
 9143SOL     OW38890   2.049   4.220   0.142 -0.1430  0.4738 -0.3237
 9143SOL    HW138891   2.068   4.144   0.197 -2.1225 -0.7064 -1.2505
 9143SOL    HW238892   1.984   4.183   0.082 -0.4268  0.5786 -0.0805
 9144SOL     OW38893   2.202   0.242   8.238 -0.3619  0.2690  0.1435
 9144SOL    HW138894   2.281   0.294   8.225  1.1902 -2.6739 -2.2683
 9144SOL    HW238895   2.150   0.301   8.291 -0.6061  0.1898 -0.0085
 9145SOL     OW38896   2.933   4.027   9.163  0.5231 -0.8439  0.2652
 9145SOL    HW138897   2.976   4.102   9.121  3.5439 -2.5668  0.2996
 9145SOL    HW238898   2.844   4.043   9.133 -0.6115  1.1773  4.6221
 9146SOL     OW38899   1.568   0.073   3.204  0.6335  0.5290  0.7545
 9146SOL    HW138900   1.503   0.115   3.261  0.5136  2.0477 -0.4814
 9146SOL    HW238901   1.541   0.091   3.114 -3.1406 -0.4204  1.6815
 9147SOL     OW38902   4.444   1.421   7.017 -0.1480  0.8262 -0.4269
 9147SOL    HW138903   4.360   1.400   7.059 -1.0751  1.5046 -1.9109
 9147SOL    HW238904   4.418   1.467   6.936  1.2221  1.2435 -0.6334
 9148SOL     OW38905   4.266   3.831  11.524 -0.0331 -0.3860  0.1705
 9148SOL    HW138906   4.255   3.883  11.603 -3.0806 -0.8587  0.0347
 9148SOL    HW238907   4.359   3.807  11.530  0.6445  1.3802 -3.3784
 9149SOL     OW38908   4.061   2.680   2.584  0.0679  0.2240  0.1307
 9149SOL    HW138909   4.106   2.758   2.552 -1.9165  1.3384  0.0855
 9149SOL    HW238910   4.028   2.644   2.502  0.0400  0.0537  0.2169
 9150SOL     OW38911   4.125   1.717   7.690  0.2553 -0.1431  0.1131
 9150SOL    HW138912   4.118   1.791   7.751 -0.7062  0.7054 -1.0454
 9150SOL    HW238913   4.109   1.764   7.609 -2.3568 -0.4393  0.4573
 9151SOL     OW38914   4.288   3.124   6.341 -0.6395  0.8129  0.2952
 9151SOL    HW138915   4.212   3.073   6.367 -0.2772 -0.2475 -0.7039
 9151SOL    HW238916   4.300   3.070   6.263 -1.9316 -2.1458  2.1487
 9152SOL     OW38917   0.723   1.524   8.446 -0.1906  0.2100 -0.1591
 9152SOL    HW138918   0.634   1.493   8.427 -0.7873  0.7855  1.6812
 9152SOL    HW238919   0.739   1.454   8.510 -1.3769 -0.8039 -0.9728
 9153SOL     OW38920   2.787   2.087  13.188  0.3698  0.8835 -0.0742
 9153SOL    HW138921   2.719   2.020  13.176  2.6233 -1.2027 -1.2049
 9153SOL    HW238922   2.791   2.133  13.104 -0.1293 -1.2801 -1.2753
 9154SOL     OW38923   0.092   2.205   7.143  0.0203  0.1493 -0.3897
 9154SOL    HW138924   0.163   2.159   7.098  0.5620  0.4748  0.1288
 9154SOL    HW238925   0.077   2.282   7.089 -2.1932  1.9790  2.8196
 9155SOL     OW38926   1.381   3.502  16.695 -0.2315  0.1677 -0.2844
 9155SOL    HW138927   1.395   3.415  16.658 -1.0842 -0.2809  0.4486
 9155SOL    HW238928   1.468   3.539  16.677 -1.0184  1.0596 -2.2358
 9156SOL     OW38929   1.693   4.467  17.691  0.2268 -0.3382  0.2300
 9156SOL    HW138930   1.642   4.401   0.041  1.2884 -1.6658 -0.5095
 9156SOL    HW238931   1.773   4.416  17.690  0.3141 -0.2206  1.2360
 9157SOL     OW38932   2.486   3.326   5.557  0.2607  0.1837 -0.1722
 9157SOL    HW138933   2.580   3.334   5.571  0.3832 -0.6002 -0.5403
 9157SOL    HW238934   2.452   3.334   5.646 -1.4414 -1.5367 -0.6604
 9158SOL     OW38935   1.343   1.524  13.331  0.2766  0.2187 -0.5001
 9158SOL    HW138936   1.316   1.446  13.379 -2.4414  2.1956  1.1705
 9158SOL    HW238937   1.278   1.524  13.261 -1.3840  1.5625  1.0436
 9159SOL     OW38938   2.059   0.364   1.533  0.0537 -0.1930 -0.5424
 9159SOL    HW138939   2.024   0.394   1.617  2.0575 -3.8484  1.6476
 9159SOL    HW238940   2.138   0.327   1.573 -0.2636  0.4397  0.6526
 9160SOL     OW38941   3.377   4.131   6.924 -0.3624 -0.3056  0.6916
 9160SOL    HW138942   3.440   4.119   6.853 -0.9642  3.5339 -0.4823
 9160SOL    HW238943   3.424   4.205   6.962 -1.8294 -0.0245  1.9781
 9161SOL     OW38944   2.595   2.367   8.499 -0.6884 -0.6668 -0.2301
 9161SOL    HW138945   2.546   2.286   8.510 -4.8369  1.9689  0.8429
 9161SOL    HW238946   2.524   2.424   8.528  0.4149  0.5380  0.1215
 9162SOL     OW38947   1.066   3.042  15.662 -0.5998  0.0944 -0.3068
 9162SOL    HW138948   1.038   3.002  15.580  3.7515 -0.3512 -1.6033
 9162SOL    HW238949   1.012   2.994  15.724  0.2205  0.3145  0.5912
 9163SOL     OW38950   3.436   3.218   7.998 -0.1044  0.6384  0.3940
 9163SOL    HW138951   3.341   3.203   7.996 -0.1448  0.7031  1.3689
 9163SOL    HW238952   3.436   3.289   8.062 -3.0954  0.2924  0.8120
 9164SOL     OW38953   1.424   1.689  15.752 -0.1893  0.2716  0.0313
 9164SOL    HW138954   1.397   1.770  15.709  0.4620  0.8073  0.6417
 9164SOL    HW238955   1.500   1.721  15.801  1.2964  0.7251 -2.5502
 9165SOL     OW38956   2.148   4.655   5.631  0.1830  0.1511 -0.0295
 9165SOL    HW138957   2.204   4.584   5.599  0.5457  0.4994 -0.1651
 9165SOL    HW238958   2.069   4.665   5.579  0.3357 -0.4758 -0.3766
 9166SOL     OW38959   2.122   3.349  10.816  0.1981  0.5367 -0.4531
 9166SOL    HW138960   2.099   3.321  10.905 -0.4393 -0.1653 -0.8406
 9166SOL    HW238961   2.045   3.339  10.760 -0.5157 -0.0536  0.6190
 9167SOL     OW38962   0.729   0.766   7.379 -0.2186  0.4369 -0.2359
 9167SOL    HW138963   0.800   0.702   7.379 -1.2575 -0.7348  0.6153
 9167SOL    HW238964   0.659   0.708   7.347  0.5033  0.5092 -1.9516
 9168SOL     OW38965   2.993   0.184  11.289  0.0161 -1.0656 -0.2957
 9168SOL    HW138966   2.918   0.224  11.245  0.4061 -0.5300 -0.4706
 9168SOL    HW238967   3.044   0.264  11.301  0.7680 -1.5509 -0.2909
 9169SOL     OW38968   0.883   1.833   9.176  0.0893 -0.3745 -0.6050
 9169SOL    HW138969   0.928   1.917   9.177 -0.7511  0.0707  0.9138
 9169SOL    HW238970   0.946   1.772   9.137  2.3040  1.0613  0.7146
 9170SOL     OW38971   4.120   1.366  15.745  0.8361 -0.9609  0.0493
 9170SOL    HW138972   4.030   1.344  15.768  0.2017 -0.8762 -2.3553
 9170SOL    HW238973   4.117   1.329  15.657 -2.5772 -3.4068  1.2255
 9171SOL     OW38974   3.378   3.643   1.398  0.2812 -0.1252 -0.5521
 9171SOL    HW138975   3.327   3.713   1.439  1.2773  0.9689 -1.1622
 9171SOL    HW238976   3.346   3.648   1.308  1.4621 -0.5965 -1.0003
 9172SOL     OW38977   2.571   2.611  10.055  0.2162 -0.4235 -0.0377
 9172SOL    HW138978   2.639   2.576  10.114  2.3351  1.6803 -1.2412
 9172SOL    HW238979   2.503   2.545  10.070  1.0250 -1.3699 -0.5495
 9173SOL     OW38980   0.044   3.984   5.416  0.4143 -0.4683 -0.2521
 9173SOL    HW138981   0.046   3.927   5.339  1.3320 -0.6086 -0.1203
 9173SOL    HW238982   0.109   4.046   5.385 -1.1894  0.5316 -1.5965
 9174SOL     OW38983   0.814   0.788  17.581  0.2493  0.3920 -0.0189
 9174SOL    HW138984   0.905   0.816  17.590  0.5218 -0.8537  1.3070
 9174SOL    HW238985   0.820   0.720  17.649  0.2822  0.6254  0.2095
 9175SOL     OW38986   2.331   2.398   3.552  1.0320  0.3929  0.4310
 9175SOL    HW138987   2.330   2.383   3.457  0.0589 -1.1042  0.6825
 9175SOL    HW238988   2.409   2.451   3.568  0.0814  1.5970  1.0453
 9176SOL     OW38989   1.859   1.900   6.379 -0.3214 -0.0798  0.2424
 9176SOL    HW138990   1.827   1.811   6.395 -1.8379  1.0965  3.6460
 9176SOL    HW238991   1.781   1.944   6.346  1.0551  1.6928 -0.6460
 9177SOL     OW38992   3.273   3.619   9.103 -0.1368  0.0303  0.1696
 9177SOL    HW138993   3.216   3.695   9.111  0.2938  0.2370  1.2206
 9177SOL    HW238994   3.207   3.554   9.125  0.7651 -0.2107  2.2041
 9178SOL     OW38995   4.048   3.210   8.961  0.1662  0.2440 -0.0142
 9178SOL    HW138996   4.083   3.164   8.885 -0.8236 -0.6103  0.0537
 9178SOL    HW238997   4.021   3.138   9.018  0.4223  1.2909  1.4245
 9179SOL     OW38998   1.339   4.451   5.465 -0.3083  0.0227 -0.7499
 9179SOL    HW138999   1.296   4.496   5.392  2.4809  0.8804 -1.8658
 9179SOL    HW239000   1.343   4.530   5.518  0.2945 -0.1752 -0.4965
 9180SOL     OW39001   1.836   0.153   0.883  0.0796  0.8046 -0.0116
 9180SOL    HW139002   1.808   0.072   0.927 -1.7208  0.0863 -2.4499
 9180SOL    HW239003   1.928   0.131   0.871 -0.5722 -0.4322 -2.9107
 9181SOL     OW39004   2.263   1.264  13.069 -0.3392  0.3360  0.1033
 9181SOL    HW139005   2.342   1.209  13.063 -1.5136 -1.2693 -0.6207
 9181SOL    HW239006   2.268   1.314  12.988 -0.8915  0.1165 -0.0686
 9182SOL     OW39007   3.223   1.102   7.326  0.0772  0.0062  0.2680
 9182SOL    HW139008   3.232   1.187   7.283  0.5895  0.7114  1.7801
 9182SOL    HW239009   3.298   1.097   7.386  0.1750 -0.3296  0.1186
 9183SOL     OW39010   2.338   3.972  14.324  0.5323  0.2873 -0.1644
 9183SOL    HW139011   2.426   4.011  14.322 -0.0102  1.4173 -1.3339
 9183SOL    HW239012   2.367   3.884  14.299  2.2340  0.2481  1.9156
 9184SOL     OW39013   3.102   3.524   4.472  0.5521 -0.2119  0.1362
 9184SOL    HW139014   3.076   3.615   4.460  0.4797 -0.3415 -0.6688
 9184SOL    HW239015   3.196   3.538   4.485  0.8818 -2.6903  0.4080
 9185SOL     OW39016   1.747   3.372  12.830 -0.2095  0.4477 -0.0733
 9185SOL    HW139017   1.767   3.428  12.904 -2.6493 -1.7207  2.2094
 9185SOL    HW239018   1.837   3.350  12.803 -0.6268 -2.1442  0.6464
 9186SOL     OW39019   1.660   0.621   2.830  0.5547 -0.7646  0.5015
 9186SOL    HW139020   1.659   0.530   2.861  1.6792 -0.7869  0.4596
 9186SOL    HW239021   1.754   0.634   2.825  0.7134 -2.2551 -0.5114
 9187SOL     OW39022   2.605   1.724   5.017 -0.4639 -0.3849  0.5142
 9187SOL    HW139023   2.556   1.798   4.980 -0.4697 -0.0392  1.2180
 9187SOL    HW239024   2.644   1.767   5.093 -2.7522  0.8767  0.9609
 9188SOL     OW39025   3.076   1.421   7.739 -0.5928 -0.0763 -0.0906
 9188SOL    HW139026   3.047   1.418   7.647 -0.9213  0.1333  0.0065
 9188SOL    HW239027   3.095   1.514   7.738  0.0487 -0.2136 -0.3455
 9189SOL     OW39028   2.987   1.614   7.417 -0.3320  0.2127  0.3045
 9189SOL    HW139029   2.963   1.618   7.324  0.0813 -1.7090  0.1160
 9189SOL    HW239030   3.031   1.698   7.427 -0.0260  0.1074 -0.1780
 9190SOL     OW39031   2.595   4.245   3.684  0.0255  0.2862 -0.2531
 9190SOL    HW139032   2.573   4.152   3.683 -1.0754  0.5377  0.7581
 9190SOL    HW239033   2.602   4.274   3.775  2.4535  1.2321 -0.7401
 9191SOL     OW39034   1.191   3.026   9.346  1.0356 -0.3071 -0.1968
 9191SOL    HW139035   1.197   2.978   9.264  1.1008 -0.1312 -0.2966
 9191SOL    HW239036   1.243   2.963   9.395 -2.2519 -0.6053  2.8986
 9192SOL     OW39037   4.072   0.996   6.960  0.5444  0.0008 -0.5424
 9192SOL    HW139038   4.057   0.955   6.875  0.0345 -0.6494 -0.1346
 9192SOL    HW239039   4.076   0.914   7.009  0.3706 -0.6448 -1.6136
 9193SOL     OW39040   0.857   2.071   5.793 -0.3279 -0.4538  0.1645
 9193SOL    HW139041   0.893   2.133   5.857  0.8191  2.2401 -3.0695
 9193SOL    HW239042   0.836   2.143   5.733  2.9220 -1.5051 -2.2502
 9194SOL     OW39043   1.912   0.931  15.918  0.2709 -0.0332  0.2180
 9194SOL    HW139044   1.916   0.841  15.888  1.9285 -0.7958  2.6680
 9194SOL    HW239045   1.846   0.967  15.860  0.5855  0.9748  0.4810
 9195SOL     OW39046   0.542   4.587   6.099  0.6840  0.0558 -0.1276
 9195SOL    HW139047   0.500   4.544   6.024 -0.7184  0.9120  0.1683
 9195SOL    HW239048   0.602   4.649   6.057  0.9523  0.9620  1.6269
 9196SOL     OW39049   1.772   1.798   0.163 -0.2109  0.0159 -0.0158
 9196SOL    HW139050   1.760   1.851   0.084  2.2363  0.5017 -0.0413
 9196SOL    HW239051   1.861   1.765   0.153 -0.0493  1.3921 -3.0102
 9197SOL     OW39052   1.828   0.721   6.626  0.0344  0.2007 -0.3929
 9197SOL    HW139053   1.921   0.736   6.609  0.1248  0.3934  0.2833
 9197SOL    HW239054   1.766   0.760   6.564  0.3738  0.1457 -0.7678
 9198SOL     OW39055   4.029   3.695   8.396  0.1477 -0.1857  0.1817
 9198SOL    HW139056   4.002   3.640   8.469 -2.8338 -3.4804 -3.4189
 9198SOL    HW239057   4.006   3.642   8.320  2.4073 -1.6739  0.5482
 9199SOL     OW39058   4.377   0.931   1.726  0.3998 -0.6163 -0.8021
 9199SOL    HW139059   4.440   0.995   1.693 -1.5110  1.7078  0.0281
 9199SOL    HW239060   4.437   0.883   1.782 -0.8516 -3.9448 -2.3099
 9200SOL     OW39061   1.449   1.679  17.040  0.2415  0.0449  0.2636
 9200SOL    HW139062   1.418   1.750  16.985  0.9294  0.5747  0.5509
 9200SOL    HW239063   1.506   1.721  17.105  1.0378  0.8955 -1.0008
 9201SOL     OW39064   0.911   2.774   6.149 -0.1729 -0.2431  0.2945
 9201SOL    HW139065   0.990   2.786   6.096 -0.2623  0.6184  0.3668
 9201SOL    HW239066   0.862   2.717   6.089 -1.7544 -1.3105  2.6304
 9202SOL     OW39067   2.431   4.249   5.452 -0.4762  0.4217 -0.3504
 9202SOL    HW139068   2.373   4.173   5.445 -0.0893  0.1869 -0.9214
 9202SOL    HW239069   2.484   4.239   5.374 -0.1853 -0.0676 -0.0911
 9203SOL     OW39070   1.779   4.656   2.938  0.5713  0.4097  0.6632
 9203SOL    HW139071   1.795   4.653   2.844  0.8888 -0.0821  0.7291
 9203SOL    HW239072   1.871   4.666   2.964  0.7575  1.1180 -0.2843
 9204SOL     OW39073   1.399   2.476  15.859 -0.8645 -0.0236  0.3697
 9204SOL    HW139074   1.425   2.502  15.947  0.8689  0.9623 -0.4316
 9204SOL    HW239075   1.470   2.424  15.821 -0.8740  0.2495 -0.0194
 9205SOL     OW39076   3.258   2.910   8.052 -0.0439  0.5829 -0.3644
 9205SOL    HW139077   3.285   2.822   8.077 -1.3348  0.5426  0.9060
 9205SOL    HW239078   3.315   2.917   7.975  1.2142  0.3697  0.5533
 9206SOL     OW39079   3.488   4.641  14.915 -0.0063  0.4884  0.1637
 9206SOL    HW139080   3.443   4.715  14.874  0.9403  0.3126 -1.1497
 9206SOL    HW239081   3.495   4.573  14.848  1.2108 -0.0766  0.8660
 9207SOL     OW39082   0.713   1.278   0.987 -0.3192 -0.0704 -0.2874
 9207SOL    HW139083   0.744   1.225   1.060 -0.7125  0.0850 -0.0042
 9207SOL    HW239084   0.679   1.357   1.031  0.3050  0.2189 -0.3203
 9208SOL     OW39085   4.687   1.610   9.696 -0.0187 -0.0148  0.2812
 9208SOL    HW139086   0.033   1.545   9.687  0.3602  0.0055  2.9331
 9208SOL    HW239087   4.646   1.624   9.611  0.4621 -0.0157  0.0505
 9209SOL     OW39088   2.245   2.500   9.191 -0.7905  0.4496  0.0037
 9209SOL    HW139089   2.276   2.421   9.235  2.1004  1.2306 -0.6742
 9209SOL    HW239090   2.173   2.525   9.249 -0.4953  1.9204 -0.2793
 9210SOL     OW39091   2.567   0.277   2.054 -0.0407 -0.2388 -0.6067
 9210SOL    HW139092   2.540   0.365   2.081 -1.0819 -0.5255 -0.6834
 9210SOL    HW239093   2.544   0.228   2.133 -0.1830  2.8810  1.2829
 9211SOL     OW39094   1.935   3.420   5.438  0.0817 -0.7927 -0.2640
 9211SOL    HW139095   1.947   3.514   5.451  1.4022 -0.6727 -2.2815
 9211SOL    HW239096   1.840   3.419   5.445 -0.1037  0.1748 -2.6538
 9212SOL     OW39097   0.002   2.880   8.346  0.1050 -0.2254 -0.2236
 9212SOL    HW139098   0.034   2.804   8.394  0.0417 -0.7030 -0.9367
 9212SOL    HW239099   0.088   2.916   8.327  0.5638 -1.2106  0.0144
 9213SOL     OW39100   3.322   0.528   1.555 -0.0560  0.6668 -0.0139
 9213SOL    HW139101   3.397   0.561   1.604  2.2880 -0.2689 -2.9575
 9213SOL    HW239102   3.248   0.582   1.584  0.1761  0.3412  1.2015
 9214SOL     OW39103   0.712   3.536   2.114 -0.1498 -0.8369  0.2176
 9214SOL    HW139104   0.725   3.544   2.208  2.6542 -2.0098 -0.0706
 9214SOL    HW239105   0.617   3.538   2.101 -0.3061 -0.7449  1.4042
 9215SOL     OW39106   0.768   1.141   7.496 -0.0918  0.2666 -0.2084
 9215SOL    HW139107   0.730   1.086   7.565 -1.1354  1.7446  0.3729
 9215SOL    HW239108   0.835   1.175   7.554 -0.8963  3.4703 -1.1776
 9216SOL     OW39109   1.045   3.040   3.176  0.5417 -0.5454 -0.0898
 9216SOL    HW139110   0.951   3.056   3.182  0.9211  1.9285 -0.9126
 9216SOL    HW239111   1.054   3.056   3.082 -1.6063  0.8628 -0.0491
 9217SOL     OW39112   0.674   4.672  16.078  0.1418 -0.1836  0.6111
 9217SOL    HW139113   0.753   4.619  16.090 -0.6310 -1.4809  0.0130
 9217SOL    HW239114   0.706   0.020  16.023 -2.0257 -0.3692 -0.8614
 9218SOL     OW39115   0.036   0.599   5.317  0.1940 -0.0678 -0.0226
 9218SOL    HW139116   0.009   0.508   5.325 -1.7548  0.4433 -0.8537
 9218SOL    HW239117   0.089   0.599   5.237  1.7448 -0.5200  1.0067
 9219SOL     OW39118   1.998   0.399  17.631 -0.1145 -0.1134 -0.3047
 9219SOL    HW139119   2.062   0.372  17.565  0.2957 -2.0069  0.8719
 9219SOL    HW239120   1.950   0.319  17.649 -0.2200  0.4226  1.8025
 9220SOL     OW39121   1.009   3.421  15.352  0.1717  0.0639  0.0287
 9220SOL    HW139122   1.071   3.410  15.280 -0.6386  1.8872 -0.9609
 9220SOL    HW239123   0.935   3.451  15.298  1.6675 -0.6874 -2.4223
 9221SOL     OW39124   4.186   1.364   5.370 -0.4330  0.4759  0.0249
 9221SOL    HW139125   4.162   1.283   5.325  2.3590 -0.2191 -0.2371
 9221SOL    HW239126   4.211   1.334   5.457  1.1885  1.5275 -0.0628
 9222SOL     OW39127   4.701   2.242   8.507 -0.7421  0.2273 -0.2823
 9222SOL    HW139128   4.669   2.255   8.417  1.2483  0.7091 -0.9256
 9222SOL    HW239129   4.674   2.323   8.551 -0.7235  1.4349 -2.4841
 9223SOL     OW39130   2.856   0.283   5.843 -0.1314  0.2715 -0.4250
 9223SOL    HW139131   2.926   0.263   5.905  1.9403  3.3352 -1.7862
 9223SOL    HW239132   2.808   0.201   5.857  1.5074 -0.5191  0.5683
 9224SOL     OW39133   4.269   1.305   9.454 -0.1800  0.1983 -0.0077
 9224SOL    HW139134   4.313   1.228   9.418 -2.3915 -1.7209  1.4105
 9224SOL    HW239135   4.200   1.264   9.506 -0.0357 -0.5219 -0.3838
 9225SOL     OW39136   2.452   4.036   1.808 -0.4379 -0.2358  0.0103
 9225SOL    HW139137   2.416   4.100   1.869  2.3995  1.0423  0.3460
 9225SOL    HW239138   2.410   4.066   1.727  0.0972 -1.1653 -0.6062
 9226SOL     OW39139   1.355   1.654   5.642  0.5743  0.0198  0.9494
 9226SOL    HW139140   1.277   1.693   5.604  1.4505 -1.2137 -2.0917
 9226SOL    HW239141   1.430   1.684   5.591  1.7074 -0.9159  2.0328
 9227SOL     OW39142   3.863   4.017   9.604 -0.3099  0.1860  0.1879
 9227SOL    HW139143   3.954   4.044   9.590 -0.2667  0.2253  0.5350
 9227SOL    HW239144   3.820   4.090   9.650  0.1813 -1.0193  2.5687
 9228SOL     OW39145   2.838   0.324  11.806  0.5040 -0.6235  0.9468
 9228SOL    HW139146   2.917   0.319  11.752 -1.4326  1.6551 -2.0198
 9228SOL    HW239147   2.882   0.372  11.877 -0.0211 -1.4222  1.8143
 9229SOL     OW39148   0.910   1.526  16.611  0.5623  0.4003 -0.3912
 9229SOL    HW139149   0.847   1.458  16.637  0.7775  0.9749  1.6764
 9229SOL    HW239150   0.881   1.600  16.664 -2.0010 -0.8881  0.0313
 9230SOL     OW39151   0.702   0.522  11.830 -0.3164 -0.1149 -0.4537
 9230SOL    HW139152   0.723   0.534  11.923  1.9888  2.7798 -1.3413
 9230SOL    HW239153   0.779   0.483  11.789 -0.5069 -2.9117  1.8511
 9231SOL     OW39154   4.416   2.172   6.768 -0.3539 -0.5077  0.1331
 9231SOL    HW139155   4.510   2.169   6.750  0.3782 -0.9786  4.0196
 9231SOL    HW239156   4.379   2.145   6.684  0.4677 -0.9074 -0.1010
 9232SOL     OW39157   3.106   1.870   4.012 -0.0341 -0.7133  0.2544
 9232SOL    HW139158   3.017   1.893   4.040  0.0013  0.6082 -0.7312
 9232SOL    HW239159   3.158   1.943   4.045 -1.5412  0.2940  0.4294
 9233SOL     OW39160   4.578   3.768   2.515 -0.6639 -0.0335  0.0329
 9233SOL    HW139161   4.485   3.778   2.535 -0.9515  0.9057 -1.7673
 9233SOL    HW239162   4.586   3.735   2.425 -0.4125  0.5288 -0.1510
 9234SOL     OW39163   2.523   0.497   6.327 -0.6211 -0.1215 -0.5145
 9234SOL    HW139164   2.490   0.412   6.296 -1.0443  0.7414 -2.4170
 9234SOL    HW239165   2.617   0.482   6.333 -0.2481  1.7007 -1.9447
 9235SOL     OW39166   1.344   1.288  13.019  0.0805  0.0676 -0.7393
 9235SOL    HW139167   1.277   1.229  12.983 -0.6752  0.4972 -0.0229
 9235SOL    HW239168   1.289   1.353  13.064  0.9928  0.8808 -0.7916
 9236SOL     OW39169   1.534   2.779   3.137  0.0797 -0.2259  0.4737
 9236SOL    HW139170   1.438   2.775   3.140  0.0960 -1.5208 -0.7707
 9236SOL    HW239171   1.554   2.830   3.059  0.1913 -1.4814 -0.3126
 9237SOL     OW39172   2.568   1.355  17.400 -1.1237 -0.4580 -0.0481
 9237SOL    HW139173   2.543   1.407  17.477 -0.6605  1.2045 -1.0128
 9237SOL    HW239174   2.588   1.272  17.443 -2.4152 -0.1012  1.2566
 9238SOL     OW39175   3.685   0.990   9.061 -0.2814 -0.6677  0.0496
 9238SOL    HW139176   3.624   0.963   9.129 -0.5340 -0.0109  0.0895
 9238SOL    HW239177   3.650   0.960   8.977  1.5138  1.1441 -1.3623
 9239SOL     OW39178   4.343   3.131   5.619  0.4190  0.1254  0.7202
 9239SOL    HW139179   4.378   3.127   5.530 -0.4978  2.2718  0.2598
 9239SOL    HW239180   4.268   3.189   5.604 -1.5305 -2.7233 -0.5716
 9240SOL     OW39181   3.282   2.599  11.939 -0.3677  0.0583 -0.1875
 9240SOL    HW139182   3.288   2.551  12.021  1.5405  0.5221 -0.0726
 9240SOL    HW239183   3.243   2.679  11.975  0.8927  0.6200 -0.0764
 9241SOL     OW39184   2.729   0.314  11.563  0.8226  0.0921 -0.0295
 9241SOL    HW139185   2.755   0.405  11.544  2.2217 -0.3420 -0.2080
 9241SOL    HW239186   2.730   0.310  11.658  1.4978 -0.7403 -0.0679
 9242SOL     OW39187   3.350   2.705  17.074 -0.1141  0.2084  0.1100
 9242SOL    HW139188   3.367   2.657  16.993 -1.6931  0.4676 -0.3713
 9242SOL    HW239189   3.429   2.699  17.128 -2.2845 -1.8698  3.0930
 9243SOL     OW39190   2.837   1.295   6.367  0.2600  0.0226 -1.0183
 9243SOL    HW139191   2.929   1.308   6.392  0.0831 -1.7970  0.5363
 9243SOL    HW239192   2.842   1.303   6.271  0.0244 -2.2596 -1.2166
 9244SOL     OW39193   4.360   3.482   0.875 -0.8210  0.2808 -0.5170
 9244SOL    HW139194   4.424   3.421   0.912 -0.9333 -1.5191 -3.3280
 9244SOL    HW239195   4.310   3.421   0.821  0.3890 -1.8233  0.6952
 9245SOL     OW39196   0.647   4.269  11.071  0.1136  0.4186 -0.1208
 9245SOL    HW139197   0.702   4.202  11.112  0.5390  1.3789  0.8804
 9245SOL    HW239198   0.561   4.244  11.106  0.7364 -1.0420  0.3554
 9246SOL     OW39199   0.849   0.422   2.427  0.6848 -0.5006 -0.1131
 9246SOL    HW139200   0.928   0.385   2.466  1.0741 -0.1497 -0.5642
 9246SOL    HW239201   0.890   0.485   2.368 -1.1579  1.1785  0.3928
 9247SOL     OW39202   2.915   3.058   4.773  0.0445  0.5354 -0.4465
 9247SOL    HW139203   2.995   3.007   4.762 -1.9124 -2.2309 -1.8751
 9247SOL    HW239204   2.929   3.145   4.737 -0.4590  0.9930  0.4531
 9248SOL     OW39205   2.445   0.129   3.168  0.0443 -0.3075  0.0622
 9248SOL    HW139206   2.491   0.194   3.221  2.4387 -2.9770  1.2495
 9248SOL    HW239207   2.522   0.085   3.132  1.1400  2.6416 -1.1985
 9249SOL     OW39208   2.334   0.224   3.696 -0.4425 -0.1682 -0.2384
 9249SOL    HW139209   2.405   0.239   3.633 -1.9650 -2.3349 -2.4715
 9249SOL    HW239210   2.278   0.159   3.653  2.1604 -1.7121 -1.2846
 9250SOL     OW39211   2.638   3.193  15.868  0.2952  0.7495 -0.4237
 9250SOL    HW139212   2.702   3.260  15.844 -0.1151  0.9030 -1.0915
 9250SOL    HW239213   2.561   3.224  15.820 -1.5593  1.3265  2.8837
 9251SOL     OW39214   0.750   1.543   5.901  0.4200 -0.5701  0.0020
 9251SOL    HW139215   0.789   1.621   5.861 -2.6473 -0.0139 -1.8416
 9251SOL    HW239216   0.784   1.548   5.991 -0.4750 -1.9674  0.4160
 9252SOL     OW39217   4.239   1.818   9.466  0.5685 -0.4866  0.3198
 9252SOL    HW139218   4.304   1.888   9.471 -0.5775  0.4713  2.1680
 9252SOL    HW239219   4.275   1.750   9.410  1.2523  0.2779 -0.1532
 9253SOL     OW39220   4.034   4.629   4.603  0.5059  0.0513 -0.1173
 9253SOL    HW139221   4.044   4.568   4.676 -1.4128 -0.9622 -0.7183
 9253SOL    HW239222   3.941   4.612   4.585 -0.8669  4.5421  2.6245
 9254SOL     OW39223   0.136   0.958   7.443  0.0009  0.4480  0.0949
 9254SOL    HW139224   0.215   1.008   7.465 -1.4730  1.7254  2.5431
 9254SOL    HW239225   0.168   0.871   7.469 -1.2425 -0.5254 -1.6804
 9255SOL     OW39226   0.288   2.906   5.162  0.1492 -0.0004 -0.3390
 9255SOL    HW139227   0.285   2.957   5.081 -3.6106  0.2569 -0.0267
 9255SOL    HW239228   0.331   2.827   5.130 -1.2599 -1.2882  0.9590
 9256SOL     OW39229   0.164   1.417   9.654  0.2961 -0.3931  0.2430
 9256SOL    HW139230   0.129   1.329   9.669  0.2783 -0.4499 -0.1414
 9256SOL    HW239231   0.214   1.388   9.578  1.1891  0.8400  0.3509
 9257SOL     OW39232   4.143   2.200  12.934 -0.0650 -0.2760 -0.3692
 9257SOL    HW139233   4.233   2.224  12.954 -0.2281 -0.7192  0.8820
 9257SOL    HW239234   4.115   2.168  13.020 -1.6831  2.5594  0.1957
 9258SOL     OW39235   2.826   0.966  14.318  0.7830 -0.3652 -0.1136
 9258SOL    HW139236   2.807   0.910  14.394  0.2529 -0.3301 -0.2221
 9258SOL    HW239237   2.759   1.032  14.333 -0.1973 -1.0536 -1.4416
 9259SOL     OW39238   3.225   2.715   9.998  0.1602  0.4770 -0.1391
 9259SOL    HW139239   3.176   2.655  10.054  2.2559  1.3977  2.6806
 9259SOL    HW239240   3.300   2.656   9.998 -0.3239 -0.1455  0.4543
 9260SOL     OW39241   1.968   3.962   8.060 -0.3361  0.1631 -0.0805
 9260SOL    HW139242   1.899   4.028   8.063 -0.8952 -0.4683  0.6358
 9260SOL    HW239243   2.032   4.023   8.098  0.4086  0.1983 -1.3974
 9261SOL     OW39244   0.994   4.041   4.889  0.8248 -0.3616  0.3702
 9261SOL    HW139245   0.930   3.990   4.839  1.5980 -3.2493  2.2782
 9261SOL    HW239246   1.008   4.117   4.834 -1.5673  0.6259  1.1291
 9262SOL     OW39247   3.201   1.586   4.085  0.0198 -0.0971 -0.5921
 9262SOL    HW139248   3.133   1.652   4.070  1.3657  1.5501  0.5586
 9262SOL    HW239249   3.162   1.503   4.059  2.9111 -0.6517 -3.1903
 9263SOL     OW39250   1.505   0.269   5.308 -0.7932  0.2869  0.1065
 9263SOL    HW139251   1.429   0.219   5.338  0.5637 -1.0340  1.3074
 9263SOL    HW239252   1.528   0.225   5.226  0.1487 -0.0755  0.5652
 9264SOL     OW39253   2.583   0.791  16.948 -0.2592 -0.5055  0.3219
 9264SOL    HW139254   2.562   0.879  16.916 -2.0482 -1.3562 -0.8194
 9264SOL    HW239255   2.559   0.727  16.882 -0.5290 -0.1239  0.0517
 9265SOL     OW39256   1.947   1.155  17.278 -0.2465 -0.1565 -0.2631
 9265SOL    HW139257   2.028   1.136  17.231  0.1555 -1.3947  0.9331
 9265SOL    HW239258   1.932   1.249  17.265  0.1590 -0.2854 -1.6263
 9266SOL     OW39259   2.441   3.802  15.150 -0.1041  0.1536 -0.2151
 9266SOL    HW139260   2.526   3.770  15.120 -0.2317 -0.7908  0.4414
 9266SOL    HW239261   2.374   3.766  15.092 -0.4977  1.0820 -0.3354
 9267SOL     OW39262   4.679   1.536   4.845 -0.4383  0.4338  0.0849
 9267SOL    HW139263   4.662   1.630   4.849 -1.0059  0.3735 -0.8355
 9267SOL    HW239264   4.636   1.501   4.923  3.1881 -4.0250  0.1203
 9268SOL     OW39265   3.602   0.743  11.402  0.4506  0.7682  0.2177
 9268SOL    HW139266   3.521   0.713  11.361 -0.9544  1.1409  2.7250
 9268SOL    HW239267   3.664   0.720  11.333  1.0565 -0.9185  1.3269
 9269SOL     OW39268   2.134   2.273   5.479  0.7781 -0.3360  0.6425
 9269SOL    HW139269   2.166   2.254   5.391  1.2054 -0.4108  0.8129
 9269SOL    HW239270   2.124   2.367   5.466  2.8490 -0.3669 -1.2033
 9270SOL     OW39271   0.520   0.302  10.022 -0.1525 -0.2664  0.0371
 9270SOL    HW139272   0.543   0.255  10.102  0.7202 -0.5598 -0.3897
 9270SOL    HW239273   0.592   0.274   9.965  1.8468  0.7644  2.0526
 9271SOL     OW39274   1.861   3.136  17.576  0.3852  0.2184  0.0461
 9271SOL    HW139275   1.864   3.092  17.661  0.1763 -1.7122 -0.9726
 9271SOL    HW239276   1.799   3.208  17.593 -1.7604 -1.7965  0.7288
 9272SOL     OW39277   4.534   3.128   6.979  0.0981 -0.4052  0.1386
 9272SOL    HW139278   4.551   3.070   6.905  1.7327 -1.9266  1.7022
 9272SOL    HW239279   4.439   3.122   6.988  0.2110 -1.2906  0.7200
 9273SOL     OW39280   1.984   0.273   6.125  0.2258  0.3015  0.1117
 9273SOL    HW139281   1.964   0.343   6.186  2.3219  1.1947 -0.2267
 9273SOL    HW239282   1.961   0.193   6.172  0.0688  0.0950 -0.3114
 9274SOL     OW39283   4.266   2.514   2.044  0.4116  0.3639 -0.1584
 9274SOL    HW139284   4.240   2.474   2.127 -0.7193 -1.0826 -1.2112
 9274SOL    HW239285   4.188   2.566   2.025  1.1916  0.0588 -3.9997
 9275SOL     OW39286   0.329   3.747  11.277  0.3538 -0.3850  0.1976
 9275SOL    HW139287   0.360   3.717  11.192  1.9614  0.9738  0.3096
 9275SOL    HW239288   0.370   3.833  11.275 -0.5989  0.0892  1.5363
 9276SOL     OW39289   3.473   2.869   2.384  0.6710 -0.3135  0.2054
 9276SOL    HW139290   3.457   2.909   2.469 -0.2007 -0.4782  0.1195
 9276SOL    HW239291   3.509   2.940   2.331  1.9571 -2.6732 -2.0808
 9277SOL     OW39292   3.618   0.698   2.153  0.2368 -0.3584  0.5425
 9277SOL    HW139293   3.659   0.630   2.099  0.9931  1.8233 -1.6385
 9277SOL    HW239294   3.630   0.651   2.236  0.7715 -1.6832 -0.2852
 9278SOL     OW39295   1.624   4.181  13.657  0.6445 -0.1793 -0.4249
 9278SOL    HW139296   1.633   4.122  13.582  0.8512 -1.2273  0.4236
 9278SOL    HW239297   1.669   4.134  13.727  1.7782  0.6497 -0.5909
 9279SOL     OW39298   0.107   0.679   7.120 -0.1087 -0.1926  0.6012
 9279SOL    HW139299   0.050   0.615   7.162 -0.5011 -0.0633  0.2670
 9279SOL    HW239300   0.184   0.668   7.175  1.0352  1.5049 -0.6906
 9280SOL     OW39301   1.586   2.446   6.597 -0.2584  1.2877 -0.3551
 9280SOL    HW139302   1.592   2.366   6.545  0.0185 -0.2559  2.0205
 9280SOL    HW239303   1.526   2.416   6.665  0.4591  0.8421  0.0930
 9281SOL     OW39304   2.469   3.724   0.852 -0.1382  0.1464 -0.7441
 9281SOL    HW139305   2.470   3.757   0.762 -0.4933  0.9599 -0.4449
 9281SOL    HW239306   2.529   3.650   0.842 -0.2447  0.2989 -2.5401
 9282SOL     OW39307   1.083   2.559   4.699  0.0616  0.3945 -0.3501
 9282SOL    HW139308   1.126   2.529   4.779  1.4181  1.4952 -0.6651
 9282SOL    HW239309   0.996   2.588   4.727  0.7968  2.3625 -0.0660
 9283SOL     OW39310   1.241   0.231  11.256  0.6771 -0.2050 -0.0175
 9283SOL    HW139311   1.151   0.263  11.247  0.5538 -0.8461 -1.0768
 9283SOL    HW239312   1.281   0.238  11.170  1.6823  0.6255  0.5138
 9284SOL     OW39313   3.327   2.402   7.179 -0.3973 -0.0700  0.1887
 9284SOL    HW139314   3.237   2.409   7.213  0.1992  0.6424  1.5993
 9284SOL    HW239315   3.329   2.314   7.140 -0.2840  0.7317 -1.5995
 9285SOL     OW39316   3.686   4.654   7.182 -0.2274  0.2489 -0.0190
 9285SOL    HW139317   3.680   4.695   7.268 -0.4461  1.0788 -0.4352
 9285SOL    HW239318   3.740   4.577   7.202 -0.9029 -0.5741 -1.3447
 9286SOL     OW39319   4.091   3.696  10.550 -0.1771 -0.1567 -0.5357
 9286SOL    HW139320   4.087   3.618  10.495 -1.6709  1.8402 -3.2473
 9286SOL    HW239321   4.010   3.738  10.522 -0.4443 -0.1322  0.2728
 9287SOL     OW39322   4.276   3.183   3.276 -0.2676  0.0094 -0.6174
 9287SOL    HW139323   4.306   3.264   3.235 -1.3127  0.8094  0.1945
 9287SOL    HW239324   4.184   3.198   3.257 -1.3022 -1.7960  2.9801
 9288SOL     OW39325   0.567   3.609  12.741 -0.5218  0.2664  0.3555
 9288SOL    HW139326   0.543   3.525  12.781  0.4917  0.2979  1.0343
 9288SOL    HW239327   0.573   3.661  12.821  0.2357 -0.3231  0.6780
 9289SOL     OW39328   0.508   3.893   2.771 -0.1977 -0.0277 -0.0630
 9289SOL    HW139329   0.597   3.887   2.737 -1.2161  0.8995 -2.9201
 9289SOL    HW239330   0.451   3.846   2.710  0.7220  0.3005 -1.1712
 9290SOL     OW39331   1.839   1.881   8.750 -0.3142 -0.1669  0.7186
 9290SOL    HW139332   1.761   1.923   8.785 -0.4824  0.2285 -0.1221
 9290SOL    HW239333   1.860   1.943   8.680 -0.2342 -1.4120 -0.3808
 9291SOL     OW39334   0.629   4.279  14.297 -0.0841  0.0358  0.0405
 9291SOL    HW139335   0.633   4.364  14.253 -0.4957  0.2481  0.4184
 9291SOL    HW239336   0.664   4.210  14.240 -1.7131  1.5429 -2.7763
 9292SOL     OW39337   2.334   0.622   2.530  1.1453 -0.6585 -0.0260
 9292SOL    HW139338   2.310   0.675   2.454  5.3708 -0.9313 -1.5601
 9292SOL    HW239339   2.259   0.638   2.587 -0.3404 -0.6237 -2.0035
 9293SOL     OW39340   1.810   4.046   9.591 -0.6817 -0.6806 -0.3586
 9293SOL    HW139341   1.809   4.087   9.504  1.0971 -0.0037 -0.0609
 9293SOL    HW239342   1.849   4.119   9.638 -0.1692 -0.4507 -1.1488
 9294SOL     OW39343   2.054   4.657   0.546 -0.1164  0.0143  0.3646
 9294SOL    HW139344   2.124   4.600   0.576 -0.1630  0.1952  0.8146
 9294SOL    HW239345   2.017   4.605   0.475  0.7704 -0.5152  0.2996
 9295SOL     OW39346   3.151   2.027   8.103 -0.1635  0.6265  0.2899
 9295SOL    HW139347   3.099   1.997   8.029 -0.5108  2.6037 -0.2643
 9295SOL    HW239348   3.111   2.106   8.141 -1.1063  0.5593 -0.5759
 9296SOL     OW39349   1.541   1.226   4.857  0.1299  0.0524 -0.2646
 9296SOL    HW139350   1.581   1.139   4.866  1.5243  0.4822 -2.1211
 9296SOL    HW239351   1.485   1.235   4.933 -0.9840 -1.6583 -0.8940
 9297SOL     OW39352   4.437   2.247   3.931  0.3996  0.4113 -0.3732
 9297SOL    HW139353   4.521   2.293   3.941  0.5696 -0.4084  1.8997
 9297SOL    HW239354   4.476   2.164   3.904 -1.9589 -1.3407  1.6620
 9298SOL     OW39355   0.152   1.521   4.316  0.0041 -0.0094  0.3514
 9298SOL    HW139356   0.130   1.534   4.408 -0.1513  2.4303 -0.0063
 9298SOL    HW239357   0.131   1.428   4.311  0.6161 -0.2421  2.0986
 9299SOL     OW39358   3.778   2.350  12.319 -0.5623  0.1812  0.0804
 9299SOL    HW139359   3.796   2.424  12.378 -1.7835 -1.6883  2.7878
 9299SOL    HW239360   3.811   2.388  12.238  1.9450 -2.1297  0.0304
 9300SOL     OW39361   3.493   4.418   7.727 -0.5070 -0.4237 -0.4985
 9300SOL    HW139362   3.529   4.333   7.753  1.0610  0.0493 -1.0740
 9300SOL    HW239363   3.567   4.466   7.690 -1.9099  0.6861 -1.8391
 9301SOL     OW39364   0.463   2.334   0.208 -0.5674 -0.0940  0.2366
 9301SOL    HW139365   0.509   2.271   0.264  2.0052 -0.6857 -2.5635
 9301SOL    HW239366   0.374   2.303   0.223 -0.4357 -0.1492  0.9134
 9302SOL     OW39367   0.307   0.022   5.948  0.5205  0.0224 -0.4941
 9302SOL    HW139368   0.246   0.036   5.876  1.2694  0.9094 -0.9486
 9302SOL    HW239369   0.316   4.651   5.954 -0.8390 -0.2033 -2.0977
 9303SOL     OW39370   0.017   2.021  16.728  0.1401  0.3758 -0.4223
 9303SOL    HW139371   0.067   2.102  16.735 -1.3024  1.0731  2.0288
 9303SOL    HW239372   4.711   2.016  16.819  3.0497 -1.1838  0.4455
 9304SOL     OW39373   4.246   2.756   4.495 -0.2202  0.4591  0.0303
 9304SOL    HW139374   4.195   2.686   4.453 -0.4912 -0.9796  2.7875
 9304SOL    HW239375   4.313   2.711   4.546  1.0316 -0.3818 -2.3704
 9305SOL     OW39376   2.274   4.030   3.783  0.1158  0.9620  0.0741
 9305SOL    HW139377   2.262   3.961   3.719  1.8534  0.3881  0.3851
 9305SOL    HW239378   2.366   4.012   3.801 -0.1475 -1.2261 -0.8604
 9306SOL     OW39379   2.226   0.918   3.942 -0.3106 -0.2973 -0.2625
 9306SOL    HW139380   2.162   0.888   3.878  0.6734 -1.9967 -0.4713
 9306SOL    HW239381   2.223   0.845   4.004  0.8689  0.1388  0.3104
 9307SOL     OW39382   0.959   3.228   1.723 -0.1963  0.0713 -0.0867
 9307SOL    HW139383   0.955   3.308   1.670 -1.3241 -0.4603 -0.7963
 9307SOL    HW239384   0.929   3.273   1.802  0.3145  2.5566 -1.3202
 9308SOL     OW39385   1.821   0.178   3.127  0.1554 -0.3020 -0.2907
 9308SOL    HW139386   1.739   0.134   3.151  0.2426 -0.3388 -0.0664
 9308SOL    HW239387   1.791   0.260   3.089 -0.9861 -1.8074 -2.6628
 9309SOL     OW39388   3.234   2.852   7.002  0.6460  0.6497  0.1205
 9309SOL    HW139389   3.206   2.914   6.935 -0.6457  1.3766  1.3473
 9309SOL    HW239390   3.257   2.913   7.071 -1.4882 -0.6320  1.9828
 9310SOL     OW39391   1.865   2.051   3.976 -0.4954 -0.3003  0.3012
 9310SOL    HW139392   1.776   2.015   3.979 -0.0832 -1.2296  1.5512
 9310SOL    HW239393   1.869   2.088   3.888 -2.4276  2.2955  1.3040
 9311SOL     OW39394   3.456   2.166   8.068 -0.0148  0.6433 -0.5278
 9311SOL    HW139395   3.413   2.089   8.104 -0.7251  0.9015 -0.8259
 9311SOL    HW239396   3.538   2.126   8.041 -1.0339 -2.7980  1.5386
 9312SOL     OW39397   1.840   3.712   2.325  0.2873  0.3937  0.1858
 9312SOL    HW139398   1.797   3.671   2.400  1.3865 -0.4270  0.3651
 9312SOL    HW239399   1.861   3.635   2.272 -0.7104 -0.0066  0.3864
 9313SOL     OW39400   3.498   1.771  15.834 -0.3547  0.6459  0.3773
 9313SOL    HW139401   3.586   1.779  15.796  0.1817 -0.1597  1.4676
 9313SOL    HW239402   3.459   1.740  15.752  1.3288  0.4332 -0.3574
 9314SOL     OW39403   3.882   4.049   2.005 -0.0863 -0.1256 -0.0911
 9314SOL    HW139404   3.927   4.040   2.089 -0.6281 -1.6675  0.0391
 9314SOL    HW239405   3.818   4.116   2.028 -0.8425 -1.0477  0.4895
 9315SOL     OW39406   3.632   3.023  11.441  0.1019 -0.1396 -0.8002
 9315SOL    HW139407   3.631   2.938  11.397 -0.9471  0.0197 -1.0972
 9315SOL    HW239408   3.725   3.041  11.455 -0.3085 -0.2188  2.0172
 9316SOL     OW39409   4.516   2.896   3.338 -0.2347 -0.0574  0.0419
 9316SOL    HW139410   4.580   2.951   3.292  1.2542 -0.7883  1.2388
 9316SOL    HW239411   4.439   2.953   3.341 -2.0456 -2.5682  0.5760
 9317SOL     OW39412   0.745   0.401   8.234  0.4590  0.5309  0.2024
 9317SOL    HW139413   0.826   0.450   8.226  0.5012  0.8711  2.8519
 9317SOL    HW239414   0.695   0.468   8.280  1.3448 -0.6850  2.9011
 9318SOL     OW39415   3.081   0.711   4.335  0.3560 -0.3203  0.5818
 9318SOL    HW139416   3.020   0.782   4.352 -0.3463 -0.6457 -0.5763
 9318SOL    HW239417   3.164   0.739   4.374 -0.9948  2.5100  1.4176
 9319SOL     OW39418   0.090   1.183  13.899 -0.1568 -0.1550 -0.8012
 9319SOL    HW139419   0.003   1.146  13.908  0.4773 -1.0829  1.5432
 9319SOL    HW239420   0.068   1.256  13.841  3.1502  2.0715  0.7378
 9320SOL     OW39421   3.679   0.869  10.831 -0.1366 -0.6263 -0.0246
 9320SOL    HW139422   3.635   0.850  10.748  0.2173 -3.5104  0.4632
 9320SOL    HW239423   3.744   0.800  10.843  1.1792  0.0081 -3.4126
 9321SOL     OW39424   0.687   3.503   3.701 -0.0826  0.1741 -0.3021
 9321SOL    HW139425   0.678   3.433   3.766 -0.3001  1.5208  1.1171
 9321SOL    HW239426   0.707   3.577   3.758  0.4583 -2.1703  2.5424
 9322SOL     OW39427   4.661   3.659  10.086  0.1955 -0.0113 -0.0079
 9322SOL    HW139428   4.630   3.747  10.107 -0.2937 -0.5171  1.3464
 9322SOL    HW239429   0.019   3.672  10.038  0.7267  1.7171  1.3906
 9323SOL     OW39430   3.083   3.864  13.642 -0.5194  0.2818  0.3822
 9323SOL    HW139431   3.029   3.937  13.613 -1.4354 -0.4891  0.1238
 9323SOL    HW239432   3.047   3.843  13.728 -1.6425  1.7781  0.2722
 9324SOL     OW39433   1.580   2.809   8.114 -0.4518 -0.0864 -0.1464
 9324SOL    HW139434   1.590   2.715   8.126 -2.7224 -0.4008 -0.7969
 9324SOL    HW239435   1.651   2.841   8.170 -1.8120  1.2391  0.8192
 9325SOL     OW39436   1.620   2.134   4.230 -1.0227  0.0115 -1.1106
 9325SOL    HW139437   1.615   2.135   4.134  2.7963  0.8168 -1.2857
 9325SOL    HW239438   1.537   2.177   4.250 -1.1963 -0.6032 -0.5277
 9326SOL     OW39439   0.075   3.570  12.058  0.1559  0.3850 -0.2456
 9326SOL    HW139440   0.157   3.572  12.008 -0.6205 -1.7868 -1.5649
 9326SOL    HW239441   0.088   3.497  12.118  0.0344  0.5211 -0.0512
 9327SOL     OW39442   0.808   3.188  13.885  0.0839 -0.1948  0.1994
 9327SOL    HW139443   0.884   3.247  13.882  0.9114 -1.2781 -0.0160
 9327SOL    HW239444   0.753   3.231  13.951 -0.0603  1.1635 -0.8048
 9328SOL     OW39445   4.683   1.382  13.755 -0.0926  0.3993  0.6336
 9328SOL    HW139446   4.603   1.431  13.740  0.6010  0.8718 -1.4603
 9328SOL    HW239447   4.646   1.299  13.726  1.0664 -0.5298  1.8125
 9329SOL     OW39448   1.909   0.133   0.030 -0.7794  0.3155  0.1550
 9329SOL    HW139449   1.943   0.044   0.037  1.4550  1.1665 -0.0786
 9329SOL    HW239450   1.892   0.165   0.119 -0.3198  0.9104  0.0237
 9330SOL     OW39451   2.844   1.987   2.943  0.3255 -0.6627  0.0581
 9330SOL    HW139452   2.880   2.063   2.899 -0.2149  1.0135  2.5306
 9330SOL    HW239453   2.756   1.975   2.907  0.7866  0.1248 -1.3007
 9331SOL     OW39454   4.652   3.355   7.087 -0.8450  0.4318  0.0239
 9331SOL    HW139455   4.626   3.280   7.033  0.6062  0.7895 -1.1648
 9331SOL    HW239456   4.656   3.425   7.023  2.3787  0.0283 -0.1931
 9332SOL     OW39457   3.989   0.389   4.117 -0.0351  0.2269  0.2400
 9332SOL    HW139458   4.030   0.467   4.080  0.9464 -0.1416  0.5254
 9332SOL    HW239459   3.905   0.384   4.072  0.2001  2.0798 -0.4037
 9333SOL     OW39460   2.004   0.918  15.304 -0.3540 -0.0684  0.3425
 9333SOL    HW139461   1.933   0.978  15.279  0.4887  1.0666  0.6591
 9333SOL    HW239462   2.022   0.884  15.217  0.3812 -2.3703  1.3986
 9334SOL     OW39463   1.903   1.869   6.906 -0.3926 -0.3154 -0.3027
 9334SOL    HW139464   1.917   1.778   6.931  2.0285  0.5490  1.5669
 9334SOL    HW239465   1.979   1.911   6.947  0.3996 -0.8825 -1.1887
 9335SOL     OW39466   2.209   4.087   3.057 -0.0320 -0.5466 -0.6108
 9335SOL    HW139467   2.273   4.078   3.127 -0.2665  0.9244 -0.2262
 9335SOL    HW239468   2.127   4.107   3.101  0.0967 -1.6302  0.1259
 9336SOL     OW39469   4.346   1.934  10.148  0.3623 -0.2088 -0.0121
 9336SOL    HW139470   4.403   1.857  10.157  0.8478  0.2529  0.8404
 9336SOL    HW239471   4.389   2.004  10.197  1.3994  0.2072 -1.5199
 9337SOL     OW39472   1.147   3.704   1.702  0.2582 -0.0994 -0.3839
 9337SOL    HW139473   1.131   3.710   1.608  0.6576 -0.5035 -0.4785
 9337SOL    HW239474   1.065   3.665   1.731 -0.1773  2.1815  1.5119
 9338SOL     OW39475   0.524   2.989   4.468  0.3207  0.1844 -0.0115
 9338SOL    HW139476   0.602   3.039   4.490 -0.1583  0.7485  0.4284
 9338SOL    HW239477   0.532   2.963   4.376  1.7663 -0.8013  0.3969
 9339SOL     OW39478   4.555   1.516   5.693 -0.1430  0.4320  0.0571
 9339SOL    HW139479   4.552   1.585   5.760 -0.3494  0.2228  0.2629
 9339SOL    HW239480   4.647   1.492   5.701 -0.6467 -1.7865 -0.8563
 9340SOL     OW39481   3.389   4.676   3.905  0.5835 -0.5248 -0.6125
 9340SOL    HW139482   3.405   4.677   3.999 -3.1739 -1.2298  0.0099
 9340SOL    HW239483   3.426   4.590   3.884 -0.7728 -1.1729 -0.3695
 9341SOL     OW39484   2.126   2.593   2.135  0.1575 -0.0733  0.4282
 9341SOL    HW139485   2.056   2.644   2.095  0.9787  0.9653  0.3147
 9341SOL    HW239486   2.076   2.543   2.200 -2.1174 -2.2778 -3.0759
 9342SOL     OW39487   2.683   2.141  10.948  0.1847  0.2504  0.3480
 9342SOL    HW139488   2.730   2.058  10.942  0.5555  0.5578 -0.8219
 9342SOL    HW239489   2.594   2.109  10.963  1.5340 -2.6911  2.1715
 9343SOL     OW39490   1.577   3.974  17.669  0.2615  0.4037  0.5137
 9343SOL    HW139491   1.648   3.924   0.013  0.9875 -0.2620 -1.5455
 9343SOL    HW239492   1.508   3.950   0.034  0.4893 -1.0146  0.2299
 9344SOL     OW39493   0.810   3.281   7.264 -0.6576  0.0665  0.5797
 9344SOL    HW139494   0.895   3.286   7.307 -0.6146 -2.2955  0.7523
 9344SOL    HW239495   0.831   3.299   7.173 -0.6226 -0.4214  0.4908
 9345SOL     OW39496   3.505   4.459   9.577 -0.1553  0.4138 -0.2501
 9345SOL    HW139497   3.511   4.550   9.547 -1.8880  0.4618 -0.4257
 9345SOL    HW239498   3.450   4.426   9.506 -1.3767  3.0997 -0.5655
 9346SOL     OW39499   2.294   4.354   8.596  0.2833  0.0227 -0.0089
 9346SOL    HW139500   2.258   4.377   8.511  0.8019  0.7854 -0.0218
 9346SOL    HW239501   2.262   4.264   8.606  1.5860 -0.3103  1.3566
 9347SOL     OW39502   3.401   1.851   9.371 -0.7008  0.2411 -0.2158
 9347SOL    HW139503   3.422   1.785   9.438  1.4910 -1.4855 -2.5930
 9347SOL    HW239504   3.404   1.930   9.424  0.5059  0.7334 -1.0359
 9348SOL     OW39505   0.245   0.341   8.700 -0.4341 -0.2795  0.1383
 9348SOL    HW139506   0.316   0.403   8.716  0.9593 -1.7376 -0.5056
 9348SOL    HW239507   0.292   0.264   8.729  0.8989  1.0176  1.4258
 9349SOL     OW39508   0.782   0.410   0.074 -0.0399 -0.1209  0.2830
 9349SOL    HW139509   0.692   0.383   0.092  0.0487 -0.3016  0.4538
 9349SOL    HW239510   0.783   0.503   0.095 -0.5986 -0.5385  2.1671
 9350SOL     OW39511   2.103   1.547   2.383  0.1279  0.0494 -0.0483
 9350SOL    HW139512   2.181   1.539   2.327 -0.4909 -0.3683 -0.8427
 9350SOL    HW239513   2.075   1.456   2.385 -2.0305  0.7512  1.3855
 9351SOL     OW39514   3.355   1.726   7.775 -0.2541 -0.2731 -0.0128
 9351SOL    HW139515   3.320   1.768   7.696  2.7945 -1.6385 -2.0871
 9351SOL    HW239516   3.269   1.721   7.816 -1.0240  2.5221 -1.2998
 9352SOL     OW39517   2.999   0.544   8.220 -0.7845  0.0588 -0.1490
 9352SOL    HW139518   2.983   0.618   8.161 -2.1532  1.2487  1.6991
 9352SOL    HW239519   3.091   0.522   8.209 -0.3597  1.3568  0.7775
 9353SOL     OW39520   2.682   1.825  17.474  0.5838  0.3892  0.4634
 9353SOL    HW139521   2.625   1.893  17.510  1.6350  3.0507 -2.9723
 9353SOL    HW239522   2.622   1.771  17.422  0.5701 -0.2011  1.0893
 9354SOL     OW39523   3.436   3.126  14.986 -0.1940  0.1003  0.6191
 9354SOL    HW139524   3.501   3.190  14.957  0.6117 -1.5121 -1.1274
 9354SOL    HW239525   3.448   3.067  14.912 -1.9286 -0.5331  0.8428
 9355SOL     OW39526   3.962   1.399  12.403  0.2746  0.2241  0.5168
 9355SOL    HW139527   4.044   1.388  12.450  1.9696  1.2249 -2.1840
 9355SOL    HW239528   3.945   1.307  12.381  0.9105  0.4015 -0.7374
 9356SOL     OW39529   0.091   4.594   3.925  0.1811  0.0123  0.0031
 9356SOL    HW139530   0.020   4.651   3.954  0.2290 -0.4395  0.9976
 9356SOL    HW239531   0.054   4.509   3.903  0.0247  0.6496 -2.2042
 9357SOL     OW39532   3.692   0.298   3.539 -0.3789  0.1893  0.2313
 9357SOL    HW139533   3.720   0.378   3.493 -1.2959 -0.1331 -0.8846
 9357SOL    HW239534   3.630   0.253   3.482 -0.8640  0.4715  0.5340
 9358SOL     OW39535   4.167   4.147   2.818 -0.2471 -0.2253 -0.0516
 9358SOL    HW139536   4.106   4.212   2.853 -0.7481 -0.3065 -0.7648
 9358SOL    HW239537   4.113   4.068   2.819 -0.7047  0.0682 -0.7015
 9359SOL     OW39538   3.992   3.772  14.341  0.1993  0.1124  0.1753
 9359SOL    HW139539   3.993   3.735  14.430  0.3276  0.9751  0.5286
 9359SOL    HW239540   3.927   3.713  14.303  0.3719 -0.8910  1.4433
 9360SOL     OW39541   0.348   4.282   5.547  0.3167  0.0341  0.4745
 9360SOL    HW139542   0.314   4.370   5.561  0.0921  0.1866 -0.9829
 9360SOL    HW239543   0.302   4.229   5.612 -0.2503 -2.2094 -1.7273
 9361SOL     OW39544   4.003   3.111  15.797  0.3791  0.1210 -0.0756
 9361SOL    HW139545   4.091   3.126  15.762  0.7418  1.3985  1.4174
 9361SOL    HW239546   4.024   3.079  15.885 -2.2695 -1.5935 -0.0864
 9362SOL     OW39547   2.989   2.862  14.580 -0.4626 -0.0404 -0.5594
 9362SOL    HW139548   2.915   2.920  14.597 -0.2816  0.6706 -2.1628
 9362SOL    HW239549   3.041   2.927  14.628 -3.4063 -0.1715  2.8099
 9363SOL     OW39550   4.369   4.630   7.333 -0.0476  0.3055 -0.1290
 9363SOL    HW139551   4.415   4.564   7.281  1.5414  0.6892  0.8063
 9363SOL    HW239552   4.405   4.711   7.296  2.5212 -0.7907 -0.0244
 9364SOL     OW39553   2.893   3.916   6.037 -0.0387  0.3212  0.2244
 9364SOL    HW139554   2.915   3.970   6.113 -0.7647 -1.4977  1.7240
 9364SOL    HW239555   2.978   3.906   5.995 -0.7558 -1.3361 -0.8356
 9365SOL     OW39556   0.262   2.222   6.714 -0.4296 -0.3545 -0.1342
 9365SOL    HW139557   0.204   2.273   6.771  1.7077  2.1293 -0.1689
 9365SOL    HW239558   0.319   2.299   6.709 -1.5833  0.5077 -0.1491
 9366SOL     OW39559   4.513   2.556   8.075  0.2182 -0.0439  0.5090
 9366SOL    HW139560   4.438   2.505   8.107  1.9959 -1.1316  2.9988
 9366SOL    HW239561   4.520   2.511   7.991  1.4954 -1.8467  1.5768
 9367SOL     OW39562   3.894   3.607   1.719  0.5084 -0.3058 -0.7367
 9367SOL    HW139563   3.983   3.572   1.712  0.5810 -0.4913  1.1789
 9367SOL    HW239564   3.910   3.701   1.719  0.4297 -0.2970 -1.4341
 9368SOL     OW39565   3.667   0.021   4.333 -0.3085 -0.3178 -1.0226
 9368SOL    HW139566   3.652   0.075   4.255 -0.4896  0.0026 -0.7673
 9368SOL    HW239567   3.694   0.094   4.389 -0.7301  0.9834 -2.5111
 9369SOL     OW39568   1.039   2.531   8.463 -0.4233 -0.5093 -0.1578
 9369SOL    HW139569   0.987   2.466   8.415 -0.9794 -0.4808  0.4037
 9369SOL    HW239570   1.122   2.484   8.463  0.6204  1.3794  0.2261
 9370SOL     OW39571   2.693   3.001   0.866  0.0888  0.0107  0.5892
 9370SOL    HW139572   2.770   2.957   0.831  0.2004  1.6540 -1.2247
 9370SOL    HW239573   2.656   2.934   0.924  0.5522  0.0964  0.9844
 9371SOL     OW39574   2.185   1.177  17.149  0.0321 -0.0279  0.0026
 9371SOL    HW139575   2.265   1.132  17.174 -0.8302 -1.9757 -0.7818
 9371SOL    HW239576   2.211   1.199  17.060  0.3051 -2.0638 -0.4003
 9372SOL     OW39577   0.092   2.161  16.979  0.6037  0.0234  0.5045
 9372SOL    HW139578   0.071   2.246  16.940 -2.4343 -0.5478  0.9425
 9372SOL    HW239579   0.097   2.200  17.066  0.4730  1.1442  0.0247
 9373SOL     OW39580   1.044   1.569   4.295  0.1967 -0.2573  0.0134
 9373SOL    HW139581   1.054   1.497   4.232 -0.8781  0.4737 -1.0118
 9373SOL    HW239582   1.068   1.635   4.230 -0.3683 -0.4287 -0.3746
 9374SOL     OW39583   1.430   2.516   4.414  0.2530 -0.4074  0.2853
 9374SOL    HW139584   1.369   2.586   4.437  3.7206  2.5440  0.4600
 9374SOL    HW239585   1.494   2.515   4.486  0.2168  1.8777  0.3580
 9375SOL     OW39586   2.308   2.274   8.816  0.5533 -0.3192 -0.1437
 9375SOL    HW139587   2.236   2.324   8.854 -1.8401 -4.0478  0.1455
 9375SOL    HW239588   2.310   2.198   8.875  0.4082  0.1551  0.4661
 9376SOL     OW39589   1.337   3.106   5.471 -0.2625 -0.5165 -0.1141
 9376SOL    HW139590   1.266   3.151   5.516  0.9193 -0.4883  1.7289
 9376SOL    HW239591   1.413   3.154   5.503 -0.2754  0.6651 -1.8536
 9377SOL     OW39592   1.528   0.828   2.717 -0.0028  0.1067 -0.5084
 9377SOL    HW139593   1.580   0.754   2.747  0.2903  1.6959  2.9180
 9377SOL    HW239594   1.586   0.854   2.646  0.2982  0.6775 -0.0589
 9378SOL     OW39595   1.288   2.872   4.856  0.9783 -0.2406  0.5155
 9378SOL    HW139596   1.377   2.895   4.882  1.1222  1.1797 -1.2417
 9378SOL    HW239597   1.312   2.780   4.845 -1.5082 -0.9132  0.7473
 9379SOL     OW39598   2.059   1.097  13.275 -0.3453  0.1321 -0.2167
 9379SOL    HW139599   2.023   1.011  13.251  1.7228 -0.9272  0.5118
 9379SOL    HW239600   2.097   1.127  13.193  0.2403  0.2278  0.0901
 9380SOL     OW39601   3.761   0.792   8.818  0.1502  0.0572  0.6812
 9380SOL    HW139602   3.751   0.758   8.730  0.0202 -1.3744  1.2567
 9380SOL    HW239603   3.853   0.819   8.826  0.5909 -1.6100  1.1337
 9381SOL     OW39604   0.911   0.680  15.234  0.3733  0.5857 -0.3221
 9381SOL    HW139605   0.887   0.735  15.159 -0.9188  1.9222  1.0800
 9381SOL    HW239606   0.928   0.751  15.296  2.3549  0.7078 -0.9915
 9382SOL     OW39607   2.304   1.010   3.401 -0.0126 -0.1985  0.2112
 9382SOL    HW139608   2.262   1.079   3.453  0.4384  0.6357 -0.5392
 9382SOL    HW239609   2.295   1.039   3.310  1.4548  1.4154  0.5782
 9383SOL     OW39610   0.665   3.996   7.027 -0.3886 -0.0435  0.0725
 9383SOL    HW139611   0.673   4.074   7.083 -2.0246  1.5048 -1.8494
 9383SOL    HW239612   0.582   3.960   7.059 -1.5880  0.1410 -2.8564
 9384SOL     OW39613   1.770   1.518   5.894 -0.1287  0.2062  0.1042
 9384SOL    HW139614   1.676   1.502   5.898 -0.4997  1.6201 -2.9922
 9384SOL    HW239615   1.783   1.528   5.800 -1.8886  0.6641 -0.0959
 9385SOL     OW39616   1.729   4.393   2.662 -0.5495 -0.5147  0.0667
 9385SOL    HW139617   1.754   4.349   2.743 -0.0801 -1.0193 -0.3550
 9385SOL    HW239618   1.634   4.383   2.650 -0.5864  0.4892 -0.5520
 9386SOL     OW39619   3.017   3.566   6.418  0.2204  0.3497 -0.0636
 9386SOL    HW139620   3.109   3.569   6.445  0.4062 -1.9592 -0.4730
 9386SOL    HW239621   3.025   3.616   6.337 -2.1869 -2.2200 -1.8710
 9387SOL     OW39622   2.670   1.430   7.684 -0.1553 -0.0867 -0.3535
 9387SOL    HW139623   2.757   1.410   7.650 -0.0534  0.7308 -0.5540
 9387SOL    HW239624   2.631   1.489   7.620 -1.5605  0.3133  0.8579
 9388SOL     OW39625   1.188   4.180   4.447  0.5066  0.2870  0.6030
 9388SOL    HW139626   1.225   4.103   4.404 -1.0518 -0.3658  0.4327
 9388SOL    HW239627   1.174   4.224   4.363 -1.8856 -1.0176  0.3093
 9389SOL     OW39628   0.086   2.058   8.096  0.0243  0.0875  0.1409
 9389SOL    HW139629   0.139   2.134   8.072 -0.8298  0.7026  0.2171
 9389SOL    HW239630   0.145   1.998   8.142 -3.5572 -2.6104  1.2734
 9390SOL     OW39631   0.344   1.968   8.876  0.4884  0.1500 -0.3232
 9390SOL    HW139632   0.424   1.919   8.897  1.2743  0.0428 -3.5692
 9390SOL    HW239633   0.376   2.049   8.837  0.6983  0.8219  1.2513
 9391SOL     OW39634   0.164   1.882   5.863  0.5926  0.2611  0.2289
 9391SOL    HW139635   0.157   1.875   5.958 -2.6344 -3.2318 -0.2391
 9391SOL    HW239636   0.217   1.961   5.862 -0.1574  0.7819  2.0045
 9392SOL     OW39637   1.640   0.571  14.377 -0.5468  0.7210  0.2863
 9392SOL    HW139638   1.730   0.597  14.361 -0.9224 -0.3611 -3.5205
 9392SOL    HW239639   1.643   0.594  14.470 -0.9738 -0.3363  0.5579
 9393SOL     OW39640   2.969   4.215   8.960 -0.0536  0.3635 -0.3077
 9393SOL    HW139641   2.990   4.173   8.876 -1.3165 -0.1185 -0.3796
 9393SOL    HW239642   2.899   4.270   8.925  0.9735  2.1841  0.4800
 9394SOL     OW39643   3.150   0.504  10.886  0.1087  0.1478  0.4806
 9394SOL    HW139644   3.245   0.503  10.873  0.0035 -0.8514 -0.1874
 9394SOL    HW239645   3.118   0.436  10.826  0.4980 -1.2007  1.7917
 9395SOL     OW39646   0.535   4.143   4.598  0.3172 -0.0141 -0.0752
 9395SOL    HW139647   0.521   4.132   4.692 -0.4565  0.6326 -0.1089
 9395SOL    HW239648   0.558   4.055   4.570 -0.4828 -0.7373  1.5453
 9396SOL     OW39649   0.577   0.344  17.009 -0.1731 -0.4341 -0.2847
 9396SOL    HW139650   0.546   0.414  17.066  0.4629 -2.9729  3.2248
 9396SOL    HW239651   0.558   0.264  17.058 -1.9834 -1.4287 -2.6233
 9397SOL     OW39652   4.172   0.377  15.936  0.0176  0.1428  0.0048
 9397SOL    HW139653   4.162   0.401  16.028  1.7537 -2.2923  0.8309
 9397SOL    HW239654   4.224   0.297  15.941  0.3036  0.3847  0.7409
 9398SOL     OW39655   3.913   3.935  13.112  0.3477 -0.2181  0.2029
 9398SOL    HW139656   3.945   3.934  13.022 -0.9683 -1.9162 -0.2499
 9398SOL    HW239657   3.984   3.984  13.153  1.2107 -1.2475 -0.0545
 9399SOL     OW39658   0.698   1.395   4.373 -0.3851  0.5875 -0.2577
 9399SOL    HW139659   0.632   1.463   4.360 -0.6437  0.3020 -0.4389
 9399SOL    HW239660   0.690   1.356   4.286 -1.3766  1.5487 -0.6053
 9400SOL     OW39661   2.641   0.794   1.602  0.6896  0.7850 -0.3593
 9400SOL    HW139662   2.570   0.807   1.539 -1.0928 -1.0610  1.2944
 9400SOL    HW239663   2.700   0.732   1.559 -1.4870 -1.9233  0.5753
 9401SOL     OW39664   3.098   0.299  11.984 -0.2839  0.9040  0.0544
 9401SOL    HW139665   3.106   0.382  11.937  0.3854  1.9359  1.9930
 9401SOL    HW239666   3.151   0.238  11.932 -1.5207  0.6243 -0.8896
 9402SOL     OW39667   0.926   4.523   4.670  0.6259  0.1293 -0.0946
 9402SOL    HW139668   0.881   4.443   4.645 -0.9726  0.3980  1.9919
 9402SOL    HW239669   0.901   4.533   4.762  1.6553 -2.6467  0.4838
 9403SOL     OW39670   2.204   3.826  15.840  0.1702 -0.0322  0.1441
 9403SOL    HW139671   2.258   3.892  15.884  0.6868  0.5385 -1.3506
 9403SOL    HW239672   2.144   3.803  15.910  0.3117  1.0388  0.6219
 9404SOL     OW39673   2.899   1.651   6.374  0.1002 -0.5691  0.1357
 9404SOL    HW139674   2.875   1.706   6.449  0.2842  0.7526 -0.7655
 9404SOL    HW239675   2.953   1.582   6.413  0.2334 -1.0851 -0.9666
 9405SOL     OW39676   3.502   1.531   3.168  0.5945 -0.0605 -0.1384
 9405SOL    HW139677   3.519   1.588   3.242  0.0024  1.6354 -1.3185
 9405SOL    HW239678   3.477   1.452   3.216  0.1468  0.8408  1.1086
 9406SOL     OW39679   1.432   3.007  15.765 -0.5054  0.4934  0.5083
 9406SOL    HW139680   1.346   2.971  15.787 -1.1415  0.0995 -2.7323
 9406SOL    HW239681   1.426   3.103  15.761 -0.5408  0.4701  0.0891
 9407SOL     OW39682   2.024   0.815  14.151 -0.1270  0.1174 -0.2708
 9407SOL    HW139683   1.978   0.864  14.083  0.5962  3.4085  1.6193
 9407SOL    HW239684   2.102   0.864  14.177  1.2590 -2.0342 -0.3494
 9408SOL     OW39685   1.857   2.690   0.176 -0.0513 -0.2169 -0.4691
 9408SOL    HW139686   1.926   2.701   0.110 -0.3442  1.7631 -0.4523
 9408SOL    HW239687   1.781   2.676   0.120  0.2416 -0.5043 -0.7962
 9409SOL     OW39688   2.526   3.495   4.252  0.2776  0.1126 -0.2412
 9409SOL    HW139689   2.507   3.537   4.337  0.4675  0.9554 -0.6117
 9409SOL    HW239690   2.450   3.441   4.235 -0.6801  1.5965 -0.7053
 9410SOL     OW39691   1.163   0.231   4.211 -0.2949  0.0409 -0.6741
 9410SOL    HW139692   1.073   0.218   4.183 -0.3920 -1.7893  0.4774
 9410SOL    HW239693   1.210   0.231   4.128 -0.2120  0.2494 -0.6272
 9411SOL     OW39694   2.212   3.400   8.021  0.0121  0.2449  0.1221
 9411SOL    HW139695   2.211   3.323   7.965 -0.8724  0.4040 -0.0763
 9411SOL    HW239696   2.293   3.449   8.007  1.1347 -1.8448 -0.6801
 9412SOL     OW39697   1.906   3.983   5.541  0.2100 -0.5364 -0.5247
 9412SOL    HW139698   1.861   3.971   5.457  0.6074 -3.0732 -0.3646
 9412SOL    HW239699   1.831   3.997   5.599  1.7781  1.4721  0.9886
 9413SOL     OW39700   2.750   0.840   0.002  0.5095  0.4032 -0.2345
 9413SOL    HW139701   2.681   0.825   0.067  1.0373  1.0663  0.4610
 9413SOL    HW239702   2.749   0.934  17.684  0.4132  0.3795 -0.3854
 9414SOL     OW39703   0.325   2.299   6.093 -1.3453 -0.6557  0.1611
 9414SOL    HW139704   0.370   2.384   6.092 -0.6784 -1.0231 -0.6882
 9414SOL    HW239705   0.244   2.316   6.142 -1.7506 -4.2489  0.7567
 9415SOL     OW39706   3.098   1.439   4.709 -0.4553  0.0126  0.2952
 9415SOL    HW139707   3.093   1.351   4.673 -0.8600 -0.6874  2.0391
 9415SOL    HW239708   3.159   1.421   4.781 -0.3273 -0.3013  0.1103
 9416SOL     OW39709   2.092   1.582   1.546  0.1729 -0.0795 -0.4092
 9416SOL    HW139710   2.032   1.648   1.512  0.0030 -0.4539 -0.8253
 9416SOL    HW239711   2.044   1.511   1.588 -2.2861  1.0183 -1.3966
 9417SOL     OW39712   3.257   4.179   0.651 -0.1603  0.0502  0.7712
 9417SOL    HW139713   3.335   4.234   0.652 -1.3859  1.7726  0.2640
 9417SOL    HW239714   3.273   4.112   0.584  1.5111 -0.0025  1.2362
 9418SOL     OW39715   0.617   3.884   3.034  0.5712  0.3458  0.1987
 9418SOL    HW139716   0.549   3.902   2.970  1.1009 -2.2403 -1.0499
 9418SOL    HW239717   0.689   3.888   2.970  0.3189  1.5311 -0.0133
 9419SOL     OW39718   1.516   0.276   6.607 -0.3304 -0.3222  0.2778
 9419SOL    HW139719   1.481   0.295   6.694  0.3697 -0.1226  0.5094
 9419SOL    HW239720   1.594   0.331   6.606  0.6608 -1.7018  1.4302
 9420SOL     OW39721   0.663   4.647   5.799 -0.6139  0.0303 -0.4814
 9420SOL    HW139722   0.673   0.004   5.850 -0.8714  0.6140 -1.3625
 9420SOL    HW239723   0.741   4.651   5.743 -0.3725  1.4866 -0.0416
 9421SOL     OW39724   0.995   2.059   0.115 -0.1272  0.5785  0.7658
 9421SOL    HW139725   0.942   2.015   0.048 -0.5929  2.0863  0.1528
 9421SOL    HW239726   0.945   2.135   0.144  0.6473  1.6936 -0.8480
 9422SOL     OW39727   1.773   1.176   2.452  0.5522 -0.5872  0.4697
 9422SOL    HW139728   1.824   1.245   2.410 -0.4592  0.2399  0.6175
 9422SOL    HW239729   1.697   1.177   2.395  1.9389  0.5301 -1.3729
 9423SOL     OW39730   3.764   3.536   2.550  0.5727 -0.2969  0.3846
 9423SOL    HW139731   3.824   3.464   2.528  0.5280 -0.0874 -0.4321
 9423SOL    HW239732   3.704   3.495   2.612 -0.9787 -0.8535 -1.4802
 9424SOL     OW39733   2.160   3.033   3.355 -0.2091  0.0789  0.1141
 9424SOL    HW139734   2.154   3.009   3.263  1.3067 -0.6716  0.2264
 9424SOL    HW239735   2.242   3.082   3.347  0.4969 -1.5938 -2.6250
 9425SOL     OW39736   1.321   0.337   8.621 -0.4891  0.0119  0.3077
 9425SOL    HW139737   1.281   0.251   8.605 -1.9686  0.4564  1.6019
 9425SOL    HW239738   1.383   0.309   8.689 -0.8055  0.3690  0.7368
 9426SOL     OW39739   2.978   0.974   7.373  0.5208 -0.1802  0.7079
 9426SOL    HW139740   2.921   1.040   7.333 -1.3529 -0.9775  2.0449
 9426SOL    HW239741   3.054   1.031   7.386  1.0253 -0.6803 -0.0672
 9427SOL     OW39742   3.321   1.833  16.436  1.3981  0.0536  0.2976
 9427SOL    HW139743   3.264   1.779  16.491  2.2024 -1.4001 -0.2878
 9427SOL    HW239744   3.391   1.854  16.498  0.8671  1.2389  0.4977
 9428SOL     OW39745   0.123   3.174  17.188  0.4330 -0.2726  0.1557
 9428SOL    HW139746   0.149   3.205  17.102 -0.4364  0.5108  0.1731
 9428SOL    HW239747   0.075   3.249  17.224  1.1196  1.3242 -2.2656
 9429SOL     OW39748   3.713   4.656   6.020 -0.5582  0.5280 -0.1502
 9429SOL    HW139749   3.624   4.669   6.055 -0.0167 -0.7281  1.6746
 9429SOL    HW239750   3.744   0.022   6.030 -1.0972  1.0386 -2.9521
 9430SOL     OW39751   3.850   0.033   6.646 -0.1295 -0.1054  0.2778
 9430SOL    HW139752   3.935   0.073   6.664 -0.4498  0.3134  0.8615
 9430SOL    HW239753   3.819   0.027   6.736 -1.7523 -1.6882 -0.3797
 9431SOL     OW39754   3.491   2.022  10.219  0.0320  0.0998  0.4954
 9431SOL    HW139755   3.399   2.025  10.192  0.3918  0.1784 -0.7392
 9431SOL    HW239756   3.533   2.008  10.134  1.1991  2.4346  0.6791
 9432SOL     OW39757   1.003   1.143  16.758 -0.3818  0.0412 -0.3349
 9432SOL    HW139758   1.036   1.172  16.843 -3.4755 -0.8849  1.1889
 9432SOL    HW239759   1.070   1.077  16.740 -1.4118 -1.0266 -0.2577
 9433SOL     OW39760   2.585   3.716   8.809 -0.0704  0.1345  0.4618
 9433SOL    HW139761   2.568   3.661   8.887  0.7819  0.1036  0.6227
 9433SOL    HW239762   2.562   3.800   8.847  0.7392  0.3970  0.3697
 9434SOL     OW39763   4.032   0.167   7.833 -0.2091  0.2042  0.0611
 9434SOL    HW139764   3.947   0.126   7.848 -0.4446  0.8786  0.5859
 9434SOL    HW239765   4.073   0.160   7.919 -2.9934 -0.8373  1.2771
 9435SOL     OW39766   1.981   2.176   1.217 -0.1550  0.3251  0.5565
 9435SOL    HW139767   2.007   2.246   1.276  1.3310  0.5185 -0.3128
 9435SOL    HW239768   2.007   2.218   1.135 -0.1966  0.2035  0.4818
 9436SOL     OW39769   0.808   2.384   3.251 -0.1638  0.0238  0.0414
 9436SOL    HW139770   0.765   2.469   3.249 -0.9735 -0.4211 -1.2756
 9436SOL    HW239771   0.733   2.326   3.241 -1.6790  2.3031 -1.7945
 9437SOL     OW39772   1.286   2.832   5.548 -0.8354 -0.2478 -0.1793
 9437SOL    HW139773   1.293   2.921   5.516 -2.1879  0.1618  0.6678
 9437SOL    HW239774   1.373   2.823   5.588 -1.3177 -0.5454  0.7991
 9438SOL     OW39775   4.533   1.881   0.428  0.0275 -0.3753  0.0038
 9438SOL    HW139776   4.626   1.896   0.439  0.0836  1.7404 -3.5748
 9438SOL    HW239777   4.499   1.920   0.508  1.0654 -1.9239  1.1996
 9439SOL     OW39778   3.306   3.400   5.965 -0.4069  0.4372 -0.2053
 9439SOL    HW139779   3.312   3.375   5.873  0.2920 -2.3267  0.5935
 9439SOL    HW239780   3.285   3.317   6.008  1.0848 -1.4561 -3.1016
 9440SOL     OW39781   3.741   3.896   3.503  0.7169 -0.2073  0.1108
 9440SOL    HW139782   3.702   3.959   3.564  0.0608  2.8808 -3.5049
 9440SOL    HW239783   3.798   3.850   3.565 -1.7468  0.4504  2.8395
 9441SOL     OW39784   3.038   0.823  14.186 -0.0775 -0.1037  0.0741
 9441SOL    HW139785   2.981   0.899  14.197 -2.6692 -2.1214  0.3059
 9441SOL    HW239786   3.072   0.830  14.096  0.3537  0.5527  0.2882
 9442SOL     OW39787   3.906   1.154   9.096 -0.2449 -0.0281 -0.0409
 9442SOL    HW139788   3.899   1.237   9.049 -1.4377  0.0882  0.3482
 9442SOL    HW239789   3.859   1.098   9.034 -0.9771 -0.7039  1.1158
 9443SOL     OW39790   0.370   0.397   7.301  0.6427  0.5425 -0.3995
 9443SOL    HW139791   0.308   0.352   7.243 -0.2571  0.1287  0.8723
 9443SOL    HW239792   0.358   0.351   7.384  2.4082  0.0563 -0.4098
 9444SOL     OW39793   3.004   1.402   1.979 -0.1316 -0.1358  0.3188
 9444SOL    HW139794   2.942   1.339   2.017 -1.5751  0.7466 -0.5836
 9444SOL    HW239795   3.003   1.370   1.889 -2.3789 -1.8314  0.9415
 9445SOL     OW39796   0.367   2.840   5.659  0.5692 -0.2929  0.4292
 9445SOL    HW139797   0.454   2.856   5.698  1.4049  1.2102 -2.0340
 9445SOL    HW239798   0.378   2.885   5.576  2.7006 -1.5918  0.0051
 9446SOL     OW39799   0.667   4.080   4.958 -0.2724  0.1175 -0.4419
 9446SOL    HW139800   0.606   4.027   4.906 -0.3931 -1.0796  0.9122
 9446SOL    HW239801   0.624   4.165   4.954 -3.1025 -1.2405  0.9241
 9447SOL     OW39802   0.962   4.693   6.493 -0.0994 -0.1415 -0.1953
 9447SOL    HW139803   1.046   4.675   6.451 -0.1406 -1.7773  0.4270
 9447SOL    HW239804   0.950   4.619   6.552  0.8729 -1.1333 -1.2463
 9448SOL     OW39805   2.642   2.787   7.063 -0.4023  0.4526  0.1947
 9448SOL    HW139806   2.674   2.845   6.994  0.1178  1.8016  1.5663
 9448SOL    HW239807   2.615   2.716   7.006  1.5792 -0.0727 -0.0952
 9449SOL     OW39808   2.560   4.472   0.177  0.4233  0.1236  0.3656
 9449SOL    HW139809   2.588   4.389   0.138  0.1134 -0.3896  1.2112
 9449SOL    HW239810   2.479   4.493   0.131  2.2093  1.9885 -1.8917
 9450SOL     OW39811   2.915   4.007   4.535 -0.1049 -0.3408 -0.2404
 9450SOL    HW139812   2.983   4.071   4.516  1.0967 -0.7055  2.7947
 9450SOL    HW239813   2.847   4.075   4.535  0.1048 -0.1296  0.2758
 9451SOL     OW39814   0.903   4.394   7.266 -0.4235 -0.0064 -0.7582
 9451SOL    HW139815   0.816   4.397   7.305 -0.4264 -0.3313 -0.7460
 9451SOL    HW239816   0.918   4.485   7.238  1.1261  0.5810  2.0360
 9452SOL     OW39817   1.508   2.090   9.338  0.1747 -0.0143 -0.3999
 9452SOL    HW139818   1.463   2.138   9.407 -2.5999 -4.0892  0.6081
 9452SOL    HW239819   1.561   2.161   9.301 -1.4046  0.7364 -1.2345
 9453SOL     OW39820   1.412   0.310   7.511 -0.2063  0.5353  0.1870
 9453SOL    HW139821   1.367   0.249   7.453  0.2666  0.1330  0.2540
 9453SOL    HW239822   1.418   0.248   7.583  3.1948  1.0286  0.3126
 9454SOL     OW39823   2.582   3.542   3.145  0.4971 -0.0363 -0.3780
 9454SOL    HW139824   2.576   3.576   3.055 -0.0380  0.0227 -0.3195
 9454SOL    HW239825   2.499   3.497   3.159  0.6959 -0.5629 -0.8672
 9455SOL     OW39826   4.443   3.618   9.523  0.0898 -0.0565  0.1877
 9455SOL    HW139827   4.361   3.642   9.565  0.2418  1.1773 -0.2224
 9455SOL    HW239828   4.473   3.545   9.577 -4.0523 -0.4838  1.9077
 9456SOL     OW39829   3.810   4.085   5.809  0.0696 -0.6482  0.2944
 9456SOL    HW139830   3.860   4.010   5.778  0.3362  0.6998 -2.5336
 9456SOL    HW239831   3.874   4.113   5.874  0.9950 -1.3822 -0.3030
 9457SOL     OW39832   2.308   1.289   4.113 -0.0908  0.0938 -0.2792
 9457SOL    HW139833   2.219   1.284   4.149 -0.2921 -0.8187 -0.8913
 9457SOL    HW239834   2.336   1.376   4.142 -0.0347 -0.4741  1.3704
 9458SOL     OW39835   1.996   0.538   3.249 -0.6436 -0.1820  0.3506
 9458SOL    HW139836   1.956   0.590   3.319  2.9877  1.5444  1.1469
 9458SOL    HW239837   1.922   0.509   3.195 -0.3601  0.0486 -0.1546
 9459SOL     OW39838   4.324   1.264  12.754 -0.3187 -0.5926 -0.2768
 9459SOL    HW139839   4.368   1.330  12.807 -1.2569 -0.8273  0.8026
 9459SOL    HW239840   4.373   1.187  12.785 -0.0897 -0.3306  0.0143
 9460SOL     OW39841   1.875   3.205   8.330 -0.0420 -0.1466  0.1481
 9460SOL    HW139842   1.862   3.243   8.417 -0.2382 -1.1046  0.5481
 9460SOL    HW239843   1.969   3.188   8.342  0.0677  0.1126 -0.3886
 9461SOL     OW39844   2.758   1.382   2.914  0.0854  0.4191  0.4334
 9461SOL    HW139845   2.836   1.429   2.885  0.1098  0.8552  1.1838
 9461SOL    HW239846   2.780   1.356   3.004 -0.4490  0.3140  0.5326
 9462SOL     OW39847   2.504   4.635   0.767 -0.1348 -0.0693 -0.3219
 9462SOL    HW139848   2.522   0.005   0.756 -0.7589  0.1306  0.3916
 9462SOL    HW239849   2.583   4.602   0.722  0.1447 -1.1927  1.0031
 9463SOL     OW39850   1.975   2.619  10.958  0.5876 -0.0221 -0.0169
 9463SOL    HW139851   2.024   2.537  10.964  0.0517 -0.2064  1.7819
 9463SOL    HW239852   1.976   2.630  10.863  0.5761  1.5053  0.1616
 9464SOL     OW39853   1.576   4.112   1.816 -0.8244 -0.6929 -0.3416
 9464SOL    HW139854   1.642   4.043   1.818 -2.8066 -2.6348 -1.3359
 9464SOL    HW239855   1.609   4.152   1.734  0.6909 -0.3746  0.4185
 9465SOL     OW39856   2.821   1.972   5.498  0.3845  0.5248  0.2993
 9465SOL    HW139857   2.880   2.043   5.471 -0.3967  0.4509 -1.5782
 9465SOL    HW239858   2.765   2.007   5.569  1.2590 -1.2143  1.8407
 9466SOL     OW39859   2.471   4.202   6.085 -0.3398  0.0019 -0.3708
 9466SOL    HW139860   2.554   4.166   6.054  1.0113  1.6473  1.4012
 9466SOL    HW239861   2.466   4.283   6.035  1.3688  0.7388  0.6800
 9467SOL     OW39862   0.107   2.661   9.298  0.0005 -0.0900  0.8449
 9467SOL    HW139863   0.093   2.725   9.368  3.7281  0.2663  1.2952
 9467SOL    HW239864   0.198   2.633   9.312  0.4508  0.8190 -0.2126
 9468SOL     OW39865   4.224   2.773   4.091  0.0847 -0.4696 -0.0235
 9468SOL    HW139866   4.175   2.724   4.025  0.7478 -1.2773  0.0806
 9468SOL    HW239867   4.259   2.848   4.042 -2.4161 -0.1870 -1.3232
 9469SOL     OW39868   0.699   3.354   6.706 -0.6624 -0.3318  0.2865
 9469SOL    HW139869   0.679   3.265   6.677  1.4645 -0.5494 -0.4779
 9469SOL    HW239870   0.614   3.394   6.687  0.1235  1.3703  0.3979
 9470SOL     OW39871   4.130   4.342   2.509 -0.2585  0.3672 -0.1496
 9470SOL    HW139872   4.060   4.377   2.454 -0.3317  0.2764 -0.1137
 9470SOL    HW239873   4.173   4.418   2.548 -0.9299 -0.4929  2.2181
 9471SOL     OW39874   1.252   1.145   5.726  0.2920 -0.9264 -0.6372
 9471SOL    HW139875   1.182   1.080   5.731 -0.0036 -0.4021  2.0753
 9471SOL    HW239876   1.240   1.163   5.633  0.0238 -0.5858 -0.5350
 9472SOL     OW39877   1.872   0.344  16.928  0.1404  0.4245 -0.5261
 9472SOL    HW139878   1.826   0.311  17.005  1.5927 -0.8755 -0.2266
 9472SOL    HW239879   1.803   0.360  16.863  1.4108 -0.4943 -2.0829
 9473SOL     OW39880   0.713   0.818   9.392  0.6105  0.6070  0.2734
 9473SOL    HW139881   0.698   0.878   9.319 -3.3284 -1.5386 -0.6350
 9473SOL    HW239882   0.799   0.776   9.380  0.2199 -0.4690  1.2533
 9474SOL     OW39883   4.022   0.525   8.338  0.1181 -0.2948  0.1008
 9474SOL    HW139884   3.964   0.453   8.312 -1.0167  0.7619 -0.3462
 9474SOL    HW239885   4.076   0.531   8.259  0.5488  1.4284  0.5174
 9475SOL     OW39886   0.894   0.418   7.089  0.0009  0.2004  0.4092
 9475SOL    HW139887   0.958   0.389   7.153  0.3195 -0.4658 -0.2115
 9475SOL    HW239888   0.827   0.351   7.079  0.0730  0.2427 -0.3478
 9476SOL     OW39889   2.975   3.926   2.187 -0.7288 -0.3350 -0.5933
 9476SOL    HW139890   2.969   4.010   2.232 -0.9269 -0.5407 -0.2339
 9476SOL    HW239891   3.066   3.940   2.162 -1.5193  2.7175 -1.7024
 9477SOL     OW39892   3.281   1.305   6.388  0.5668 -0.2040  0.0499
 9477SOL    HW139893   3.325   1.221   6.376  0.5400 -0.3249  0.7796
 9477SOL    HW239894   3.290   1.348   6.303 -2.0326  1.3086  0.5316
 9478SOL     OW39895   0.303   2.684   3.008  0.2352  0.6617 -0.3475
 9478SOL    HW139896   0.351   2.767   3.001  2.4254 -0.4590  1.3292
 9478SOL    HW239897   0.343   2.638   2.934 -1.0871  1.1199 -1.3608
 9479SOL     OW39898   3.331   0.080   2.236  0.0206 -0.4907 -0.2813
 9479SOL    HW139899   3.420   0.112   2.218 -0.1241  1.1344  1.9142
 9479SOL    HW239900   3.274   0.157   2.234  0.6147 -0.0476 -0.1180
 9480SOL     OW39901   3.010   3.048   3.742  0.0360  0.6542  0.1527
 9480SOL    HW139902   2.926   3.057   3.698  0.0119 -3.2290 -0.6431
 9480SOL    HW239903   3.049   3.135   3.750  0.3552  0.4216  1.0883
 9481SOL     OW39904   0.940   1.161   5.966 -0.2072  0.0890  0.4674
 9481SOL    HW139905   1.016   1.220   5.970 -0.3411  0.3566 -0.8321
 9481SOL    HW239906   0.897   1.170   6.051 -4.5018  0.7868 -1.7674
 9482SOL     OW39907   0.574   1.544   5.416  0.4593  0.1030  0.0993
 9482SOL    HW139908   0.653   1.490   5.423 -0.1384 -0.8762 -0.6549
 9482SOL    HW239909   0.566   1.559   5.510  0.5727 -1.5552  0.3906
 9483SOL     OW39910   2.646   4.009   9.875  0.2101 -0.3979  0.3574
 9483SOL    HW139911   2.605   3.923   9.876  1.7058 -1.1628 -3.9006
 9483SOL    HW239912   2.622   4.044   9.961 -0.6941  0.9180 -0.4248
 9484SOL     OW39913   2.196   0.767   1.960  0.4536  0.4515 -0.4518
 9484SOL    HW139914   2.192   0.785   2.054  1.6319  0.2978 -0.3801
 9484SOL    HW239915   2.258   0.833   1.931  0.8162  0.4010  0.1909
 9485SOL     OW39916   2.103   0.648   0.898 -0.2734 -0.0157  0.2568
 9485SOL    HW139917   2.061   0.657   0.813 -1.4105 -1.3611  0.6704
 9485SOL    HW239918   2.036   0.591   0.937  0.7187 -1.3950 -0.0638
 9486SOL     OW39919   1.797   3.824   8.539  0.2337 -0.8035  0.6310
 9486SOL    HW139920   1.886   3.804   8.569  1.1299 -0.1548 -1.6064
 9486SOL    HW239921   1.804   3.919   8.547 -4.2545 -0.4467  0.0212
 9487SOL     OW39922   0.915   0.467  15.594 -0.3381 -0.2705  0.3170
 9487SOL    HW139923   0.913   0.472  15.499 -0.7547 -1.1693  0.2794
 9487SOL    HW239924   0.878   0.379  15.604 -0.1471 -0.2985  0.7889
 9488SOL     OW39925   1.077   2.599   2.298 -0.0471 -0.0036 -0.2386
 9488SOL    HW139926   1.067   2.588   2.204 -1.1010 -1.3353  0.0296
 9488SOL    HW239927   1.085   2.694   2.299  1.2139 -0.0928 -1.4834
 9489SOL     OW39928   0.782   2.294  12.019 -0.7252  0.5246 -0.1100
 9489SOL    HW139929   0.707   2.326  11.969 -1.3188  0.0900  0.5120
 9489SOL    HW239930   0.853   2.330  11.966  1.5608  1.1268  3.4171
 9490SOL     OW39931   0.668   2.080   8.889  0.7451  0.1844 -0.0003
 9490SOL    HW139932   0.681   2.172   8.909  0.9035  0.1193  0.1990
 9490SOL    HW239933   0.612   2.091   8.813  2.1668  1.4665 -0.8533
 9491SOL     OW39934   4.065   4.061   4.828  0.4097 -0.4805  0.0004
 9491SOL    HW139935   4.061   4.066   4.924  2.7730  0.2663  0.0567
 9491SOL    HW239936   4.146   4.013   4.816  0.6931  0.1714 -0.7090
 9492SOL     OW39937   3.161   3.197   9.047  0.0022 -0.6242  0.0315
 9492SOL    HW139938   3.093   3.254   9.083  2.4955  2.0088  0.5315
 9492SOL    HW239939   3.118   3.149   8.976  0.0234 -0.5829 -0.0099
 9493SOL     OW39940   1.847   4.195  12.185 -0.0152 -0.0616  0.3861
 9493SOL    HW139941   1.896   4.121  12.219  2.7666  1.8261  0.4337
 9493SOL    HW239942   1.906   4.270  12.190 -0.2997  0.1402  0.7169
 9494SOL     OW39943   0.924   4.109   2.538  0.2515 -0.8352  0.5721
 9494SOL    HW139944   0.906   4.079   2.449 -0.3103 -1.2308  0.8207
 9494SOL    HW239945   0.836   4.110   2.575 -1.1127  0.4446 -2.6921
 9495SOL     OW39946   4.716   3.721   5.643 -0.2550  0.5960 -0.5214
 9495SOL    HW139947   0.074   3.764   5.619 -0.4845  1.2556 -0.1105
 9495SOL    HW239948   0.014   3.674   5.723  0.5569  0.7005 -0.6798
 9496SOL     OW39949   1.663   1.489   2.078  0.1057 -0.0740  0.5772
 9496SOL    HW139950   1.571   1.472   2.056 -0.4895  0.5210  2.5997
 9496SOL    HW239951   1.703   1.411   2.040  1.5390  1.0117 -0.1418
 9497SOL     OW39952   3.148   1.850  17.378 -0.0921  0.2762 -0.9120
 9497SOL    HW139953   3.066   1.801  17.389 -0.1074  0.7058  0.7764
 9497SOL    HW239954   3.116   1.931  17.337 -0.0538  0.9323  0.3723
 9498SOL     OW39955   4.445   4.144   2.175  0.0342  0.7301 -0.1871
 9498SOL    HW139956   4.520   4.162   2.233 -0.5928  2.4745  0.0924
 9498SOL    HW239957   4.500   4.125   2.098 -0.5734 -1.4056 -0.0670
 9499SOL     OW39958   3.560   2.304  15.167 -0.0174 -0.0863 -0.1764
 9499SOL    HW139959   3.595   2.333  15.083 -0.5056  2.3481  0.4849
 9499SOL    HW239960   3.498   2.241  15.131 -1.3228  0.8719  0.4199
 9500SOL     OW39961   2.669   1.486   6.480 -0.3643  0.8181 -0.3381
 9500SOL    HW139962   2.674   1.448   6.568  2.1219 -0.1695 -0.8905
 9500SOL    HW239963   2.734   1.431   6.436 -0.6080  0.8066 -0.6798
 9501SOL     OW39964   3.022   4.580   3.398  0.3901 -0.8488  0.0289
 9501SOL    HW139965   3.071   4.662   3.398 -1.8685  0.5146  0.7378
 9501SOL    HW239966   3.063   4.536   3.473  4.3903 -0.6179 -2.0122
 9502SOL     OW39967   4.377   0.873   8.690  0.6396 -0.2581 -0.2540
 9502SOL    HW139968   4.318   0.928   8.638  0.9453  1.7454  1.5165
 9502SOL    HW239969   4.322   0.812   8.739 -2.8572  2.7572 -0.3591
 9503SOL     OW39970   3.975   3.789  15.122  0.5364  0.5206 -0.3992
 9503SOL    HW139971   4.009   3.699  15.113 -3.6103 -1.2697  2.1405
 9503SOL    HW239972   4.055   3.842  15.124 -0.2594  1.7324 -0.7692
 9504SOL     OW39973   0.533   0.596  15.808  0.2422  0.4166 -0.2517
 9504SOL    HW139974   0.450   0.551  15.790 -0.0997  0.7442  0.5167
 9504SOL    HW239975   0.512   0.688  15.796  1.3030  0.6339 -0.4059
 9505SOL     OW39976   3.578   1.952  17.532  0.0738 -0.3516 -0.2516
 9505SOL    HW139977   3.549   1.876  17.582 -0.8937 -0.8705 -1.6398
 9505SOL    HW239978   3.616   1.913  17.453  0.4433  1.3311 -0.9063
 9506SOL     OW39979   2.490   3.171   4.383 -0.4549  0.4243  0.5942
 9506SOL    HW139980   2.425   3.222   4.335 -0.0059  2.7266  2.4284
 9506SOL    HW239981   2.539   3.246   4.417  0.3910 -0.0790  0.4944
 9507SOL     OW39982   2.194   0.803   8.958 -0.1101  0.3883  0.4711
 9507SOL    HW139983   2.221   0.884   8.913  2.3665 -1.2378 -0.9812
 9507SOL    HW239984   2.197   0.740   8.886  0.2775  0.1628  0.6813
 9508SOL     OW39985   3.672   0.529   4.699 -0.2205  0.0834 -0.2077
 9508SOL    HW139986   3.603   0.469   4.727 -0.6563  1.1286  0.9638
 9508SOL    HW239987   3.748   0.475   4.678  1.1270  0.8274  2.7108
 9509SOL     OW39988   0.798   0.173  15.961  0.1591  0.2788 -0.0342
 9509SOL    HW139989   0.811   0.190  15.868 -0.0629  0.6591  0.0054
 9509SOL    HW239990   0.818   0.263  15.985  0.2057  0.2491  0.0386
 9510SOL     OW39991   3.453   1.463   0.685  0.3918  0.3263 -0.2387
 9510SOL    HW139992   3.373   1.430   0.645 -0.4680  1.7554  0.2819
 9510SOL    HW239993   3.442   1.443   0.778 -2.6082 -1.6542 -1.0060
 9511SOL     OW39994   1.102   0.588   5.130  0.3559  0.4071  0.0797
 9511SOL    HW139995   1.027   0.648   5.129  0.7803  0.9331 -0.1251
 9511SOL    HW239996   1.087   0.528   5.058 -4.0240  0.4670  0.9485
 9512SOL     OW39997   1.941   3.126   5.442  0.1785 -0.6114  0.1279
 9512SOL    HW139998   1.942   3.222   5.440  0.2880 -0.6366 -1.2997
 9512SOL    HW239999   2.010   3.108   5.504  0.0829  1.8270  0.9518
 9513SOL     OW40000   0.209   0.078   7.854  0.3901  0.3600 -0.4581
 9513SOL    HW140001   0.282   0.016   7.861  1.1902  1.3041 -0.4397
 9513SOL    HW240002   0.243   0.127   7.780 -1.4986 -0.1097 -1.6216
 9514SOL     OW40003   2.574   4.490   8.648 -0.1339  0.1108  0.1009
 9514SOL    HW140004   2.579   4.486   8.553  0.4149  1.3950  0.0829
 9514SOL    HW240005   2.493   4.443   8.668 -1.0369  1.6006 -0.0678
 9515SOL     OW40006   2.437   4.113   0.478  0.1510  0.2776 -0.4334
 9515SOL    HW140007   2.523   4.077   0.456  0.7980 -0.0477  2.6064
 9515SOL    HW240008   2.394   4.042   0.526 -0.1452  0.3389 -0.6109
 9516SOL     OW40009   0.962   0.655  11.114  0.0766 -0.3307 -0.1829
 9516SOL    HW140010   1.046   0.678  11.073  0.0605 -0.8771 -0.5177
 9516SOL    HW240011   0.912   0.732  11.086  0.9607  1.3759  2.9627
 9517SOL     OW40012   4.039   4.141   5.928 -0.8678  0.0908 -0.2684
 9517SOL    HW140013   4.105   4.133   5.859  1.1068  1.0656  1.5124
 9517SOL    HW240014   4.041   4.056   5.971 -1.5339 -0.1271 -0.6633
 9518SOL     OW40015   1.766   4.641   5.930 -0.4741 -0.0255 -0.0027
 9518SOL    HW140016   1.818   4.719   5.913  0.8982 -1.2051 -1.2935
 9518SOL    HW240017   1.676   4.669   5.913 -0.4810  0.0986  0.2454
 9519SOL     OW40018   4.240   0.055   6.231  0.3256 -0.0564 -0.7088
 9519SOL    HW140019   4.200   0.043   6.145 -0.5751 -0.3492 -0.2573
 9519SOL    HW240020   4.171   0.109   6.269 -0.1596 -2.3176  1.6674
 9520SOL     OW40021   0.973   2.273   5.907  0.6556 -0.0261 -0.3774
 9520SOL    HW140022   0.970   2.368   5.898  0.2918 -0.0291 -0.2999
 9520SOL    HW240023   0.988   2.259   6.001 -0.5775  0.7569 -0.0575
 9521SOL     OW40024   1.767   0.382  15.862 -0.1485  0.4175 -0.4055
 9521SOL    HW140025   1.828   0.389  15.935  1.0709 -0.6065 -1.3156
 9521SOL    HW240026   1.684   0.408  15.901 -0.7127 -1.5595 -0.2920
 9522SOL     OW40027   1.672   1.065   0.220 -0.5388  0.1988 -0.5061
 9522SOL    HW140028   1.607   1.013   0.173 -0.7808  2.1768 -2.3279
 9522SOL    HW240029   1.719   1.008   0.282 -1.7238 -0.4050 -0.1570
 9523SOL     OW40030   2.791   1.956   6.219 -0.0242 -0.1521  0.4481
 9523SOL    HW140031   2.748   1.979   6.301 -0.5766  0.2915  0.0335
 9523SOL    HW240032   2.714   1.925   6.172  1.0334 -0.0961 -1.3422
 9524SOL     OW40033   2.592   2.697   4.180  0.1922  0.3112 -0.1381
 9524SOL    HW140034   2.548   2.779   4.158  1.4239  0.4418 -2.0828
 9524SOL    HW240035   2.679   2.715   4.145  0.1794 -0.2729 -0.4701
 9525SOL     OW40036   2.007   4.555   0.919 -0.1508 -0.3833  0.1852
 9525SOL    HW140037   2.031   4.468   0.888 -0.7971 -0.9200  1.1813
 9525SOL    HW240038   2.050   4.548   1.004  0.5138 -1.4439 -0.2486
 9526SOL     OW40039   4.568   1.289   9.633  0.2898 -0.4505 -0.1426
 9526SOL    HW140040   4.506   1.216   9.633 -1.2758  0.8955  0.3721
 9526SOL    HW240041   4.628   1.270   9.706  0.9934  0.3681 -0.5085
 9527SOL     OW40042   2.264   0.504   6.002 -0.5869  0.2032 -0.1372
 9527SOL    HW140043   2.301   0.441   5.940 -1.2803  0.2539 -0.6093
 9527SOL    HW240044   2.251   0.456   6.084 -1.7520  1.3408  0.3560
 9528SOL     OW40045   3.239   0.075  10.544  0.0889  0.0018  0.2606
 9528SOL    HW140046   3.222   0.161  10.583 -1.1452 -1.2924  2.5351
 9528SOL    HW240047   3.262   0.022  10.620 -2.3921 -3.7312 -1.6189
 9529SOL     OW40048   1.552   2.992   1.069 -0.0773  0.0734 -0.4535
 9529SOL    HW140049   1.469   3.013   1.111 -0.2720 -1.5346 -0.0302
 9529SOL    HW240050   1.548   2.898   1.056 -0.7623  0.1629 -0.8818
 9530SOL     OW40051   3.659   1.815   2.158  0.0909 -0.8220 -0.0733
 9530SOL    HW140052   3.641   1.774   2.074 -2.6653  0.4218 -0.0849
 9530SOL    HW240053   3.683   1.738   2.210 -1.7450 -2.4836 -1.6864
 9531SOL     OW40054   3.188   4.151   9.899 -0.2185 -0.2578 -0.1891
 9531SOL    HW140055   3.157   4.181   9.984  0.6938 -1.8852  0.7334
 9531SOL    HW240056   3.237   4.227   9.869 -0.7320 -0.0308 -0.4483
 9532SOL     OW40057   0.546   1.057  10.357 -0.3789 -0.2145  0.3264
 9532SOL    HW140058   0.618   1.007  10.396  0.4037 -0.4639 -1.4378
 9532SOL    HW240059   0.558   1.035  10.264  0.5105 -1.0013  0.6141
 9533SOL     OW40060   3.355   3.683   1.843 -0.0468  0.5322  0.4017
 9533SOL    HW140061   3.307   3.611   1.802 -2.4899  2.3565  0.0442
 9533SOL    HW240062   3.432   3.691   1.786 -0.0611 -0.9086  0.1869
 9534SOL     OW40063   0.747   2.076   6.144 -0.3611 -0.0239 -0.8636
 9534SOL    HW140064   0.839   2.085   6.120 -0.7476  0.2133 -2.2336
 9534SOL    HW240065   0.756   2.077   6.239  1.7890 -2.4110 -1.0755
 9535SOL     OW40066   2.734   2.745   1.771 -0.1531 -0.6448 -0.7813
 9535SOL    HW140067   2.812   2.709   1.731  0.2116 -0.6965 -0.0196
 9535SOL    HW240068   2.669   2.679   1.746  0.9124 -1.9226 -0.1634
 9536SOL     OW40069   2.198   4.683  16.148  0.3265  0.8183  0.1465
 9536SOL    HW140070   2.169   4.663  16.237 -2.3965  0.8568 -0.7349
 9536SOL    HW240071   2.280   4.634  16.151  0.3596  0.9344  1.3186
 9537SOL     OW40072   3.571   0.761   8.306  0.8001  0.0317  0.1832
 9537SOL    HW140073   3.478   0.738   8.307  1.1521 -1.3476  0.8753
 9537SOL    HW240074   3.592   0.747   8.398  1.8715 -1.9112 -0.3682
 9538SOL     OW40075   3.260   3.561   8.818  0.4661  0.6064 -0.4036
 9538SOL    HW140076   3.324   3.630   8.802 -0.5923  1.6297 -0.2497
 9538SOL    HW240077   3.231   3.577   8.908  2.4815  0.7571  0.2093
 9539SOL     OW40078   2.046   0.303   3.470 -0.2267  0.9458 -0.0680
 9539SOL    HW140079   2.075   0.393   3.454  0.4608  1.0256  1.5287
 9539SOL    HW240080   2.101   0.251   3.411  0.6580  0.6559  0.9982
 9540SOL     OW40081   0.843   4.165   2.864 -0.1467 -0.0184 -0.1595
 9540SOL    HW140082   0.825   4.184   2.956 -1.8243  0.6795 -0.6421
 9540SOL    HW240083   0.930   4.125   2.864  0.3955  1.1577  0.2207
 9541SOL     OW40084   4.116   3.984   5.308 -0.2217  0.3913  0.4866
 9541SOL    HW140085   4.038   3.960   5.260  0.3236  0.1246 -0.2640
 9541SOL    HW240086   4.163   3.900   5.306  0.2064  0.6470 -0.1692
 9542SOL     OW40087   1.744   0.310  14.423  0.3347 -0.2094 -0.0886
 9542SOL    HW140088   1.804   0.246  14.461  0.3876 -0.4879 -0.6455
 9542SOL    HW240089   1.666   0.307  14.478  0.7249  2.4664  0.6277
 9543SOL     OW40090   0.991   2.078   9.137 -0.6039 -0.1552 -0.1523
 9543SOL    HW140091   1.063   2.141   9.140 -2.2590  1.8364 -1.9007
 9543SOL    HW240092   0.922   2.140   9.160  0.0900  0.9689 -1.0784
 9544SOL     OW40093   0.299   1.094   0.769 -0.0709  0.3820 -0.2755
 9544SOL    HW140094   0.354   1.105   0.692 -0.8617  1.5214 -0.6739
 9544SOL    HW240095   0.357   1.101   0.845 -0.4933 -0.9350  0.1678
 9545SOL     OW40096   0.635   1.897   5.916  0.0133  0.3930  0.4878
 9545SOL    HW140097   0.667   1.921   5.829 -0.9238  2.6425  0.7421
 9545SOL    HW240098   0.698   1.946   5.969  0.3144  0.6742 -0.1360
 9546SOL     OW40099   1.090   0.791   3.841  0.2168 -0.4649  0.0073
 9546SOL    HW140100   1.173   0.829   3.815  0.3228 -0.2118  0.7013
 9546SOL    HW240101   1.041   0.816   3.763 -1.9032 -0.4710  1.3051
 9547SOL     OW40102   1.740   2.121   3.617  0.3743  0.1578  0.6662
 9547SOL    HW140103   1.729   2.187   3.548  0.8443 -1.9731 -1.4556
 9547SOL    HW240104   1.661   2.070   3.599  0.2319  0.6541 -0.1513
 9548SOL     OW40105   3.614   3.040   8.114  0.2783 -0.2372  0.3242
 9548SOL    HW140106   3.552   2.997   8.173 -0.9909 -3.0645 -3.0609
 9548SOL    HW240107   3.554   3.085   8.055 -1.1788 -0.0161  1.9820
 9549SOL     OW40108   1.149   0.549  14.064 -0.6014 -0.1389  0.3289
 9549SOL    HW140109   1.112   0.556  13.976  1.8471 -0.6972 -0.7352
 9549SOL    HW240110   1.216   0.617  14.061  0.6559 -1.4212 -0.8017
 9550SOL     OW40111   3.855   2.822   1.729  0.5171  0.0684  0.0408
 9550SOL    HW140112   3.763   2.845   1.713  0.9086  0.4581 -1.7138
 9550SOL    HW240113   3.866   2.745   1.673  0.5029  0.6236 -0.7328
 9551SOL     OW40114   4.073   0.545   1.068  0.4042 -0.5914 -0.2653
 9551SOL    HW140115   4.168   0.558   1.065  0.1849  1.1605  0.3622
 9551SOL    HW240116   4.075   0.457   1.030 -0.7787  0.1850 -2.0693
 9552SOL     OW40117   1.298   0.716  11.693 -0.2409 -0.1536  0.2507
 9552SOL    HW140118   1.312   0.791  11.636  0.0684  1.0746  1.9495
 9552SOL    HW240119   1.305   0.642  11.632  2.1327 -0.3568  0.7351
 9553SOL     OW40120   3.289   2.007   1.451 -0.2837  0.1958 -0.0796
 9553SOL    HW140121   3.285   1.943   1.380 -1.1116 -1.9225  1.8894
 9553SOL    HW240122   3.320   1.951   1.522 -1.2027 -0.3143 -0.0854
 9554SOL     OW40123   2.868   4.211  14.863 -0.1706 -0.1135 -0.0701
 9554SOL    HW140124   2.958   4.232  14.889 -0.2742 -0.3069  0.4241
 9554SOL    HW240125   2.843   4.300  14.836  1.2998  1.3945  3.5729
 9555SOL     OW40126   2.816   4.297   9.662  0.0678  0.0181  0.1118
 9555SOL    HW140127   2.866   4.325   9.739  0.6988 -1.5654  0.2846
 9555SOL    HW240128   2.860   4.214   9.642  0.1602  0.6931 -2.4589
 9556SOL     OW40129   3.462   0.736  10.990  0.2019  1.0499  0.7747
 9556SOL    HW140130   3.467   0.651  10.948 -1.1874  1.3803 -0.0709
 9556SOL    HW240131   3.454   0.705  11.080 -3.1078 -1.6925 -0.4681
 9557SOL     OW40132   3.040   4.697   1.368 -0.0155 -0.0601 -0.0232
 9557SOL    HW140133   3.002   0.058   1.345 -1.8132 -0.5621  1.1003
 9557SOL    HW240134   3.093   4.715   1.445  0.7443 -0.8345 -0.3671
 9558SOL     OW40135   2.412   4.207   6.661 -0.1691 -0.1961 -0.0330
 9558SOL    HW140136   2.474   4.175   6.727 -0.4943 -1.3349 -0.2692
 9558SOL    HW240137   2.466   4.222   6.584 -0.4144  0.7378 -0.0200
 9559SOL     OW40138   3.604   2.124  12.242 -0.2822  0.0570  0.3181
 9559SOL    HW140139   3.603   2.086  12.330 -3.9910  2.2834  1.2423
 9559SOL    HW240140   3.654   2.204  12.257 -2.5756  1.2804  1.4938
 9560SOL     OW40141   3.140   4.083   0.028  0.0021 -0.4306 -0.4293
 9560SOL    HW140142   3.196   4.158   0.042  1.5509 -1.2925 -2.0845
 9560SOL    HW240143   3.095   4.114  17.645  0.0707 -2.4511 -1.2648
 9561SOL     OW40144   4.355   3.603   8.075  0.1847  0.1333 -0.0636
 9561SOL    HW140145   4.259   3.611   8.071  0.0593 -1.4882 -0.2447
 9561SOL    HW240146   4.374   3.682   8.126  2.8506 -0.3513 -0.3298
 9562SOL     OW40147   2.410   3.564   3.435  0.0591  0.0017  0.2388
 9562SOL    HW140148   2.489   3.609   3.404 -1.4829  0.8971 -2.4627
 9562SOL    HW240149   2.347   3.620   3.390  1.0921  1.2582  0.3488
 9563SOL     OW40150   3.140   2.077   3.429  0.9162 -0.7702 -0.4109
 9563SOL    HW140151   3.122   1.985   3.407  0.6758 -0.4382 -1.6084
 9563SOL    HW240152   3.113   2.123   3.350 -0.7433 -1.7704 -0.4177
 9564SOL     OW40153   1.769   1.947  13.426 -0.7625 -0.2123 -0.1717
 9564SOL    HW140154   1.775   1.942  13.522  2.2583 -1.2644 -0.4092
 9564SOL    HW240155   1.679   1.916  13.411  0.4482 -2.0287 -3.5019
 9565SOL     OW40156   2.903   0.748   2.994 -0.6141 -0.3475 -0.0949
 9565SOL    HW140157   2.921   0.842   2.995  0.4438 -0.5688  0.4094
 9565SOL    HW240158   2.808   0.751   2.982 -0.7692 -1.3641  0.9292
 9566SOL     OW40159   3.757   3.232   3.921  0.3085  0.7672 -0.3225
 9566SOL    HW140160   3.681   3.185   3.954  0.9701  0.2915  0.5118
 9566SOL    HW240161   3.774   3.195   3.834 -0.1779  0.4546 -0.2873
 9567SOL     OW40162   0.567   1.063   0.077 -0.1448 -0.7740 -0.4859
 9567SOL    HW140163   0.517   1.012   0.141 -1.2829 -0.3858 -1.0654
 9567SOL    HW240164   0.508   1.138   0.064  1.7341  0.6639 -0.6903
 9568SOL     OW40165   2.405   1.869   3.478  0.4165  0.1127  0.1948
 9568SOL    HW140166   2.329   1.854   3.422  0.9825 -0.2802 -0.4604
 9568SOL    HW240167   2.453   1.931   3.423 -1.7763 -0.2526 -2.1271
   4.72365   4.72365  17.69633
