Membrane in water
40167
    1TCq1    O1    1   1.969   2.247  10.103  0.1053  0.2423 -0.0068
    1TCq1    C1    2   2.032   2.189  10.212  0.0196 -0.1260  0.2083
    1TCq1    O2    3   2.131   2.121  10.206 -0.0720  0.2589 -0.1960
    1TCq1    C2    4   1.935   2.178  10.322 -0.2612  0.2446  0.4375
    1TCq1    C3    5   1.864   2.286  10.358 -0.5658 -0.3916 -0.7016
    1TCq1    C4    6   1.787   2.283  10.468  0.0055 -0.6792 -0.0355
    1TCq1    C5    7   1.795   2.178  10.553  0.1158  0.1043 -0.0353
    1TCq1    C6    8   1.890   2.083  10.530  0.4579  0.3796  0.1795
    1TCq1    C7    9   1.952   2.066  10.410 -0.9706  0.5756 -0.0961
    1TCq1    C8   10   1.920   1.992  10.636 -0.8897 -0.2045  0.3427
    1TCq1    O4   11   1.844   1.992  10.729 -0.0208  0.8994  0.0717
    1TCq1    C9   12   1.684   2.380  10.476 -0.2954 -0.4367  0.6263
    1TCq1    O5   13   1.668   2.472  10.390  0.1155 -0.0212  1.1591
    1TCq1    O6   14   1.591   2.364  10.562  0.2492 -0.0230 -0.3860
    1TCq1    H1   15   1.892   2.305  10.123 -0.2645 -0.0970 -0.4409
    1TCq1    H2   16   1.843   2.369  10.291 -0.7656 -0.2899 -0.5141
    1TCq1    H3   17   1.738   2.181  10.645 -3.1927 -0.5297 -2.0724
    1TCq1    H4   18   2.028   1.992  10.387 -1.1440 -0.4208  2.5356
    2MPD2     C   19   2.179   1.596  10.834  0.4182 -0.0778 -0.0834
    2MPD2    C1   20   2.071   1.674  10.889 -0.2524 -0.2412  0.1068
    2MPD2    C2   21   2.035   1.789  10.819  0.1054  0.2645  0.1368
    2MPD2    C3   22   2.093   1.823  10.698  0.7067 -0.0745  0.4504
    2MPD2    C4   23   2.208   1.757  10.658 -0.2073 -0.2112  0.3439
    2MPD2    C5   24   2.250   1.647  10.726  1.1838 -0.5708 -0.0948
    2MPD2     H   25   1.952   1.846  10.859  1.3222  0.6143  2.1688
    2MPD2    H1   26   2.258   1.762  10.562  1.2227 -0.1945  1.0944
    2MPD2    H2   27   2.193   1.490  10.849  2.9882  0.2008 -0.4012
    2MPD2    H3   28   2.342   1.605  10.688  1.7350  1.6348 -1.1891
    2MPD2     N   29   2.041   1.923  10.607  0.6915 -0.0515  0.2998
    2MPD2    H5   30   2.100   1.956  10.532  0.6406  0.9195  0.6842
    2MPD2    N1   31   1.996   1.644  10.999 -0.8016 -0.3008 -0.4780
    2MPD2    H7   32   1.944   1.723  11.036 -0.8505 -0.6751  0.2758
    3TCq1    O1   33   1.135   2.231  10.915  0.9110  0.0284 -0.1717
    3TCq1    C1   34   1.234   2.311  10.881 -0.3994  0.2702 -0.0278
    3TCq1    O2   35   1.321   2.271  10.803 -0.2869 -0.0787  0.1742
    3TCq1    C2   36   1.187   2.450  10.887  0.8351  0.0287  0.7741
    3TCq1    C3   37   1.251   2.538  10.807 -0.3839 -0.1912  0.2668
    3TCq1    C4   38   1.254   2.674  10.836 -0.2151 -0.4994 -0.4220
    3TCq1    C5   39   1.198   2.721  10.955 -0.4977  0.0361  0.5450
    3TCq1    C6   40   1.135   2.629  11.032 -0.2924 -0.7331  0.9093
    3TCq1    C7   41   1.128   2.495  10.998 -0.2155  0.0183  0.3904
    3TCq1    C8   42   1.087   2.668  11.168  0.2324  0.3738 -0.1910
    3TCq1    O4   43   1.053   2.576  11.238  0.2202  0.1303 -0.3801
    3TCq1    C9   44   1.329   2.759  10.750  0.3268 -0.4813 -0.3451
    3TCq1    O5   45   1.342   2.724  10.632  0.4056 -0.1340 -0.0860
    3TCq1    O6   46   1.361   2.870  10.798  0.0682  0.2704  0.5967
    3TCq1    H1   47   1.074   2.272  10.980  1.3737 -1.0499  0.9189
    3TCq1    H2   48   1.306   2.507  10.719 -2.4351 -0.2868 -0.9835
    3TCq1    H3   49   1.213   2.825  10.981  1.5720 -0.1429  0.0850
    3TCq1    H4   50   1.070   2.429  11.062 -1.4576  0.6315 -0.1062
    4MPD2     C   51   0.888   3.013  11.490 -0.6075 -0.2159  0.0404
    4MPD2    C1   52   0.943   3.078  11.384 -0.4173 -0.4948 -0.1280
    4MPD2    C2   53   1.010   3.001  11.291  0.4698 -0.2307  0.6019
    4MPD2    C3   54   1.014   2.868  11.291 -0.7587 -0.1958  0.1816
    4MPD2    C4   55   0.964   2.804  11.400 -0.0653  0.2901  0.4742
    4MPD2    C5   56   0.909   2.872  11.505 -0.1847  0.1286  0.2638
    4MPD2     H   57   1.049   3.052  11.204 -0.3910 -1.9859 -0.8081
    4MPD2    H1   58   0.966   2.695  11.405  0.8130  0.3161  0.6317
    4MPD2    H2   59   0.838   3.065  11.571 -1.4063 -1.6453  0.4508
    4MPD2    H3   60   0.874   2.821  11.594 -0.8270 -1.4951 -0.9192
    4MPD2     N   61   1.069   2.804  11.176  0.3371  0.0850  0.0155
    4MPD2    H5   62   1.084   2.860  11.093 -1.7557 -0.0355 -0.4447
    4MPD2    N1   63   0.921   3.207  11.351  0.1920 -0.2222  0.1778
    4MPD2    H7   64   0.962   3.232  11.261 -1.7566  0.2375 -0.5654
    5TCq1    O1   65   2.522   4.669  11.728  0.2087  0.6084  0.6792
    5TCq1    C1   66   2.493   4.721  11.608  0.1390 -0.2363 -0.5006
    5TCq1    O2   67   2.384   0.044  11.571 -0.1316  0.2940  0.5865
    5TCq1    C2   68   2.591   4.662  11.516 -0.3599  0.3770  0.0272
    5TCq1    C3   69   2.720   4.635  11.556  0.0241  0.1932 -0.3343
    5TCq1    C4   70   2.790   4.538  11.499 -0.0905 -0.4928  0.0929
    5TCq1    C5   71   2.746   4.470  11.387 -0.0981  0.1273  0.3544
    5TCq1    C6   72   2.617   4.506  11.339  0.3615  0.2629  0.0901
    5TCq1    C7   73   2.538   4.594  11.416 -0.3284 -0.4733  0.0522
    5TCq1    C8   74   2.557   4.416  11.240 -0.1891 -0.1034  0.1948
    5TCq1    O4   75   2.631   4.334  11.187  0.0016 -0.0218 -0.1191
    5TCq1    C9   76   2.931   4.514  11.555  0.4315  0.1608  1.2380
    5TCq1    O5   77   2.966   4.572  11.663  0.5892 -0.0317  0.0566
    5TCq1    O6   78   2.989   4.417  11.496  0.3468 -0.6345 -0.7015
    5TCq1    H1   79   2.603   4.613  11.728 -0.2235 -0.0109  0.6150
    5TCq1    H2   80   2.769   4.698  11.629  0.0536 -0.2593  0.0377
    5TCq1    H3   81   2.811   4.402  11.335  0.5510  0.1159  1.1733
    5TCq1    H4   82   2.437   4.624  11.391 -0.5268 -1.0314  0.1841
    6MPD2     C   83   2.222   4.412  11.101  0.3379 -0.2584  0.5972
    6MPD2    C1   84   2.350   4.364  11.128  0.2989 -0.4785 -0.4665
    6MPD2    C2   85   2.374   4.234  11.087 -0.8920  0.4536  0.9165
    6MPD2    C3   86   2.285   4.155  11.016  0.2303 -0.2276  0.1921
    6MPD2    C4   87   2.159   4.205  10.995 -0.0350  0.4708  0.5790
    6MPD2    C5   88   2.126   4.330  11.055 -0.3832  0.3256 -0.5293
    6MPD2     H   89   2.476   4.200  11.096  0.1637  2.1611 -4.5134
    6MPD2    H1   90   2.082   4.148  10.945  0.7154 -3.4662  3.8571
    6MPD2    H2   91   2.196   4.508  11.145 -0.1130  1.1306 -2.6818
    6MPD2    H3   92   2.024   4.364  11.062 -0.5103  0.3682 -2.5618
    6MPD2     N   93   2.324   4.024  10.978 -0.3044  0.0003 -0.1648
    6MPD2    H5   94   2.423   4.003  10.991 -0.3436  1.2573  2.1773
    6MPD2    N1   95   2.428   4.444  11.208 -0.7857 -0.4574 -0.4971
    6MPD2    H7   96   2.386   4.531  11.238 -1.6617  0.1342 -3.4767
    7TCq1    O1   97   4.172   0.072  13.309 -0.6746  0.6704 -0.2947
    7TCq1    C1   98   4.243   0.075  13.194  0.3000 -0.0490  0.8143
    7TCq1    O2   99   4.233   0.160  13.107  0.0925 -0.2980 -0.3459
    7TCq1    C2  100   4.352   4.704  13.202  0.0287  0.0773 -0.0429
    7TCq1    C3  101   4.469   0.012  13.152 -0.1264 -0.6599 -0.7365
    7TCq1    C4  102   4.559   4.630  13.136  0.1666  0.3702 -0.6686
    7TCq1    C5  103   4.531   4.508  13.183 -0.2313  0.2777  0.4679
    7TCq1    C6  104   4.411   4.480  13.237 -0.3999  0.0662  0.0568
    7TCq1    C7  105   4.316   4.581  13.248 -0.2093  0.0971  0.9596
    7TCq1    C8  106   4.388   4.337  13.263 -0.7206 -0.1929  0.1457
    7TCq1    O4  107   4.486   4.269  13.279 -0.7335  0.0816 -0.1877
    7TCq1    C9  108   4.677   4.653  13.053  0.4467 -0.0323  0.6027
    7TCq1    O5  109   4.685   0.053  13.020  0.2622 -0.3515 -0.0673
    7TCq1    O6  110   0.031   4.556  13.023 -0.0779 -0.7403 -0.5640
    7TCq1    H1  111   4.210   0.025  13.386 -1.1175 -0.3667 -0.7066
    7TCq1    H2  112   4.490   0.114  13.122  1.0796 -0.6120  0.2394
    7TCq1    H3  113   4.596   4.428  13.149  2.0906  1.2717  2.6159
    7TCq1    H4  114   4.210   4.560  13.251 -0.0463 -0.5821  2.0533
    8MPD2     C  115   4.084   3.922  13.249  0.8528  0.5566  0.5400
    8MPD2    C1  116   4.217   3.930  13.228 -0.6288 -0.2835 -0.2168
    8MPD2    C2  117   4.283   4.050  13.233  0.2180 -0.9587  0.1481
    8MPD2    C3  118   4.207   4.167  13.259  0.2877  0.2397  0.2341
    8MPD2    C4  119   4.071   4.156  13.271 -0.4157  0.5454 -0.3668
    8MPD2    C5  120   4.009   4.033  13.264 -0.3640  0.1923  0.0869
    8MPD2     H  121   4.389   4.050  13.210 -0.1071 -1.7954 -1.2831
    8MPD2    H1  122   4.011   4.244  13.288  0.0403  0.9224 -0.7112
    8MPD2    H2  123   4.036   3.825  13.249 -0.1434  1.0465 -0.1857
    8MPD2    H3  124   3.903   4.023  13.286 -0.4925 -2.3521 -1.7224
    8MPD2     N  125   4.256   4.299  13.261  0.1988 -0.1439  0.2752
    8MPD2    H5  126   4.189   4.374  13.251  0.9732  0.4578 -0.4493
    8MPD2    N1  127   4.286   3.804  13.201  0.7093 -0.5699 -0.8646
    8MPD2    H7  128   4.226   3.722  13.204 -0.2559  0.1776  0.4728
    9TCq1    O1  129   2.810   2.275  10.622 -0.5711  0.1626  0.5347
    9TCq1    C1  130   2.767   2.397  10.650 -0.0224  0.0931 -0.3774
    9TCq1    O2  131   2.825   2.508  10.640 -0.4786  0.5001  0.5903
    9TCq1    C2  132   2.635   2.387  10.706 -0.2827  0.3493  0.2824
    9TCq1    C3  133   2.621   2.285  10.799 -0.1742  0.0004  0.1699
    9TCq1    C4  134   2.497   2.272  10.861 -0.0748  0.0879 -0.0118
    9TCq1    C5  135   2.401   2.369  10.851  0.2159 -0.2262  0.0393
    9TCq1    C6  136   2.445   2.486  10.788  0.0716 -0.5457  0.7338
    9TCq1    C7  137   2.551   2.493  10.706  0.2569 -0.4308 -0.0863
    9TCq1    C8  138   2.365   2.608  10.800  0.5275 -0.4676 -0.0771
    9TCq1    O4  139   2.399   2.711  10.737 -0.0350  0.2537  0.4842
    9TCq1    C9  140   2.468   2.166  10.948 -0.0483  0.7215  0.2832
    9TCq1    O5  141   2.564   2.090  10.966  0.3272 -0.1360  0.7919
    9TCq1    O6  142   2.359   2.170  11.014 -0.0674  0.4060  0.0175
    9TCq1    H1  143   2.734   2.212  10.621 -0.3727 -0.1157  1.9128
    9TCq1    H2  144   2.693   2.205  10.813  1.2964  1.0394 -1.3995
    9TCq1    H3  145   2.314   2.352  10.912 -2.2091  1.8694 -2.8378
    9TCq1    H4  146   2.576   2.587  10.659 -0.7667 -0.0220  0.1803
   10MPD2     C  147   2.186   2.837  10.870  0.1764 -0.5114  0.7138
   10MPD2    C1  148   2.170   2.708  10.921  0.5080  1.3608 -0.2766
   10MPD2    C2  149   2.073   2.684  11.011 -0.0786  0.5919 -0.7634
   10MPD2    C3  150   1.982   2.785  11.051 -0.3804  0.4983  0.1758
   10MPD2    C4  151   2.002   2.918  11.012  0.1359  0.1180  0.3932
   10MPD2    C5  152   2.102   2.939  10.918  0.0850 -1.2672 -0.5324
   10MPD2     H  153   2.069   2.588  11.063 -1.3972 -0.6190 -3.1119
   10MPD2    H1  154   1.940   2.998  11.051 -0.4131  0.7566 -1.7973
   10MPD2    H2  155   2.248   2.870  10.787 -2.1238 -0.0751 -0.8369
   10MPD2    H3  156   2.133   3.038  10.888  2.2939 -0.9890  2.6544
   10MPD2     N  157   1.885   2.772  11.156 -0.7147  0.1668 -0.5865
   10MPD2    H5  158   1.835   2.850  11.197 -1.0888 -0.4221  0.0815
   10MPD2    N1  159   2.259   2.596  10.895 -0.3704  0.0979 -0.8009
   10MPD2    H7  160   2.253   2.510  10.949 -0.2279  1.6485  1.6537
   11TCq1    O1  161   2.851   3.211  14.051  0.1645  0.6773 -0.0542
   11TCq1    C1  162   2.745   3.161  13.986  0.7038 -0.4644  0.4111
   11TCq1    O2  163   2.726   3.192  13.867  0.5235  0.0810  0.2594
   11TCq1    C2  164   2.704   3.024  14.042 -1.0839  0.7145 -0.2424
   11TCq1    C3  165   2.741   2.992  14.166 -0.3838 -0.0128  0.5198
   11TCq1    C4  166   2.681   2.883  14.220  0.1995  0.4847 -0.8081
   11TCq1    C5  167   2.587   2.815  14.156  0.2590  0.6787 -0.0013
   11TCq1    C6  168   2.549   2.850  14.030  0.2638  0.0604  1.0730
   11TCq1    C7  169   2.607   2.957  13.971 -0.3278 -0.0081 -0.1257
   11TCq1    C8  170   2.427   2.788  13.983  0.2637  0.0012 -0.0905
   11TCq1    O4  171   2.407   2.671  14.020  0.5126 -0.3404  0.0111
   11TCq1    C9  172   2.713   2.848  14.359  0.3344 -0.1891 -0.1444
   11TCq1    O5  173   2.676   2.740  14.415  0.4169 -0.5881  0.2321
   11TCq1    O6  174   2.783   2.933  14.416  0.9099  0.0974 -0.0852
   11TCq1    H1  175   2.877   3.165  14.134  0.4800  2.9612  1.0918
   11TCq1    H2  176   2.817   3.039  14.227 -0.2465  0.0832  0.2763
   11TCq1    H3  177   2.541   2.732  14.208  0.2027  0.8397  0.2075
   11TCq1    H4  178   2.580   2.989  13.871 -1.3843  0.0933  0.1936
   12MPD2     C  179   2.158   2.906  13.780  0.2301 -0.7214  0.9505
   12MPD2    C1  180   2.240   2.815  13.829  0.3226  0.2397 -0.5783
   12MPD2    C2  181   2.227   2.686  13.801  0.2423  0.6552 -0.8052
   12MPD2    C3  182   2.137   2.638  13.715 -0.2287  0.1403  0.5972
   12MPD2    C4  183   2.054   2.732  13.662 -0.9256  0.4186 -0.1997
   12MPD2    C5  184   2.054   2.860  13.704 -0.0582  0.0958 -0.3862
   12MPD2     H  185   2.292   2.613  13.848 -2.4433 -0.1327  1.6752
   12MPD2    H1  186   1.981   2.712  13.583  0.1345 -1.3871 -0.7391
   12MPD2    H2  187   2.153   3.011  13.804 -2.9859 -0.8793  1.0061
   12MPD2    H3  188   1.987   2.937  13.668  0.4087 -0.5873 -2.6833
   12MPD2     N  189   2.144   2.506  13.677 -0.0619 -0.5026  0.6040
   12MPD2    H5  190   2.206   2.446  13.730  0.4648 -0.6166 -0.1462
   12MPD2    N1  191   2.350   2.863  13.899  0.1809 -0.6257  0.0583
   12MPD2    H7  192   2.365   2.962  13.883 -0.6168 -0.6393 -0.7933
   13TCq1    O1  193   1.734   2.194   9.940  0.3838 -0.4952  0.8382
   13TCq1    C1  194   1.645   2.233  10.032  0.1186 -0.1294  0.7392
   13TCq1    O2  195   1.680   2.310  10.121 -0.5474 -0.6481 -0.0476
   13TCq1    C2  196   1.564   2.119  10.064  0.3806 -0.1983  0.4197
   13TCq1    C3  197   1.492   2.062   9.960 -0.0404  0.1958 -0.1075
   13TCq1    C4  198   1.401   1.969   9.989 -0.3642 -0.4062  0.3945
   13TCq1    C5  199   1.370   1.943  10.120  0.4777  0.2042  0.0313
   13TCq1    C6  200   1.430   2.010  10.228 -0.5151 -0.3933  0.1310
   13TCq1    C7  201   1.531   2.100  10.191 -0.3198 -0.0622  0.5909
   13TCq1    C8  202   1.401   1.986  10.365 -0.6365 -0.0063 -0.5230
   13TCq1    O4  203   1.438   2.074  10.448  0.0900  0.6384 -0.0007
   13TCq1    C9  204   1.341   1.893   9.889  0.3535 -0.1820 -0.4724
   13TCq1    O5  205   1.235   1.832   9.924  0.0647  0.1450  0.0910
   13TCq1    O6  206   1.381   1.907   9.770 -0.7002 -0.4802 -0.6353
   13TCq1    H1  207   1.719   2.117   9.881 -0.0165 -0.5969  1.0729
   13TCq1    H2  208   1.515   2.084   9.856  0.8741 -0.2836  0.0010
   13TCq1    H3  209   1.305   1.861  10.147  2.9287 -0.7737  3.0264
   13TCq1    H4  210   1.587   2.152  10.268  0.4908 -2.3823  1.5697
   14MPD2     C  211   1.227   1.696  10.528 -0.8841  0.2732  0.1331
   14MPD2    C1  212   1.293   1.814  10.525  0.2187  0.2652 -0.4406
   14MPD2    C2  213   1.312   1.878  10.646 -0.6072 -0.0018  0.4436
   14MPD2    C3  214   1.267   1.836  10.768 -0.7984  0.0362 -0.0110
   14MPD2    C4  215   1.205   1.715  10.769 -0.3233 -0.1747 -0.2139
   14MPD2    C5  216   1.187   1.647  10.650 -0.2543 -0.1089  0.3734
   14MPD2     H  217   1.349   1.980  10.647  0.6655 -0.4561 -0.4832
   14MPD2    H1  218   1.162   1.658  10.851 -0.9011 -0.3780 -0.6656
   14MPD2    H2  219   1.206   1.636  10.441 -1.5534 -0.6820  0.9604
   14MPD2    H3  220   1.149   1.546  10.659  1.0699 -0.6207  0.3188
   14MPD2     N  221   1.289   1.909  10.889 -0.4024  0.0996 -0.1434
   14MPD2    H5  222   1.356   1.984  10.873 -1.4266  1.0393 -0.0542
   14MPD2    N1  223   1.342   1.864  10.394  0.3205  0.6537  0.3187
   14MPD2    H7  224   1.323   1.805  10.314  0.2415 -1.0491  1.5635
   15TCq1    O1  225   2.940   2.174   1.273  0.1311  0.0935 -0.3526
   15TCq1    C1  226   2.939   2.138   1.406  0.3149  0.1078 -0.3779
   15TCq1    O2  227   2.856   2.173   1.486 -0.0982  0.5534 -0.1993
   15TCq1    C2  228   3.019   2.025   1.428  0.6496 -0.1834 -0.0768
   15TCq1    C3  229   2.987   1.948   1.535 -0.0027 -0.5697 -0.4533
   15TCq1    C4  230   3.057   1.838   1.555  0.8789 -0.0421 -0.1944
   15TCq1    C5  231   3.156   1.800   1.477  0.3856  0.3234 -0.0350
   15TCq1    C6  232   3.201   1.882   1.369  0.3505  0.2938 -0.3780
   15TCq1    C7  233   3.118   1.991   1.340 -0.2489 -0.6339 -0.1448
   15TCq1    C8  234   3.276   1.824   1.263 -1.0175  0.1460  0.7842
   15TCq1    O4  235   3.298   1.701   1.268 -0.5280  0.5594  0.5482
   15TCq1    C9  236   3.002   1.742   1.649 -0.4668  0.4080 -0.3496
   15TCq1    O5  237   2.897   1.778   1.716 -0.2051 -0.4080  0.2009
   15TCq1    O6  238   3.076   1.647   1.682 -0.1769  0.5277  0.0700
   15TCq1    H1  239   2.993   2.117   1.214 -0.0365 -1.6971  1.2070
   15TCq1    H2  240   2.906   1.970   1.603  0.3196 -0.6519 -0.0438
   15TCq1    H3  241   3.200   1.702   1.497 -0.0688 -0.0582 -0.8835
   15TCq1    H4  242   3.146   2.059   1.260 -0.1546 -1.2044 -0.5957
   16MPD2     C  243   3.519   1.992   1.052 -0.3233  0.1256 -0.3952
   16MPD2    C1  244   3.434   1.891   1.084  0.0799  0.1551 -0.4576
   16MPD2    C2  245   3.457   1.765   1.031  0.3052  0.0631 -0.6650
   16MPD2    C3  246   3.564   1.750   0.946 -0.4117 -0.0437 -0.0733
   16MPD2    C4  247   3.647   1.850   0.921  0.0472  0.4137 -0.4686
   16MPD2    C5  248   3.631   1.976   0.975  0.0326 -0.1696 -0.0768
   16MPD2     H  249   3.396   1.678   1.050  0.7472 -0.5810 -2.1852
   16MPD2    H1  250   3.743   1.839   0.873  0.0954 -0.9399 -0.0596
   16MPD2    H2  251   3.508   2.078   1.117 -0.0766  1.1003 -1.6470
   16MPD2    H3  252   3.698   2.059   0.952  1.5899 -1.6928 -1.0059
   16MPD2     N  253   3.601   1.619   0.901  0.6237 -0.2035 -0.0979
   16MPD2    H5  254   3.553   1.539   0.941 -0.0478  0.8607  1.2470
   16MPD2    N1  255   3.346   1.919   1.191  0.5031 -0.8876 -0.1827
   16MPD2    H7  256   3.345   2.015   1.224 -0.1605 -1.5052  1.5747
   17TCq1    O1  257   1.368   1.574  11.124  0.2093 -0.0156  0.0508
   17TCq1    C1  258   1.493   1.588  11.159 -0.5341  0.7349  0.3947
   17TCq1    O2  259   1.534   1.630  11.264  0.2289 -0.4466  0.3865
   17TCq1    C2  260   1.583   1.534  11.059  0.2938 -0.0570 -0.0602
   17TCq1    C3  261   1.654   1.419  11.074  0.2299  0.5709  0.1487
   17TCq1    C4  262   1.744   1.381  10.982  0.2235 -0.2465  0.7343
   17TCq1    C5  263   1.746   1.450  10.864 -0.1171  0.7301 -0.2925
   17TCq1    C6  264   1.675   1.568  10.855 -0.2394 -0.5495  0.5640
   17TCq1    C7  265   1.591   1.617  10.946  0.1268 -0.1266 -0.0212
   17TCq1    C8  266   1.691   1.655  10.735 -0.0029 -0.5548 -0.6018
   17TCq1    O4  267   1.611   1.749  10.727  0.2838 -0.0794  0.1083
   17TCq1    C9  268   1.810   1.252  10.991  0.0357 -0.4144  0.1213
   17TCq1    O5  269   1.874   1.213  10.888  0.5332 -0.2454 -0.3407
   17TCq1    O6  270   1.814   1.196  11.101  0.2660 -0.7955 -0.7870
   17TCq1    H1  271   1.357   1.524  11.041  0.3442 -0.1790  0.1319
   17TCq1    H2  272   1.652   1.358  11.164  0.2451  0.5952  0.1655
   17TCq1    H3  273   1.803   1.412  10.780 -1.7826  0.2829 -1.2441
   17TCq1    H4  274   1.525   1.702  10.931  0.3652  0.0985  0.1943
   18MPD2     C  275   1.724   1.763  10.457  0.2301  0.1617 -0.0059
   18MPD2    C1  276   1.796   1.666  10.513  0.1241  0.4263  0.8645
   18MPD2    C2  277   1.904   1.616  10.450 -0.0375  0.6584 -1.0038
   18MPD2    C3  278   1.940   1.655  10.324 -0.3353 -0.1611 -0.0311
   18MPD2    C4  279   1.858   1.750  10.262  0.1073 -0.1782  0.1981
   18MPD2    C5  280   1.752   1.801  10.331  0.0314  0.2557 -0.4625
   18MPD2     H  281   1.961   1.539  10.501 -1.6558 -1.3336 -2.2162
   18MPD2    H1  282   1.877   1.787  10.162 -0.1933 -1.4708 -0.3488
   18MPD2    H2  283   1.646   1.821  10.506 -1.3894 -2.6139  0.7191
   18MPD2    H3  284   1.694   1.878  10.282 -0.7258 -0.2628 -0.3766
   18MPD2     N  285   2.052   1.620  10.253  0.3188  0.2819 -0.1686
   18MPD2    H5  286   2.058   1.654  10.158  0.6719  3.5646  0.9972
   18MPD2    N1  287   1.780   1.614  10.643  0.2201  0.2989 -0.4784
   18MPD2    H7  288   1.838   1.533  10.662  0.8086  1.1092  1.1541
   19TMC2    C1  289   3.600   2.787  14.076  0.0752  0.7512  0.2492
   19TMC2    C2  290   3.545   2.911  14.047 -0.3826 -0.1201  0.1404
   19TMC2    C3  291   3.429   2.924  13.981  0.5189 -0.5739 -0.5928
   19TMC2    C4  292   3.541   2.672  14.044 -0.1376 -0.1111 -0.0954
   19TMC2    C5  293   3.418   2.689  13.983 -0.3628  0.2256 -0.3536
   19TMC2    C6  294   3.371   2.809  13.941  0.2603  0.0761 -0.0488
   19TMC2     C  295   3.744   2.787  14.092 -0.2631 -0.0595  0.1355
   19TMC2     O  296   3.789   2.898  14.073 -0.6109 -0.1089  0.2057
   19TMC2     H  297   3.592   3.003  14.079 -0.1310 -0.3943  0.5511
   19TMC2    H1  298   3.582   2.574  14.063 -0.5677 -0.1039  0.8480
   19TMC2    H2  299   3.283   2.818  13.880  0.6293 -1.9684 -0.8717
   19TMC2    C7  300   3.342   2.565  13.953  0.1523  0.3284  0.0951
   19TMC2    C8  301   3.404   3.054  13.915  0.5930 -0.6868  0.4690
   19TMC2    O1  302   3.354   2.468  14.025  0.3288 -0.2691 -0.3528
   19TMC2    O2  303   3.455   3.151  13.967 -0.1926 -0.0020 -0.3020
   19TMC2    O5  304   3.322   3.052  13.810 -0.6046  0.0597 -0.3477
   19TMC2    H5  305   3.297   2.959  13.795  1.0701 -1.0922  4.0300
   20MPD2     C  306   4.038   2.751  14.071  0.3772 -0.0711 -0.3142
   20MPD2    C1  307   3.952   2.664  14.142  0.4201 -0.4244  0.0585
   20MPD2    C2  308   4.011   2.561  14.221  0.6040 -0.1180 -0.8672
   20MPD2    C3  309   4.144   2.545  14.220  0.3485 -0.3693  0.2694
   20MPD2    C4  310   4.224   2.637  14.161  0.3587  0.2537 -0.4459
   20MPD2    C5  311   4.173   2.726  14.069  0.6499  0.4442  0.2955
   20MPD2     H  312   3.943   2.498  14.276 -0.6966  1.7741 -0.3035
   20MPD2    H1  313   4.331   2.623  14.166  0.4154  0.9038  0.1419
   20MPD2    H2  314   3.990   2.825  14.009  0.5808 -0.0157 -0.4062
   20MPD2    H3  315   4.243   2.781  14.007  0.1064 -0.4742 -1.1455
   20MPD2     N  316   4.203   2.429  14.275  0.1713  0.5753 -0.2418
   20MPD2    H5  317   4.304   2.434  14.278  0.2871 -1.5323 -0.8846
   20MPD2    N1  318   3.809   2.671  14.134  0.1312  0.2792 -0.5856
   20MPD2    H7  319   3.750   2.603  14.181  0.8921 -1.7658 -2.6063
   21MPD2     C  320   1.041   2.857  13.945 -0.1383 -0.1031  0.1723
   21MPD2    C1  321   1.160   2.807  13.984 -0.1487  0.0843 -0.4393
   21MPD2    C2  322   1.200   2.812  14.118  0.1046  0.1196  0.4112
   21MPD2    C3  323   1.106   2.859  14.209 -0.2774 -0.1302 -0.2043
   21MPD2    C4  324   0.982   2.902  14.168  0.9672 -0.3233 -0.8166
   21MPD2    C5  325   0.954   2.899  14.040 -0.2310 -0.2420 -0.9516
   21MPD2     H  326   1.299   2.775  14.140 -0.5718 -0.9620  1.6692
   21MPD2    H1  327   0.911   2.937  14.242  3.2905 -2.5767  2.4402
   21MPD2    H2  328   1.009   2.874  13.843  0.0595 -0.1438  0.1034
   21MPD2    H3  329   0.857   2.942  14.017  1.4479  4.8465  1.6330
   21MPD2     N  330   1.121   2.852  14.347  0.0756  0.3092 -0.2293
   21MPD2    H5  331   1.048   2.893  14.403  0.3669  1.2913 -0.5661
   21MPD2    N1  332   1.256   2.767  13.896 -0.0503  0.1421  0.0349
   21MPD2    H7  333   1.347   2.741  13.932  0.4734  0.0960 -1.3113
   22TCq2    C1  334   1.216   2.776  14.405  0.0588  0.9560  0.3672
   22TCq2    O2  335   1.296   2.700  14.349  0.3431  0.2728 -0.3077
   22TCq2    C2  336   1.249   2.813  14.546  0.0686 -0.0450  0.0129
   22TCq2    C3  337   1.334   2.738  14.622  0.4150  0.1216 -0.1029
   22TCq2    C4  338   1.347   2.750  14.755  0.1458  0.0638  0.1848
   22TCq2    C5  339   1.276   2.842  14.818  0.0500  0.4034 -0.1790
   22TCq2    C6  340   1.201   2.927  14.743 -0.0091 -0.2659 -0.2047
   22TCq2    C7  341   1.187   2.920  14.606  0.6583  0.0056 -0.2502
   22TCq2    C8  342   1.117   3.020  14.816  0.1933 -0.2077 -0.0054
   22TCq2    O4  343   1.165   3.046  14.926  0.6311 -0.1869  0.0315
   22TCq2    C9  344   1.435   2.659  14.825 -0.3895  0.2769  0.0387
   22TCq2    O5  345   1.437   2.665  14.949  0.4764  0.1394 -0.6050
   22TCq2    O6  346   1.514   2.594  14.749 -0.2947  0.3551  0.0735
   22TCq2    H2  347   1.389   2.661  14.569  0.8166 -1.1786  2.2235
   22TCq2    H3  348   1.280   2.860  14.924 -1.6079 -0.7364  0.0847
   22TCq2    H4  349   1.132   2.990  14.545 -1.9377  0.0700  2.1848
   23MPD2     C  350   3.061   3.672  14.969 -0.0658 -0.3485  0.3927
   23MPD2    C1  351   2.940   3.700  15.024  0.6364 -0.4122  0.2992
   23MPD2    C2  352   2.832   3.729  14.946 -0.7544  0.1273 -0.5409
   23MPD2    C3  353   2.847   3.742  14.808  0.0866  0.9245 -0.0339
   23MPD2    C4  354   2.973   3.736  14.751  0.1197 -0.8679 -0.1015
   23MPD2    C5  355   3.072   3.691  14.831 -0.2893  0.5717  0.2484
   23MPD2     H  356   2.741   3.752  15.001 -1.1061 -1.8093 -0.3126
   23MPD2    H1  357   2.986   3.746  14.644 -0.2154  0.3121 -0.0327
   23MPD2    H2  358   3.138   3.622  15.025  1.1297  0.3493 -0.6355
   23MPD2    H3  359   3.161   3.662  14.777 -0.1505  0.6721  0.4248
   23MPD2     N  360   2.741   3.793  14.733 -0.8402 -0.2745 -0.0232
   23MPD2    H5  361   2.661   3.823  14.788  0.4346  0.0567  1.6300
   23MPD2    N1  362   2.918   3.698  15.163 -0.3428 -0.6352  0.2438
   23MPD2    H7  363   2.825   3.700  15.203 -0.6103 -0.0705 -0.4022
   24TCq2    C1  364   2.724   3.779  14.601  0.5099  0.2889 -0.6553
   24TCq2    O2  365   2.782   3.714  14.517  0.9870 -0.0151 -0.4334
   24TCq2    C2  366   2.601   3.837  14.549  0.1764 -0.5439 -0.4242
   24TCq2    C3  367   2.539   3.946  14.608 -0.2066 -0.6697 -0.6582
   24TCq2    C4  368   2.418   3.982  14.553  0.7972 -0.3147 -0.8294
   24TCq2    C5  369   2.369   3.924  14.440 -0.7389  0.0352  0.8460
   24TCq2    C6  370   2.441   3.827  14.371 -0.1008  0.5410 -0.0609
   24TCq2    C7  371   2.555   3.777  14.432 -0.2674 -0.1179 -0.5212
   24TCq2    C8  372   2.369   3.735  14.289  0.7802 -0.3394 -0.6568
   24TCq2    O4  373   2.425   3.663  14.206 -0.3087  0.8180 -0.5678
   24TCq2    C9  374   2.358   4.110  14.594 -0.3737  0.1957  0.2316
   24TCq2    O5  375   2.242   4.123  14.561 -0.0279  0.1932  0.1734
   24TCq2    O6  376   2.429   4.195  14.654 -0.1191  0.5617 -0.0969
   24TCq2    H2  377   2.586   3.995  14.692 -1.5010  2.5151 -1.7794
   24TCq2    H3  378   2.283   3.967  14.391  0.6403  1.0707 -0.6893
   24TCq2    H4  379   2.602   3.694  14.381 -0.0364 -2.5859  3.7397
   25TMC2    C1  380   1.253   1.332  11.406  0.5319  0.2665  0.0848
   25TMC2    C2  381   1.325   1.441  11.436 -0.5882  0.0272  0.2060
   25TMC2    C3  382   1.278   1.533  11.523 -0.3955 -0.5999 -0.0860
   25TMC2    C4  383   1.133   1.307  11.460  0.4671 -0.1086  0.1414
   25TMC2    C5  384   1.094   1.401  11.558 -0.0998  0.0110  0.3867
   25TMC2    C6  385   1.151   1.526  11.583  0.2648 -0.5875 -0.1021
   25TMC2     C  386   1.318   1.232  11.321 -0.2057 -0.8615 -0.7910
   25TMC2     O  387   1.434   1.247  11.290  0.2665  0.9258  0.3064
   25TMC2     H  388   1.421   1.450  11.387  0.9664  0.3241  3.3076
   25TMC2    H1  389   1.077   1.215  11.454  2.1409 -1.1488  0.5344
   25TMC2    H2  390   1.115   1.596  11.658 -0.0470 -0.8266 -0.0307
   25TMC2    C7  391   0.979   1.360  11.642  1.3394  0.0048  0.3267
   25TMC2    C8  392   1.371   1.616  11.600 -0.6696  0.8818  0.3044
   25TMC2    O1  393   0.977   1.243  11.675  0.3103 -0.1965  0.4278
   25TMC2    O2  394   1.366   1.635  11.717 -0.1344  0.6110  0.1714
   25TMC2    O5  395   1.474   1.650  11.525  0.4038 -0.3146  0.3597
   25TMC2    H5  396   1.453   1.640  11.430  1.1076 -3.0312  0.4750
   26MPD2     C  397   1.267   0.873  10.955 -0.1338  0.8627 -0.1663
   26MPD2    C1  398   1.154   0.855  11.031  0.1338 -0.8060  0.6928
   26MPD2    C2  399   1.148   0.942  11.141  0.6008 -0.3174  0.8168
   26MPD2    C3  400   1.238   1.047  11.162  0.9812  0.6703  0.0450
   26MPD2    C4  401   1.337   1.064  11.074  0.6531  0.6279 -0.0995
   26MPD2    C5  402   1.353   0.972  10.978 -0.1542  0.3188  0.9987
   26MPD2     H  403   1.059   0.934  11.202  0.0716 -0.8793 -0.0260
   26MPD2    H1  404   1.405   1.148  11.083 -0.0963  1.3107 -0.8391
   26MPD2    H2  405   1.278   0.820  10.861  1.3302  3.6921 -1.6023
   26MPD2    H3  406   1.435   0.979  10.908 -1.7461  2.0809 -0.6942
   26MPD2     N  407   1.228   1.136  11.272  0.5684 -0.4263  0.7769
   26MPD2    H5  408   1.146   1.121  11.330  0.0241 -1.2130 -0.1801
   26MPD2    N1  409   1.061   0.760  10.993  0.0495 -0.6405 -0.1711
   26MPD2    H7  410   1.076   0.707  10.907 -1.7530 -3.1083  1.0142
   27TMC2    C1  411   0.355   3.594  12.059  0.2676 -0.2084 -0.1619
   27TMC2    C2  412   0.248   3.678  12.086  0.0418  0.2542 -0.0495
   27TMC2    C3  413   0.273   3.807  12.104  0.3640  0.4379  0.2450
   27TMC2    C4  414   0.482   3.636  12.048  0.3626  0.6471 -0.0588
   27TMC2    C5  415   0.502   3.771  12.066  0.2646  0.0595 -0.2573
   27TMC2    C6  416   0.395   3.859  12.080  0.5831  0.1376  0.0595
   27TMC2     C  417   0.349   3.452  12.096  0.4453 -0.4720 -0.5112
   27TMC2     O  418   0.453   3.394  12.099 -0.6197  0.0110 -0.4697
   27TMC2     H  419   0.146   3.651  12.111  1.1970 -3.1114  1.0430
   27TMC2    H1  420   0.560   3.573  12.007  0.9437  1.7939 -0.7330
   27TMC2    H2  421   0.414   3.965  12.084 -1.4366  0.5325 -0.7764
   27TMC2    C7  422   0.630   3.830  12.021  0.7177 -0.6390 -0.5789
   27TMC2    C8  423   0.149   3.893  12.099  0.5183  0.3572  0.1234
   27TMC2    O1  424   0.623   3.926  11.950  0.3956  0.1731 -0.4672
   27TMC2    O2  425   0.049   3.868  12.032 -0.2799 -0.0207 -0.2617
   27TMC2    O5  426   0.180   4.006  12.162 -0.6195 -0.5505  0.3941
   27TMC2    H5  427   0.255   3.994  12.224 -0.0699 -3.1663 -0.7569
   28MPD2     C  428   0.137   3.082  12.379 -0.1178  0.0330  0.0964
   28MPD2    C1  429   0.045   3.182  12.368 -0.1856 -0.4067  0.1556
   28MPD2    C2  430   0.081   3.297  12.288 -0.2706  0.3189  0.4108
   28MPD2    C3  431   0.202   3.311  12.231 -0.2637  0.0929  0.1813
   28MPD2    C4  432   0.289   3.205  12.250 -0.0588 -0.4112 -0.1349
   28MPD2    C5  433   0.261   3.086  12.312  0.0571  0.1575 -0.3906
   28MPD2     H  434   0.009   3.378  12.281 -1.7792 -0.7501  3.5150
   28MPD2    H1  435   0.392   3.221  12.218 -1.1954  3.3786 -1.8227
   28MPD2    H2  436   0.102   2.990  12.424 -0.9548 -0.6378 -1.9318
   28MPD2    H3  437   0.338   3.011  12.323 -0.3724 -0.4714 -1.6146
   28MPD2     N  438   0.237   3.433  12.167 -0.0654  0.3485  0.3383
   28MPD2    H5  439   0.173   3.512  12.169  1.0735  1.2910 -1.1073
   28MPD2    N1  440   4.647   3.170  12.429 -0.3535  0.1532 -0.8158
   28MPD2    H7  441   4.633   3.099  12.500 -1.1518  1.3843  0.2524
   29MPD2     C  442   4.434   0.945  14.074  0.4017 -0.3756 -0.0278
   29MPD2    C1  443   4.552   0.904  14.126 -0.3262  0.0229 -0.3852
   29MPD2    C2  444   4.645   0.996  14.167 -0.1724 -0.3072  0.4111
   29MPD2    C3  445   4.623   1.129  14.150 -0.0667 -0.1566  0.0644
   29MPD2    C4  446   4.501   1.169  14.106 -0.3294 -0.2149  0.1791
   29MPD2    C5  447   4.409   1.079  14.065  0.2633  0.1537 -0.0009
   29MPD2     H  448   0.012   0.960  14.218 -0.1888  0.7375  1.1744
   29MPD2    H1  449   4.478   1.274  14.108  0.0952 -0.1115 -0.1974
   29MPD2    H2  450   4.351   0.878  14.058  0.6262 -0.5035 -0.6842
   29MPD2    H3  451   4.319   1.106  14.011 -0.0142 -0.3031  0.2418
   29MPD2     N  452   4.717   1.236  14.172 -0.2782 -0.2375 -0.2603
   29MPD2    H5  453   4.677   1.328  14.161 -0.8079 -0.4434 -0.0775
   29MPD2    N1  454   4.575   0.769  14.155  0.5892  0.1827  0.2788
   29MPD2    H7  455   4.645   0.754  14.226  2.0513  3.1002 -0.5265
   30TCq2    C1  456   0.132   1.234  14.197 -0.2272  0.6585 -0.7784
   30TCq2    O2  457   0.203   1.137  14.183 -0.2641 -0.2199 -0.1518
   30TCq2    C2  458   0.193   1.372  14.185  0.1016  0.2623  0.0239
   30TCq2    C3  459   0.322   1.382  14.145  1.1199  0.4649  0.3268
   30TCq2    C4  460   0.365   1.507  14.094 -0.2134  0.3192  0.4358
   30TCq2    C5  461   0.277   1.615  14.097  1.4294 -0.0482  0.0316
   30TCq2    C6  462   0.156   1.599  14.159 -0.4313  0.0447 -0.2806
   30TCq2    C7  463   0.107   1.478  14.187 -0.3145  0.8192 -0.4958
   30TCq2    C8  464   0.070   1.713  14.173  0.0811  0.5590  0.0767
   30TCq2    O4  465   4.671   1.694  14.182 -0.3954  0.6715  0.1556
   30TCq2    C9  466   0.488   1.527  14.022 -1.4320  0.5632 -0.7014
   30TCq2    O5  467   0.589   1.460  14.067  0.3929 -0.2980  0.6582
   30TCq2    O6  468   0.505   1.636  13.959  0.7177 -0.6707  0.4162
   30TCq2    H2  469   0.379   1.291  14.131 -0.3523 -0.7667  2.2562
   30TCq2    H3  470   0.313   1.711  14.062 -1.3286 -0.0712 -2.8350
   30TCq2    H4  471   0.005   1.479  14.222  0.6555  2.9249  2.2655
   31MPD2     C  472   2.725   0.067  14.553  0.2606 -0.2773 -0.4592
   31MPD2    C1  473   2.593   0.094  14.580  0.1907 -0.2238  0.7859
   31MPD2    C2  474   2.522   0.036  14.689 -0.2008  0.5440  0.6253
   31MPD2    C3  475   2.593   4.667  14.771  0.8114  0.1733 -0.7868
   31MPD2    C4  476   2.725   4.636  14.740  0.1050 -0.4007  0.5798
   31MPD2    C5  477   2.785   4.690  14.630  0.6661 -1.0232 -0.8586
   31MPD2     H  478   2.419   0.063  14.708 -0.7257 -0.2297 -1.1065
   31MPD2    H1  479   2.776   4.563  14.801  0.7637 -1.2014 -0.9150
   31MPD2    H2  480   2.779   0.102  14.466  0.7988  1.8288  0.7204
   31MPD2    H3  481   2.888   4.664  14.609  0.1209 -1.5477 -2.9536
   31MPD2     N  482   2.534   4.605  14.879 -0.1872  0.2469  0.1342
   31MPD2    H5  483   2.596   4.550  14.936  0.8829 -2.5975 -3.7640
   31MPD2    N1  484   2.524   0.171  14.487 -0.2625  0.3537 -0.2906
   31MPD2    H7  485   2.581   0.208  14.411 -2.1318  1.2467 -1.2642
   32TCq2    C1  486   2.398   4.578  14.901  0.0559 -0.1103 -0.3273
   32TCq2    O2  487   2.309   4.615  14.828  0.2062  0.4674  0.1576
   32TCq2    C2  488   2.375   4.490  15.014 -0.6962 -0.4055 -0.9128
   32TCq2    C3  489   2.250   4.432  15.015 -0.1024 -0.8132  0.4020
   32TCq2    C4  490   2.228   4.320  15.092  0.2134 -0.2032  0.1666
   32TCq2    C5  491   2.329   4.274  15.169  0.0045 -1.0133 -0.0284
   32TCq2    C6  492   2.448   4.333  15.170 -0.7311 -0.4855  0.6385
   32TCq2    C7  493   2.474   4.448  15.092 -0.0784 -0.2845 -0.0308
   32TCq2    C8  494   2.551   4.277  15.261 -0.9421 -0.1755  0.1818
   32TCq2    O4  495   2.511   4.197  15.340 -0.3358  0.3309 -0.2442
   32TCq2    C9  496   2.102   4.246  15.094 -0.4715  0.0334 -0.3074
   32TCq2    O5  497   2.109   4.125  15.121  0.4220  0.0597  0.9585
   32TCq2    O6  498   2.000   4.317  15.066  0.7656 -0.0032 -0.1578
   32TCq2    H2  499   2.171   4.462  14.948  1.1083  0.6402 -0.3716
   32TCq2    H3  500   2.321   4.185  15.230  0.2111 -1.7127 -1.0168
   32TCq2    H4  501   2.552   4.520  15.113 -2.1933  1.1847  2.7687
   33MPD2     C  502   1.986   1.499   9.662  0.5980  0.1983 -0.4384
   33MPD2    C1  503   2.110   1.558   9.673 -0.4119  0.4592 -0.1106
   33MPD2    C2  504   2.157   1.647   9.581 -0.3011  0.0248 -0.0435
   33MPD2    C3  505   2.074   1.669   9.475 -0.1241 -0.8148  0.1198
   33MPD2    C4  506   1.952   1.601   9.454  1.0064  0.4656 -0.0088
   33MPD2    C5  507   1.908   1.517   9.553 -0.7541 -0.7292  0.0780
   33MPD2     H  508   2.250   1.701   9.597 -0.4661 -0.3413  2.2596
   33MPD2    H1  509   1.892   1.623   9.367 -0.0405  1.1402  0.8826
   33MPD2    H2  510   1.967   1.431   9.744  1.4638 -1.2547 -1.4316
   33MPD2    H3  511   1.818   1.458   9.545  0.9774 -3.4365  0.5125
   33MPD2     N  512   2.106   1.763   9.372  0.9305 -0.3840 -0.3754
   33MPD2    H5  513   2.045   1.765   9.290  0.3317 -0.7319  0.0619
   33MPD2    N1  514   2.178   1.531   9.797 -0.0806 -0.1775  0.2443
   33MPD2    H7  515   2.130   1.465   9.858 -0.5496 -0.5187 -0.4949
   34TCq2    C1  516   2.217   1.845   9.361 -0.2178 -0.2194 -0.0593
   34TCq2    O2  517   2.316   1.843   9.431  0.1051  0.3821  0.4312
   34TCq2    C2  518   2.211   1.942   9.253 -0.3991 -0.0765  0.3225
   34TCq2    C3  519   2.108   1.943   9.166  0.4375 -0.6949 -0.2334
   34TCq2    C4  520   2.111   2.034   9.064 -0.4070 -0.1857 -0.9856
   34TCq2    C5  521   2.208   2.127   9.049  0.0997 -0.4203  0.3094
   34TCq2    C6  522   2.306   2.128   9.139  0.3236  0.4592  0.2409
   34TCq2    C7  523   2.315   2.035   9.241  0.2900  0.2244 -0.2082
   34TCq2    C8  524   2.396   2.243   9.159  0.2329  0.5993 -0.0708
   34TCq2    O4  525   2.487   2.236   9.243 -0.0716 -0.1331 -0.0380
   34TCq2    C9  526   1.985   2.041   8.980 -0.8950 -0.6096  0.5115
   34TCq2    O5  527   1.877   2.005   9.033  0.0899 -0.4608 -0.4025
   34TCq2    O6  528   2.002   2.087   8.862 -0.0853 -0.1867 -0.3166
   34TCq2    H2  529   2.022   1.877   9.167  1.7318 -2.4061 -1.6156
   34TCq2    H3  530   2.195   2.196   8.966  0.8668 -0.1257  0.4375
   34TCq2    H4  531   2.400   2.027   9.308  0.0922 -0.4759 -0.0383
   35MPD2     C  532   4.229   3.417  11.766 -0.0498  0.4062  0.1694
   35MPD2    C1  533   4.128   3.325  11.785  0.3651 -0.2046  0.0839
   35MPD2    C2  534   4.045   3.293  11.679 -0.0697 -0.2077 -0.6198
   35MPD2    C3  535   4.048   3.364  11.559  0.3465  0.3246  0.0747
   35MPD2    C4  536   4.141   3.460  11.546 -0.1834  0.2505  0.3531
   35MPD2    C5  537   4.231   3.487  11.648 -0.1157 -0.4317  0.0591
   35MPD2     H  538   3.973   3.211  11.678  0.4806 -0.6848 -1.1633
   35MPD2    H1  539   4.162   3.501  11.448  0.3160  1.7484  1.0866
   35MPD2    H2  540   4.297   3.459  11.840 -1.7354  3.8819 -0.2749
   35MPD2    H3  541   4.303   3.566  11.632 -0.8874  0.0365 -1.1179
   35MPD2     N  542   3.957   3.322  11.456  0.1890  0.0243 -0.1222
   35MPD2    H5  543   3.914   3.234  11.481 -0.5239  0.5785  0.6057
   35MPD2    N1  544   4.121   3.248  11.907  0.3879 -0.2084  0.3132
   35MPD2    H7  545   4.206   3.234  11.960 -0.1592  0.2287  1.2962
   36TCq2    C1  546   3.933   3.389  11.335 -0.0333  0.2400  0.4044
   36TCq2    O2  547   3.971   3.497  11.295  0.6426  0.1803  0.3923
   36TCq2    C2  548   3.810   3.353  11.270  0.3273  0.0518  0.3180
   36TCq2    C3  549   3.742   3.443  11.187 -0.1011 -0.1592  0.3132
   36TCq2    C4  550   3.634   3.395  11.124  0.0237 -0.3433 -0.0969
   36TCq2    C5  551   3.593   3.269  11.135  0.7389  0.4671  0.1332
   36TCq2    C6  552   3.661   3.182  11.217 -0.7231  0.4006  0.6348
   36TCq2    C7  553   3.775   3.226  11.275 -0.1542 -0.1369 -0.1672
   36TCq2    C8  554   3.627   3.045  11.205  0.2544 -0.2365 -0.1879
   36TCq2    O4  555   3.532   3.016  11.129  0.6796 -0.5987  0.7944
   36TCq2    C9  556   3.579   3.483  11.014  0.0769  0.4364  0.2142
   36TCq2    O5  557   3.665   3.561  10.959  0.1422 -0.2862 -0.4134
   36TCq2    O6  558   3.456   3.471  10.979 -0.4987 -0.1369  0.6956
   36TCq2    H2  559   3.769   3.546  11.172 -1.1178  0.0772  0.1110
   36TCq2    H3  560   3.509   3.229  11.079  1.3941  0.8030 -1.0980
   36TCq2    H4  561   3.852   3.155  11.303 -0.6079 -0.6816 -0.2873
   37TMC2    C1  562   1.530   3.352  11.162  0.7026 -0.4857  0.3439
   37TMC2    C2  563   1.510   3.333  11.028  0.0375  0.1603 -0.4697
   37TMC2    C3  564   1.615   3.361  10.946 -0.2238  0.2846 -0.3849
   37TMC2    C4  565   1.647   3.399  11.213 -0.0552 -0.3846  0.1616
   37TMC2    C5  566   1.743   3.432  11.121 -0.4136 -0.5361 -0.1628
   37TMC2    C6  567   1.736   3.407  10.989 -0.2525 -1.0379  1.0615
   37TMC2     C  568   1.403   3.342  11.245 -1.2229 -0.3390 -0.0417
   37TMC2     O  569   1.296   3.308  11.191  0.0337 -0.0785  0.0818
   37TMC2     H  570   1.412   3.314  10.986 -0.0213 -0.4257 -0.0760
   37TMC2    H1  571   1.657   3.401  11.321  2.2271 -0.9993 -0.0246
   37TMC2    H2  572   1.815   3.433  10.920 -1.3937 -0.2809  0.0406
   37TMC2    C7  573   1.870   3.447  11.178  0.3611  0.4362  0.0858
   37TMC2    C8  574   1.622   3.309  10.809  0.0151 -0.1746  0.6591
   37TMC2    O1  575   1.869   3.495  11.289  0.4407 -0.0490 -0.0137
   37TMC2    O2  576   1.707   3.353  10.731  0.1751 -0.1021  0.2124
   37TMC2    O5  577   1.595   3.174  10.826  0.3249 -0.3649 -0.5018
   37TMC2    H5  578   1.527   3.158  10.895  2.3597  0.6187  1.7358
   38MPD2     C  579   1.146   3.429  11.662 -0.0500 -0.2341  0.5310
   38MPD2    C1  580   1.251   3.513  11.653  0.6312  0.4417  0.3707
   38MPD2    C2  581   1.343   3.503  11.555  0.4013 -0.4779  0.5573
   38MPD2    C3  582   1.321   3.412  11.457  0.2562 -0.4045 -0.0078
   38MPD2    C4  583   1.211   3.325  11.459  0.3095  0.0740 -0.0520
   38MPD2    C5  584   1.134   3.323  11.570 -0.6097 -0.7291 -0.0493
   38MPD2     H  585   1.426   3.573  11.551 -0.8558  1.0303  0.9729
   38MPD2    H1  586   1.206   3.242  11.389  0.0227 -0.0657  0.1304
   38MPD2    H2  587   1.079   3.419  11.746  0.6259 -0.4867  1.0349
   38MPD2    H3  588   1.081   3.233  11.599  1.4410 -1.4669  1.4900
   38MPD2     N  589   1.421   3.407  11.362  0.1010 -0.2958  0.5942
   38MPD2    H5  590   1.500   3.469  11.373  0.8958 -1.1662 -0.2194
   38MPD2    N1  591   1.282   3.622  11.741  0.3230 -0.2869  0.1148
   38MPD2    H7  592   1.373   3.667  11.743  1.2402 -2.1739  1.3803
   39MPD2     C  593   3.963   0.558   1.133 -0.2310 -0.8052  0.1571
   39MPD2    C1  594   3.855   0.486   1.186 -0.6582 -0.3116  0.0454
   39MPD2    C2  595   3.741   0.477   1.116  0.1733 -0.3442 -0.2824
   39MPD2    C3  596   3.739   0.511   0.980  0.0567 -0.0247  0.3925
   39MPD2    C4  597   3.851   0.573   0.921 -0.7592  0.0698  0.3986
   39MPD2    C5  598   3.961   0.594   1.006  0.1508  0.4247 -0.3463
   39MPD2     H  599   3.671   0.404   1.156  0.7832 -1.2303 -0.8323
   39MPD2    H1  600   3.842   0.612   0.821  0.9179 -0.3067  0.1050
   39MPD2    H2  601   4.058   0.572   1.184 -0.2584  0.8384 -0.2474
   39MPD2    H3  602   4.046   0.644   0.962  0.6150  0.0922  0.1722
   39MPD2     N  603   3.637   0.475   0.894 -0.2914 -0.0915 -0.2596
   39MPD2    H5  604   3.652   0.504   0.798  0.9257  1.7376  0.4970
   39MPD2    N1  605   3.866   0.437   1.313 -0.5413  0.1331  0.2895
   39MPD2    H7  606   3.956   0.454   1.358 -0.1946  2.6093 -1.3670
   40TCq2    C1  607   3.766   0.399   1.403  0.3227 -0.2355  0.2430
   40TCq2    O2  608   3.644   0.394   1.389 -0.1063  0.4633  0.4249
   40TCq2    C2  609   3.808   0.341   1.529 -0.6454  0.1574 -0.0622
   40TCq2    C3  610   3.714   0.287   1.613  0.3075 -0.0949  0.3535
   40TCq2    C4  611   3.755   0.224   1.729  0.6478  0.2637  0.9063
   40TCq2    C5  612   3.887   0.214   1.762  0.3527 -0.1291  0.2439
   40TCq2    C6  613   3.974   0.276   1.683 -0.6576 -0.5690  0.2578
   40TCq2    C7  614   3.939   0.336   1.564  0.3290  0.4170  0.0384
   40TCq2    C8  615   4.113   0.310   1.733  0.1818 -0.1947 -1.0636
   40TCq2    O4  616   4.149   0.258   1.841 -0.4058 -0.0727 -0.2926
   40TCq2    C9  617   3.654   0.149   1.802 -0.7752 -0.3302 -0.2909
   40TCq2    O5  618   3.540   0.132   1.757 -0.0342 -0.2509 -0.1300
   40TCq2    O6  619   3.683   0.140   1.924 -0.3271 -0.3315  0.8870
   40TCq2    H2  620   3.611   0.271   1.585  0.4117 -1.8913  1.0097
   40TCq2    H3  621   3.922   0.153   1.844  0.2487  0.7924  0.9726
   40TCq2    H4  622   4.017   0.371   1.497 -2.2362  1.6292 -2.2652
   41TMC2    C1  623   3.643   3.967  13.854  0.6690  0.0282  0.3879
   41TMC2    C2  624   3.752   3.982  13.932 -0.8355  0.0349 -0.6668
   41TMC2    C3  625   3.847   4.065  13.893  0.0772 -0.0969 -0.4939
   41TMC2    C4  626   3.635   4.034  13.731  1.6046 -0.2566  0.0252
   41TMC2    C5  627   3.725   4.134  13.706  0.2644  0.3968 -0.5927
   41TMC2    C6  628   3.831   4.148  13.788 -0.3312  0.2792 -0.3212
   41TMC2     C  629   3.523   3.908  13.908 -0.0125 -0.2825 -0.6522
   41TMC2     O  630   3.525   3.823  13.995  0.0788  1.1161  0.0234
   41TMC2     H  631   3.763   3.918  14.018  0.0948 -0.2380 -0.9845
   41TMC2    H1  632   3.546   4.016  13.672 -0.5471 -1.8688  3.7582
   41TMC2    H2  633   3.894   4.236  13.776  1.5816 -1.0477 -0.0949
   41TMC2    C7  634   3.714   4.233  13.600 -0.7351  0.7004 -0.3605
   41TMC2    C8  635   3.964   4.073  13.973 -0.1977 -0.2115 -0.4430
   41TMC2    O1  636   3.775   4.340  13.623  0.2516 -0.2709  0.1417
   41TMC2    O2  637   3.983   4.023  14.087 -0.0637  0.2420  0.4630
   41TMC2    O5  638   4.057   4.140  13.908 -0.0461 -0.3415 -0.2722
   41TMC2    H5  639   4.032   4.133  13.813 -2.3779 -0.6668  0.3602
   42MPD2     C  640   3.236   3.863  14.012  0.3707  0.3455 -0.2240
   42MPD2    C1  641   3.278   3.944  13.903 -0.3121 -0.1271  0.1549
   42MPD2    C2  642   3.192   4.031  13.857 -0.2183  0.1201 -0.0479
   42MPD2    C3  643   3.061   4.055  13.900 -0.1729  0.8877  0.2659
   42MPD2    C4  644   3.009   3.958  13.993  0.5901 -0.1160 -0.5090
   42MPD2    C5  645   3.106   3.871  14.046 -0.0833  0.3794 -0.0320
   42MPD2     H  646   3.240   4.108  13.797 -2.6059  0.0489 -2.0449
   42MPD2    H1  647   2.904   3.959  14.020 -0.2046 -1.2713 -3.5104
   42MPD2    H2  648   3.303   3.793  14.060 -0.5660 -0.4168 -0.0483
   42MPD2    H3  649   3.059   3.813  14.126  0.8658 -0.1947  0.1030
   42MPD2     N  650   2.977   4.155  13.843 -0.2278 -0.1503 -0.0988
   42MPD2    H5  651   2.887   4.164  13.888 -0.1492  1.4388 -0.2655
   42MPD2    N1  652   3.410   3.968  13.857  0.3620 -0.1397 -0.5394
   42MPD2    H7  653   3.425   4.038  13.785 -0.2482 -1.8298 -2.3371
   43MPD2     C  654   4.579   1.929   0.565 -0.2811  0.3570 -0.6807
   43MPD2    C1  655   4.569   1.817   0.641  0.0113  0.4941  0.4020
   43MPD2    C2  656   4.553   1.833   0.782 -0.5484 -0.5958  0.4319
   43MPD2    C3  657   4.535   1.958   0.838  0.1660 -0.5918 -0.8965
   43MPD2    C4  658   4.537   2.067   0.750 -0.5663 -0.2924  0.1789
   43MPD2    C5  659   4.554   2.053   0.615  0.5055  0.2894 -1.4866
   43MPD2     H  660   4.560   1.746   0.847  1.0806  0.9067  2.2533
   43MPD2    H1  661   4.526   2.168   0.785 -0.7713 -0.3782  0.3605
   43MPD2    H2  662   4.608   1.936   0.460  0.2143  0.8482 -0.5154
   43MPD2    H3  663   4.576   2.143   0.559  1.4345  2.3195  2.1776
   43MPD2     N  664   4.516   1.983   0.978 -0.4565  0.2002  0.3906
   43MPD2    H5  665   4.514   2.081   1.008 -0.4855  0.5262 -0.6968
   43MPD2    N1  666   4.609   1.687   0.591  0.4802  0.2015 -0.8678
   43MPD2    H7  667   4.614   1.612   0.660  1.9886  0.5927 -0.5650
   44TCq2    C1  668   4.556   2.223   1.413  0.1322  0.8334 -0.5833
   44TCq2    O2  669   4.670   2.227   1.365  0.5637  0.3211  0.3162
   44TCq2    C2  670   4.458   2.136   1.340 -0.3907 -0.5089  0.1773
   44TCq2    C3  671   4.350   2.092   1.409  0.2524  0.2547  0.8292
   44TCq2    C4  672   4.293   1.971   1.366  0.0514  0.5178  0.2880
   44TCq2    C5  673   4.335   1.908   1.257  0.2850  0.1645  0.1353
   44TCq2    C6  674   4.451   1.953   1.199  0.5608  0.6820  0.6148
   44TCq2    C7  675   4.510   2.070   1.241 -0.6704  0.3809  0.3867
   44TCq2    C8  676   4.483   1.887   1.073 -0.4145 -0.0482 -0.4815
   44TCq2    O4  677   4.466   1.764   1.067 -0.2810  0.0305  0.6756
   44TCq2    C9  678   4.179   1.918   1.449  0.6459 -0.1001 -1.0117
   44TCq2    O5  679   4.145   1.990   1.549  0.2051  0.0015  0.0199
   44TCq2    O6  680   4.136   1.801   1.412 -0.0034  0.4830  0.0442
   44TCq2    H2  681   4.304   2.151   1.488 -2.0298 -1.9776  1.1598
   44TCq2    H3  682   4.288   1.819   1.217 -1.9552  0.9720  0.9642
   44TCq2    H4  683   4.598   2.111   1.194 -1.3008 -2.2093 -3.0823
   45TMC2    C1  684   0.577   3.649   9.399 -0.3693  0.3726 -0.6190
   45TMC2    C2  685   0.523   3.648   9.276 -0.5798 -0.1077  0.5724
   45TMC2    C3  686   0.482   3.756   9.224  1.0270 -0.0858  1.1542
   45TMC2    C4  687   0.576   3.768   9.468  0.3693 -0.1622  0.3431
   45TMC2    C5  688   0.521   3.877   9.410  0.0824 -0.4076 -0.5522
   45TMC2    C6  689   0.474   3.875   9.283  0.1166  0.4240  0.1170
   45TMC2     C  690   0.610   3.523   9.459 -0.1463  0.0376 -0.7173
   45TMC2     O  691   0.674   3.521   9.565  0.3357 -0.1005 -0.7223
   45TMC2     H  692   0.528   3.561   9.211  0.3598 -0.0412  0.5509
   45TMC2    H1  693   0.600   3.774   9.574 -1.9394 -1.8949  0.9854
   45TMC2    H2  694   0.440   3.961   9.226  1.4654 -0.1882 -1.6216
   45TMC2    C7  695   0.517   4.003   9.496 -0.3052  0.3894 -0.8770
   45TMC2    C8  696   0.475   3.763   9.083  0.7207 -0.2734 -0.3981
   45TMC2    O1  697   0.514   3.993   9.616  0.6151 -0.4250 -0.4208
   45TMC2    O2  698   0.548   3.691   9.021  0.0390  0.1733 -0.5704
   45TMC2    O5  699   0.349   3.793   9.050 -0.0314  0.2194  0.2803
   45TMC2    H5  700   0.309   3.833   9.130  0.6763  1.0624  0.2176
   46MPD2     C  701   0.674   3.232   9.475  0.6269  0.9365 -0.2041
   46MPD2    C1  702   0.557   3.288   9.425  0.0845  0.3370  0.0393
   46MPD2    C2  703   0.457   3.195   9.408  0.5813  0.0596 -0.3021
   46MPD2    C3  704   0.471   3.065   9.438 -1.3346 -0.2198 -0.0963
   46MPD2    C4  705   0.578   3.018   9.502 -0.3311  0.1949 -0.1918
   46MPD2    C5  706   0.686   3.103   9.513 -0.9891 -0.5747 -0.5360
   46MPD2     H  707   0.361   3.227   9.371  0.5521 -1.1357 -1.2580
   46MPD2    H1  708   0.593   2.912   9.520 -2.2657 -0.1130 -0.4354
   46MPD2    H2  709   0.764   3.293   9.485  1.0590  0.4020 -0.8238
   46MPD2    H3  710   0.783   3.069   9.548 -1.2655 -0.6702  0.1266
   46MPD2     N  711   0.356   2.986   9.422 -0.7063  0.2963  0.4202
   46MPD2    H5  712   0.274   3.034   9.387 -1.6180 -2.0527 -0.6563
   46MPD2    N1  713   0.544   3.423   9.399 -0.7399  0.3988  0.6575
   46MPD2    H7  714   0.467   3.451   9.339  0.4135 -1.4165 -1.6527
   47TMC2    C1  715   2.196   3.386   9.120  0.3403 -0.3846 -0.7782
   47TMC2    C2  716   2.254   3.289   9.204 -0.6785  0.3519  1.2016
   47TMC2    C3  717   2.198   3.165   9.195  0.6846  0.4010  0.0735
   47TMC2    C4  718   2.071   3.372   9.059  0.5120  0.2412 -0.1346
   47TMC2    C5  719   2.005   3.259   9.085  0.6474 -0.4049 -0.6031
   47TMC2    C6  720   2.063   3.150   9.147  0.3157 -0.0922  0.7261
   47TMC2     C  721   2.221   3.521   9.154 -0.5082 -0.2699 -0.1096
   47TMC2     O  722   2.129   3.596   9.123 -0.0036  0.0462  0.0618
   47TMC2     H  723   2.358   3.299   9.233  0.0247 -3.9754  0.1944
   47TMC2    H1  724   2.044   3.425   8.969 -1.0239 -0.6883 -0.2375
   47TMC2    H2  725   1.997   3.065   9.150 -0.5281  0.5189 -0.5190
   47TMC2    C7  726   1.865   3.279   9.104  0.1740  0.3281 -0.3907
   47TMC2    C8  727   2.254   3.090   9.308  0.1751 -0.1815  0.1558
   47TMC2    O1  728   1.799   3.182   9.131 -0.3525  0.0842  0.0652
   47TMC2    O2  729   2.371   3.095   9.332  0.3872 -0.3109  0.2638
   47TMC2    O5  730   2.177   2.978   9.319 -0.4797 -0.2083  0.0613
   47TMC2    H5  731   2.084   3.002   9.338 -0.2664  0.2187  0.5776
   48MPD2     C  732   2.329   3.789   9.205 -0.5034 -0.6097 -0.0254
   48MPD2    C1  733   2.402   3.672   9.221  0.2260 -0.0005  0.0756
   48MPD2    C2  734   2.540   3.684   9.247  0.1085  0.1644 -0.3742
   48MPD2    C3  735   2.597   3.804   9.256 -0.5891 -0.2626 -0.2509
   48MPD2    C4  736   2.522   3.921   9.262 -0.2967 -0.3003 -0.4814
   48MPD2    C5  737   2.392   3.913   9.227  0.2856 -0.7962  0.5721
   48MPD2     H  738   2.604   3.597   9.253 -1.7811 -1.3861 -2.1516
   48MPD2    H1  739   2.555   4.022   9.285  0.3208 -0.6496  0.1919
   48MPD2    H2  740   2.224   3.796   9.179 -0.4899  1.4231  0.4815
   48MPD2    H3  741   2.341   4.009   9.232  1.0748 -0.3616  0.2262
   48MPD2     N  742   2.736   3.815   9.279  0.3126 -0.5271 -0.3739
   48MPD2    H5  743   2.784   3.730   9.308 -0.5873 -1.6087 -2.0089
   48MPD2    N1  744   2.351   3.543   9.189 -0.0422  0.6665 -0.2729
   48MPD2    H7  745   2.421   3.472   9.207 -0.5351 -0.2507 -1.9650
   49MPD2     C  746   1.032   0.747  10.108 -0.7710 -0.8163 -0.5147
   49MPD2    C1  747   0.951   0.832  10.182  0.2650 -0.1878 -0.2235
   49MPD2    C2  748   0.998   0.909  10.282 -0.8000  0.5700 -0.7315
   49MPD2    C3  749   1.126   0.899  10.328  0.2148  0.1117  0.2856
   49MPD2    C4  750   1.202   0.804  10.259 -0.2978 -0.6944 -0.3443
   49MPD2    C5  751   1.160   0.738  10.145 -0.0909  0.1673 -0.5364
   49MPD2     H  752   0.933   0.974  10.339 -1.9527  0.9110 -2.4282
   49MPD2    H1  753   1.299   0.789  10.305  0.1528  2.5793 -0.1801
   49MPD2    H2  754   0.990   0.696  10.022  2.5976  1.4227 -3.4706
   49MPD2    H3  755   1.228   0.667  10.100  1.0357 -0.8200  2.7083
   49MPD2     N  756   1.190   0.978  10.420 -0.2741 -0.0025  0.0928
   49MPD2    H5  757   1.287   0.957  10.440  0.2872  0.7626 -1.8461
   49MPD2    N1  758   0.818   0.849  10.151  0.5252  0.1037  0.5984
   49MPD2    H7  759   0.770   0.929  10.192  0.8051 -0.1538  1.4311
   50TCq2    C1  760   0.745   0.768  10.070 -0.4995  0.5595  0.4024
   50TCq2    O2  761   0.773   0.662  10.013 -0.1016  0.9165 -0.2682
   50TCq2    C2  762   0.612   0.820  10.050  0.4622 -0.2508  0.4354
   50TCq2    C3  763   0.509   0.733  10.044  0.4179 -0.0338 -0.0263
   50TCq2    C4  764   0.388   0.766   9.990 -0.4999 -1.4659  0.5215
   50TCq2    C5  765   0.362   0.890   9.944 -0.3269 -0.2233  0.1050
   50TCq2    C6  766   0.472   0.971   9.951  0.9340  0.2163 -0.2958
   50TCq2    C7  767   0.599   0.945  10.006 -0.0312  0.0854 -0.0695
   50TCq2    C8  768   0.450   1.104   9.888 -0.2413  0.8951 -0.0293
   50TCq2    O4  769   0.352   1.119   9.815  0.4789 -1.1460  0.2164
   50TCq2    C9  770   0.292   0.662   9.971  0.1979  0.9081  0.6401
   50TCq2    O5  771   0.310   0.550  10.026  0.5717 -0.0107  0.2655
   50TCq2    O6  772   0.184   0.699   9.914  0.1030 -0.1310 -0.5529
   50TCq2    H2  773   0.525   0.631  10.077  0.4528  0.0359  0.1713
   50TCq2    H3  774   0.264   0.914   9.905  0.4897  1.8538 -0.6763
   50TCq2    H4  775   0.682   1.016  10.003 -0.4574  0.6664  2.4364
   51MPD2     C  776   0.976   4.452   2.022 -0.4545 -0.5612 -0.2865
   51MPD2    C1  777   1.097   4.456   1.954  0.0104 -0.6113  0.3119
   51MPD2    C2  778   1.142   4.584   1.919  0.2837 -0.3853 -0.1936
   51MPD2    C3  779   1.066   4.702   1.939 -0.6028 -0.3423  0.2688
   51MPD2    C4  780   0.945   4.685   2.006 -0.0826 -0.3730 -0.2841
   51MPD2    C5  781   0.901   4.559   2.036 -0.6370  0.1970  0.0390
   51MPD2     H  782   1.234   4.581   1.861  1.2679  0.7879  1.2763
   51MPD2    H1  783   0.885   0.051   2.027 -0.1031 -1.0409  2.4753
   51MPD2    H2  784   0.924   4.361   2.053  1.2893 -0.6290  2.4431
   51MPD2    H3  785   0.800   4.547   2.074  0.4028 -0.5743  2.5510
   51MPD2     N  786   1.114   0.112   1.915  0.0464  0.6027 -0.2287
   51MPD2    H5  787   1.046   0.187   1.924  1.2640  1.5885  0.5416
   51MPD2    N1  788   1.182   4.343   1.936 -0.3076  0.1535  0.1999
   51MPD2    H7  789   1.269   4.353   1.885 -1.5904  1.1236 -1.8058
   52TCq2    C1  790   1.242   0.143   1.890 -0.0416 -0.0410  0.0691
   52TCq2    O2  791   1.345   0.078   1.878 -0.7897 -0.5393  0.0301
   52TCq2    C2  792   1.239   0.286   1.862 -0.3485  0.2437 -0.2847
   52TCq2    C3  793   1.183   0.372   1.952 -0.7964 -0.6774 -0.4185
   52TCq2    C4  794   1.197   0.503   1.933 -0.3954 -0.6881 -0.1772
   52TCq2    C5  795   1.265   0.557   1.833 -0.3575 -0.5785 -0.6252
   52TCq2    C6  796   1.327   0.474   1.742  0.1283 -0.3119 -0.4945
   52TCq2    C7  797   1.317   0.338   1.759 -0.2609  0.1760  0.0903
   52TCq2    C8  798   1.388   0.543   1.628 -0.5905 -0.2339  0.0918
   52TCq2    O4  799   1.355   0.655   1.593  0.2841 -0.7376 -0.3565
   52TCq2    C9  800   1.117   0.586   2.023  0.1186 -0.4481 -0.0228
   52TCq2    O5  801   1.151   0.708   2.048  0.7647 -0.1585  0.1530
   52TCq2    O6  802   1.016   0.536   2.075  0.4834  0.3693  0.0749
   52TCq2    H2  803   1.126   0.340   2.038 -1.6752 -1.4170 -1.2802
   52TCq2    H3  804   1.269   0.663   1.815  2.2148 -0.7330 -0.9659
   52TCq2    H4  805   1.356   0.266   1.688 -1.2212 -0.2616 -0.0010
   53TMC2    C1  806   2.479   3.541  11.584  0.9714 -0.3516  0.6907
   53TMC2    C2  807   2.610   3.515  11.625 -0.2316  0.0213 -0.2410
   53TMC2    C3  808   2.648   3.569  11.748  0.6426 -0.1609  0.0678
   53TMC2    C4  809   2.391   3.621  11.656 -0.1467 -1.0520 -0.7583
   53TMC2    C5  810   2.444   3.683  11.767  0.3287  0.0618 -0.6431
   53TMC2    C6  811   2.571   3.657  11.814  0.2662 -0.0598 -0.0171
   53TMC2     C  812   2.438   3.457  11.478  0.3945 -0.0424 -0.1925
   53TMC2     O  813   2.510   3.360  11.458  0.0721 -0.4450 -1.0856
   53TMC2     H  814   2.675   3.458  11.560 -0.6946 -0.0073 -0.6766
   53TMC2    H1  815   2.285   3.623  11.633 -0.1745 -0.5718 -0.5659
   53TMC2    H2  816   2.611   3.710  11.900 -1.6756 -0.3283  1.0447
   53TMC2    C7  817   2.347   3.761  11.841 -0.0865  0.3565  0.1951
   53TMC2    C8  818   2.789   3.577  11.772 -0.3351 -0.3042  0.2597
   53TMC2    O1  819   2.258   3.799  11.770  0.0064 -1.2441  0.7607
   53TMC2    O2  820   2.855   3.678  11.797  0.6637  0.4768  0.0388
   53TMC2    O5  821   2.837   3.463  11.722 -0.2092  0.2991  0.1182
   53TMC2    H5  822   2.766   3.398  11.735  0.2675 -0.0321  1.0563
   54MPD2     C  823   2.369   3.340  11.215  0.3395 -0.8974  0.1875
   54MPD2    C1  824   2.282   3.421  11.293 -0.2391  0.1355 -0.3665
   54MPD2    C2  825   2.149   3.442  11.251  0.2071 -0.3812 -0.3291
   54MPD2    C3  826   2.100   3.361  11.143 -0.1142 -0.4503  0.7905
   54MPD2    C4  827   2.183   3.282  11.063 -0.0243  0.6270 -0.7273
   54MPD2    C5  828   2.316   3.280  11.097 -0.0497 -0.8881  0.7404
   54MPD2     H  829   2.095   3.513  11.314  0.7604 -0.2653  0.0158
   54MPD2    H1  830   2.143   3.219  10.984 -1.4140  0.5523  0.0388
   54MPD2    H2  831   2.477   3.328  11.225  0.5188  0.3918 -0.1547
   54MPD2    H3  832   2.393   3.221  11.049 -0.7061 -2.0728  1.1433
   54MPD2     N  833   1.962   3.371  11.112  0.5332  0.3603 -0.4623
   54MPD2    H5  834   1.923   3.332  11.027 -1.8310  0.6797  0.4773
   54MPD2    N1  835   2.328   3.491  11.408  0.0135 -0.4609 -0.0082
   54MPD2    H7  836   2.261   3.563  11.432  0.3482 -0.1094 -0.1192
   55MPD2     C  837   2.728   1.136  17.609  0.4594  0.6517  0.4127
   55MPD2    C1  838   2.707   1.272  17.622 -0.7660 -0.1220 -0.0922
   55MPD2    C2  839   2.603   1.326  17.555 -0.0910 -0.0087 -0.2488
   55MPD2    C3  840   2.506   1.247  17.491  0.2089 -0.4533  0.5838
   55MPD2    C4  841   2.530   1.112  17.484 -0.6636  0.7327  0.3199
   55MPD2    C5  842   2.643   1.061  17.540 -0.3175 -0.1690 -0.1427
   55MPD2     H  843   2.581   1.432  17.553  1.0679  0.2010 -2.0065
   55MPD2    H1  844   2.454   1.045  17.445 -0.4065  1.7028 -1.7987
   55MPD2    H2  845   2.814   1.086  17.652 -0.3205  0.5960  1.9222
   55MPD2    H3  846   2.650   0.953  17.530  0.4662  0.0556 -2.1019
   55MPD2     N  847   2.392   1.316  17.447  0.5373  0.4558  0.0883
   55MPD2    H5  848   2.387   1.417  17.456 -3.8510  0.2208 -0.1103
   55MPD2    N1  849   2.809   1.346   0.001  0.5033  0.1162 -0.3050
   55MPD2    H7  850   2.891   1.297   0.035  0.3784  0.4033  0.3944
   56TCq2    C1  851   2.800   1.480   0.021 -0.5666 -0.3523 -0.0659
   56TCq2    O2  852   2.731   1.565  17.651 -0.2680  0.5965  0.0120
   56TCq2    C2  853   2.904   1.539   0.101  0.1709  0.4700 -0.1956
   56TCq2    C3  854   2.991   1.464   0.177  0.6327  0.1703  0.5741
   56TCq2    C4  855   3.059   1.531   0.270  0.3461 -0.5481 -0.2573
   56TCq2    C5  856   3.053   1.666   0.280 -0.3439  0.0800  0.0395
   56TCq2    C6  857   2.972   1.732   0.200 -0.1746 -0.0230 -0.1336
   56TCq2    C7  858   2.895   1.674   0.104  0.7248 -0.1308  0.6133
   56TCq2    C8  859   2.992   1.883   0.200 -0.1697  0.5375  0.5766
   56TCq2    O4  860   3.085   1.921   0.270  0.6089 -0.6196 -0.4939
   56TCq2    C9  861   3.152   1.463   0.354 -0.1292 -0.4698  0.1675
   56TCq2    O5  862   3.136   1.342   0.374 -0.1985 -0.5739  0.6006
   56TCq2    O6  863   3.240   1.536   0.412 -0.0778  0.1994  0.0337
   56TCq2    H2  864   2.996   1.355   0.181 -0.3069  0.1681  1.7978
   56TCq2    H3  865   3.112   1.716   0.356  0.2418 -0.1861 -0.2429
   56TCq2    H4  866   2.837   1.740   0.041  0.6454 -0.7203  0.0807
   57TMC2    C1  867   2.303   2.698  13.373 -0.5378  0.5033 -0.0314
   57TMC2    C2  868   2.382   2.733  13.484  0.1934  0.8013 -0.2967
   57TMC2    C3  869   2.455   2.634  13.545  0.1644  0.1167 -0.4283
   57TMC2    C4  870   2.322   2.578  13.319 -1.1783  0.0577  0.6225
   57TMC2    C5  871   2.392   2.484  13.385 -0.2340 -0.1906  0.1913
   57TMC2    C6  872   2.459   2.508  13.501 -0.3955 -0.1441  0.1773
   57TMC2     C  873   2.179   2.766  13.356 -0.1664 -0.2630 -0.2922
   57TMC2     O  874   2.181   2.873  13.409 -0.1828 -0.3757  0.2261
   57TMC2     H  875   2.364   2.828  13.533 -0.0537  0.6636 -0.1226
   57TMC2    H1  876   2.273   2.555  13.225 -1.4329 -0.1295  0.7992
   57TMC2    H2  877   2.536   2.453  13.554 -0.0765  1.0045  0.9078
   57TMC2    C7  878   2.403   2.348  13.335  0.3475 -0.3645 -0.8350
   57TMC2    C8  879   2.519   2.660  13.672  0.2151 -0.4897 -0.2452
   57TMC2    O1  880   2.481   2.287  13.404  0.2584  0.1605 -0.6862
   57TMC2    O2  881   2.543   2.573  13.748 -0.5888 -0.5909 -0.2409
   57TMC2    O5  882   2.547   2.792  13.682  0.0225  0.0453  0.2316
   57TMC2    H5  883   2.544   2.850  13.603 -1.2845 -0.2285  0.0839
   58MPD2     C  884   1.676   2.784  13.311 -0.1019  0.1589  0.2138
   58MPD2    C1  885   1.761   2.864  13.386 -0.4738 -0.4818 -0.7146
   58MPD2    C2  886   1.897   2.838  13.377  0.7429  0.3961 -0.5515
   58MPD2    C3  887   1.943   2.728  13.301 -0.5056  0.6811  0.2888
   58MPD2    C4  888   1.852   2.653  13.222  1.0024  0.0864 -0.2911
   58MPD2    C5  889   1.721   2.685  13.220 -0.2253  0.0627 -0.3421
   58MPD2     H  890   1.958   2.906  13.435  0.0169 -0.4479  1.2163
   58MPD2    H1  891   1.868   2.575  13.148 -2.1944 -1.9816  1.1908
   58MPD2    H2  892   1.569   2.797  13.301 -0.0908  0.1308  0.0578
   58MPD2    H3  893   1.651   2.625  13.163 -2.7761  3.0506 -0.3857
   58MPD2     N  894   2.079   2.688  13.298 -1.2570  0.4337  0.1023
   58MPD2    H5  895   2.100   2.609  13.237  1.5254  1.5898 -0.4634
   58MPD2    N1  896   1.713   2.965  13.475  0.0649  0.6916  0.2718
   58MPD2    H7  897   1.788   3.024  13.508  0.6043 -0.5819  1.2693
   59MPD2     C  898   4.596   2.853  13.375 -0.5314 -0.5025 -0.8732
   59MPD2    C1  899   4.628   2.909  13.252  0.4529 -0.1605  0.7154
   59MPD2    C2  900   4.712   3.016  13.244 -0.3083  0.1370 -0.4828
   59MPD2    C3  901   0.033   3.078  13.357  0.7164 -0.3303 -0.9257
   59MPD2    C4  902   4.719   3.031  13.475  0.2847  0.6005  0.1651
   59MPD2    C5  903   4.646   2.917  13.487  0.6184 -0.5470 -0.2036
   59MPD2     H  904   0.032   3.021  13.144  1.3326  0.7994  0.2280
   59MPD2    H1  905   0.026   3.086  13.564  0.0536  2.9233 -1.1889
   59MPD2    H2  906   4.518   2.779  13.386 -0.5154 -0.1429  1.6338
   59MPD2    H3  907   4.608   2.882  13.583 -0.8706 -0.6113 -0.8217
   59MPD2     N  908   0.122   3.187  13.351  0.3199 -0.0688  0.1539
   59MPD2    H5  909   0.147   3.232  13.439 -1.8248  1.4957 -0.0351
   59MPD2    N1  910   4.580   2.850  13.135  0.3312  0.0217  0.2085
   59MPD2    H7  911   4.633   2.864  13.049  1.6173  0.5593  1.0838
   60TCq2    C1  912   4.464   2.777  13.124 -0.1530  0.3129 -0.1295
   60TCq2    O2  913   4.371   2.768  13.203  0.1738  0.4299 -0.0880
   60TCq2    C2  914   4.437   2.727  12.992 -0.3391  0.3276 -0.0657
   60TCq2    C3  915   4.312   2.676  12.975  0.6003  0.1642 -0.8706
   60TCq2    C4  916   4.287   2.593  12.869  0.2338  0.5838  0.4531
   60TCq2    C5  917   4.379   2.574  12.772 -1.0810 -0.2505  0.2394
   60TCq2    C6  918   4.506   2.629  12.790 -0.1793 -0.2726 -0.4218
   60TCq2    C7  919   4.540   2.701  12.907  0.0900  0.0618 -0.6818
   60TCq2    C8  920   4.585   2.669  12.673 -0.0339  0.7336 -0.0730
   60TCq2    O4  921   4.699   2.714  12.695  0.1621  0.0968  0.8596
   60TCq2    C9  922   4.159   2.523  12.861  0.0517 -0.1563 -0.1788
   60TCq2    O5  923   4.113   2.473  12.753  0.0917 -0.1316  0.3626
   60TCq2    O6  924   4.099   2.505  12.971  0.2774 -0.2686  0.5545
   60TCq2    H2  925   4.228   2.682  13.044  1.4470 -0.7536  0.2452
   60TCq2    H3  926   4.356   2.507  12.690 -5.0914  2.2799 -0.7203
   60TCq2    H4  927   4.638   2.743  12.922  0.6901 -1.8686  0.7476
   61MPD2     C  928   2.974   4.425  14.838 -0.5377 -0.1453  0.3473
   61MPD2    C1  929   3.037   4.539  14.887 -0.0707  0.3770  0.7429
   61MPD2    C2  930   3.137   4.599  14.815 -0.4322  0.1468  0.2082
   61MPD2    C3  931   3.187   4.552  14.693 -0.0552  0.1570 -0.0204
   61MPD2    C4  932   3.128   4.435  14.653 -0.2854 -0.1607  0.6376
   61MPD2    C5  933   3.022   4.375  14.714  0.1925 -0.1034  0.1662
   61MPD2     H  934   3.181   4.685  14.865  2.5260  0.2882 -2.6840
   61MPD2    H1  935   3.177   4.389  14.568 -1.6771  1.5193 -1.0999
   61MPD2    H2  936   2.893   4.385  14.898 -0.1925 -0.8503  0.3424
   61MPD2    H3  937   2.976   4.286  14.673 -0.1909  0.2372 -0.1481
   61MPD2     N  938   3.290   4.605  14.618  0.2262  0.3417  0.8311
   61MPD2    H5  939   3.318   4.543  14.542  0.4785 -1.4833  2.4452
   61MPD2    N1  940   3.006   4.597  15.008  0.2024  0.6198  0.4439
   61MPD2    H7  941   3.072   4.669  15.035  0.1254  1.1296 -0.7142
   62TCq2    C1  942   2.893   4.581  15.086 -0.0312  0.4341 -0.0532
   62TCq2    O2  943   2.795   4.511  15.072  0.2963  0.5764 -0.6808
   62TCq2    C2  944   2.917   4.658  15.204 -0.0787 -0.2955 -0.3494
   62TCq2    C3  945   2.803   4.700  15.271  0.0240 -0.1165 -0.5555
   62TCq2    C4  946   2.813   0.068  15.380  0.1715  0.0449 -0.2588
   62TCq2    C5  947   2.934   0.126  15.417  0.5178  0.2636  0.4352
   62TCq2    C6  948   3.044   0.082  15.348 -0.4319 -0.1222 -0.0733
   62TCq2    C7  949   3.040   4.713  15.242  0.3783  0.0325 -0.0883
   62TCq2    C8  950   3.165   0.153  15.355 -0.2001  0.4222  0.4780
   62TCq2    O4  951   3.216   0.181  15.248  0.6887 -0.1108 -0.2465
   62TCq2    C9  952   2.688   0.112  15.440 -0.0442  0.1782 -0.0456
   62TCq2    O5  953   2.600   0.026  15.457  0.1017 -0.3291  0.5133
   62TCq2    O6  954   2.689   0.234  15.462  0.0532 -0.3158 -0.6445
   62TCq2    H2  955   2.707   4.675  15.228  0.0426 -0.1518 -0.5769
   62TCq2    H3  956   2.932   0.206  15.491 -1.5109  0.4567  0.1774
   62TCq2    H4  957   3.135   4.688  15.195  1.4012  0.4538  1.7549
   63TMC2    C1  958   2.840   3.899  10.339  0.3830 -0.0289 -0.1792
   63TMC2    C2  959   2.940   3.870  10.426  0.5096 -0.0788 -0.2900
   63TMC2    C3  960   2.974   3.972  10.509 -0.3586 -0.1896 -0.6207
   63TMC2    C4  961   2.781   4.024  10.329  0.5630 -0.1673  0.5146
   63TMC2    C5  962   2.800   4.122  10.420  0.4323  0.7045 -0.7000
   63TMC2    C6  963   2.900   4.101  10.510 -1.1435 -0.3419 -0.0317
   63TMC2     C  964   2.822   3.814  10.232 -0.0820  0.4971  0.0598
   63TMC2     O  965   2.818   3.871  10.125  0.6882 -0.1277 -0.0401
   63TMC2     H  966   3.004   3.783  10.431  0.9220  0.2212 -0.3815
   63TMC2    H1  967   2.712   4.043  10.248  2.4864  0.8042 -0.8758
   63TMC2    H2  968   2.913   4.178  10.584  0.6617 -0.2879 -0.4226
   63TMC2    C7  969   2.793   4.251  10.354 -0.0889  0.5760 -0.3004
   63TMC2    C8  970   3.053   3.938  10.626 -0.7648 -0.6554  0.2962
   63TMC2    O1  971   2.711   4.259  10.260 -0.0077  0.3249 -0.3781
   63TMC2    O2  972   3.079   3.822  10.658 -0.7161  0.4918  0.1663
   63TMC2    O5  973   3.144   4.040  10.627 -0.0539  0.1913  0.3258
   63TMC2    H5  974   3.109   4.129  10.605 -1.7334 -0.4991  0.1771
   64MPD2     C  975   2.785   3.346  10.017  0.5729  0.1654  0.2148
   64MPD2    C1  976   2.842   3.337  10.142  0.2909  0.0248 -0.1351
   64MPD2    C2  977   2.847   3.454  10.221 -0.7551 -0.0559 -0.0368
   64MPD2    C3  978   2.818   3.575  10.171 -0.3145  0.1414 -0.3693
   64MPD2    C4  979   2.768   3.586  10.045  0.0097 -0.3486 -0.3060
   64MPD2    C5  980   2.758   3.466   9.975 -0.6927  0.0524 -0.7224
   64MPD2     H  981   2.877   3.446  10.325  0.0424 -1.0149 -0.3473
   64MPD2    H1  982   2.724   3.672   9.996 -0.0429  1.0401  2.1449
   64MPD2    H2  983   2.749   3.264   9.955  3.4855  1.1281 -2.7666
   64MPD2    H3  984   2.711   3.470   9.877 -2.5106  0.6274  0.1823
   64MPD2     N  985   2.836   3.682  10.257  0.6026 -0.4190 -0.5201
   64MPD2    H5  986   2.843   3.661  10.356 -0.5788  0.1043 -0.3223
   64MPD2    N1  987   2.873   3.219  10.214 -0.0175  0.1609  0.3750
   64MPD2    H7  988   2.905   3.217  10.311 -1.4890 -0.0800  0.8650
   65MPD2     C  989   3.783   4.018  15.719 -0.0417 -0.1474  0.4453
   65MPD2    C1  990   3.730   4.033  15.592  0.9666  0.2668 -0.5989
   65MPD2    C2  991   3.748   3.933  15.502 -0.3077 -0.3176  0.1716
   65MPD2    C3  992   3.798   3.811  15.543  0.2593  0.2413 -0.3055
   65MPD2    C4  993   3.852   3.796  15.665 -0.4961 -0.2916  0.2689
   65MPD2    C5  994   3.847   3.902  15.750 -0.0149  0.2919  0.4631
   65MPD2     H  995   3.708   3.941  15.402  1.0973 -0.5159 -0.3883
   65MPD2    H1  996   3.896   3.704  15.701  1.0063  0.3554  0.0705
   65MPD2    H2  997   3.768   4.090  15.799 -0.0648  0.3070  0.0246
   65MPD2    H3  998   3.884   3.892  15.852 -0.6310  0.4270  0.7038
   65MPD2     N  999   3.791   3.697  15.460 -0.7103 -0.3733  0.3582
   65MPD2    H5 1000   3.842   3.616  15.493  0.7923  0.4199  0.0324
   65MPD2    N1 1001   3.646   4.147  15.560 -0.2952  0.5192 -0.3727
   65MPD2    H7 1002   3.585   4.129  15.481  1.3045 -0.4065 -1.4149
   66TCq2    C1 1003   3.616   4.260  15.638 -0.0363 -0.2420  0.7263
   66TCq2    O2 1004   3.646   4.296  15.754 -0.5393 -0.0697  0.4903
   66TCq2    C2 1005   3.507   4.338  15.580 -0.1199 -0.6840 -1.1146
   66TCq2    C3 1006   3.487   4.344  15.443  0.3347 -0.1513  0.0391
   66TCq2    C4 1007   3.388   4.427  15.392  0.0724  0.0776 -0.2607
   66TCq2    C5 1008   3.324   4.520  15.474  0.5320 -0.2531  0.0842
   66TCq2    C6 1009   3.355   4.521  15.602 -0.3969  0.1135 -0.1480
   66TCq2    C7 1010   3.431   4.420  15.662  0.0304 -0.8021 -0.1286
   66TCq2    C8 1011   3.282   4.611  15.688  0.0427  0.1502  0.3052
   66TCq2    O4 1012   3.164   4.646  15.660 -0.1822 -0.1744  0.1552
   66TCq2    C9 1013   3.368   4.416  15.244  0.7896 -0.8184  0.5878
   66TCq2    O5 1014   3.301   4.512  15.193 -0.1103  0.7828 -0.2774
   66TCq2    O6 1015   3.441   4.334  15.181  0.5296  0.4220  0.6494
   66TCq2    H2 1016   3.547   4.278  15.381 -2.2089  0.5424 -3.2093
   66TCq2    H3 1017   3.270   4.604  15.431 -0.9792  0.5568  3.5575
   66TCq2    H4 1018   3.460   4.423  15.766  1.6928 -0.9526 -0.5844
   67MPD2     C 1019   4.407   2.920  13.797 -0.6245  0.0282  0.2624
   67MPD2    C1 1020   4.412   3.050  13.749 -0.3813 -0.2198 -0.6155
   67MPD2    C2 1021   4.369   3.073  13.618  0.2465 -0.1508  0.4854
   67MPD2    C3 1022   4.323   2.964  13.542 -0.5093  0.4416 -0.5513
   67MPD2    C4 1023   4.319   2.833  13.593 -0.0547 -0.3015 -0.2755
   67MPD2    C5 1024   4.369   2.813  13.717  0.3049 -0.0018  0.4935
   67MPD2     H 1025   4.384   3.169  13.571  1.2633  0.1339  1.3836
   67MPD2    H1 1026   4.273   2.752  13.538 -1.4474  0.2109  0.1486
   67MPD2    H2 1027   4.433   2.890  13.898  0.6983 -0.6992 -0.3002
   67MPD2    H3 1028   4.373   2.712  13.757 -0.5796 -0.9770 -1.8629
   67MPD2     N 1029   4.270   2.986  13.416  0.2142  0.5279  0.5853
   67MPD2    H5 1030   4.245   2.899  13.369 -0.2384  0.6390  0.6228
   67MPD2    N1 1031   4.446   3.171  13.820 -0.3184 -0.5372  0.0316
   67MPD2    H7 1032   4.437   3.260  13.771  2.3449 -0.5113 -0.3790
   68TCq2    C1 1033   4.490   3.174  13.949  0.1106 -0.2065  0.9197
   68TCq2    O2 1034   4.503   3.080  14.026 -0.7074  0.0786 -0.0948
   68TCq2    C2 1035   4.499   3.305  13.999 -0.8725  0.2675 -0.9427
   68TCq2    C3 1036   4.396   3.394  13.973 -0.1070  0.0683 -0.8298
   68TCq2    C4 1037   4.368   3.491  14.059  0.1848 -0.7700  0.4729
   68TCq2    C5 1038   4.417   3.487  14.187 -0.0953  0.1208 -0.7547
   68TCq2    C6 1039   4.507   3.389  14.213  0.0578 -0.2278  0.5544
   68TCq2    C7 1040   4.561   3.306  14.120  0.1850  0.1729  0.3086
   68TCq2    C8 1041   4.520   3.326  14.347  0.6102 -0.0383  0.5043
   68TCq2    O4 1042   4.586   3.226  14.355 -0.6881  0.4865  0.2735
   68TCq2    C9 1043   4.283   3.596  14.023  0.0846 -0.4363  0.4785
   68TCq2    O5 1044   4.312   3.703  14.077  0.0485 -0.1984  0.3509
   68TCq2    O6 1045   4.224   3.585  13.915  0.0956  0.0888  0.7026
   68TCq2    H2 1046   4.337   3.399  13.882  0.8291  1.6599 -1.3549
   68TCq2    H3 1047   4.392   3.565  14.257  1.9099  2.5696 -2.7456
   68TCq2    H4 1048   4.644   3.240  14.142 -0.5199  1.0580  5.6378
   69TMC2    C1 1049   1.901   4.491  11.959  0.2609  0.7175 -0.4044
   69TMC2    C2 1050   1.801   4.502  11.869 -0.1930 -0.2455 -0.3856
   69TMC2    C3 1051   1.823   4.562  11.750  0.2386  0.5067  0.1823
   69TMC2    C4 1052   2.026   4.548  11.934 -0.0458  0.0173  0.0599
   69TMC2    C5 1053   2.051   4.578  11.803  0.2085  0.2378 -0.0537
   69TMC2    C6 1054   1.954   4.589  11.708 -0.4674  0.0592  0.5450
   69TMC2     C 1055   1.874   4.434  12.090 -0.4228 -0.2203  0.8159
   69TMC2     O 1056   1.763   4.376  12.109 -0.1996 -0.6237  0.8747
   69TMC2     H 1057   1.700   4.481  11.903 -0.3760  3.6724  1.5881
   69TMC2    H1 1058   2.109   4.539  12.004 -2.5701 -0.9073  2.9377
   69TMC2    H2 1059   1.975   4.651  11.622 -1.7841 -0.5285 -0.2043
   69TMC2    C7 1060   2.176   4.534  11.740  0.0004  0.1216  0.5149
   69TMC2    C8 1061   1.712   4.562  11.659  0.0520 -0.7102 -0.1658
   69TMC2    O1 1062   2.277   4.550  11.801  0.2580 -0.3996  1.1573
   69TMC2    O2 1063   1.614   4.492  11.672  0.6325 -0.2474 -0.2035
   69TMC2    O5 1064   1.765   4.593  11.539  0.4014 -0.5529 -0.6817
   69TMC2    H5 1065   1.835   4.660  11.544 -0.2084 -0.0883  1.6666
   70MPD2     C 1066   2.072   4.454  12.387  0.7883  0.2449 -0.3641
   70MPD2    C1 1067   1.967   4.418  12.308  0.1028  0.0872 -0.5478
   70MPD2    C2 1068   1.883   4.317  12.356  0.5174 -0.3526  0.0573
   70MPD2    C3 1069   1.901   4.258  12.477 -0.4529  0.3126  0.1004
   70MPD2    C4 1070   2.003   4.295  12.554  0.2345  0.5768  0.3327
   70MPD2    C5 1071   2.087   4.399  12.514  0.5808 -0.5616 -0.5633
   70MPD2     H 1072   1.815   4.268  12.287 -0.3617 -0.2303  0.8482
   70MPD2    H1 1073   2.029   4.250  12.649  2.2707 -0.6059 -0.7748
   70MPD2    H2 1074   2.140   4.533  12.358 -0.4137  2.1610  2.0891
   70MPD2    H3 1075   2.171   4.436  12.572 -0.0030  0.2686 -0.2574
   70MPD2     N 1076   1.831   4.143  12.519  0.2782  0.9589  0.6457
   70MPD2    H5 1077   1.878   4.087  12.590  1.0075  1.3286  0.4516
   70MPD2    N1 1078   1.965   4.468  12.180  0.0128 -1.0107  0.6593
   70MPD2    H7 1079   2.045   4.525  12.152  0.2817 -1.7460 -0.0636
   71TMC2    C1 1080   3.812   0.157   0.994  0.3398  0.2756 -0.2016
   71TMC2    C2 1081   3.915   0.126   1.073 -0.1957 -0.9478 -0.3350
   71TMC2    C3 1082   3.891   0.077   1.198  0.3948 -0.1461 -0.2388
   71TMC2    C4 1083   3.682   0.147   1.038 -0.3356 -0.2068 -0.2387
   71TMC2    C5 1084   3.659   0.114   1.167 -0.1664  0.0072 -0.5768
   71TMC2    C6 1085   3.762   0.084   1.252  0.0384  0.3092 -0.3121
   71TMC2     C 1086   3.845   0.177   0.850 -0.7865  0.3486  0.1049
   71TMC2     O 1087   3.928   0.260   0.812  0.1082  0.2886  0.0211
   71TMC2     H 1088   4.016   0.127   1.034  0.6904 -0.3830  1.9516
   71TMC2    H1 1089   3.598   0.163   0.972 -0.1657 -1.0060 -0.6518
   71TMC2    H2 1090   3.746   0.077   1.359  1.2531  1.8746 -0.0248
   71TMC2    C7 1091   3.527   0.083   1.228  0.1359  0.0739  0.1102
   71TMC2    C8 1092   3.992   0.110   1.296 -0.3154 -0.6114 -0.7021
   71TMC2    O1 1093   3.528   0.049   1.347  0.1219  0.5205  0.4516
   71TMC2    O2 1094   4.074   0.199   1.278 -0.3270 -0.1388 -0.0712
   71TMC2    O5 1095   4.001   0.000   1.372 -0.5563  0.2408  0.5721
   71TMC2    H5 1096   3.936   4.651   1.350  0.4477 -0.4989 -0.0225
   72MPD2     C 1097   3.815   0.014   0.364  0.1680  0.2417  0.0836
   72MPD2    C1 1098   3.842   0.141   0.410 -0.3525 -0.1679  0.4461
   72MPD2    C2 1099   3.848   0.161   0.546 -0.1403 -0.0057 -0.5619
   72MPD2    C3 1100   3.807   0.060   0.638 -0.0204  0.3612 -0.1645
   72MPD2    C4 1101   3.785   4.657   0.590 -0.0465  0.5159  0.3842
   72MPD2    C5 1102   3.795   4.633   0.453  0.1235  0.0967 -0.3356
   72MPD2     H 1103   3.878   0.257   0.586 -0.5508 -0.2048  0.2240
   72MPD2    H1 1104   3.757   4.575   0.655  1.7537  1.5149  2.4162
   72MPD2    H2 1105   3.809   4.716   0.258  1.2042 -0.0142  0.0706
   72MPD2    H3 1106   3.783   4.531   0.417  0.1358  1.0071 -2.9212
   72MPD2     N 1107   3.796   0.077   0.771 -0.2403 -0.5550 -0.0795
   72MPD2    H5 1108   3.761   4.717   0.822 -1.7517 -0.2968 -0.7079
   72MPD2    N1 1109   3.861   0.250   0.327 -0.5080  0.0714 -0.3345
   72MPD2    H7 1110   3.869   0.341   0.372 -2.8636  0.2769 -0.3121
   73TMC2    C1 1111   3.536   1.946  13.935  0.0750 -0.4491  0.4006
   73TMC2    C2 1112   3.442   1.964  14.027  0.2832  0.9783 -0.1531
   73TMC2    C3 1113   3.456   1.892  14.140 -0.1444 -0.0141  0.1536
   73TMC2    C4 1114   3.650   1.879  13.974 -0.0075  0.5366 -0.1407
   73TMC2    C5 1115   3.668   1.825  14.093 -0.4605 -0.1857 -0.1910
   73TMC2    C6 1116   3.565   1.817  14.179  0.2310 -1.0672 -0.9585
   73TMC2     C 1117   3.581   2.070  13.874 -0.1418  0.4305 -0.4405
   73TMC2     O 1118   3.676   2.115  13.934 -0.2843  0.0909  0.3543
   73TMC2     H 1119   3.352   2.023  14.011 -0.4600  0.1430  0.9297
   73TMC2    H1 1120   3.729   1.876  13.900 -1.1787  0.4707 -1.3846
   73TMC2    H2 1121   3.580   1.770  14.275  1.0071  1.6434  0.2459
   73TMC2    C7 1122   3.802   1.839  14.149 -1.2017 -0.6094 -0.0017
   73TMC2    C8 1123   3.360   1.905  14.250  0.5562 -0.0744 -0.5791
   73TMC2    O1 1124   3.852   1.755  14.222  0.5830 -0.7301  0.3140
   73TMC2    O2 1125   3.336   1.810  14.320  0.7385 -0.3060  0.5638
   73TMC2    O5 1126   3.329   2.041  14.267  0.8044  0.2994 -0.3258
   73TMC2    H5 1127   3.374   2.109  14.213  0.5075  0.1083 -0.8100
   74MPD2     C 1128   3.617   2.460  13.534  0.1653  0.0438  0.0047
   74MPD2    C1 1129   3.698   2.424  13.641  0.8772 -0.3484  0.4561
   74MPD2    C2 1130   3.665   2.319  13.719 -0.3237 -0.4354 -0.2724
   74MPD2    C3 1131   3.547   2.246  13.704  0.3231 -1.4207 -0.0358
   74MPD2    C4 1132   3.461   2.290  13.606  0.0909  0.0824 -0.3203
   74MPD2    C5 1133   3.498   2.391  13.524  0.1947 -0.4510 -0.3529
   74MPD2     H 1134   3.731   2.284  13.798  0.8005  2.0909 -0.1054
   74MPD2    H1 1135   3.366   2.241  13.590 -0.0065  0.4322 -0.8040
   74MPD2    H2 1136   3.635   2.541  13.464 -2.8149 -0.0468 -0.8777
   74MPD2    H3 1137   3.428   2.421  13.447  0.7839  1.4686 -0.1343
   74MPD2     N 1138   3.512   2.126  13.771 -0.8635  0.0114  0.0682
   74MPD2    H5 1139   3.431   2.072  13.742 -1.4539  0.0773  1.6306
   74MPD2    N1 1140   3.825   2.490  13.655  0.3115  0.0882 -0.3423
   74MPD2    H7 1141   3.837   2.551  13.575 -2.0205  1.4241  0.3315
   75TCq2    C1 1142   4.235   3.105  13.359  0.0991 -0.9777  0.2135
   75TCq2    O2 1143   4.267   3.220  13.383 -0.6121  0.6840  0.2305
   75TCq2    C2 1144   4.131   3.081  13.260  1.0689 -0.1717  0.1822
   75TCq2    C3 1145   4.100   2.957  13.213 -0.2086 -0.4419 -0.4539
   75TCq2    C4 1146   3.976   2.946  13.151 -0.6958  0.4611  0.3888
   75TCq2    C5 1147   3.885   3.045  13.148 -0.2435  0.9326  0.5916
   75TCq2    C6 1148   3.926   3.171  13.183  0.0355  0.1507 -0.4350
   75TCq2    C7 1149   4.058   3.191  13.233 -0.0478  0.2243 -0.6335
   75TCq2    C8 1150   3.854   3.283  13.130  0.6155 -0.1049 -0.1765
   75TCq2    O4 1151   3.799   3.260  13.025  0.5478  0.0024 -0.8218
   75TCq2    C9 1152   3.939   2.821  13.096  0.3079 -0.1931 -0.7500
   75TCq2    O5 1153   3.983   2.728  13.165  0.3189 -0.2651 -0.0367
   75TCq2    O6 1154   3.843   2.818  13.008  0.3803  0.6993 -0.3140
   75TCq2    H2 1155   4.176   2.881  13.210  2.2280  1.9549  0.1903
   75TCq2    H3 1156   3.788   3.027  13.104 -0.3378 -2.3276  2.0743
   75TCq2    H4 1157   4.095   3.291  13.256 -1.1263  0.2951  0.8036
   76MPD2     C 1158   2.974   3.914  12.200 -0.6742  0.1141 -0.1810
   76MPD2    C1 1159   2.964   3.833  12.086  0.2663  0.1509  0.3573
   76MPD2    C2 1160   2.988   3.701  12.100  0.2225  0.2214  0.1399
   76MPD2    C3 1161   3.030   3.644  12.223 -0.2061 -0.2488  0.0551
   76MPD2    C4 1162   3.046   3.725  12.329  0.1237  1.1027 -0.4207
   76MPD2    C5 1163   3.012   3.858  12.320 -0.4868  0.0873 -0.0535
   76MPD2     H 1164   2.976   3.641  12.011  0.3044  0.7886 -0.2535
   76MPD2    H1 1165   3.093   3.687  12.418  0.3303  0.8237 -0.6509
   76MPD2    H2 1166   2.956   4.021  12.200  2.0262  0.6041  4.0288
   76MPD2    H3 1167   3.034   3.918  12.407  1.7020  1.3464 -1.4725
   76MPD2     N 1168   3.081   3.517  12.228  0.1775  0.5492 -0.0771
   76MPD2    H5 1169   3.131   3.502  12.315  0.2635  0.0788 -0.2092
   76MPD2    N1 1170   2.921   3.885  11.958 -0.3662 -0.5825  0.5225
   76MPD2    H7 1171   2.898   3.826  11.878 -0.2739 -0.8038  0.6580
   77TCq2    C1 1172   3.075   3.420  12.132 -0.3850  1.2613 -0.4203
   77TCq2    O2 1173   2.997   3.406  12.038 -0.1162  0.0431  0.0608
   77TCq2    C2 1174   3.161   3.308  12.163 -0.8355 -0.4958 -0.1077
   77TCq2    C3 1175   3.113   3.184  12.140 -0.4799 -0.5898 -0.5409
   77TCq2    C4 1176   3.207   3.081  12.129 -1.3070 -0.2909 -0.4695
   77TCq2    C5 1177   3.338   3.103  12.145 -0.5273 -0.4067  0.3623
   77TCq2    C6 1178   3.374   3.231  12.185 -0.7772  0.5676  0.5015
   77TCq2    C7 1179   3.289   3.334  12.195 -0.1076  0.2736  0.0198
   77TCq2    C8 1180   3.518   3.263  12.196  0.3137  0.2642 -0.7973
   77TCq2    O4 1181   3.590   3.206  12.119 -0.2537  0.4201 -0.2224
   77TCq2    C9 1182   3.160   2.953  12.082 -0.1390  0.0745 -0.3260
   77TCq2    O5 1183   3.040   2.941  12.047 -0.4585  0.1373 -0.1260
   77TCq2    O6 1184   3.243   2.859  12.069 -0.1382  0.2457 -0.0141
   77TCq2    H2 1185   3.007   3.163  12.125  0.4507 -5.0885 -0.8740
   77TCq2    H3 1186   3.421   3.035  12.132  0.1810  0.9088 -2.0288
   77TCq2    H4 1187   3.325   3.434  12.215  2.3691 -0.7433  0.6249
   78MPD1     C 1188   3.265   0.076   0.589 -0.2125  0.6603  0.1063
   78MPD1    C1 1189   3.402   0.043   0.591  0.7568 -0.2128 -0.3413
   78MPD1    C2 1190   3.446   4.676   0.688 -0.3158  0.6138  0.1536
   78MPD1    C3 1191   3.366   4.645   0.796 -0.2768  0.3095 -0.3932
   78MPD1    C4 1192   3.234   4.676   0.795 -0.1319  0.5454  0.1021
   78MPD1    C5 1193   3.183   0.034   0.691 -0.0835  0.5855  0.3026
   78MPD1     H 1194   3.543   4.627   0.688  0.6921  2.6026  1.3412
   78MPD1    H1 1195   3.165   4.642   0.871  0.0668  1.5953  0.7667
   78MPD1    H2 1196   3.211   0.114   0.503 -2.5934  1.6000  2.0129
   78MPD1    H3 1197   3.082   0.074   0.698  1.0820  3.6033 -0.0078
   78MPD1     N 1198   3.415   4.563   0.904  0.0799 -0.7066  0.1103
   78MPD1    H5 1199   3.340   4.540   0.968  0.9217  0.3161  1.4803
   78MPD1    N1 1200   3.480   0.074   0.481 -0.7145  0.2774 -0.1697
   78MPD1    H6 1201   3.462   0.164   0.438 -0.0331  0.6609  0.3468
   78MPD1    H7 1202   3.577   0.092   0.507 -1.2497  2.0779  0.5407
   79TCq2    C1 1203   3.544   4.526   0.934 -0.0890  0.5119  0.3549
   79TCq2    O2 1204   3.648   4.576   0.891 -0.0626 -0.3005 -0.1105
   79TCq2    C2 1205   3.547   4.447   1.061  0.2155 -0.3125  0.0538
   79TCq2    C3 1206   3.430   4.394   1.110 -0.5624  0.3997 -0.7549
   79TCq2    C4 1207   3.415   4.370   1.245  0.1023 -0.0880 -0.1264
   79TCq2    C5 1208   3.528   4.391   1.324  0.3197  0.1280 -0.5049
   79TCq2    C6 1209   3.642   4.441   1.269  0.4607 -0.8036 -0.0542
   79TCq2    C7 1210   3.650   4.483   1.140  0.5737  0.0553  0.3902
   79TCq2    C8 1211   3.770   4.435   1.344  0.3224  0.1028 -0.1907
   79TCq2    O4 1212   3.857   4.520   1.333 -0.3085 -0.6149 -0.1253
   79TCq2    C9 1213   3.294   4.315   1.300 -0.2908 -0.4695 -1.1303
   79TCq2    O5 1214   3.203   4.299   1.220  0.1811 -0.3024 -0.4152
   79TCq2    O6 1215   3.282   4.296   1.428 -0.4309  0.2196  0.0438
   79TCq2    H2 1216   3.348   4.366   1.045 -1.8107  0.1144  0.9414
   79TCq2    H3 1217   3.525   4.385   1.433 -1.6139 -0.3575 -0.5802
   79TCq2    H4 1218   3.741   4.525   1.099  0.1234  0.7965  0.1601
   80MPD2     C 1219   2.079   3.531  11.877 -0.0801 -0.1177 -0.4038
   80MPD2    C1 1220   1.969   3.505  11.801  0.2795 -0.5051  0.0270
   80MPD2    C2 1221   1.845   3.563  11.837 -0.1196  0.0738  0.4477
   80MPD2    C3 1222   1.840   3.655  11.937 -0.2482 -0.0148  0.1544
   80MPD2    C4 1223   1.948   3.667  12.021  0.1999  0.0961 -0.2246
   80MPD2    C5 1224   2.063   3.602  11.993  0.5050 -0.3196  0.6258
   80MPD2     H 1225   1.756   3.554  11.776  0.4366  2.5781 -0.7245
   80MPD2    H1 1226   1.945   3.723  12.115  0.3856 -0.1498 -0.0731
   80MPD2    H2 1227   2.179   3.493  11.863 -0.2475 -0.7030 -0.0359
   80MPD2    H3 1228   2.149   3.601  12.059 -0.2467  1.0239  1.6201
   80MPD2     N 1229   1.720   3.722  11.969 -0.2208  0.4178 -0.9293
   80MPD2    H5 1230   1.730   3.777  12.054 -1.4982  0.3045 -0.7097
   80MPD2    N1 1231   1.963   3.429  11.683 -0.2986 -0.3162  0.8391
   80MPD2    H7 1232   1.873   3.413  11.640  0.1669 -1.7830  0.4004
   81TCq2    C1 1233   2.075   3.367  11.631 -0.1327 -0.1132  0.2380
   81TCq2    O2 1234   2.189   3.383  11.659 -0.5596 -0.5786  0.3628
   81TCq2    C2 1235   2.059   3.274  11.523  1.1609 -0.6484 -0.3934
   81TCq2    C3 1236   2.166   3.194  11.499  0.0602 -0.0734 -0.8902
   81TCq2    C4 1237   2.152   3.086  11.418  0.1738  0.1259  0.1317
   81TCq2    C5 1238   2.035   3.053  11.351 -0.5095 -0.1758 -0.0068
   81TCq2    C6 1239   1.934   3.137  11.377  0.4482 -0.5541 -0.7577
   81TCq2    C7 1240   1.939   3.232  11.476 -0.1717  0.9823  0.2592
   81TCq2    C8 1241   1.800   3.080  11.354 -0.6460  0.1208  0.2052
   81TCq2    O4 1242   1.791   3.017  11.251  0.0281  0.2052 -0.3386
   81TCq2    C9 1243   2.270   3.003  11.396  0.6891 -0.3163  0.5034
   81TCq2    O5 1244   2.268   2.904  11.310  0.0498 -0.2341 -0.1315
   81TCq2    O6 1245   2.365   3.024  11.478 -0.1256 -0.1558  0.5702
   81TCq2    H2 1246   2.264   3.213  11.542 -0.4906  3.0296 -0.9551
   81TCq2    H3 1247   2.044   2.972  11.280 -0.7468 -1.1533  1.0846
   81TCq2    H4 1248   1.850   3.287  11.504 -1.6816 -0.8302 -1.0437
   82MPD2     C 1249   0.389   2.558  10.580  0.0799  0.0354  0.3526
   82MPD2    C1 1250   0.278   2.480  10.575  0.4133 -0.0855 -0.2976
   82MPD2    C2 1251   0.260   2.367  10.664  0.2661 -0.0734 -0.5315
   82MPD2    C3 1252   0.342   2.349  10.768 -0.6224 -0.7234  0.5729
   82MPD2    C4 1253   0.453   2.433  10.776 -0.0497 -0.2949  0.5320
   82MPD2    C5 1254   0.475   2.533  10.683  0.1433 -0.1072  0.1335
   82MPD2     H 1255   0.187   2.291  10.639  0.2288 -0.5406  0.9846
   82MPD2    H1 1256   0.525   2.417  10.855 -1.1822 -0.9801  1.4242
   82MPD2    H2 1257   0.411   2.627  10.499  0.3714 -0.8037 -0.2799
   82MPD2    H3 1258   0.564   2.594  10.684 -0.4612  0.7772  0.3122
   82MPD2     N 1259   0.330   2.242  10.862  0.0492 -0.4370  0.3334
   82MPD2    H5 1260   0.405   2.224  10.928  0.4698  0.2348  0.0384
   82MPD2    N1 1261   0.182   2.507  10.471 -0.0981  0.0207 -0.7820
   82MPD2    H7 1262   0.210   2.591  10.420  0.5297  0.4109  0.2088
   83TCq2    C1 1263   0.231   2.146  10.861 -0.5666  0.2879  0.3315
   83TCq2    O2 1264   0.127   2.136  10.795 -0.0757  0.0449  0.1705
   83TCq2    C2 1265   0.257   2.032  10.942 -0.1397  0.4396 -0.1934
   83TCq2    C3 1266   0.376   2.021  11.008  0.2866  0.5312 -0.4255
   83TCq2    C4 1267   0.382   1.943  11.121  0.3721  0.0993  0.2039
   83TCq2    C5 1268   0.267   1.879  11.170 -0.5359 -0.7442  0.1451
   83TCq2    C6 1269   0.154   1.888  11.098 -0.5099 -0.4273  0.9647
   83TCq2    C7 1270   0.143   1.966  10.985  0.5647 -0.1400  0.3000
   83TCq2    C8 1271   0.042   1.818  11.156 -0.2646  0.4434  0.0055
   83TCq2    O4 1272   0.038   1.785  11.275 -0.2342 -0.0376 -0.4073
   83TCq2    C9 1273   0.508   1.924  11.198 -0.3889  0.4552 -0.2229
   83TCq2    O5 1274   0.615   1.975  11.156 -0.6784 -0.4691 -0.1702
   83TCq2    O6 1275   0.491   1.897  11.320  0.1939  0.1225  0.3025
   83TCq2    H2 1276   0.470   2.070  10.983  1.3947 -0.2534  2.2346
   83TCq2    H3 1277   0.276   1.817  11.259  1.4495 -1.4432 -0.5425
   83TCq2    H4 1278   0.048   1.964  10.933 -0.0423 -1.4320  1.4524
   84TCq2    C1 1279   1.137   1.088  10.486  0.1594  0.2501  0.1845
   84TCq2    O2 1280   1.025   1.139  10.481 -0.5043  0.0969  0.6784
   84TCq2    C2 1281   1.229   1.122  10.594  0.2848  0.0301 -0.0223
   84TCq2    C3 1282   1.362   1.104  10.585 -0.5201 -0.8326  0.5035
   84TCq2    C4 1283   1.447   1.185  10.655  0.2909 -0.6482  0.5855
   84TCq2    C5 1284   1.402   1.280  10.739  0.0367  1.1755 -0.3726
   84TCq2    C6 1285   1.267   1.280  10.764 -0.1554 -0.2620  0.4088
   84TCq2    C7 1286   1.187   1.211  10.683  0.0211 -0.3826 -0.0101
   84TCq2    C8 1287   1.213   1.357  10.881  0.5221  0.3388 -0.5744
   84TCq2    O4 1288   1.285   1.452  10.912 -0.2947  0.6981  0.4007
   84TCq2    C9 1289   1.586   1.188  10.631 -1.2050  0.8636 -0.5891
   84TCq2    O5 1290   1.640   1.076  10.603 -0.1557 -0.1074 -0.1819
   84TCq2    O6 1291   1.642   1.299  10.614 -0.0779 -0.2007  0.3664
   84TCq2    H2 1292   1.411   1.034  10.518 -0.6800  0.5760 -1.1060
   84TCq2    H3 1293   1.475   1.325  10.805  1.1976 -3.4094  1.5180
   84TCq2    H4 1294   1.081   1.213  10.705  0.1275  0.8375  0.3636
   85MPD2     C 1295   1.211   0.080  16.407  0.0163  0.8744  0.0704
   85MPD2    C1 1296   1.312   0.005  16.357 -0.0088  0.2599  0.6862
   85MPD2    C2 1297   1.413   0.072  16.291  0.1498 -0.0387  0.9961
   85MPD2    C3 1298   1.402   0.211  16.271  0.0726 -0.5784 -0.0148
   85MPD2    C4 1299   1.304   0.283  16.333 -0.3218 -0.1685 -0.2218
   85MPD2    C5 1300   1.210   0.215  16.400  0.4851  0.1776 -0.4710
   85MPD2     H 1301   1.493   0.007  16.258 -0.8795 -0.2814 -1.0359
   85MPD2    H1 1302   1.299   0.391  16.321 -0.4388  0.0963  2.3743
   85MPD2    H2 1303   1.131   0.039  16.466  0.1749 -0.2762 -0.5136
   85MPD2    H3 1304   1.127   0.267  16.446 -0.1102  0.4116 -1.8293
   85MPD2     N 1305   1.482   0.268  16.168  0.5089  0.0060  0.3424
   85MPD2    H5 1306   1.556   0.216  16.122  0.1280  1.0927 -1.4974
   85MPD2    N1 1307   1.321   4.590  16.380 -0.3510 -0.3764 -0.0298
   85MPD2    H7 1308   1.398   4.544  16.333  0.0870 -1.4556  1.7326
   86TCq2    C1 1309   1.471   0.395  16.115 -0.1237  0.1232 -0.2346
   86TCq2    O2 1310   1.377   0.474  16.131 -0.2451  0.1703  0.2180
   86TCq2    C2 1311   1.558   0.416  15.995 -0.1653 -0.8164  0.0191
   86TCq2    C3 1312   1.535   0.534  15.931  0.1556 -0.3377 -0.3317
   86TCq2    C4 1313   1.623   0.576  15.830  0.3512  0.2410  0.2732
   86TCq2    C5 1314   1.724   0.495  15.794  0.2975 -0.3956  0.5262
   86TCq2    C6 1315   1.752   0.376  15.861 -0.3084  0.5867  0.2203
   86TCq2    C7 1316   1.668   0.341  15.969  0.1184 -0.6093 -0.3210
   86TCq2    C8 1317   1.796   0.262  15.781 -0.7983 -0.1873  0.0543
   86TCq2    O4 1318   1.844   0.157  15.823  0.3385  0.3611  0.0055
   86TCq2    C9 1319   1.606   0.704  15.761 -0.3329  0.2871 -0.2760
   86TCq2    O5 1320   1.700   0.729  15.682  0.4472  0.0674  0.1636
   86TCq2    O6 1321   1.512   0.783  15.792  0.2520  0.5087 -0.3284
   86TCq2    H2 1322   1.454   0.598  15.965 -0.7014 -0.7575 -1.5766
   86TCq2    H3 1323   1.778   0.520  15.703  2.4683  1.1372  2.2353
   86TCq2    H4 1324   1.684   0.251  16.028  0.0848 -0.1324  0.4156
   87MPD2     C 1325   3.849   3.118   1.037 -0.1055 -0.2969  0.0565
   87MPD2    C1 1326   3.928   3.206   1.113 -0.1715  0.2650 -0.5647
   87MPD2    C2 1327   3.879   3.333   1.133 -0.0806 -1.1500 -0.4277
   87MPD2    C3 1328   3.750   3.369   1.097  0.1725 -0.4389  0.0285
   87MPD2    C4 1329   3.669   3.272   1.041  0.5986  0.3287 -0.3534
   87MPD2    C5 1330   3.725   3.153   0.996 -0.3555 -0.0648 -0.2677
   87MPD2     H 1331   3.945   3.407   1.178  0.1195 -2.3760  1.3224
   87MPD2    H1 1332   3.566   3.296   1.017 -0.1230 -3.2094 -0.7129
   87MPD2    H2 1333   3.891   3.021   1.014  0.6371  0.5418 -2.1733
   87MPD2    H3 1334   3.668   3.083   0.936 -0.3836  0.8302 -1.2683
   87MPD2     N 1335   3.703   3.502   1.113 -0.3044 -0.0921 -0.2628
   87MPD2    H5 1336   3.602   3.511   1.104 -0.2785 -1.5594 -1.9330
   87MPD2    N1 1337   4.057   3.151   1.141  0.1222  0.0501  0.6612
   87MPD2    H7 1338   4.083   3.059   1.108  0.0193 -0.1832  1.2513
   88TCq2    C1 1339   4.155   3.228   1.207 -0.0938 -0.1483  0.7336
   88TCq2    O2 1340   4.147   3.345   1.250 -0.1508 -0.5214  0.3974
   88TCq2    C2 1341   4.273   3.157   1.244 -0.2851 -0.9000 -0.3805
   88TCq2    C3 1342   4.346   3.209   1.349  0.2782  0.0993  0.7614
   88TCq2    C4 1343   4.475   3.155   1.368 -0.1636 -0.1379  0.5598
   88TCq2    C5 1344   4.518   3.057   1.283  0.5025  0.3631  0.7331
   88TCq2    C6 1345   4.435   3.010   1.178 -0.2102  0.3886  0.0498
   88TCq2    C7 1346   4.309   3.050   1.167  0.1958 -0.0215 -0.2028
   88TCq2    C8 1347   4.483   2.912   1.089  0.0629  0.5617 -0.2702
   88TCq2    O4 1348   4.404   2.837   1.042  0.3896  0.1241 -0.0377
   88TCq2    C9 1349   4.567   3.213   1.460 -0.4000 -0.5116 -0.6681
   88TCq2    O5 1350   4.540   3.324   1.513 -0.1132  0.4689 -0.5427
   88TCq2    O6 1351   4.678   3.157   1.474 -1.0080 -0.4298 -0.2074
   88TCq2    H2 1352   4.306   3.283   1.417  0.5296  0.7209  0.2413
   88TCq2    H3 1353   4.620   3.022   1.298  0.7525  0.5460 -0.5677
   88TCq2    H4 1354   4.261   3.021   1.074  0.0662 -0.5175  0.0211
   89MPD2     C 1355   4.396   0.389   1.766 -0.5304 -0.0100 -0.0856
   89MPD2    C1 1356   4.300   0.455   1.686  0.5821 -0.0439 -0.5873
   89MPD2    C2 1357   4.336   0.565   1.618 -0.0871  0.2588 -0.5080
   89MPD2    C3 1358   4.458   0.622   1.627  0.2827 -0.3392 -0.1806
   89MPD2    C4 1359   4.547   0.559   1.708 -0.2470  0.8910  0.3786
   89MPD2    C5 1360   4.519   0.445   1.775  0.5481 -0.8839 -0.2424
   89MPD2     H 1361   4.265   0.614   1.552  0.7292  0.5260 -1.1904
   89MPD2    H1 1362   4.646   0.600   1.722 -0.0861  0.0156  1.7077
   89MPD2    H2 1363   4.390   0.295   1.820 -0.4984 -0.2972 -0.5770
   89MPD2    H3 1364   4.599   0.401   1.835  1.1407 -0.3182 -0.6194
   89MPD2     N 1365   4.481   0.739   1.559  0.4927  0.4828  0.1044
   89MPD2    H5 1366   4.405   0.777   1.503 -0.1727 -0.5611  0.3069
   89MPD2    N1 1367   4.169   0.412   1.671  0.1022 -0.0461 -0.0219
   89MPD2    H7 1368   4.110   0.462   1.605  1.2019 -0.9850 -1.7149
   90TCq2    C1 1369   4.599   0.804   1.548 -0.3518 -0.5859  0.0785
   90TCq2    O2 1370   4.707   0.759   1.575 -0.2012 -0.3903 -0.1581
   90TCq2    C2 1371   4.603   0.915   1.465  0.2088 -0.5843  0.9193
   90TCq2    C3 1372   4.486   0.985   1.441 -0.4175  0.0588 -0.7076
   90TCq2    C4 1373   4.487   1.077   1.339 -0.0489 -0.9456 -0.4484
   90TCq2    C5 1374   4.603   1.099   1.274 -0.4210 -0.3594 -0.1227
   90TCq2    C6 1375   4.716   1.028   1.295 -0.4982  0.1348 -0.6940
   90TCq2    C7 1376   4.720   0.929   1.390 -0.0489 -0.2508 -0.1729
   90TCq2    C8 1377   0.108   1.036   1.204  0.1774  0.1695  0.6350
   90TCq2    O4 1378   0.168   0.931   1.180 -0.2378 -0.3870  0.0414
   90TCq2    C9 1379   4.376   1.167   1.330  0.2607 -0.6556  0.0236
   90TCq2    O5 1380   4.366   1.240   1.229  0.1774 -0.1823  0.1891
   90TCq2    O6 1381   4.302   1.174   1.433  0.1825  0.3022 -0.1428
   90TCq2    H2 1382   4.396   0.968   1.500  0.3763  0.0542  0.4931
   90TCq2    H3 1383   4.607   1.185   1.208 -1.0206  0.5281  1.0027
   90TCq2    H4 1384   0.093   0.882   1.417 -0.1253  0.2233  0.9062
   91TMC2    C1 1385   1.845   1.219  16.336  0.3216 -0.4425 -0.1395
   91TMC2    C2 1386   1.855   1.350  16.292 -0.3750 -0.6546 -1.0652
   91TMC2    C3 1387   1.747   1.434  16.298 -0.4845  0.5593 -0.0768
   91TMC2    C4 1388   1.728   1.168  16.385 -0.5286 -0.9116  0.0200
   91TMC2    C5 1389   1.622   1.256  16.384  0.7977 -0.0001 -0.3097
   91TMC2    C6 1390   1.625   1.383  16.331 -0.0130 -0.2329 -0.4884
   91TMC2     C 1391   1.933   1.110  16.286 -0.1087 -0.0060  0.6390
   91TMC2     O 1392   1.880   1.003  16.275 -0.2469  0.2842  0.1117
   91TMC2     H 1393   1.946   1.384  16.244 -0.3628 -0.7079 -1.0801
   91TMC2    H1 1394   1.725   1.069  16.430  0.5156 -0.3098  1.3967
   91TMC2    H2 1395   1.542   1.453  16.339  1.0665  1.1166 -1.1930
   91TMC2    C7 1396   1.500   1.191  16.428  0.0306  0.3468  0.4549
   91TMC2    C8 1397   1.754   1.540  16.197  0.1262 -0.3407  1.0216
   91TMC2    O1 1398   1.513   1.114  16.525  0.7836 -0.5403 -0.4036
   91TMC2    O2 1399   1.857   1.602  16.181  0.2853 -0.8526  0.4416
   91TMC2    O5 1400   1.667   1.503  16.096  0.1439 -0.2149  0.3074
   91TMC2    H5 1401   1.609   1.427  16.116  0.3621  0.3281  2.9611
   92MPD2     C 1402   2.156   0.908  16.250 -0.1155 -0.5503 -0.5070
   92MPD2    C1 1403   2.169   1.045  16.245  0.0472  0.0054  0.0106
   92MPD2    C2 1404   2.291   1.098  16.208 -0.1007 -0.1769  0.4085
   92MPD2    C3 1405   2.400   1.013  16.174 -0.5904  0.4368  0.1619
   92MPD2    C4 1406   2.383   0.883  16.176  0.4284 -0.1841 -0.3890
   92MPD2    C5 1407   2.262   0.830  16.216 -0.1596  0.0273 -0.0986
   92MPD2     H 1408   2.312   1.205  16.203 -0.1989 -0.2030 -0.7037
   92MPD2    H1 1409   2.458   0.807  16.156  2.4462  2.2682 -2.1839
   92MPD2    H2 1410   2.062   0.867  16.285 -0.0616  0.3161  0.6673
   92MPD2    H3 1411   2.248   0.725  16.237  0.6774 -0.1910 -0.6495
   92MPD2     N 1412   2.513   1.084  16.142 -0.1188 -0.1737  0.0693
   92MPD2    H5 1413   2.501   1.184  16.131  1.4637 -0.0906 -1.0180
   92MPD2    N1 1414   2.066   1.146  16.264  0.7332  0.5134 -0.4035
   92MPD2    H7 1415   2.089   1.244  16.278  4.1433 -0.2379 -0.7775
   93MPD2     C 1416   3.217   1.569  14.131 -0.7557 -0.5944  0.8897
   93MPD2    C1 1417   3.220   1.508  14.002  0.8340 -0.0145 -0.4947
   93MPD2    C2 1418   3.111   1.433  13.954 -0.2741  0.5276 -0.7264
   93MPD2    C3 1419   2.997   1.421  14.033 -0.4173 -0.3404  0.4899
   93MPD2    C4 1420   2.999   1.484  14.156 -0.2362 -0.3412 -0.8486
   93MPD2    C5 1421   3.101   1.556  14.205 -0.1859 -0.1223  0.2358
   93MPD2     H 1422   3.127   1.380  13.861 -0.2907 -1.2457  0.2923
   93MPD2    H1 1423   2.909   1.478  14.216  0.4195  1.7796  0.3579
   93MPD2    H2 1424   3.298   1.623  14.179  0.7294  0.4851 -2.8241
   93MPD2    H3 1425   3.099   1.607  14.301 -2.4257  0.7418 -0.2564
   93MPD2     N 1426   2.881   1.355  13.989 -1.1278  0.7183 -0.1511
   93MPD2    H5 1427   2.806   1.346  14.057 -0.1828  0.2177  0.8375
   93MPD2    N1 1428   3.332   1.511  13.917  0.1131  0.4789 -0.2866
   93MPD2    H7 1429   3.327   1.471  13.824 -1.3732 -1.2946  0.5641
   94TCq2    C1 1430   3.455   1.540  13.962 -0.6623 -0.1225  0.6959
   94TCq2    O2 1431   3.493   1.536  14.077 -0.0133  0.2207 -0.4694
   94TCq2    C2 1432   3.555   1.583  13.867 -0.3401  0.3810 -0.6991
   94TCq2    C3 1433   3.518   1.631  13.746  0.5282  0.7364 -0.0692
   94TCq2    C4 1434   3.615   1.664  13.656  0.1156  0.2484 -0.1458
   94TCq2    C5 1435   3.748   1.650  13.681  0.0395  0.2504  1.1749
   94TCq2    C6 1436   3.779   1.610  13.809 -0.2641  0.4251 -0.2153
   94TCq2    C7 1437   3.690   1.577  13.901  0.0725 -0.2274 -0.2132
   94TCq2    C8 1438   3.922   1.588  13.836 -0.4032  0.3633 -0.5100
   94TCq2    O4 1439   3.989   1.604  13.732  0.0391 -0.2022 -0.3352
   94TCq2    C9 1440   3.576   1.720  13.528  0.9391  0.1952 -0.3538
   94TCq2    O5 1441   3.455   1.737  13.507 -0.2799  0.4575 -0.4884
   94TCq2    O6 1442   3.672   1.776  13.462  0.0137 -0.3833 -0.4922
   94TCq2    H2 1443   3.413   1.646  13.726  0.2648 -0.2230  0.6049
   94TCq2    H3 1444   3.815   1.680  13.601 -1.1348  0.0919  0.1396
   94TCq2    H4 1445   3.716   1.549  14.002 -0.3718 -0.1863 -0.0844
   95TMC2    C1 1446   3.320   2.836  15.819  0.6749  0.1944 -0.8124
   95TMC2    C2 1447   3.307   2.867  15.954  0.2435 -0.0724 -0.5339
   95TMC2    C3 1448   3.178   2.860  16.002  0.1763  0.0034  0.6153
   95TMC2    C4 1449   3.213   2.824  15.732 -0.2393  0.3339  0.1716
   95TMC2    C5 1450   3.092   2.796  15.791 -0.4760 -0.3205 -0.6969
   95TMC2    C6 1451   3.075   2.820  15.928  0.9551  0.2599  1.0088
   95TMC2     C 1452   3.448   2.870  15.759 -0.6734 -0.4304  0.7727
   95TMC2     O 1453   3.484   2.984  15.789  0.4546 -0.1714  0.0549
   95TMC2     H 1454   3.385   2.915  16.012 -0.8960  0.1943  0.7854
   95TMC2    H1 1455   3.236   2.815  15.626 -0.2078 -1.3130  0.3046
   95TMC2    H2 1456   2.977   2.797  15.969  1.4316  0.1868  2.0894
   95TMC2    C7 1457   2.975   2.789  15.706  1.0247 -0.4840  0.7358
   95TMC2    C8 1458   3.162   2.867  16.142  0.4135 -0.1404 -0.1362
   95TMC2    O1 1459   2.895   2.701  15.729  0.3054  0.1888 -0.1744
   95TMC2    O2 1460   3.086   2.792  16.198 -0.5353 -0.4118  0.6353
   95TMC2    O5 1461   3.204   2.988  16.184 -0.1437 -0.5381  0.3031
   95TMC2    H5 1462   3.218   3.043  16.104  1.5839 -0.7986  0.4352
   96MPD2     C 1463   3.714   2.863  15.324 -0.2760  0.0874 -0.7910
   96MPD2    C1 1464   3.660   2.970  15.391  0.1660  0.3233 -0.0091
   96MPD2    C2 1465   3.587   2.945  15.509 -0.0649  0.2936  0.3774
   96MPD2    C3 1466   3.569   2.813  15.552  0.4265 -0.5961  0.5986
   96MPD2    C4 1467   3.644   2.715  15.492  0.5658 -0.3952 -0.2695
   96MPD2    C5 1468   3.707   2.733  15.371  0.1436 -0.2543 -0.2362
   96MPD2     H 1469   3.532   3.025  15.556 -1.6790 -0.3051 -0.4791
   96MPD2    H1 1470   3.638   2.614  15.532  2.0079 -2.1543 -4.5171
   96MPD2    H2 1471   3.772   2.891  15.237  1.2297 -0.1522  0.1206
   96MPD2    H3 1472   3.771   2.656  15.331 -3.5949 -4.0335  1.0250
   96MPD2     N 1473   3.487   2.781  15.666 -1.0788 -0.4336 -0.3796
   96MPD2    H5 1474   3.446   2.690  15.686  1.1025 -1.3144  0.1155
   96MPD2    N1 1475   3.683   3.097  15.333 -0.0450 -0.6457  0.2665
   96MPD2    H7 1476   3.729   3.101  15.243  1.6835 -1.3605  1.1312
   97MPD2     C 1477   0.861   4.377   1.673  0.3598  0.2035  0.3812
   97MPD2    C1 1478   0.856   4.497   1.602  0.2286  0.0303 -0.2051
   97MPD2    C2 1479   0.950   4.516   1.499  0.7002 -0.1672 -0.4301
   97MPD2    C3 1480   1.053   4.423   1.474  0.8265 -0.8880 -0.0980
   97MPD2    C4 1481   1.067   4.318   1.560 -0.2653  0.2236  0.1619
   97MPD2    C5 1482   0.968   4.289   1.654  0.0057 -0.4925 -0.2772
   97MPD2     H 1483   0.945   4.609   1.444  1.8190  0.6221  0.8147
   97MPD2    H1 1484   1.150   4.249   1.547  0.4514  1.3912 -1.5446
   97MPD2    H2 1485   0.785   4.348   1.744 -0.4273  1.5190  0.0886
   97MPD2    H3 1486   0.979   4.194   1.704 -2.5689 -1.5451 -1.7363
   97MPD2     N 1487   1.145   4.446   1.367  0.1097  0.5400 -0.7963
   97MPD2    H5 1488   1.234   4.397   1.355  0.9474  2.3073 -1.8229
   97MPD2    N1 1489   0.748   4.586   1.641  0.0427  0.4007 -0.0141
   97MPD2    H7 1490   0.684   4.567   1.718  0.4178  0.7896  0.3902
   98TCq2    C1 1491   1.131   4.549   1.271  0.0412 -1.3989  0.3438
   98TCq2    O2 1492   1.037   4.621   1.243 -0.0181  0.6015 -0.0091
   98TCq2    C2 1493   1.258   4.562   1.192  0.5214  0.2147 -0.0728
   98TCq2    C3 1494   1.362   4.470   1.215 -0.3291  0.0194 -0.0232
   98TCq2    C4 1495   1.479   4.491   1.143 -1.2947 -0.0758 -0.8819
   98TCq2    C5 1496   1.489   4.601   1.059 -0.3009 -0.0951  0.0413
   98TCq2    C6 1497   1.378   4.678   1.026  0.1336 -0.9484 -0.1703
   98TCq2    C7 1498   1.258   4.656   1.097  0.5309  0.0743  0.5312
   98TCq2    C8 1499   1.397   0.063   0.926 -0.8437 -0.2310 -0.0312
   98TCq2    O4 1500   1.482   0.044   0.836  0.2032  0.4174 -0.3743
   98TCq2    C9 1501   1.589   4.410   1.152  0.4967 -0.1345 -0.4462
   98TCq2    O5 1502   1.693   4.434   1.085  0.2602  0.0478  0.2182
   98TCq2    O6 1503   1.565   4.314   1.230 -0.2055 -0.3138  0.3752
   98TCq2    H2 1504   1.359   4.381   1.276 -0.3462  0.1845  0.2128
   98TCq2    H3 1505   1.579   4.616   1.001 -1.3465  0.5695 -1.4056
   98TCq2    H4 1506   1.166   4.714   1.088  1.3520  1.4965  1.2968
   99MPD2     C 1507   4.678   2.582   1.745 -0.3595 -0.0933 -0.7743
   99MPD2    C1 1508   4.551   2.539   1.777 -0.4569  0.0213 -0.7337
   99MPD2    C2 1509   4.499   2.432   1.706 -0.2682  0.4228 -0.0117
   99MPD2    C3 1510   4.568   2.378   1.603  0.1007  0.5156 -0.1509
   99MPD2    C4 1511   4.695   2.418   1.581 -0.3688 -0.3525 -0.2031
   99MPD2    C5 1512   0.026   2.519   1.655  0.0422  0.7532 -0.3785
   99MPD2     H 1513   4.397   2.405   1.728  0.3300 -1.6901  0.1663
   99MPD2    H1 1514   0.041   2.369   1.512  2.0124  2.0009  0.4576
   99MPD2    H2 1515   0.012   2.663   1.792 -0.0642 -1.2395  0.8625
   99MPD2    H3 1516   0.129   2.545   1.635 -0.6579  1.7852 -2.5878
   99MPD2     N 1517   4.500   2.283   1.525 -0.3449 -0.6327  0.2802
   99MPD2    H5 1518   4.404   2.260   1.546 -0.5856 -0.6249 -0.8082
   99MPD2    N1 1519   4.464   2.605   1.866 -0.0390  0.7652 -0.6102
   99MPD2    H7 1520   4.368   2.574   1.875  0.2299  0.3660  0.7981
  100TCq2    C1 1521   4.506   2.704   1.956 -0.8120 -0.0411 -0.9355
  100TCq2    O2 1522   4.621   2.741   1.981 -0.5524 -0.0434  0.7336
  100TCq2    C2 1523   4.404   2.760   2.039 -0.3649 -0.3315 -0.4265
  100TCq2    C3 1524   4.448   2.833   2.145  0.0549 -0.3575  0.0671
  100TCq2    C4 1525   4.356   2.890   2.225  0.2327 -0.7062 -0.2528
  100TCq2    C5 1526   4.225   2.884   2.209 -0.7321 -0.7779  0.0814
  100TCq2    C6 1527   4.176   2.811   2.104 -0.0515 -0.3582 -0.9369
  100TCq2    C7 1528   4.270   2.753   2.014 -0.0335  0.5813 -0.4245
  100TCq2    C8 1529   4.043   2.757   2.121  0.2089  0.0955 -0.6713
  100TCq2    O4 1530   3.984   2.795   2.220 -0.5103  0.0295 -0.2992
  100TCq2    C9 1531   4.399   2.967   2.334  0.1964 -0.4551  0.1073
  100TCq2    O5 1532   4.497   2.922   2.392 -0.1488 -0.4097 -0.0658
  100TCq2    O6 1533   4.317   3.055   2.383  0.0230  0.1063 -0.2577
  100TCq2    H2 1534   4.552   2.848   2.173  0.3440 -2.7995  0.2651
  100TCq2    H3 1535   4.158   2.915   2.288 -2.7383 -0.5767 -1.6800
  100TCq2    H4 1536   4.225   2.696   1.934 -2.9588  2.1014  0.1271
  101MPD2     C 1537   0.925   3.659  12.836  0.0048 -0.0767  0.7489
  101MPD2    C1 1538   0.796   3.693  12.812 -0.3738  0.3688 -0.1726
  101MPD2    C2 1539   0.698   3.657  12.903  0.2562 -0.1784  0.2221
  101MPD2    C3 1540   0.742   3.599  13.023 -0.3851  0.0430 -0.2615
  101MPD2    C4 1541   0.877   3.578  13.048  0.2250 -1.0303 -0.3819
  101MPD2    C5 1542   0.970   3.599  12.954  0.7733  0.5286 -0.7292
  101MPD2     H 1543   0.596   3.689  12.888  0.1291 -0.4781  0.4532
  101MPD2    H1 1544   0.913   3.538  13.141 -1.1586 -2.2504 -0.3668
  101MPD2    H2 1545   1.002   3.693  12.768  0.1381  0.7277  1.2960
  101MPD2    H3 1546   1.073   3.580  12.982  1.0360  1.6090 -0.9785
  101MPD2     N 1547   0.649   3.564  13.126 -0.0458  0.3355 -0.2424
  101MPD2    H5 1548   0.701   3.534  13.208 -0.9192 -0.8165 -0.1209
  101MPD2    N1 1549   0.779   3.774  12.701  0.1636 -0.1469  0.4737
  101MPD2    H7 1550   0.861   3.800  12.647 -0.2789 -1.8534 -0.9903
  102TCq2    C1 1551   0.896   4.015  12.268  0.0077  0.4933 -0.0691
  102TCq2    O2 1552   1.000   3.976  12.320  0.1581 -0.3057  0.6886
  102TCq2    C2 1553   0.773   3.998  12.347 -0.6202 -0.1001  0.0548
  102TCq2    C3 1554   0.654   4.061  12.308 -0.4559 -0.2832  0.1169
  102TCq2    C4 1555   0.541   4.050  12.390  0.2684 -0.9387 -1.2768
  102TCq2    C5 1556   0.545   3.970  12.502 -0.0082  0.7117 -0.3230
  102TCq2    C6 1557   0.667   3.915  12.542 -0.1735  0.2058  0.0900
  102TCq2    C7 1558   0.778   3.925  12.463  0.3213  0.2432 -0.7643
  102TCq2    C8 1559   0.656   3.832  12.660 -0.3399  0.7018 -0.5998
  102TCq2    O4 1560   0.546   3.822  12.707  0.3651  0.0020  0.4747
  102TCq2    C9 1561   0.414   4.098  12.355  0.1662  0.9240  0.3063
  102TCq2    O5 1562   0.319   4.014  12.377 -0.2485 -0.4954 -0.2147
  102TCq2    O6 1563   0.411   4.190  12.267 -0.3918  0.2092  0.3730
  102TCq2    H2 1564   0.641   4.119  12.218 -2.8138 -0.3917  0.3867
  102TCq2    H3 1565   0.454   3.971  12.561 -1.0580  0.5304 -1.9250
  102TCq2    H4 1566   0.870   3.877  12.495  0.0798  1.8298  2.2631
  103TMC2    C1 1567   3.777   3.864  12.675  0.2919 -0.1358 -0.2576
  103TMC2    C2 1568   3.874   3.943  12.623  0.5652  0.2913  0.2449
  103TMC2    C3 1569   3.891   4.070  12.669 -0.4263 -0.1527 -0.2564
  103TMC2    C4 1570   3.711   3.904  12.787 -0.0099  0.9881 -0.3240
  103TMC2    C5 1571   3.716   4.036  12.831 -0.1781 -0.3524  0.0465
  103TMC2    C6 1572   3.813   4.115  12.775  0.3600  0.4388  1.0250
  103TMC2     C 1573   3.733   3.745  12.602  0.3812  0.0127  0.4437
  103TMC2     O 1574   3.643   3.682  12.656 -0.7778  0.3452  0.0895
  103TMC2     H 1575   3.942   3.902  12.548 -1.0920 -0.8341 -0.6449
  103TMC2    H1 1576   3.645   3.832  12.834  0.0418 -0.0053 -1.7540
  103TMC2    H2 1577   3.843   4.204  12.828 -4.4580  2.5006  0.3703
  103TMC2    C7 1578   3.677   4.069  12.967 -0.1550  0.3636 -0.1130
  103TMC2    C8 1579   4.032   4.114  12.655  0.1968 -0.3826  1.1493
  103TMC2    O1 1580   3.631   3.980  13.037  0.2979 -0.0634  0.0381
  103TMC2    O2 1581   4.114   4.061  12.582  0.4753  0.3856  0.7436
  103TMC2    O5 1582   4.048   4.241  12.695  0.4164  0.4096  0.5422
  103TMC2    H5 1583   3.970   4.282  12.738  0.2091  1.6294 -1.0317
  104MPD2     C 1584   3.927   3.533  12.360 -0.3160 -0.6120 -0.5304
  104MPD2    C1 1585   3.819   3.575  12.439  0.1626  0.4417  0.4202
  104MPD2    C2 1586   3.695   3.516  12.410  0.1766 -0.5259  0.1066
  104MPD2    C3 1587   3.678   3.421  12.308 -0.1365  0.0219 -0.6707
  104MPD2    C4 1588   3.788   3.385  12.231 -0.9850 -0.1465 -0.4633
  104MPD2    C5 1589   3.912   3.437  12.257  0.4257 -0.1969 -0.6632
  104MPD2     H 1590   3.605   3.542  12.466  0.1501 -0.3072 -0.0356
  104MPD2    H1 1591   3.777   3.311  12.153  1.6308  2.5710 -3.3759
  104MPD2    H2 1592   4.025   3.574  12.380  0.5532 -1.1891 -3.5371
  104MPD2    H3 1593   3.998   3.403  12.201 -1.2068 -1.6929 -2.2612
  104MPD2     N 1594   3.551   3.357  12.289  0.2685 -0.1989 -0.1511
  104MPD2    H5 1595   3.488   3.394  12.359 -0.3545  0.6472 -1.1533
  104MPD2    N1 1596   3.831   3.691  12.517 -0.1559 -0.5020 -0.2293
  104MPD2    H7 1597   3.915   3.747  12.519 -0.2372 -0.3402 -1.6353
  105MPD2     C 1598   0.484   2.874  17.423  0.0166 -0.0903  0.8344
  105MPD2    C1 1599   0.402   2.967  17.475 -0.5330  0.1577 -0.5258
  105MPD2    C2 1600   0.410   2.989  17.618 -0.0156  0.2446  1.0425
  105MPD2    C3 1601   0.498   2.922   0.017 -0.1899  0.6242 -0.0035
  105MPD2    C4 1602   0.595   2.843  17.643  0.2391  0.6928 -0.0808
  105MPD2    C5 1603   0.573   2.809  17.509  0.0691  0.2762  0.0099
  105MPD2     H 1604   0.347   3.061  17.668  0.0225 -0.9655  2.8159
  105MPD2    H1 1605   0.681   2.798   0.003  1.2449  1.4865 -1.1509
  105MPD2    H2 1606   0.494   2.851  17.317  1.6997  1.6422  0.6198
  105MPD2    H3 1607   0.655   2.755  17.462 -0.5037 -0.0341 -0.6342
  105MPD2     N 1608   0.490   2.940   0.154  0.2019 -0.2894  0.1254
  105MPD2    H5 1609   0.412   2.992   0.194 -0.3231 -0.8068 -0.2364
  105MPD2    N1 1610   0.308   3.043  17.398 -0.2020 -0.2996 -0.1743
  105MPD2    H7 1611   0.275   3.128  17.443  0.7521  0.3588 -0.7479
  106TCq2    C1 1612   0.577   2.898   0.250 -0.7616  0.3142  0.3549
  106TCq2    O2 1613   0.667   2.816   0.250 -0.2603 -0.2539  0.0673
  106TCq2    C2 1614   0.516   2.935   0.376  0.0309  0.7114  0.3270
  106TCq2    C3 1615   0.487   3.069   0.381 -0.1701 -0.2536 -0.1007
  106TCq2    C4 1616   0.392   3.114   0.465  0.3744 -1.3570 -0.1507
  106TCq2    C5 1617   0.332   3.025   0.550 -0.1588  0.4625 -0.1301
  106TCq2    C6 1618   0.360   2.887   0.544 -0.0227  0.2606 -0.0605
  106TCq2    C7 1619   0.450   2.840   0.448  0.0542  0.0389  0.0540
  106TCq2    C8 1620   0.293   2.788   0.627 -0.6104 -0.1860 -0.1646
  106TCq2    O4 1621   0.306   2.669   0.603 -0.0159 -0.4000  0.6217
  106TCq2    C9 1622   0.364   3.258   0.491  0.5528 -0.4008 -0.2994
  106TCq2    O5 1623   0.456   3.343   0.473  0.2472 -0.1371 -0.1855
  106TCq2    O6 1624   0.257   3.284   0.553 -0.0982 -0.2424  0.3352
  106TCq2    H2 1625   0.552   3.140   0.332  0.3683 -0.7450 -0.0987
  106TCq2    H3 1626   0.262   3.062   0.623 -0.3869  1.2055 -0.7304
  106TCq2    H4 1627   0.472   2.735   0.430  2.2407  0.4923  0.1039
  107TMC2    C1 1628   0.814   2.029  11.484 -0.2984 -0.5337  0.3724
  107TMC2    C2 1629   0.837   2.110  11.375  0.6561 -0.0728  0.9842
  107TMC2    C3 1630   0.873   2.039  11.266  0.1563  1.1077 -0.4169
  107TMC2    C4 1631   0.826   1.890  11.475 -0.3733  0.2286  0.3166
  107TMC2    C5 1632   0.882   1.827  11.362  0.6249 -0.3079  0.3386
  107TMC2    C6 1633   0.896   1.909  11.251 -0.2251 -0.0895 -0.0307
  107TMC2     C 1634   0.756   2.090  11.602 -0.3462 -0.5709  0.0925
  107TMC2     O 1635   0.693   2.014  11.674 -0.1385 -0.1731  0.1919
  107TMC2     H 1636   0.800   2.212  11.373  0.6614 -0.0750  0.7855
  107TMC2    H1 1637   0.805   1.835  11.566  0.1491 -0.9994 -0.3056
  107TMC2    H2 1638   0.918   1.872  11.152 -0.4317  2.1309 -0.9102
  107TMC2    C7 1639   0.878   1.682  11.338  0.0347 -0.1717 -0.7516
  107TMC2    C8 1640   0.902   2.129  11.158  0.0325 -0.7666  0.6961
  107TMC2    O1 1641   0.817   1.632  11.436  0.0390 -0.0780 -0.5625
  107TMC2    O2 1642   1.007   2.189  11.143  0.7825 -0.4376  0.4738
  107TMC2    O5 1643   0.795   2.135  11.070  0.3789 -0.3910  0.0910
  107TMC2    H5 1644   0.728   2.071  11.103  0.0354 -0.8860 -1.6065
  108MPD2     C 1645   0.770   2.425  11.731  0.1428 -0.2067 -0.0293
  108MPD2    C1 1646   0.720   2.299  11.722 -0.2480  0.1634 -1.0022
  108MPD2    C2 1647   0.626   2.255  11.819 -0.2640  0.3309  0.3298
  108MPD2    C3 1648   0.588   2.340  11.915 -0.9678  0.3120 -0.6177
  108MPD2    C4 1649   0.629   2.469  11.915  0.0863  0.1881  0.0008
  108MPD2    C5 1650   0.721   2.513  11.823  0.5523  0.1759 -0.1216
  108MPD2     H 1651   0.600   2.150  11.823 -0.0681  0.2407 -0.8742
  108MPD2    H1 1652   0.570   2.530  11.982  1.4171 -0.5758  1.8508
  108MPD2    H2 1653   0.851   2.455  11.666 -0.1137  0.7212  0.0809
  108MPD2    H3 1654   0.756   2.615  11.829  0.8112  0.2631 -2.9177
  108MPD2     N 1655   0.490   2.310  12.015  0.0422 -0.2066 -0.8632
  108MPD2    H5 1656   0.463   2.380  12.083  0.6856 -0.2401 -0.5687
  108MPD2    N1 1657   0.771   2.223  11.615 -0.0691  0.0288  0.4350
  108MPD2    H7 1658   0.831   2.276  11.553 -0.0489 -1.5353 -0.8557
  109MPD2     C 1659   4.441   4.186   2.206  0.1500  0.3322 -0.3037
  109MPD2    C1 1660   4.543   4.264   2.153 -0.7700  0.2915 -0.1419
  109MPD2    C2 1661   4.657   4.292   2.234  0.0897 -0.8181 -0.2046
  109MPD2    C3 1662   4.650   4.253   2.367  0.7897  0.5192  0.5892
  109MPD2    C4 1663   4.551   4.176   2.418  0.2086 -0.0798  0.3533
  109MPD2    C5 1664   4.451   4.139   2.331 -0.0485 -0.3959  0.1879
  109MPD2     H 1665   0.012   4.362   2.201  0.1847 -0.9012 -0.1611
  109MPD2    H1 1666   4.547   4.132   2.517  0.5886  0.8869  0.7972
  109MPD2    H2 1667   4.362   4.148   2.144 -0.3701  2.1943 -0.7987
  109MPD2    H3 1668   4.367   4.083   2.370  0.5619 -0.6369  1.1439
  109MPD2     N 1669   0.039   4.294   2.447 -0.2732  0.9280 -0.1192
  109MPD2    H5 1670   0.115   4.341   2.400  0.2298 -0.0330 -0.2629
  109MPD2    N1 1671   4.545   4.291   2.012 -0.1721 -0.4683 -0.1448
  109MPD2    H7 1672   4.449   4.286   1.978 -1.0828  2.8979  1.9587
  110TCq2    C1 1673   0.052   4.270   2.580  0.4145 -0.1496 -0.3301
  110TCq2    O2 1674   4.719   4.189   2.653  0.7309 -0.4391 -0.1372
  110TCq2    C2 1675   0.162   4.351   2.633  0.7223 -0.1019 -0.3523
  110TCq2    C3 1676   0.228   4.303   2.742 -0.2638 -0.0775  0.6536
  110TCq2    C4 1677   0.344   4.359   2.770  0.2346 -0.2446  0.1751
  110TCq2    C5 1678   0.403   4.450   2.688  0.3168 -0.4911 -0.1203
  110TCq2    C6 1679   0.334   4.499   2.581 -0.6213  0.2460 -0.3163
  110TCq2    C7 1680   0.212   4.447   2.552  0.0118  0.3467  0.5707
  110TCq2    C8 1681   0.389   4.585   2.472  0.4533 -0.8379  0.5231
  110TCq2    O4 1682   0.327   4.580   2.368 -0.1464 -0.8265 -0.1314
  110TCq2    C9 1683   0.408   4.330   2.893 -0.0116 -0.4375  0.0529
  110TCq2    O5 1684   0.501   4.403   2.918  0.1922  0.0166 -0.2904
  110TCq2    O6 1685   0.367   4.236   2.964 -0.4151  0.7266 -0.0471
  110TCq2    H2 1686   0.194   4.224   2.809 -1.3070 -1.9146 -2.0407
  110TCq2    H3 1687   0.500   4.490   2.716 -0.7503  0.4086  2.3023
  110TCq2    H4 1688   0.153   4.501   2.479 -2.0980 -2.3402  0.2763
  111TMC2    C1 1689   0.757   3.934  11.604  0.0351  0.0833 -0.2121
  111TMC2    C2 1690   0.726   3.821  11.679  0.0387  1.0536  0.1979
  111TMC2    C3 1691   0.832   3.729  11.675 -0.0920 -0.1984 -0.1901
  111TMC2    C4 1692   0.870   3.956  11.528  0.4427 -0.6445 -0.2326
  111TMC2    C5 1693   0.972   3.860  11.537  0.1108 -0.2514 -0.0731
  111TMC2    C6 1694   0.945   3.746  11.611 -0.0830 -0.2243  0.5991
  111TMC2     C 1695   0.653   4.031  11.584  0.1800  0.7653 -0.0895
  111TMC2     O 1696   0.647   4.074  11.470  0.0148 -0.4897  0.4864
  111TMC2     H 1697   0.630   3.799  11.725  1.2094 -0.9402  1.6587
  111TMC2    H1 1698   0.872   4.044  11.464  0.3951  1.2350  2.3592
  111TMC2    H2 1699   1.021   3.669  11.621  0.5887  0.4744  0.9156
  111TMC2    C7 1700   1.110   3.912  11.548 -0.4636  0.2732  0.0416
  111TMC2    C8 1701   0.797   3.593  11.698  0.4368 -0.9103  0.4679
  111TMC2    O1 1702   1.186   3.892  11.637  0.0711  0.0106  0.3530
  111TMC2    O2 1703   0.686   3.553  11.658 -0.1639 -0.0392  0.0895
  111TMC2    O5 1704   0.842   3.563  11.818 -0.4357 -0.0419 -0.2371
  111TMC2    H5 1705   0.924   3.609  11.844 -0.2381 -1.2405  1.2388
  112MPD2     C 1706   0.182   4.231  11.666  0.3681  0.9183 -0.4445
  112MPD2    C1 1707   0.246   4.190  11.553  0.6347 -0.1159  0.5486
  112MPD2    C2 1708   0.373   4.125  11.564 -0.1035 -0.2078  0.3086
  112MPD2    C3 1709   0.439   4.104  11.682 -0.8024 -0.4631 -0.1442
  112MPD2    C4 1710   0.365   4.134  11.801  0.0835  0.6690  0.2782
  112MPD2    C5 1711   0.250   4.198  11.790  0.4318 -0.1092 -0.4207
  112MPD2     H 1712   0.410   4.102  11.464 -1.8562  0.3135 -0.4577
  112MPD2    H1 1713   0.402   4.111  11.901  1.4831 -1.1332 -0.6397
  112MPD2    H2 1714   0.089   4.286  11.682 -0.8583 -1.7476  1.5849
  112MPD2    H3 1715   0.197   4.228  11.879  1.3822  0.7019 -0.1189
  112MPD2     N 1716   0.571   4.042  11.687 -0.0745 -0.2474  0.6502
  112MPD2    H5 1717   0.592   3.994  11.773  1.1553  0.0400  0.5057
  112MPD2    N1 1718   0.199   4.211  11.423  0.4513 -0.0053  0.0484
  112MPD2    H7 1719   0.266   4.187  11.351  1.0590  1.4407  0.1244
  113MPD2     C 1720   3.693   2.487   1.259 -0.1735  0.0030 -0.0249
  113MPD2    C1 1721   3.555   2.518   1.258 -0.6865 -0.1306  0.8219
  113MPD2    C2 1722   3.483   2.476   1.147 -0.2169 -0.2066  0.5601
  113MPD2    C3 1723   3.538   2.389   1.053 -0.5502 -0.3183  0.3050
  113MPD2    C4 1724   3.671   2.358   1.063  0.8934 -0.3444  0.4235
  113MPD2    C5 1725   3.750   2.413   1.165 -0.0414 -0.2095  0.1868
  113MPD2     H 1726   3.379   2.504   1.141  0.2607  1.6014  0.4123
  113MPD2    H1 1727   3.715   2.285   0.996  3.4754  1.5317  0.0860
  113MPD2    H2 1728   3.753   2.518   1.344  0.4676  0.1528 -0.5378
  113MPD2    H3 1729   3.854   2.382   1.162 -0.0083 -0.2621  1.8016
  113MPD2     N 1730   3.463   2.319   0.954 -0.1988 -0.7876 -0.4255
  113MPD2    H5 1731   3.510   2.241   0.908  2.1901 -2.0573  4.1171
  113MPD2    N1 1732   3.490   2.590   1.361  0.6361  0.3056 -0.7214
  113MPD2    H7 1733   3.406   2.630   1.322 -0.5027 -1.2029  0.1961
  114TCq2    C1 1734   3.327   2.320   0.945 -0.0915 -1.4469  0.0956
  114TCq2    O2 1735   3.242   2.381   1.009 -0.0105  0.4918  0.0776
  114TCq2    C2 1736   3.287   2.203   0.864 -0.1167  0.5664  0.8811
  114TCq2    C3 1737   3.372   2.140   0.776 -0.6433 -0.1331  0.6075
  114TCq2    C4 1738   3.345   2.004   0.751  0.1431 -0.4937  0.2280
  114TCq2    C5 1739   3.242   1.934   0.813 -0.0600  0.4202 -0.1746
  114TCq2    C6 1740   3.163   2.003   0.904 -0.3176  0.1405 -0.2473
  114TCq2    C7 1741   3.180   2.140   0.913  0.2986 -0.0060 -0.3483
  114TCq2    C8 1742   3.062   1.940   0.994  0.4688  0.7344  0.4082
  114TCq2    O4 1743   3.016   2.019   1.079 -0.3117 -0.0375 -0.2328
  114TCq2    C9 1744   3.437   1.938   0.661 -0.5210  0.1972 -0.7823
  114TCq2    O5 1745   3.402   1.821   0.638 -0.0283  0.7004 -0.1049
  114TCq2    O6 1746   3.529   2.008   0.621  0.3796  0.5578  0.6982
  114TCq2    H2 1747   3.457   2.196   0.739 -1.0324 -0.2030 -0.3901
  114TCq2    H3 1748   3.240   1.826   0.807 -2.2955  0.3150  2.4024
  114TCq2    H4 1749   3.122   2.199   0.983  2.5460  0.8528  0.7877
  115TMC2    C1 1750   4.154   0.732   0.396 -0.5235 -0.5308  0.2641
  115TMC2    C2 1751   4.190   0.687   0.522 -0.4215  0.6798 -0.5386
  115TMC2    C3 1752   4.214   0.785   0.613  0.3284  0.4594  0.4447
  115TMC2    C4 1753   4.133   0.862   0.363  0.9437  0.0066 -0.0127
  115TMC2    C5 1754   4.167   0.952   0.460  1.0746 -0.0692  0.4659
  115TMC2    C6 1755   4.211   0.917   0.580  0.1336  0.2219 -0.0361
  115TMC2     C 1756   4.155   0.636   0.284  0.1595 -0.3006  0.0933
  115TMC2     O 1757   4.141   0.521   0.316 -0.0460  0.4078 -0.1096
  115TMC2     H 1758   4.217   0.584   0.539  2.1351  1.0181 -2.3504
  115TMC2    H1 1759   4.079   0.881   0.271 -0.3784 -1.7187  0.4087
  115TMC2    H2 1760   4.254   0.983   0.654  1.9651 -0.3051 -0.6323
  115TMC2    C7 1761   4.166   1.096   0.435  0.2755 -0.4047 -0.8159
  115TMC2    C8 1762   4.246   0.759   0.751 -0.7852  0.4074  0.3429
  115TMC2    O1 1763   4.156   1.172   0.530 -0.0323  0.4307 -0.1680
  115TMC2    O2 1764   4.309   0.838   0.823  0.2039 -0.0588  0.0667
  115TMC2    O5 1765   4.220   0.627   0.774  0.4490 -0.3912 -0.2164
  115TMC2    H5 1766   4.152   0.587   0.715  0.9965 -2.3304  0.4566
  116MPD2     C 1767   4.160   0.554  17.462  0.5605 -0.3879 -0.0489
  116MPD2    C1 1768   4.163   0.461  17.565  0.5790  0.2327  0.3516
  116MPD2    C2 1769   4.176   0.504   0.009  0.1018  0.4548  0.4187
  116MPD2    C3 1770   4.163   0.642   0.033  0.5613  0.6912  0.2400
  116MPD2    C4 1771   4.165   0.737  17.615 -0.0887  0.5421 -0.4855
  116MPD2    C5 1772   4.163   0.685  17.489 -0.5129  0.5404 -0.2096
  116MPD2     H 1773   4.179   0.424   0.082  1.3414  1.4753  1.4761
  116MPD2    H1 1774   4.176   0.843  17.635  0.4797  0.6408 -1.2994
  116MPD2    H2 1775   4.150   0.525  17.358  1.5284 -2.9109  0.5750
  116MPD2    H3 1776   4.153   0.748  17.401 -0.1578  3.4928  1.8639
  116MPD2     N 1777   4.156   0.699   0.158 -0.0846  0.2945  0.5401
  116MPD2    H5 1778   4.163   0.800   0.160 -1.5739  0.4587 -2.4678
  116MPD2    N1 1779   4.171   0.329  17.517 -0.6003  0.4900 -0.3502
  116MPD2    H7 1780   4.165   0.313  17.417  2.7061 -0.9261 -0.3004
  117TMC2    C1 1781   2.836   1.813  13.970  0.3286 -0.2279  0.0239
  117TMC2    C2 1782   2.837   1.781  14.100 -0.6058  0.2357 -0.1431
  117TMC2    C3 1783   2.912   1.860  14.189  0.0778  0.7102 -0.3577
  117TMC2    C4 1784   2.908   1.915  13.916 -0.6640  0.0662 -0.1666
  117TMC2    C5 1785   2.977   1.993  14.010 -0.7647  0.6995  0.5466
  117TMC2    C6 1786   2.989   1.965  14.142 -0.6886  0.3565  0.0706
  117TMC2     C 1787   2.751   1.729  13.878  1.2006 -0.0080 -0.1353
  117TMC2     O 1788   2.718   1.621  13.929 -0.1844  0.0793  0.9288
  117TMC2     H 1789   2.757   1.721  14.142 -1.5379  1.2061 -0.5469
  117TMC2    H1 1790   2.912   1.930  13.809  1.9099  2.1982  0.2446
  117TMC2    H2 1791   3.081   1.991  14.192 -1.2225  1.2846  0.5636
  117TMC2    C7 1792   3.062   2.098  13.958 -0.3330  0.8120  0.3687
  117TMC2    C8 1793   2.914   1.828  14.330 -0.7555  0.4255  0.0728
  117TMC2    O1 1794   3.146   2.136  14.036 -0.9408  1.1035  0.1829
  117TMC2    O2 1795   2.863   1.726  14.375 -0.0525 -0.0098 -0.3309
  117TMC2    O5 1796   2.937   1.940  14.400 -0.0506  0.3175  0.3672
  117TMC2    H5 1797   2.941   2.026  14.353  2.3531 -1.1249 -2.0676
  118MPD2     C 1798   3.068   2.262  13.636  0.3904  1.1366  0.7698
  118MPD2    C1 1799   3.083   2.255  13.769 -0.8253 -0.1122  0.0310
  118MPD2    C2 1800   3.161   2.355  13.836  0.5507 -0.6181  0.1437
  118MPD2    C3 1801   3.221   2.459  13.765 -1.3367 -0.0447 -0.1474
  118MPD2    C4 1802   3.185   2.475  13.633 -0.2716 -0.2252  0.2239
  118MPD2    C5 1803   3.108   2.378  13.571 -0.8983  0.6765 -0.0928
  118MPD2     H 1804   3.168   2.351  13.944  0.6000  1.3278  0.2150
  118MPD2    H1 1805   3.209   2.556  13.565  2.3227 -1.4404 -0.3310
  118MPD2    H2 1806   3.019   2.186  13.576  1.1592  1.2870 -0.0537
  118MPD2    H3 1807   3.093   2.395  13.465 -0.1053 -0.1339 -0.3309
  118MPD2     N 1808   3.294   2.560  13.827  0.3528  0.2508  0.1972
  118MPD2    H5 1809   3.316   2.637  13.766 -1.4910 -1.2247 -2.3369
  118MPD2    N1 1810   3.020   2.146  13.834 -0.9526  0.6974  0.3607
  118MPD2    H7 1811   2.949   2.087  13.791  0.3677 -1.9226  1.7741
  119MPD2     C 1812   1.982   3.330  13.770 -0.0152 -0.1961 -0.2901
  119MPD2    C1 1813   1.858   3.295  13.808 -0.1931 -0.0916 -0.0947
  119MPD2    C2 1814   1.753   3.371  13.761 -0.4424  0.1685  0.3857
  119MPD2    C3 1815   1.772   3.459  13.654 -0.3451 -0.1725 -0.0379
  119MPD2    C4 1816   1.897   3.492  13.609  0.7404 -0.4923  0.1711
  119MPD2    C5 1817   1.994   3.430  13.677 -0.0672 -0.0102 -0.9563
  119MPD2     H 1818   1.656   3.360  13.808 -0.0550 -3.1629  0.3976
  119MPD2    H1 1819   1.910   3.563  13.529  0.0474 -1.2672 -0.6248
  119MPD2    H2 1820   2.076   3.298  13.813  0.5478  1.2537 -0.4053
  119MPD2    H3 1821   2.095   3.458  13.647  0.2999  0.9628  1.1544
  119MPD2     N 1822   1.662   3.510  13.580 -0.1298 -0.5031  0.1652
  119MPD2    H5 1823   1.682   3.572  13.503  1.3545 -2.4014 -0.9657
  119MPD2    N1 1824   1.840   3.193  13.903  0.2052  0.3967  0.6692
  119MPD2    H7 1825   1.923   3.171  13.957  0.9751 -1.8292 -1.3947
  120TCq2    C1 1826   1.526   3.475  13.600  0.2131  0.3126  0.2979
  120TCq2    O2 1827   1.477   3.411  13.694 -1.1156  0.3174  0.1690
  120TCq2    C2 1828   1.432   3.523  13.499  0.3199 -0.1379 -0.2278
  120TCq2    C3 1829   1.460   3.625  13.419  0.0809  0.4817  0.0847
  120TCq2    C4 1830   1.379   3.640  13.309 -0.0175  0.4355  0.1259
  120TCq2    C5 1831   1.267   3.565  13.295 -0.9529 -0.5031  0.0797
  120TCq2    C6 1832   1.232   3.474  13.390 -0.0469 -0.0394 -0.5677
  120TCq2    C7 1833   1.318   3.438  13.486  0.1923  0.8109  0.7016
  120TCq2    C8 1834   1.149   3.357  13.343 -0.1899 -0.0924  0.3985
  120TCq2    O4 1835   1.133   3.358  13.223  0.4536  0.4664  0.8193
  120TCq2    C9 1836   1.422   3.729  13.202 -0.8023  0.1160 -0.6989
  120TCq2    O5 1837   1.543   3.768  13.199 -0.1481  0.4766  0.1273
  120TCq2    O6 1838   1.343   3.741  13.106 -0.2974  0.2709 -0.1270
  120TCq2    H2 1839   1.545   3.689  13.439  0.6529 -0.8544  1.9469
  120TCq2    H3 1840   1.197   3.581  13.214  1.6000  0.9501 -1.7977
  120TCq2    H4 1841   1.297   3.366  13.564 -0.4522 -0.9138 -1.0427
  121TMC2    C1 1842   2.922   0.429  13.938  0.0417 -0.2345  0.1592
  121TMC2    C2 1843   2.902   0.374  14.063  0.0258 -0.3540 -1.1669
  121TMC2    C3 1844   2.810   0.272  14.080 -0.5691 -0.2657 -0.2405
  121TMC2    C4 1845   2.849   0.382  13.832  0.0230 -0.5293  1.0688
  121TMC2    C5 1846   2.756   0.286  13.854 -0.5488 -0.4944 -0.4878
  121TMC2    C6 1847   2.733   0.227  13.977  0.0470 -0.1694  0.0034
  121TMC2     C 1848   3.028   0.529  13.923 -0.8596  0.0515 -0.1886
  121TMC2     O 1849   3.078   0.587  14.016 -0.0386  0.0725 -0.0753
  121TMC2     H 1850   2.969   0.394  14.147  0.3716  0.1861 -1.5729
  121TMC2    H1 1851   2.854   0.436  13.738 -1.0997  1.1040  1.9203
  121TMC2    H2 1852   2.649   0.159  13.979 -1.0790  1.2255 -0.1815
  121TMC2    C7 1853   2.719   0.216  13.728  0.5822  0.1466 -0.3955
  121TMC2    C8 1854   2.783   0.230  14.213 -0.5193 -0.0750  0.2244
  121TMC2    O1 1855   2.780   0.231  13.624 -0.0366 -0.8540  0.7719
  121TMC2    O2 1856   2.804   0.299  14.312 -0.0922  0.3933 -0.4101
  121TMC2    O5 1857   2.694   0.129  14.213  0.0958 -0.2311 -0.1704
  121TMC2    H5 1858   2.717   0.056  14.150 -0.0206 -1.3694  1.1087
  122MPD2     C 1859   3.204   0.748  13.810  0.3150 -0.6649  0.5518
  122MPD2    C1 1860   3.146   0.650  13.738  0.2097  0.5640 -0.2922
  122MPD2    C2 1861   3.164   0.640  13.603  0.0637  0.3341 -0.4519
  122MPD2    C3 1862   3.237   0.727  13.532 -0.4058 -0.6028 -0.4118
  122MPD2    C4 1863   3.290   0.831  13.601  0.0460 -0.1057  0.5090
  122MPD2    C5 1864   3.279   0.837  13.735  0.1798  0.6025  0.4148
  122MPD2     H 1865   3.109   0.559  13.557  1.1325 -1.4970  1.4731
  122MPD2    H1 1866   3.363   0.895  13.553 -1.6889  0.7120 -1.0398
  122MPD2    H2 1867   3.194   0.752  13.918  1.0884  0.4186  0.5872
  122MPD2    H3 1868   3.329   0.910  13.798 -0.5040  1.5911 -0.1852
  122MPD2     N 1869   3.269   0.720  13.394  0.0727  0.0173  0.1163
  122MPD2    H5 1870   3.306   0.798  13.341  1.8781  0.4601  2.0550
  122MPD2    N1 1871   3.055   0.553  13.788 -0.5244 -0.1788  0.1028
  122MPD2    H7 1872   3.025   0.492  13.712  0.5415  0.8791 -1.1880
  123MPD2     C 1873   1.009   2.921   8.974  0.2294  0.9439 -0.1346
  123MPD2    C1 1874   1.014   2.793   9.024  0.1583 -0.4109 -0.7539
  123MPD2    C2 1875   1.137   2.746   9.070 -0.0220 -0.3634  0.8299
  123MPD2    C3 1876   1.252   2.831   9.085  0.6910  0.8078  0.4610
  123MPD2    C4 1877   1.240   2.962   9.033  0.2472  0.2134  0.2562
  123MPD2    C5 1878   1.124   3.002   8.976  0.4883  0.2205  0.0355
  123MPD2     H 1879   1.146   2.645   9.108 -0.4289 -0.7086  0.0235
  123MPD2    H1 1880   1.318   3.037   9.035 -2.2524  2.7547  3.3277
  123MPD2    H2 1881   0.921   2.950   8.918  1.3316  1.7564 -1.4409
  123MPD2    H3 1882   1.122   3.103   8.935  0.0396  0.1892 -0.0230
  123MPD2     N 1883   1.362   2.782   9.153  0.2898 -0.3649 -0.5371
  123MPD2    H5 1884   1.362   2.682   9.173 -2.6802 -0.3492 -0.5577
  123MPD2    N1 1885   0.900   2.709   9.034 -0.6949 -0.4235 -0.0021
  123MPD2    H7 1886   0.815   2.758   9.008 -1.5421 -2.4830 -1.0863
  124TCq2    C1 1887   1.474   2.859   9.186 -0.3446  0.1796 -0.3889
  124TCq2    O2 1888   1.493   2.981   9.200 -0.1610  0.3356  0.2076
  124TCq2    C2 1889   1.582   2.782   9.256  0.3778  0.3305 -0.0594
  124TCq2    C3 1890   1.699   2.846   9.285 -0.1319  0.2360 -0.5659
  124TCq2    C4 1891   1.795   2.781   9.370  0.3125 -0.2771 -0.0894
  124TCq2    C5 1892   1.763   2.662   9.431  0.3429  1.2994  0.0482
  124TCq2    C6 1893   1.644   2.601   9.401  0.5245  0.0522  0.1215
  124TCq2    C7 1894   1.549   2.662   9.319  0.1501  0.4469 -0.3007
  124TCq2    C8 1895   1.588   2.503   9.494 -0.3921 -0.1281 -0.1287
  124TCq2    O4 1896   1.632   2.503   9.607 -0.0902 -0.3689  0.1271
  124TCq2    C9 1897   1.921   2.841   9.399  0.2206  0.2305 -0.2625
  124TCq2    O5 1898   1.933   2.961   9.370  0.2909 -0.1515  0.1053
  124TCq2    O6 1899   1.994   2.786   9.486  0.1275  0.4652 -0.3513
  124TCq2    H2 1900   1.715   2.946   9.245  1.1448  0.1014 -0.3879
  124TCq2    H3 1901   1.832   2.614   9.498  1.9079  3.0086 -0.3494
  124TCq2    H4 1902   1.452   2.616   9.306 -0.1059  0.9561 -0.1709
  125TMC2    C1 1903   1.068   3.142   9.324 -0.1991 -1.1203 -0.3767
  125TMC2    C2 1904   0.949   3.145   9.246  0.4004  0.5306  0.3010
  125TMC2    C3 1905   0.922   3.245   9.157  0.2591  1.2369 -0.5245
  125TMC2    C4 1906   1.158   3.241   9.309 -0.1503 -0.0955  0.0110
  125TMC2    C5 1907   1.132   3.345   9.226  0.6266  0.1572  1.0902
  125TMC2    C6 1908   1.012   3.348   9.146  0.5580 -0.0697 -0.0321
  125TMC2     C 1909   1.091   3.019   9.402  0.3400  0.1496 -0.3887
  125TMC2     O 1910   1.002   2.933   9.414  0.5212  0.1684 -0.6517
  125TMC2     H 1911   0.878   3.064   9.262 -1.0032  1.1319 -2.8177
  125TMC2    H1 1912   1.236   3.253   9.383  0.7865  3.4308 -1.5471
  125TMC2    H2 1913   0.991   3.435   9.085  0.7481  1.0564  1.5018
  125TMC2    C7 1914   1.230   3.436   9.175  0.1058 -0.5130 -0.0628
  125TMC2    C8 1915   0.776   3.253   9.123  0.4143  0.0289 -0.4044
  125TMC2    O1 1916   1.178   3.523   9.107  0.0915  0.2276  0.2311
  125TMC2    O2 1917   0.700   3.158   9.106  0.1414  0.3249  0.1443
  125TMC2    O5 1918   0.744   3.383   9.147 -0.2178  1.0070  0.7472
  125TMC2    H5 1919   0.812   3.450   9.169 -0.4713  1.1321  1.1478
  126MPD1     C 1920   1.412   2.742   9.699 -0.4865 -0.1045 -0.3361
  126MPD1    C1 1921   1.489   2.845   9.645  0.2807  0.5950 -0.7330
  126MPD1    C2 1922   1.423   2.930   9.566 -0.0313 -0.4191  0.5267
  126MPD1    C3 1923   1.288   2.917   9.534 -0.5428  0.3992  0.0478
  126MPD1    C4 1924   1.220   2.807   9.582 -0.0551 -0.3357 -0.5497
  126MPD1    C5 1925   1.285   2.715   9.662  0.2024  0.6574  0.1658
  126MPD1     H 1926   1.472   3.015   9.519  0.3280 -0.8099  0.2012
  126MPD1    H1 1927   1.119   2.787   9.547 -0.2832  0.6914 -0.4835
  126MPD1    H2 1928   1.460   2.665   9.759 -0.1753  1.9607  2.0659
  126MPD1    H3 1929   1.235   2.626   9.698 -0.7254  0.2713 -2.1441
  126MPD1     N 1930   1.222   3.025   9.457  0.5692 -0.0770  0.0202
  126MPD1    H5 1931   1.285   3.096   9.421  0.3947  1.2363  2.2885
  126MPD1    N1 1932   1.620   2.878   9.695 -0.2949  0.1813  0.9533
  126MPD1    H6 1933   1.667   2.797   9.736 -0.7954 -1.2933 -1.3842
  126MPD1    H7 1934   1.681   2.927   9.629 -1.1177  1.1687  0.9321
  127MPD2     C 1935   3.302   3.277   9.584 -0.1387  0.9551  0.2655
  127MPD2    C1 1936   3.210   3.280   9.482 -0.6088 -0.4270  0.7640
  127MPD2    C2 1937   3.167   3.401   9.434  0.1552 -0.6121  0.1502
  127MPD2    C3 1938   3.207   3.518   9.494  0.3003  0.0444  0.2944
  127MPD2    C4 1939   3.299   3.509   9.603 -0.0501 -0.5538  0.2223
  127MPD2    C5 1940   3.344   3.388   9.651 -0.1582  0.7796  0.2092
  127MPD2     H 1941   3.098   3.405   9.350 -1.6052  2.1330  1.7183
  127MPD2    H1 1942   3.341   3.594   9.657  1.2194 -0.0859 -1.4851
  127MPD2    H2 1943   3.333   3.187   9.635 -0.9612  1.5969  1.8811
  127MPD2    H3 1944   3.407   3.383   9.740 -0.7973 -0.1779  0.6182
  127MPD2     N 1945   3.154   3.640   9.452  0.1727 -0.3840 -0.2747
  127MPD2    H5 1946   3.083   3.639   9.380 -1.2347  2.6944  1.0705
  127MPD2    N1 1947   3.160   3.158   9.433  0.8917 -0.4564  0.4965
  127MPD2    H7 1948   3.185   3.079   9.491 -2.0307 -3.2443 -2.0251
  128TCq2    C1 1949   3.081   3.129   9.320 -1.1907 -0.5332 -0.4264
  128TCq2    O2 1950   3.043   3.207   9.233 -0.2748  0.6213  0.2329
  128TCq2    C2 1951   3.050   2.989   9.297  0.1314  0.1190  0.3594
  128TCq2    C3 1952   3.084   2.890   9.387  0.1403  0.5189 -0.9198
  128TCq2    C4 1953   3.026   2.770   9.391  0.0913  0.2960  0.1936
  128TCq2    C5 1954   2.925   2.738   9.303  0.3760 -0.0635  0.0120
  128TCq2    C6 1955   2.881   2.839   9.223  0.0467  0.4754 -0.4045
  128TCq2    C7 1956   2.946   2.964   9.217  0.0808 -0.1693  0.2189
  128TCq2    C8 1957   2.765   2.815   9.140 -0.6944 -0.9150  0.3152
  128TCq2    O4 1958   2.740   2.905   9.058 -0.0500  0.1330 -0.3976
  128TCq2    C9 1959   3.052   2.681   9.502 -0.2175  0.3537 -0.6837
  128TCq2    O5 1960   2.986   2.571   9.496  0.3102 -0.4127  0.5679
  128TCq2    O6 1961   3.162   2.695   9.560  0.3770  0.2687  0.5585
  128TCq2    H2 1962   3.161   2.912   9.459 -0.8267  0.0084  0.2712
  128TCq2    H3 1963   2.880   2.640   9.304  0.8350 -0.2754 -0.3668
  128TCq2    H4 1964   2.917   3.037   9.143 -0.2994 -0.0198  0.5146
  129MPD2     C 1965   1.146   3.567   2.509  0.1094  0.0996 -0.0676
  129MPD2    C1 1966   1.173   3.703   2.522  0.1305  0.4377  0.5999
  129MPD2    C2 1967   1.205   3.783   2.407  0.0075  0.4364  0.7696
  129MPD2    C3 1968   1.238   3.716   2.291  0.7434 -0.1709  0.0714
  129MPD2    C4 1969   1.223   3.578   2.279  0.3839 -0.0515 -0.4262
  129MPD2    C5 1970   1.179   3.503   2.391  0.1735 -0.2835  0.9663
  129MPD2     H 1971   1.202   3.891   2.419  1.3255  0.5574 -0.0611
  129MPD2    H1 1972   1.247   3.529   2.185 -1.6634 -2.3126  0.2163
  129MPD2    H2 1973   1.100   3.503   2.584  0.4944 -4.2604 -3.5087
  129MPD2    H3 1974   1.163   3.396   2.378 -0.4250 -0.0784  0.0726
  129MPD2     N 1975   1.274   3.802   2.186  0.1856 -0.0614 -0.3510
  129MPD2    H5 1976   1.263   3.899   2.214  0.8396 -0.2108  0.4519
  129MPD2    N1 1977   1.135   3.775   2.633  0.5142  0.1459 -0.0610
  129MPD2    H7 1978   1.129   3.876   2.627  0.6611  0.0031 -2.6036
  130TCq2    C1 1979   1.095   3.722   2.754  0.5778  0.1075 -0.1367
  130TCq2    O2 1980   1.126   3.614   2.799 -0.5156 -0.2426  0.4335
  130TCq2    C2 1981   1.027   3.816   2.841 -0.5061  0.0746  0.8972
  130TCq2    C3 1982   1.003   3.765   2.964  0.5291  0.4957  0.6994
  130TCq2    C4 1983   0.889   3.791   3.031  0.5395  0.3703  0.0649
  130TCq2    C5 1984   0.786   3.863   2.976  0.3498 -1.1138  0.1768
  130TCq2    C6 1985   0.811   3.912   2.849  0.0792  0.6679 -0.3645
  130TCq2    C7 1986   0.927   3.895   2.782  0.4135  0.5008 -0.0493
  130TCq2    C8 1987   0.699   3.970   2.781  0.5504  0.1521 -0.5230
  130TCq2    O4 1988   0.590   3.920   2.791  0.4003 -0.0181 -0.1673
  130TCq2    C9 1989   0.866   3.730   3.161 -0.7787 -0.4501  0.2190
  130TCq2    O5 1990   0.955   3.658   3.217 -0.3887  0.6390 -0.2014
  130TCq2    O6 1991   0.754   3.754   3.216  0.5396  0.3537 -0.7688
  130TCq2    H2 1992   1.075   3.701   3.014 -1.1473 -1.1292  1.0602
  130TCq2    H3 1993   0.697   3.898   3.027 -1.4573 -3.2586 -1.4829
  130TCq2    H4 1994   0.936   3.930   2.679 -0.7912  0.6267 -0.1149
  131MPD2     C 1995   0.910   2.355   9.829 -0.9113 -0.0767 -0.2921
  131MPD2    C1 1996   0.917   2.470   9.755 -0.2064  0.8415 -0.3990
  131MPD2    C2 1997   0.882   2.468   9.625  0.8863  0.0390  0.2970
  131MPD2    C3 1998   0.835   2.358   9.566 -0.1446 -0.8099 -0.7117
  131MPD2    C4 1999   0.817   2.243   9.644  0.4585 -0.5240 -0.5342
  131MPD2    C5 2000   0.866   2.236   9.773 -0.1886 -0.5378  0.3585
  131MPD2     H 2001   0.891   2.556   9.562 -2.1510 -0.4133 -0.7407
  131MPD2    H1 2002   0.797   2.150   9.591  1.2268 -0.9625 -0.0676
  131MPD2    H2 2003   0.920   2.361   9.937 -3.7965  2.4630 -0.1672
  131MPD2    H3 2004   0.866   2.142   9.828 -1.6210 -0.9891 -0.3978
  131MPD2     N 2005   0.797   2.370   9.429 -0.1582 -0.4382  0.2295
  131MPD2    H5 2006   0.829   2.449   9.373  0.0106 -1.1027 -0.6142
  131MPD2    N1 2007   0.929   2.591   9.829 -0.5801  0.5179 -0.4939
  131MPD2    H7 2008   0.951   2.584   9.928 -0.0406  0.1471 -0.6381
  132TCq2    C1 2009   0.973   3.166   9.789 -0.1107  0.0783 -0.5166
  132TCq2    O2 2010   0.855   3.191   9.765 -0.1743  0.3678 -0.0087
  132TCq2    C2 2011   0.999   3.045   9.865  0.0899  0.3836 -0.0554
  132TCq2    C3 2012   1.118   3.021   9.924  0.2732  0.6873  0.0961
  132TCq2    C4 2013   1.150   2.899   9.957 -0.2269 -0.1598  0.2947
  132TCq2    C5 2014   1.068   2.794   9.939 -0.9518 -0.5327 -0.3726
  132TCq2    C6 2015   0.945   2.815   9.880  0.1119  0.7769  0.1175
  132TCq2    C7 2016   0.908   2.941   9.851  0.1753  0.0383  0.2737
  132TCq2    C8 2017   0.890   2.712   9.794 -0.9009  0.2858 -0.0367
  132TCq2    O4 2018   0.819   2.745   9.701 -0.0202  0.0713  0.5803
  132TCq2    C9 2019   1.281   2.876  10.012 -0.8485 -0.0945  0.6983
  132TCq2    O5 2020   1.289   2.777  10.083  0.0677  0.2991  0.5682
  132TCq2    O6 2021   1.351   2.984  10.022 -0.0591 -0.4687 -0.1830
  132TCq2    H2 2022   1.188   3.104   9.930 -0.3062  1.0595  1.6739
  132TCq2    H3 2023   1.108   2.696   9.962  0.3334 -0.1872 -1.0995
  132TCq2    H4 2024   0.813   2.952   9.799  2.1617 -0.1230 -3.3816
  133MPD2     C 2025   0.115   2.072   9.725 -0.2906 -0.5486 -0.0147
  133MPD2    C1 2026   0.033   2.089   9.613  0.4301 -0.5297  0.1213
  133MPD2    C2 2027   0.036   2.204   9.541  0.2400 -0.6076  0.1210
  133MPD2    C3 2028   0.120   2.307   9.589  0.0604 -0.7189  0.1007
  133MPD2    C4 2029   0.205   2.290   9.695  0.7700  0.1797  0.0297
  133MPD2    C5 2030   0.206   2.169   9.763  0.5206  0.6139 -0.2233
  133MPD2     H 2031   4.674   2.230   9.477  2.0563  1.6145 -1.3667
  133MPD2    H1 2032   0.266   2.377   9.719  1.1701 -0.1171  0.0977
  133MPD2    H2 2033   0.118   1.982   9.786 -1.0881 -0.4781  0.1270
  133MPD2    H3 2034   0.278   2.149   9.841  1.1898  0.1281 -0.9603
  133MPD2     N 2035   0.118   2.434   9.533 -0.6855  0.2490  0.7111
  133MPD2    H5 2036   0.181   2.496   9.582  1.5469 -1.8686  0.5197
  133MPD2    N1 2037   4.660   1.981   9.589  0.4751 -0.2259  0.1230
  133MPD2    H7 2038   4.675   1.899   9.647  1.0468 -2.4529 -3.1577
  134TCq2    C1 2039   4.556   1.979   9.506  0.2091  0.0045 -0.1149
  134TCq2    O2 2040   4.524   2.072   9.434 -0.7601  0.1333 -0.1417
  134TCq2    C2 2041   4.451   1.878   9.537 -0.9239  0.3714  0.9347
  134TCq2    C3 2042   4.318   1.908   9.490 -0.1169 -0.3808  0.2616
  134TCq2    C4 2043   4.220   1.821   9.521  0.5513  0.0074 -0.1860
  134TCq2    C5 2044   4.239   1.708   9.591  0.3737  0.3719 -0.7712
  134TCq2    C6 2045   4.375   1.680   9.622 -0.5137 -0.1690  0.8915
  134TCq2    C7 2046   4.482   1.773   9.607  0.0475  0.8089  0.0601
  134TCq2    C8 2047   4.423   1.543   9.662  0.1247  0.4765  0.4968
  134TCq2    O4 2048   4.529   1.533   9.725 -0.9567  0.5457  0.5699
  134TCq2    C9 2049   4.084   1.852   9.480  0.5393 -0.3356 -0.2185
  134TCq2    O5 2050   4.071   1.960   9.419  0.0472  0.4135 -0.5445
  134TCq2    O6 2051   3.983   1.775   9.501 -0.1844 -0.1482  0.0627
  134TCq2    H2 2052   4.300   2.004   9.444  1.4275  1.1792  2.9279
  134TCq2    H3 2053   4.157   1.643   9.619 -1.3244  2.3181 -1.2117
  134TCq2    H4 2054   4.588   1.751   9.621  0.0064 -0.0573 -1.0396
  135MPD2     C 2055   2.535   4.525   9.177  0.2472 -0.1768  0.4322
  135MPD2    C1 2056   2.419   4.495   9.102 -0.2068 -0.0787  0.0058
  135MPD2    C2 2057   2.418   4.370   9.039  0.2297  0.4672  0.1408
  135MPD2    C3 2058   2.527   4.281   9.056  0.3049 -0.0058  0.1592
  135MPD2    C4 2059   2.638   4.313   9.126 -0.5323 -0.4093  0.7307
  135MPD2    C5 2060   2.641   4.434   9.189 -0.1246 -0.3312 -0.0501
  135MPD2     H 2061   2.327   4.345   8.986  0.4299 -1.7392  0.8330
  135MPD2    H1 2062   2.721   4.244   9.127  1.7549  2.3663  1.4876
  135MPD2    H2 2063   2.544   4.614   9.238 -0.3262 -0.3055  0.6996
  135MPD2    H3 2064   2.719   4.458   9.261 -0.3359  1.1329 -0.3070
  135MPD2     N 2065   2.535   4.149   9.002  0.0834  0.0602 -0.4441
  135MPD2    H5 2066   2.613   4.093   9.035  1.4968  0.3125 -3.4145
  135MPD2    N1 2067   2.311   4.584   9.077 -0.5040  0.4374  0.3993
  135MPD2    H7 2068   2.249   4.564   8.999 -1.0036  1.7147  0.4555
  136TCq2    C1 2069   2.292   4.694   9.154 -0.2746  0.5700  0.8007
  136TCq2    O2 2070   2.359   4.716   9.255 -0.3748 -0.6099 -0.3372
  136TCq2    C2 2071   2.179   0.053   9.124 -0.0497 -0.4100 -0.6164
  136TCq2    C3 2072   2.134   0.067   8.994 -0.1208 -0.0307 -0.2773
  136TCq2    C4 2073   2.049   0.164   8.964 -0.3283 -0.2922 -0.3341
  136TCq2    C5 2074   1.996   0.247   9.057  0.1813  0.8620 -0.2918
  136TCq2    C6 2075   2.032   0.223   9.186  0.1349  0.0725  0.6268
  136TCq2    C7 2076   2.133   0.137   9.220  0.0760 -0.6566  0.2393
  136TCq2    C8 2077   1.945   0.274   9.286  0.3454  0.5478  0.1492
  136TCq2    O4 2078   1.894   0.386   9.272 -0.2373 -0.5800 -0.0051
  136TCq2    C9 2079   2.014   0.188   8.829 -0.1764  0.4335 -0.0488
  136TCq2    O5 2080   2.047   0.107   8.743  0.0893 -0.3821  0.7102
  136TCq2    O6 2081   1.940   0.280   8.804  0.4464  0.0989 -0.1753
  136TCq2    H2 2082   2.163   4.719   8.916  2.1868 -0.9118  1.3394
  136TCq2    H3 2083   1.920   0.319   9.030 -1.0646  0.2597  1.6138
  136TCq2    H4 2084   2.166   0.130   9.324 -0.3357 -1.1019  0.3371
  137MPD2     C 2085   2.580   3.157  10.383  0.3646 -0.3925 -0.6036
  137MPD2    C1 2086   2.537   3.204  10.258 -0.5765 -0.3015 -0.9415
  137MPD2    C2 2087   2.517   3.341  10.249 -0.3649  0.9548  0.1100
  137MPD2    C3 2088   2.544   3.428  10.361 -0.3032  0.3853 -1.0734
  137MPD2    C4 2089   2.589   3.379  10.481 -0.2869  0.3470  0.5881
  137MPD2    C5 2090   2.602   3.240  10.489  0.2106  0.2628 -0.0887
  137MPD2     H 2091   2.474   3.382  10.159 -0.1662  0.1086 -0.3705
  137MPD2    H1 2092   2.606   3.436  10.572 -2.3469  1.5054  0.2486
  137MPD2    H2 2093   2.602   3.052  10.395  2.4783  0.1702  0.4550
  137MPD2    H3 2094   2.636   3.191  10.579  2.5526  0.6719 -0.7371
  137MPD2     N 2095   2.526   3.562  10.332  0.1161  0.1520  0.3867
  137MPD2    H5 2096   2.502   3.580  10.235 -1.6421 -0.6976  0.6476
  137MPD2    N1 2097   2.509   3.123  10.141  0.1347 -0.1334  0.3996
  137MPD2    H7 2098   2.483   3.173  10.057  0.3226  0.3336  0.6159
  138TCq2    C1 2099   2.515   2.985  10.144 -0.3770 -0.1568  0.1975
  138TCq2    O2 2100   2.540   2.909  10.236 -0.3632  0.5158 -0.7557
  138TCq2    C2 2101   2.493   2.935  10.014 -0.0788 -0.5802 -0.1200
  138TCq2    C3 2102   2.395   2.845   9.994 -0.6605 -0.1411 -0.3455
  138TCq2    C4 2103   2.347   2.830   9.870  0.5975 -0.1232  0.8427
  138TCq2    C5 2104   2.391   2.917   9.766 -1.0026  0.5643 -0.2016
  138TCq2    C6 2105   2.479   3.014   9.792  0.8285 -0.0006  0.3933
  138TCq2    C7 2106   2.540   3.018   9.912  0.3020 -0.4449 -0.3482
  138TCq2    C8 2107   2.495   3.138   9.711 -0.5771 -0.1310  0.5280
  138TCq2    O4 2108   2.577   3.217   9.756  0.5338 -0.0004  1.2165
  138TCq2    C9 2109   2.245   2.736   9.832  0.0397 -0.2408  0.3414
  138TCq2    O5 2110   2.205   2.743   9.715  0.5711 -0.0770  0.1376
  138TCq2    O6 2111   2.218   2.646   9.913  0.1330 -0.6378 -0.3382
  138TCq2    H2 2112   2.364   2.775  10.071 -1.7776 -0.5890 -1.2077
  138TCq2    H3 2113   2.350   2.901   9.667 -0.5521 -1.0722 -0.1286
  138TCq2    H4 2114   2.630   3.078   9.920  0.0713 -0.3335  1.4900
  139TMC2    C1 2115   2.803   2.183  13.334 -0.2232  0.3119 -0.2631
  139TMC2    C2 2116   2.782   2.138  13.464  0.2886 -0.1415 -0.4423
  139TMC2    C3 2117   2.761   2.234  13.557 -0.6524 -0.5040  1.1554
  139TMC2    C4 2118   2.804   2.321  13.309  0.0484 -0.1443  0.1991
  139TMC2    C5 2119   2.799   2.407  13.412  0.6090 -0.1246  0.0758
  139TMC2    C6 2120   2.775   2.366  13.542 -0.0465 -0.3379  0.5107
  139TMC2     C 2121   2.820   2.084  13.236 -0.2272  0.4393  0.7589
  139TMC2     O 2122   2.804   2.123  13.121 -0.3055  0.1970  0.5272
  139TMC2     H 2123   2.759   2.038  13.499  1.6808  0.1027  1.2124
  139TMC2    H1 2124   2.821   2.353  13.207  1.2321 -0.4376  0.3060
  139TMC2    H2 2125   2.754   2.435  13.623  2.0082  0.1293  0.6279
  139TMC2    C7 2126   2.797   2.554  13.399 -0.1171  0.4585  0.3464
  139TMC2    C8 2127   2.687   2.195  13.677 -0.5898  0.4186 -1.3174
  139TMC2    O1 2128   2.755   2.613  13.498 -0.3404  0.5721  0.3517
  139TMC2    O2 2129   2.730   2.101  13.739  0.0878  0.1669 -0.0603
  139TMC2    O5 2130   2.555   2.218  13.652  0.0431 -0.0668  0.1674
  139TMC2    H5 2131   2.547   2.253  13.561 -1.9947  0.6699  0.6335
  140MPD2     C 2132   3.012   1.774  13.265  0.2017 -0.4046 -0.1768
  140MPD2    C1 2133   2.921   1.860  13.208  0.1045  0.1503  0.3845
  140MPD2    C2 2134   2.847   1.823  13.101 -0.2408  0.0087 -0.3475
  140MPD2    C3 2135   2.857   1.695  13.052 -1.0055 -0.3119 -0.0538
  140MPD2    C4 2136   2.950   1.608  13.108 -0.2882  0.4892  0.5669
  140MPD2    C5 2137   3.026   1.648  13.211  0.5309  0.5558  0.1276
  140MPD2     H 2138   2.773   1.888  13.055 -1.2140 -0.5412  0.4188
  140MPD2    H1 2139   2.968   1.507  13.072 -1.6220  0.8483 -1.0836
  140MPD2    H2 2140   3.080   1.792  13.347 -0.9909  0.4135  0.6261
  140MPD2    H3 2141   3.099   1.578  13.250 -1.6919 -1.1723  1.1603
  140MPD2     N 2142   2.767   1.664  12.944  0.1071  0.3411  0.0766
  140MPD2    H5 2143   2.702   1.732  12.907  1.2861  1.3219 -0.1845
  140MPD2    N1 2144   2.889   1.975  13.281  0.0060 -0.1452 -0.4635
  140MPD2    H7 2145   2.931   1.984  13.372  1.9146 -1.8946 -1.1638
  141TCq2    C1 2146   3.011   4.244  13.751 -0.4821  0.3961  0.7490
  141TCq2    O2 2147   3.102   4.238  13.666  0.0474  0.0272 -0.3927
  141TCq2    C2 2148   2.915   4.345  13.747  0.2939  0.0794 -0.0754
  141TCq2    C3 2149   2.837   4.371  13.856  0.1431 -0.1946 -0.1871
  141TCq2    C4 2150   2.819   4.504  13.894 -0.5303  0.5090 -0.6411
  141TCq2    C5 2151   2.871   4.607  13.822  0.5468  0.0370  0.3960
  141TCq2    C6 2152   2.942   4.584  13.710 -0.1636 -0.3648  0.1251
  141TCq2    C7 2153   2.963   4.452  13.673  0.0295 -0.1523 -0.4245
  141TCq2    C8 2154   3.069   4.649  13.707 -0.1268  0.0596 -1.0194
  141TCq2    O4 2155   3.129   4.644  13.604 -0.2037 -0.2676 -0.0651
  141TCq2    C9 2156   2.756   4.534  14.021 -0.4223 -0.1012  0.3348
  141TCq2    O5 2157   2.714   4.434  14.082  0.0421 -0.4591 -0.1152
  141TCq2    O6 2158   2.774   4.642  14.083  0.1502 -0.0757  0.4059
  141TCq2    H2 2159   2.786   4.297  13.916 -0.2726 -0.2284 -0.5815
  141TCq2    H3 2160   2.853   4.707  13.861 -0.8055  0.1372 -0.4370
  141TCq2    H4 2161   3.029   4.432  13.590 -0.5242 -0.0898 -0.8777
  142MPD2     C 2162   0.746   1.735  10.488  0.2570  0.4983  0.1434
  142MPD2    C1 2163   0.728   1.779  10.359 -0.7605 -0.0009 -0.0243
  142MPD2    C2 2164   0.821   1.870  10.306 -1.4238 -0.8126 -0.2894
  142MPD2    C3 2165   0.924   1.922  10.385  0.8679  0.1972 -0.0546
  142MPD2    C4 2166   0.938   1.881  10.520  0.5891  0.1771  0.4538
  142MPD2    C5 2167   0.847   1.781  10.560  0.4890 -0.2951 -0.1685
  142MPD2     H 2168   0.818   1.904  10.203 -0.0561 -0.4551 -0.2129
  142MPD2    H1 2169   1.006   1.931  10.587  1.4188 -0.7957  0.3251
  142MPD2    H2 2170   0.678   1.676  10.548  1.6120 -1.4822 -0.2423
  142MPD2    H3 2171   0.842   1.750  10.664 -0.5107 -0.0530 -0.1488
  142MPD2     N 2172   1.028   2.005  10.342  0.3426  0.2966  0.3139
  142MPD2    H5 2173   1.090   2.039  10.415  2.2368 -0.5699 -0.9162
  142MPD2    N1 2174   0.618   1.721  10.285 -0.4643  1.1489 -1.0398
  142MPD2    H7 2175   0.589   1.628  10.313  0.0462  0.8877 -1.3761
  143TCq2    C1 2176   1.045   2.053  10.213  0.8447  0.4864  0.0889
  143TCq2    O2 2177   0.999   2.013  10.108  0.0257  0.3285  0.0635
  143TCq2    C2 2178   1.141   2.161  10.197 -0.3076 -0.1730  0.1770
  143TCq2    C3 2179   1.188   2.229  10.307  0.4352 -0.2188  0.4596
  143TCq2    C4 2180   1.264   2.339  10.280  0.9089  0.0397  0.4687
  143TCq2    C5 2181   1.299   2.385  10.159 -0.2170 -0.5021 -1.0330
  143TCq2    C6 2182   1.246   2.315  10.050 -0.6770 -0.2240  0.0328
  143TCq2    C7 2183   1.166   2.206  10.071  0.8138  0.5268  0.3710
  143TCq2    C8 2184   1.287   2.348   9.914  0.2498 -1.0754  0.1147
  143TCq2    O4 2185   1.383   2.428   9.909 -0.1584  0.5118 -0.6265
  143TCq2    C9 2186   1.306   2.412  10.397  0.0669 -0.0738 -0.0432
  143TCq2    O5 2187   1.348   2.529  10.377 -0.4994 -0.6405  0.3630
  143TCq2    O6 2188   1.309   2.354  10.509 -0.6329 -0.1032 -0.1641
  143TCq2    H2 2189   1.166   2.205  10.410 -1.1979  0.7569  0.3367
  143TCq2    H3 2190   1.348   2.482  10.151 -2.5616  0.7081 -0.7584
  143TCq2    H4 2191   1.134   2.143   9.988 -0.4532  2.9842 -0.9940
  144MPD2     C 2192   3.797   1.716   0.045 -0.4000  0.1937  0.3450
  144MPD2    C1 2193   3.751   1.631   0.144  0.1835  0.3120 -0.4296
  144MPD2    C2 2194   3.829   1.599   0.246  0.4151 -0.2416 -0.1064
  144MPD2    C3 2195   3.954   1.653   0.271  0.0014 -0.8356 -0.4833
  144MPD2    C4 2196   4.004   1.737   0.169 -0.2570 -0.2173  0.6681
  144MPD2    C5 2197   3.924   1.761   0.065  0.2241 -0.4223  0.6709
  144MPD2     H 2198   3.778   1.527   0.309  0.5329  1.0840  1.4960
  144MPD2    H1 2199   4.105   1.776   0.174  0.2595 -1.4979  0.2498
  144MPD2    H2 2200   3.742   1.748  17.644  0.7899  1.2478 -0.0036
  144MPD2    H3 2201   3.974   1.827  17.682  1.8218  0.2080  2.3853
  144MPD2     N 2202   4.014   1.641   0.400  0.4861 -0.4080 -0.2729
  144MPD2    H5 2203   4.098   1.697   0.411  1.3155 -1.3204 -1.8779
  144MPD2    N1 2204   3.618   1.577   0.141  0.9549 -0.0819 -0.9079
  144MPD2    H7 2205   3.599   1.513   0.217  1.6884  0.1861 -0.4995
  145TCq2    C1 2206   3.977   1.551   0.494 -0.2668 -0.5622  0.2380
  145TCq2    O2 2207   3.885   1.470   0.508  0.8031 -0.1878  0.7069
  145TCq2    C2 2208   4.071   1.554   0.605 -0.0479  0.0332  0.9363
  145TCq2    C3 2209   4.063   1.451   0.702 -0.2395  0.5960  0.0401
  145TCq2    C4 2210   4.112   1.477   0.824  0.1135  0.5457 -0.1735
  145TCq2    C5 2211   4.170   1.591   0.861 -0.4273 -0.0795  0.5039
  145TCq2    C6 2212   4.163   1.691   0.771 -0.0534 -0.5571  0.2712
  145TCq2    C7 2213   4.114   1.678   0.646 -0.1462  0.7347  0.2509
  145TCq2    C8 2214   4.165   1.830   0.813 -0.4199  0.0826 -0.9029
  145TCq2    O4 2215   4.188   1.920   0.735  0.7425 -0.3940  0.4952
  145TCq2    C9 2216   4.117   1.370   0.920 -0.6257 -0.1615  0.3852
  145TCq2    O5 2217   4.113   1.257   0.864  0.0022  0.0887 -0.9177
  145TCq2    O6 2218   4.186   1.393   1.026 -0.7178  0.1232 -0.9219
  145TCq2    H2 2219   4.034   1.348   0.681  1.7768  0.4097 -1.8422
  145TCq2    H3 2220   4.208   1.605   0.962  3.9301 -0.1404 -1.1350
  145TCq2    H4 2221   4.090   1.763   0.584  1.1936  0.1409 -1.0785
  146TMC2    C1 2222   0.220   4.584  11.548 -0.1501  0.0949 -0.2630
  146TMC2    C2 2223   0.125   4.610  11.444 -0.1983  0.0673 -0.9571
  146TMC2    C3 2224   0.183   4.631  11.322  0.2092 -0.1666 -0.0380
  146TMC2    C4 2225   0.351   4.554  11.530  0.6547 -0.6439 -0.5336
  146TMC2    C5 2226   0.398   4.560  11.403  0.7117  0.9589  0.5133
  146TMC2    C6 2227   0.322   4.602  11.297  0.0768  0.6196 -0.2090
  146TMC2     C 2228   0.165   4.570  11.680 -0.0632  0.4952 -0.0003
  146TMC2     O 2229   0.041   4.573  11.691  0.1873  0.4996  0.2746
  146TMC2     H 2230   0.025   4.646  11.463  0.4027  0.7878  0.7555
  146TMC2    H1 2231   0.410   4.506  11.607 -0.4629 -2.8901 -1.0699
  146TMC2    H2 2232   0.365   4.615  11.198  1.8191 -2.9702  0.0848
  146TMC2    C7 2233   0.530   4.508  11.368 -0.0006 -0.2110 -0.3663
  146TMC2    C8 2234   0.095   4.682  11.222 -0.0741  0.3580  0.5637
  146TMC2    O1 2235   0.558   4.509  11.248 -0.3691 -0.4161 -0.2076
  146TMC2    O2 2236   4.697   4.675  11.237 -0.4463 -0.2121  0.8785
  146TMC2    O5 2237   0.158   4.691  11.106 -0.4312  0.3440  0.1486
  146TMC2    H5 2238   0.252   4.715  11.119 -0.5159  0.6418  0.2062
  147MPD2     C 2239   1.034   4.421  11.468  0.2564  0.2600  0.5140
  147MPD2    C1 2240   0.968   4.446  11.587  0.1146 -0.3198 -1.3540
  147MPD2    C2 2241   0.829   4.464  11.597 -0.3245 -0.5537 -0.2821
  147MPD2    C3 2242   0.748   4.466  11.484  1.0845  0.6129 -0.3092
  147MPD2    C4 2243   0.809   4.417  11.373 -0.7208 -0.2600 -0.4548
  147MPD2    C5 2244   0.943   4.395  11.369 -0.3367  0.2212 -0.2148
  147MPD2     H 2245   0.790   4.508  11.688  1.3094 -0.5948  0.4300
  147MPD2    H1 2246   0.761   4.400  11.278 -2.6325  1.1696  0.2471
  147MPD2    H2 2247   1.138   4.392  11.473  0.1051 -0.0154  2.0470
  147MPD2    H3 2248   0.993   4.354  11.282  1.7589  3.1297 -0.4097
  147MPD2     N 2249   0.613   4.494  11.480 -0.4504  0.4546  0.1324
  147MPD2    H5 2250   0.576   4.527  11.568 -1.5430 -0.2763 -0.0572
  147MPD2    N1 2251   1.046   4.452  11.704  0.0631 -0.8776  0.4639
  147MPD2    H7 2252   1.147   4.448  11.698  0.0328 -2.6680  1.3535
  148MPD2     C 2253   0.357   3.320  10.414  0.1113 -0.9772 -0.8848
  148MPD2    C1 2254   0.416   3.202  10.453 -0.6055  0.1393 -0.0146
  148MPD2    C2 2255   0.386   3.087  10.379 -0.0160  0.1043 -0.4953
  148MPD2    C3 2256   0.302   3.096  10.264 -0.3867 -0.5679 -0.0657
  148MPD2    C4 2257   0.265   3.219  10.221 -0.4318 -0.1308  0.2595
  148MPD2    C5 2258   0.284   3.328  10.303 -0.3079 -0.7491 -0.4370
  148MPD2     H 2259   0.427   2.995  10.420  0.2274  1.2456  1.8796
  148MPD2    H1 2260   0.202   3.226  10.133  0.7132 -1.5431 -0.6759
  148MPD2    H2 2261   0.373   3.410  10.471  0.1112 -2.7554  1.8968
  148MPD2    H3 2262   0.248   3.423  10.266  1.4922  1.2503  2.9802
  148MPD2     N 2263   0.264   2.986  10.183  0.1049 -0.2058  0.2484
  148MPD2    H5 2264   0.223   3.005  10.092  0.3353  1.0120  0.3944
  148MPD2    N1 2265   0.486   3.191  10.581  0.4431 -0.2654 -0.4368
  148MPD2    H7 2266   0.527   3.101  10.604  2.3473  0.8682  0.5933
  149TCq2    C1 2267   0.537   3.291  10.662 -0.5135  0.0768  0.7194
  149TCq2    O2 2268   0.555   3.409  10.641 -0.4431 -0.6504  0.3008
  149TCq2    C2 2269   0.604   3.235  10.778  0.4126 -0.3096 -0.2122
  149TCq2    C3 2270   0.689   3.312  10.855  0.5791 -0.1958  0.1736
  149TCq2    C4 2271   0.764   3.250  10.951  0.5815  0.6743 -0.0975
  149TCq2    C5 2272   0.753   3.114  10.972 -0.1835  0.1238  0.8812
  149TCq2    C6 2273   0.649   3.047  10.914  0.6976  0.4097  0.4765
  149TCq2    C7 2274   0.580   3.101  10.810 -0.2359 -0.3742  0.0651
  149TCq2    C8 2275   0.651   2.902  10.908 -0.1670 -0.5666 -0.7455
  149TCq2    O4 2276   0.627   2.847  10.803 -0.0278  0.3549 -0.4001
  149TCq2    C9 2277   0.898   3.314  10.974  0.6011  0.3852 -0.3458
  149TCq2    O5 2278   0.983   3.257  11.052 -0.8182  0.3457  0.0102
  149TCq2    O6 2279   0.926   3.410  10.895  0.5925 -0.1358  0.8909
  149TCq2    H2 2280   0.711   3.409  10.812 -0.7208  0.4148  0.8647
  149TCq2    H3 2281   0.825   3.066  11.039  0.2506 -0.0130  0.3212
  149TCq2    H4 2282   0.496   3.045  10.770  0.3881 -1.0812 -0.2448
  150MPD2     C 2283   1.761   2.980  11.970  0.2338  0.5502 -0.1165
  150MPD2    C1 2284   1.852   2.945  11.874  0.3946 -0.2927 -0.1357
  150MPD2    C2 2285   1.975   3.005  11.874 -0.0320 -0.1367  0.3028
  150MPD2    C3 2286   2.006   3.108  11.960  0.0684 -0.0192 -0.4211
  150MPD2    C4 2287   1.907   3.158  12.045 -0.4075  0.4904  0.6915
  150MPD2    C5 2288   1.784   3.094  12.046  0.9436 -0.3350 -0.2282
  150MPD2     H 2289   2.046   2.988  11.794 -0.3420 -3.3369  0.7108
  150MPD2    H1 2290   1.910   3.257  12.090  0.3490  1.2131 -0.9182
  150MPD2    H2 2291   1.660   2.940  11.975  1.0827 -1.6375 -0.5362
  150MPD2    H3 2292   1.713   3.135  12.117  0.4130  0.9789 -1.4993
  150MPD2     N 2293   2.139   3.161  11.952  0.2862  0.1218 -0.0967
  150MPD2    H5 2294   2.203   3.127  11.881  0.9844  1.3774 -0.0750
  150MPD2    N1 2295   1.807   2.850  11.779  0.0317 -0.1000  0.0392
  150MPD2    H7 2296   1.711   2.818  11.788 -0.1844  0.4599 -0.2977
  151TCq2    C1 2297   2.184   3.261  12.034  0.8277 -0.0004  0.2280
  151TCq2    O2 2298   2.135   3.311  12.138 -0.6348  0.2606  0.1122
  151TCq2    C2 2299   2.317   3.307  11.998 -0.4108 -0.8575 -0.2641
  151TCq2    C3 2300   2.378   3.252  11.883 -0.1693 -0.8875 -0.0434
  151TCq2    C4 2301   2.515   3.250  11.886 -0.9206  0.6620 -0.4425
  151TCq2    C5 2302   2.590   3.308  11.987  0.2194 -0.6616  0.6798
  151TCq2    C6 2303   2.524   3.375  12.086 -0.2550  0.0126 -0.0146
  151TCq2    C7 2304   2.385   3.383  12.091 -0.1316  1.3048 -0.3945
  151TCq2    C8 2305   2.589   3.402  12.209  0.3485  0.7072  0.3139
  151TCq2    O4 2306   2.551   3.497  12.272  0.4248  0.1443 -0.1936
  151TCq2    C9 2307   2.596   3.180  11.791  0.6664  0.0330  0.3590
  151TCq2    O5 2308   2.531   3.119  11.701 -0.5479 -0.3042  0.2572
  151TCq2    O6 2309   2.703   3.242  11.783 -0.4569 -0.1968  0.2669
  151TCq2    H2 2310   2.323   3.198  11.806 -0.7910  0.4482 -0.5220
  151TCq2    H3 2311   2.698   3.320  11.987  0.1189  0.2918  0.2376
  151TCq2    H4 2312   2.333   3.429  12.174 -3.7422 -1.3951 -1.1892
  152MPD2     C 2313   1.990   2.603  12.260 -0.7898  0.0033 -0.1670
  152MPD2    C1 2314   1.976   2.746  12.273  0.6243  0.1648  0.0824
  152MPD2    C2 2315   1.845   2.788  12.263 -0.5602 -0.2478 -0.5635
  152MPD2    C3 2316   1.740   2.705  12.228  0.1505  0.1817  0.1375
  152MPD2    C4 2317   1.766   2.568  12.208  0.6126  0.1126  0.1139
  152MPD2    C5 2318   1.890   2.521  12.218 -0.0253 -0.5518  0.1233
  152MPD2     H 2319   1.824   2.893  12.250  1.3959  0.0182 -1.6554
  152MPD2    H1 2320   1.682   2.502  12.189 -1.4156  2.9922 -0.8695
  152MPD2    H2 2321   2.088   2.558  12.269 -0.4592  0.8831  0.6415
  152MPD2    H3 2322   1.912   2.415  12.215  1.6845 -0.1752 -0.7955
  152MPD2     N 2323   1.617   2.761  12.198  0.0684  0.3329 -0.1648
  152MPD2    H5 2324   1.606   2.855  12.235 -0.3166 -0.3237  1.3935
  152MPD2    N1 2325   2.090   2.825  12.288 -0.0820 -0.3625  0.1931
  152MPD2    H7 2326   2.177   2.779  12.311 -0.3173 -0.2325  1.3372
  153TCq2    C1 2327   2.085   2.962  12.305 -0.1320  0.5687  0.3755
  153TCq2    O2 2328   1.992   3.028  12.341 -0.1267 -0.6054  0.1989
  153TCq2    C2 2329   2.221   3.011  12.323 -0.2798  0.4052 -0.8196
  153TCq2    C3 2330   2.323   2.953  12.254 -0.2515 -0.0985  0.5938
  153TCq2    C4 2331   2.448   3.014  12.274  0.6997  0.0512  0.0552
  153TCq2    C5 2332   2.473   3.096  12.376 -0.2766 -0.0390  0.7432
  153TCq2    C6 2333   2.366   3.146  12.449 -1.1759  0.8826  0.0708
  153TCq2    C7 2334   2.238   3.109  12.416 -0.5132  0.5956  0.2337
  153TCq2    C8 2335   2.386   3.263  12.537 -0.6494  0.3095 -0.7218
  153TCq2    O4 2336   2.296   3.348  12.544  0.8262  0.0675 -0.6484
  153TCq2    C9 2337   2.558   2.977  12.187  0.2165  0.1493  0.0032
  153TCq2    O5 2338   2.666   3.037  12.190  0.2192 -0.5451  0.1768
  153TCq2    O6 2339   2.522   2.919  12.083 -0.5501 -0.2576 -0.5913
  153TCq2    H2 2340   2.294   2.886  12.173 -1.2020 -0.5947  1.3473
  153TCq2    H3 2341   2.573   3.135  12.395  0.0175 -0.8922  0.9361
  153TCq2    H4 2342   2.153   3.149  12.470 -0.1075  1.0430  0.5360
  154MPD2     C 2343   3.453   3.002   0.010 -0.3580 -0.9242 -0.0790
  154MPD2    C1 2344   3.513   3.015   0.133  0.2203  0.7597  1.3287
  154MPD2    C2 2345   3.435   3.023   0.248  0.6172  0.1065  0.5352
  154MPD2    C3 2346   3.297   3.019   0.228 -0.3594  0.0963  0.4503
  154MPD2    C4 2347   3.242   3.024   0.105  1.0710  0.3622  0.0901
  154MPD2    C5 2348   3.321   3.011  17.678  0.2728  0.3308 -0.2158
  154MPD2     H 2349   3.476   3.038   0.347  1.6923  0.2622  0.0617
  154MPD2    H1 2350   3.137   3.025   0.078  1.1769 -0.0404 -0.3351
  154MPD2    H2 2351   3.510   2.981  17.607 -0.4951  0.6172 -0.5228
  154MPD2    H3 2352   3.279   3.008  17.578 -1.7565  1.0731  0.6004
  154MPD2     N 2353   3.204   3.028   0.336 -0.4324 -0.2763  0.2248
  154MPD2    H5 2354   3.108   3.047   0.313 -0.4094  1.4304  1.5007
  154MPD2    N1 2355   3.659   3.021   0.126  1.2378 -0.1461  0.1144
  154MPD2    H7 2356   3.715   2.999   0.044 -0.0496 -0.1697 -0.7768
  155TCq2    C1 2357   3.735   3.072   0.222 -0.1727  0.5112  0.4988
  155TCq2    O2 2358   3.705   3.147   0.314 -0.2662  0.1144  0.1239
  155TCq2    C2 2359   3.879   3.078   0.183 -0.2115 -0.7561  0.0709
  155TCq2    C3 2360   3.926   2.977   0.099  0.3061 -0.0360  0.4480
  155TCq2    C4 2361   4.050   2.986   0.041  0.4404  0.2547 -0.3647
  155TCq2    C5 2362   4.122   3.100   0.059  0.3980  0.0219  0.4122
  155TCq2    C6 2363   4.080   3.191   0.153  0.0545  0.0314  1.5036
  155TCq2    C7 2364   3.956   3.183   0.212  0.0114  0.2379  0.4225
  155TCq2    C8 2365   4.133   3.327   0.140 -0.1024  0.4061 -0.2384
  155TCq2    O4 2366   4.248   3.329   0.105  0.1313  0.3877 -0.3354
  155TCq2    C9 2367   4.112   2.868  17.664 -0.3372 -0.8864  0.2942
  155TCq2    O5 2368   4.033   2.771  17.648 -0.1442  0.2520  0.4160
  155TCq2    O6 2369   4.228   2.877  17.618 -0.0961 -0.3796  0.3145
  155TCq2    H2 2370   3.860   2.892   0.084  1.0619 -0.5013 -0.2208
  155TCq2    H3 2371   4.221   3.118   0.018 -0.0776  2.5361  0.3466
  155TCq2    H4 2372   3.914   3.246   0.290 -0.4091  0.2367  0.1985
  156MPD2     C 2373   2.541   0.676  12.517  1.0608  0.1496  0.0863
  156MPD2    C1 2374   2.462   0.677  12.411 -0.2665  0.2285  1.1876
  156MPD2    C2 2375   2.359   0.763  12.402  0.0952 -0.2823  0.5949
  156MPD2    C3 2376   2.315   0.840  12.508 -0.4849 -1.0359  0.4758
  156MPD2    C4 2377   2.397   0.840  12.625  0.1151 -0.4161 -0.1433
  156MPD2    C5 2378   2.511   0.760  12.623  0.0903 -1.0067 -0.0578
  156MPD2     H 2379   2.287   0.749  12.322  1.9844 -0.4408 -1.0581
  156MPD2    H1 2380   2.383   0.908  12.708  0.6091  2.1142 -2.1326
  156MPD2    H2 2381   2.630   0.614  12.518  1.3675  0.5850 -0.3527
  156MPD2    H3 2382   2.576   0.771  12.709  0.2096 -0.9135 -0.1581
  156MPD2     N 2383   2.195   0.911  12.481  0.1825 -0.1160  0.1028
  156MPD2    H5 2384   2.151   0.901  12.390  0.0155 -0.7899  0.2592
  156MPD2    N1 2385   2.493   0.579  12.314 -0.2768  0.3116 -0.1733
  156MPD2    H7 2386   2.551   0.502  12.347 -0.9962 -0.0380  0.2559
  157TCq2    C1 2387   2.439   0.580  12.187  0.0205 -0.0888 -0.0323
  157TCq2    O2 2388   2.403   0.682  12.132  0.3209  0.2410 -0.7895
  157TCq2    C2 2389   2.476   0.466  12.111  0.3545  0.4914  0.1880
  157TCq2    C3 2390   2.502   0.343  12.160  0.0370  0.0344  0.2059
  157TCq2    C4 2391   2.544   0.245  12.074  0.1539  0.5506 -0.1084
  157TCq2    C5 2392   2.557   0.261  11.941 -0.1465 -0.4514  0.2573
  157TCq2    C6 2393   2.520   0.387  11.895  0.0889  0.1271  0.4540
  157TCq2    C7 2394   2.475   0.484  11.977  0.3300  0.0948 -0.0066
  157TCq2    C8 2395   2.524   0.427  11.752  0.5220 -0.5456  0.5509
  157TCq2    O4 2396   2.473   0.532  11.720  0.7586  0.1107  0.5629
  157TCq2    C9 2397   2.557   0.109  12.133 -0.3794 -0.9942  0.0801
  157TCq2    O5 2398   2.573   0.011  12.053  0.0147  0.5552  0.2069
  157TCq2    O6 2399   2.566   0.096  12.263 -0.1592  0.2131  0.6192
  157TCq2    H2 2400   2.486   0.325  12.266 -2.4025  0.0003 -0.1666
  157TCq2    H3 2401   2.585   0.178  11.877  0.0961 -0.0749 -0.1248
  157TCq2    H4 2402   2.451   0.581  11.934 -2.5715 -0.6234 -0.0077
  158TMC2    C1 2403   3.684   3.569  13.782  0.0592  0.3346 -0.0941
  158TMC2    C2 2404   3.797   3.615  13.717  0.4559  0.6255 -0.1446
  158TMC2    C3 2405   3.777   3.704  13.612 -0.2742 -0.1698 -0.9513
  158TMC2    C4 2406   3.557   3.584  13.733  0.1945 -0.5260 -0.1270
  158TMC2    C5 2407   3.545   3.670  13.621 -0.0239  0.0702  0.2802
  158TMC2    C6 2408   3.652   3.725  13.550 -0.9613 -0.4779  0.4770
  158TMC2     C 2409   3.713   3.496  13.907 -0.2166  0.3695  0.1572
  158TMC2     O 2410   3.803   3.415  13.899 -0.6281 -0.2535  0.5850
  158TMC2     H 2411   3.891   3.587  13.763  0.0082  0.5659  0.7330
  158TMC2    H1 2412   3.475   3.543  13.790 -0.7444  1.0104 -0.3547
  158TMC2    H2 2413   3.638   3.783  13.459 -0.0133  0.3066  0.8365
  158TMC2    C7 2414   3.416   3.717  13.582 -0.0821  0.0769  0.7119
  158TMC2    C8 2415   3.876   3.803  13.576  0.5000 -0.2475 -0.3661
  158TMC2    O1 2416   3.409   3.824  13.522 -0.3575  0.5189 -0.4915
  158TMC2    O2 2417   3.852   3.915  13.532  0.4978  0.1917 -0.0770
  158TMC2    O5 2418   4.001   3.756  13.587 -0.2614  0.1660 -0.2172
  158TMC2    H5 2419   4.000   3.658  13.597  1.1292  0.2653  0.8449
  159MPD2     C 2420   3.524   3.334  14.360  0.4255 -0.5077  0.0914
  159MPD2    C1 2421   3.440   3.431  14.307  0.5549  0.3020 -0.2852
  159MPD2    C2 2422   3.470   3.483  14.185 -0.5583  0.5318 -0.4180
  159MPD2    C3 2423   3.594   3.454  14.122  0.3550  0.0811 -0.1572
  159MPD2    C4 2424   3.688   3.366  14.178 -0.3985  0.2386  0.5107
  159MPD2    C5 2425   3.647   3.307  14.297 -0.2107  0.5893  1.0075
  159MPD2     H 2426   3.406   3.555  14.136 -0.6473 -0.5690 -1.9064
  159MPD2    H1 2427   3.777   3.320  14.134 -0.4830  1.5653 -1.0567
  159MPD2    H2 2428   3.509   3.287  14.456 -1.8008 -0.6010 -0.3056
  159MPD2    H3 2429   3.711   3.230  14.338 -0.1844 -0.6057 -1.2951
  159MPD2     N 2430   3.614   3.516  13.995  0.5116  0.1467  0.0192
  159MPD2    H5 2431   3.550   3.590  13.968  1.2266  1.0800  0.8801
  159MPD2    N1 2432   3.326   3.455  14.383 -0.3597 -0.3043  0.1473
  159MPD2    H7 2433   3.316   3.392  14.463  3.8135 -0.0173  0.9050
  160TMC2    C1 2434   2.483   1.871   1.261 -0.2401 -0.7599 -0.0873
  160TMC2    C2 2435   2.385   1.782   1.256 -0.1739 -0.2927  0.6960
  160TMC2    C3 2436   2.390   1.696   1.148  0.1865  0.4287 -0.5970
  160TMC2    C4 2437   2.582   1.877   1.169 -0.1763  0.7168 -0.6125
  160TMC2    C5 2438   2.578   1.787   1.060  0.1396  0.1899  0.3835
  160TMC2    C6 2439   2.477   1.691   1.048  0.1150 -0.6943  0.0690
  160TMC2     C 2440   2.492   1.961   1.363 -0.0725  0.4586 -0.0309
  160TMC2     O 2441   2.596   2.016   1.394  0.2111 -0.2560  0.0241
  160TMC2     H 2442   2.323   1.762   1.343  0.6477 -2.0255  0.8721
  160TMC2    H1 2443   2.663   1.950   1.168  0.5325 -0.0614 -0.3203
  160TMC2    H2 2444   2.466   1.619   0.968 -1.4688  0.6750 -0.9407
  160TMC2    C7 2445   2.640   1.818   0.934  0.6706  0.0651  0.8344
  160TMC2    C8 2446   2.285   1.593   1.145  0.1783 -0.9840 -0.1656
  160TMC2    O1 2447   2.652   1.728   0.851 -0.1237 -0.6857  0.1410
  160TMC2    O2 2448   2.303   1.485   1.097 -0.5047 -0.5881 -0.2302
  160TMC2    O5 2449   2.183   1.632   1.223  0.4813  0.3278  0.1343
  160TMC2    H5 2450   2.179   1.730   1.234  1.3817  0.2849  0.7932
  161MPD2     C 2451   2.437   2.218   1.518  0.3721  0.6546  0.4481
  161MPD2    C1 2452   2.343   2.136   1.461  0.1687  0.2611 -0.2613
  161MPD2    C2 2453   2.212   2.164   1.472 -0.5423 -0.2878  0.1666
  161MPD2    C3 2454   2.172   2.289   1.527 -0.2934  0.0940 -0.1873
  161MPD2    C4 2455   2.268   2.372   1.587 -0.4158 -0.7038  0.7970
  161MPD2    C5 2456   2.401   2.334   1.585  0.3429  0.5014  0.9173
  161MPD2     H 2457   2.141   2.101   1.420 -0.3711 -0.8786  0.6493
  161MPD2    H1 2458   2.245   2.460   1.645  0.0978  0.4989 -0.8351
  161MPD2    H2 2459   2.543   2.197   1.520  0.3135  0.2282 -1.3052
  161MPD2    H3 2460   2.483   2.394   1.623 -1.3226  3.1789  0.2133
  161MPD2     N 2461   2.035   2.328   1.535 -0.1109  0.9043  0.1578
  161MPD2    H5 2462   2.017   2.416   1.582  0.1901  1.0707 -0.0365
  161MPD2    N1 2463   2.367   2.013   1.399 -0.3239 -0.2100 -0.0367
  161MPD2    H7 2464   2.287   1.962   1.363 -0.1604  0.3857 -1.2645
  162TMC2    C1 2465   0.374   4.249   1.071  0.1709  0.0246  0.3103
  162TMC2    C2 2466   0.366   4.370   1.007 -0.1180 -0.9668 -0.5055
  162TMC2    C3 2467   0.253   4.443   1.027  0.3532  0.2704 -0.1084
  162TMC2    C4 2468   0.276   4.212   1.160  0.2540  0.1117 -0.3534
  162TMC2    C5 2469   0.168   4.293   1.176 -0.3244 -0.1186  1.1574
  162TMC2    C6 2470   0.154   4.409   1.107 -0.5111  0.4129  0.6648
  162TMC2     C 2471   0.491   4.169   1.054 -0.3185  0.8102  0.6955
  162TMC2     O 2472   0.558   4.203   0.956  0.1445 -0.0121  0.6146
  162TMC2     H 2473   0.451   4.406   0.949  1.4192 -0.6852  1.9361
  162TMC2    H1 2474   0.276   4.113   1.204  0.1823 -0.7323 -2.2699
  162TMC2    H2 2475   0.056   4.455   1.108 -1.3148 -1.2705 -0.5426
  162TMC2    C7 2476   0.052   4.240   1.249 -0.1975  0.2692 -0.0173
  162TMC2    C8 2477   0.229   4.537   0.923  0.1507 -0.3941 -0.2154
  162TMC2    O1 2478   4.667   4.259   1.193 -0.6756  0.1492  0.3877
  162TMC2    O2 2479   0.156   4.631   0.942  0.0681  0.1104 -0.3206
  162TMC2    O5 2480   0.253   4.464   0.809  0.2071  0.8238 -0.3501
  162TMC2    H5 2481   0.258   4.368   0.828 -2.6459  0.9938  1.2917
  163MPD2     C 2482   0.794   3.784   1.148  0.4384 -0.0273  0.1468
  163MPD2    C1 2483   0.744   3.827   1.028  0.7561  0.2111 -0.0917
  163MPD2    C2 2484   0.642   3.916   1.021 -0.6877  0.0347 -0.1997
  163MPD2    C3 2485   0.598   3.973   1.143  0.0314  0.3805  0.1611
  163MPD2    C4 2486   0.642   3.926   1.260  0.4353  0.0388  0.0746
  163MPD2    C5 2487   0.731   3.829   1.264 -0.1820 -0.1523 -0.0648
  163MPD2     H 2488   0.598   3.958   0.932  0.4313 -2.3703 -1.8673
  163MPD2    H1 2489   0.609   3.965   1.356  0.8259 -1.3584  0.7787
  163MPD2    H2 2490   0.877   3.714   1.146 -0.2204 -0.8333  0.6054
  163MPD2    H3 2491   0.769   3.793   1.359 -0.6142 -0.1218  0.1199
  163MPD2     N 2492   0.513   4.083   1.157  0.1472  0.0335 -0.3654
  163MPD2    H5 2493   0.470   4.092   1.248 -1.2447  3.6433 -1.3823
  163MPD2    N1 2494   0.798   3.771   0.912  0.1578 -0.4865  0.1337
  163MPD2    H7 2495   0.876   3.710   0.935 -1.1963 -1.7336  1.4541
  164TCq2    C1 2496   0.858   3.307  11.424 -0.2442 -0.4120  0.4899
  164TCq2    O2 2497   0.788   3.286  11.521 -0.4296 -0.4607  0.2254
  164TCq2    C2 2498   0.846   3.432  11.353 -0.4462  0.5154  0.8324
  164TCq2    C3 2499   0.949   3.471  11.269 -0.0358 -0.1323  0.0071
  164TCq2    C4 2500   0.940   3.602  11.235  0.1444  0.1285  0.2759
  164TCq2    C5 2501   0.833   3.677  11.250 -1.0928  0.6655  0.2131
  164TCq2    C6 2502   0.725   3.628  11.325 -0.8821 -0.5972  0.6149
  164TCq2    C7 2503   0.733   3.503  11.373  0.1962 -0.8348  0.6007
  164TCq2    C8 2504   0.597   3.698  11.339 -1.0546  0.2968  0.3419
  164TCq2    O4 2505   0.561   3.772  11.251 -0.1864 -0.4265 -0.1399
  164TCq2    C9 2506   1.053   3.656  11.155  0.1941 -0.8946 -0.2742
  164TCq2    O5 2507   1.063   3.783  11.153  0.1682 -0.1340 -0.4998
  164TCq2    O6 2508   1.144   3.576  11.116 -0.3713 -0.1733  0.0429
  164TCq2    H2 2509   1.035   3.408  11.251 -0.8931 -1.0089 -1.0604
  164TCq2    H3 2510   0.836   3.778  11.212  1.2841 -0.0892 -1.6092
  164TCq2    H4 2511   0.656   3.453  11.430 -1.6707 -0.2543 -1.4302
  165MPD2     C 2512   1.725   0.473   1.487  0.4999 -1.3411  0.0095
  165MPD2    C1 2513   1.602   0.536   1.494 -0.3580  0.3771 -0.0642
  165MPD2    C2 2514   1.560   0.627   1.389 -0.0537 -0.1688 -0.3566
  165MPD2    C3 2515   1.649   0.656   1.283  0.5699  0.4422 -0.0458
  165MPD2    C4 2516   1.773   0.599   1.289  0.2181 -0.3585 -0.3854
  165MPD2    C5 2517   1.813   0.512   1.383 -0.4361  0.7571 -0.3027
  165MPD2     H 2518   1.460   0.669   1.379  0.0534  0.2813  0.4851
  165MPD2    H1 2519   1.846   0.623   1.212  2.0465 -3.0822  0.4703
  165MPD2    H2 2520   1.754   0.398   1.560  0.4742 -1.3089  0.0524
  165MPD2    H3 2521   1.913   0.471   1.381 -0.7203  0.0250  0.1886
  165MPD2     N 2522   1.627   0.751   1.186 -0.0325  0.4506  0.2042
  165MPD2    H5 2523   1.704   0.757   1.120 -0.2339 -2.8465 -0.3182
  165MPD2    N1 2524   1.518   0.497   1.603  0.4595  0.3439  0.4015
  165MPD2    H7 2525   1.544   0.426   1.671 -1.7434 -0.3739  0.5118
  166TCq2    C1 2526   1.510   0.823   1.168 -0.1530  0.2171  0.5287
  166TCq2    O2 2527   1.403   0.816   1.222 -0.1094 -0.3412 -0.6482
  166TCq2    C2 2528   1.509   0.912   1.048 -1.1146  0.1877  0.2436
  166TCq2    C3 2529   1.393   0.988   1.037 -0.3772 -0.0112 -0.7364
  166TCq2    C4 2530   1.399   1.110   0.979 -0.1089  0.7304  0.1691
  166TCq2    C5 2531   1.515   1.160   0.934 -0.6735 -0.7918 -0.0243
  166TCq2    C6 2532   1.633   1.087   0.950 -0.0965 -0.1690  0.1286
  166TCq2    C7 2533   1.633   0.965   1.010 -0.3169 -0.3205 -0.6112
  166TCq2    C8 2534   1.769   1.145   0.920 -0.2291  0.1513 -0.2506
  166TCq2    O4 2535   1.868   1.078   0.954  0.5314  0.7045  0.2582
  166TCq2    C9 2536   1.292   1.197   0.961  0.1305  0.2129 -0.9419
  166TCq2    O5 2537   1.286   1.258   0.850  0.1110  0.4332 -0.0805
  166TCq2    O6 2538   1.196   1.186   1.041 -0.3302 -0.5804 -0.2318
  166TCq2    H2 2539   1.297   0.947   1.066 -0.7632  1.3725 -0.0673
  166TCq2    H3 2540   1.516   1.262   0.896  0.7202 -0.2126  1.6048
  166TCq2    H4 2541   1.724   0.908   1.020  1.0572  2.0332  0.3197
  167TMC2    C1 2542   0.514   3.412  12.628 -0.1289 -0.4033  0.2639
  167TMC2    C2 2543   0.406   3.500  12.621  0.2051  0.1569 -0.0454
  167TMC2    C3 2544   0.283   3.452  12.667  0.0185 -0.3647 -0.2641
  167TMC2    C4 2545   0.493   3.280  12.665 -0.6004  0.3789  0.4328
  167TMC2    C5 2546   0.367   3.239  12.701  0.1840 -0.1053 -0.0513
  167TMC2    C6 2547   0.258   3.324  12.707  0.4903 -0.4607  0.5470
  167TMC2     C 2548   0.640   3.448  12.572 -0.3868 -0.1613 -0.5371
  167TMC2     O 2549   0.740   3.387  12.605 -0.3821 -0.1020  0.1384
  167TMC2     H 2550   0.419   3.607  12.605 -2.8178  0.7726  1.6516
  167TMC2    H1 2551   0.579   3.218  12.642 -1.6554  0.2240 -3.0194
  167TMC2    H2 2552   0.163   3.280  12.735  1.4326 -0.8324  3.1993
  167TMC2    C7 2553   0.334   3.096  12.691  0.6266  0.3976  0.3137
  167TMC2    C8 2554   0.170   3.539  12.651  0.0876  0.4301  0.1631
  167TMC2    O1 2555   0.228   3.060  12.746  0.9821  0.2413 -0.0076
  167TMC2    O2 2556   0.169   3.626  12.563  0.4929  0.8708  0.1473
  167TMC2    O5 2557   0.057   3.499  12.705 -0.6144  0.4010 -0.0655
  167TMC2    H5 2558   0.075   3.431  12.773  0.1170 -1.2791 -1.9069
  168MPD2     C 2559   0.851   3.504  12.384  0.9445  0.5536 -0.1884
  168MPD2    C1 2560   0.719   3.558  12.370  0.1751  0.2335  0.1045
  168MPD2    C2 2561   0.698   3.645  12.267  0.7968  1.0548  0.2343
  168MPD2    C3 2562   0.788   3.679  12.163  0.2118  0.0690 -0.1523
  168MPD2    C4 2563   0.907   3.626  12.173  0.3467  0.2609  0.4171
  168MPD2    C5 2564   0.933   3.544  12.278 -0.0502 -0.3444 -0.0069
  168MPD2     H 2565   0.599   3.689  12.266  0.0581 -0.6171  1.1942
  168MPD2    H1 2566   0.979   3.645  12.094  1.6928 -1.5797  1.1997
  168MPD2    H2 2567   0.883   3.434  12.460 -1.9175  0.2456  0.7461
  168MPD2    H3 2568   1.036   3.510  12.281 -0.5139 -1.7044  0.6849
  168MPD2     N 2569   0.753   3.774  12.057  1.0135  0.1577 -1.0039
  168MPD2    H5 2570   0.836   3.817  12.018  0.9866 -0.3228 -1.6029
  168MPD2    N1 2571   0.615   3.522  12.459  0.1381 -0.1662  0.1032
  168MPD2    H7 2572   0.531   3.578  12.447 -0.8067 -1.6183 -0.0500
  169MPD1     C 2573   3.206   2.839   8.969 -0.1677  0.0693  0.6307
  169MPD1    C1 2574   3.240   2.760   9.078  0.1998  0.0212  0.1947
  169MPD1    C2 2575   3.167   2.641   9.093 -0.1082  0.4823 -0.2461
  169MPD1    C3 2576   3.053   2.609   9.010 -0.7087 -0.7539 -0.6153
  169MPD1    C4 2577   3.014   2.696   8.905  0.4736 -0.0672  0.6279
  169MPD1    C5 2578   3.093   2.806   8.887  0.0369 -0.3864 -0.6402
  169MPD1     H 2579   3.181   2.573   9.177  1.3022  0.9645 -0.1053
  169MPD1    H1 2580   2.922   2.686   8.848  0.7399  2.0560 -0.1429
  169MPD1    H2 2581   3.262   2.928   8.945  1.5969 -1.2251 -0.0842
  169MPD1    H3 2582   3.068   2.867   8.801 -0.2243  0.5084  0.0660
  169MPD1     N 2583   2.992   2.488   9.040  0.1215  0.4324 -0.0447
  169MPD1    H5 2584   3.033   2.431   9.113 -0.0929  0.7939  0.3588
  169MPD1    N1 2585   3.352   2.791   9.146 -0.0687 -0.3599  0.3892
  169MPD1    H6 2586   3.375   2.890   9.141 -0.8146 -0.2268 -0.4512
  169MPD1    H7 2587   3.357   2.758   9.242  0.7735 -0.9267  0.1497
  170MPD1     C 2588   0.791   0.674  13.140  0.0377 -0.2152 -0.2638
  170MPD1    C1 2589   0.715   0.785  13.166  0.1861  0.1812 -0.3172
  170MPD1    C2 2590   0.776   0.886  13.238  0.5655  0.3820  0.5837
  170MPD1    C3 2591   0.898   0.867  13.292  0.5854  0.0178 -0.3862
  170MPD1    C4 2592   0.967   0.751  13.280  0.3091  1.4694  0.3636
  170MPD1    C5 2593   0.903   0.653  13.207 -0.0991 -0.6418  0.2888
  170MPD1     H 2594   0.713   0.973  13.253 -1.3264 -1.0052  0.6966
  170MPD1    H1 2595   1.069   0.739  13.313 -0.0666  2.7578  1.9564
  170MPD1    H2 2596   0.757   0.591  13.079 -0.2342  0.5844 -1.2106
  170MPD1    H3 2597   0.957   0.561  13.187  1.7282  0.6257 -0.5801
  170MPD1     N 2598   0.943   0.975  13.367 -0.0519  0.3049  0.1127
  170MPD1    H5 2599   0.892   1.062  13.357  0.6715  0.7186  0.0643
  170MPD1    N1 2600   0.600   0.801  13.086  0.0661  0.1776 -0.1112
  170MPD1    H6 2601   0.530   0.857  13.134  2.4847  3.5227 -0.4938
  170MPD1    H7 2602   0.557   0.717  13.047  0.1041 -0.2210  0.7119
  171MPD1     C 2603   4.088   1.743  15.563 -0.2805  0.7107  0.0296
  171MPD1    C1 2604   4.208   1.708  15.515  0.0969 -0.2618  0.1645
  171MPD1    C2 2605   4.317   1.697  15.605 -0.2507  0.0339 -0.0788
  171MPD1    C3 2606   4.297   1.718  15.744  0.1120 -0.6628 -0.5294
  171MPD1    C4 2607   4.178   1.765  15.790 -0.4245  0.1984  0.3861
  171MPD1    C5 2608   4.078   1.767  15.696  0.0126 -0.1828  1.2230
  171MPD1     H 2609   4.413   1.661  15.570 -1.4090 -2.3519 -0.8861
  171MPD1    H1 2610   4.158   1.780  15.896  2.4140 -1.1496  1.1167
  171MPD1    H2 2611   3.998   1.738  15.503 -1.3966  0.2629  1.7333
  171MPD1    H3 2612   3.978   1.775  15.739 -0.4854  0.3786 -0.0420
  171MPD1     N 2613   4.402   1.703  15.836  0.7449 -0.1477  0.0092
  171MPD1    H5 2614   4.387   1.733  15.932  1.4589 -0.2377  0.1477
  171MPD1    N1 2615   4.215   1.653  15.384  0.5030  0.6455 -0.2278
  171MPD1    H6 2616   4.301   1.694  15.346  1.9433 -2.3562 -0.2208
  171MPD1    H7 2617   4.138   1.680  15.323  0.6502  0.6219 -0.4253
  172MPD1     C 2618   4.081   2.846   1.291 -0.1884  0.5275  0.1435
  172MPD1    C1 2619   3.943   2.858   1.286 -0.0022 -0.0486  0.0888
  172MPD1    C2 2620   3.876   2.793   1.185 -0.4226  0.2342 -0.5431
  172MPD1    C3 2621   3.939   2.718   1.091  0.1644 -0.4718 -0.6468
  172MPD1    C4 2622   4.076   2.707   1.091  0.3661  0.0639  0.2681
  172MPD1    C5 2623   4.147   2.778   1.190  0.1549 -0.2745  0.1602
  172MPD1     H 2624   3.768   2.798   1.196 -0.1855  0.3067  1.7814
  172MPD1    H1 2625   4.120   2.650   1.010  1.4529 -2.6538  2.7756
  172MPD1    H2 2626   4.137   2.905   1.362 -2.0149  1.3099  0.9507
  172MPD1    H3 2627   4.254   2.763   1.189 -0.2263 -2.9242 -1.1517
  172MPD1     N 2628   3.869   2.669   0.974  0.0971  0.1079 -0.1439
  172MPD1    H5 2629   3.925   2.627   0.900  1.4353 -1.8217  1.9530
  172MPD1    N1 2630   3.877   2.925   1.392 -0.4545  0.1285  0.5090
  172MPD1    H6 2631   3.935   3.004   1.418 -0.3600  0.4689 -0.7242
  172MPD1    H7 2632   3.792   2.968   1.356  0.7081  1.8024 -0.2496
  173MPD1     C 2633   0.385   0.633  13.880 -0.5336 -0.2374  0.7162
  173MPD1    C1 2634   0.291   0.732  13.901  0.0249  0.6584  0.7001
  173MPD1    C2 2635   0.323   0.822  13.999 -0.0487 -0.1628 -0.1903
  173MPD1    C3 2636   0.434   0.809  14.081 -0.0837 -0.1008  0.4030
  173MPD1    C4 2637   0.524   0.700  14.062 -0.3510 -0.1931  0.6896
  173MPD1    C5 2638   0.493   0.616  13.960  0.1136 -0.3637 -0.0731
  173MPD1     H 2639   0.252   0.903  14.013  0.9349  0.9873 -1.7557
  173MPD1    H1 2640   0.623   0.686  14.104  0.4003  0.0872 -0.9875
  173MPD1    H2 2641   0.383   0.568  13.793 -1.9016 -0.1863  0.7024
  173MPD1    H3 2642   0.563   0.538  13.933 -0.3374 -0.4835 -0.9057
  173MPD1     N 2643   0.435   0.905  14.192  0.2196  0.1569  0.4639
  173MPD1    H5 2644   0.358   0.971  14.197 -1.6061 -1.8961 -0.9542
  173MPD1    N1 2645   0.193   0.750  13.807 -0.1900 -0.6033  0.0908
  173MPD1    H6 2646   0.159   0.665  13.762  0.9316 -1.8810  1.6109
  173MPD1    H7 2647   0.117   0.807  13.843  0.1326  1.4998 -2.5909
  174MPD1     C 2648   0.963   1.180  15.114 -0.0742 -1.1135 -0.2549
  174MPD1    C1 2649   1.015   1.212  14.993  0.3489  0.3284  0.0513
  174MPD1    C2 2650   0.930   1.205  14.883 -0.4470  0.0363  0.1272
  174MPD1    C3 2651   0.794   1.166  14.893 -0.3831  0.3581  0.2759
  174MPD1    C4 2652   0.752   1.117  15.012 -1.0198 -0.0403 -0.5433
  174MPD1    C5 2653   0.833   1.128  15.121 -0.3394 -1.0512 -0.4475
  174MPD1     H 2654   0.971   1.241  14.790 -2.2095 -1.4720 -1.2477
  174MPD1    H1 2655   0.652   1.075  15.019 -0.6001 -1.4634 -2.9051
  174MPD1    H2 2656   1.018   1.193  15.206  1.0938  0.4360 -1.1752
  174MPD1    H3 2657   0.794   1.089  15.214  0.6104 -2.2535 -0.5525
  174MPD1     N 2658   0.711   1.149  14.789  0.0369 -0.4347 -0.0190
  174MPD1    H5 2659   0.614   1.134  14.812 -0.0282 -0.6218 -0.4054
  174MPD1    N1 2660   1.139   1.277  14.977 -0.1629  0.1831 -0.4373
  174MPD1    H6 2661   1.173   1.251  14.884  0.9252 -1.5138  0.4180
  174MPD1    H7 2662   1.205   1.236  15.044 -0.9688 -1.3138 -0.5645
  175MPD1     C 2663   3.207   2.532  15.205  0.6605  0.2254  0.5365
  175MPD1    C1 2664   3.324   2.562  15.274 -0.1946 -0.8671 -0.6617
  175MPD1    C2 2665   3.324   2.544  15.414 -0.1862  0.3817  0.1841
  175MPD1    C3 2666   3.204   2.499  15.481 -0.4845  0.5140  0.2692
  175MPD1    C4 2667   3.094   2.465  15.403  1.0294  0.5245 -0.3169
  175MPD1    C5 2668   3.097   2.482  15.269  0.3795 -0.2485 -0.0328
  175MPD1     H 2669   3.417   2.553  15.469  0.3561  0.6999 -0.7853
  175MPD1    H1 2670   2.996   2.446  15.445  0.2172 -1.4635 -3.0992
  175MPD1    H2 2671   3.216   2.534  15.097  0.7295 -2.1369  0.5013
  175MPD1    H3 2672   3.014   2.456  15.205 -1.2251  2.6037  0.8823
  175MPD1     N 2673   3.196   2.476  15.623  0.2268  0.2733  0.3030
  175MPD1    H5 2674   3.105   2.442  15.653  1.2671 -1.2265  1.8125
  175MPD1    N1 2675   3.442   2.588  15.205  0.5438  0.2909  0.1332
  175MPD1    H6 2676   3.511   2.649  15.247 -0.4231  3.0853 -2.2536
  175MPD1    H7 2677   3.425   2.628  15.112 -0.2265 -1.6257 -0.5451
  176MPD1     C 2678   0.513   3.950  16.648 -0.0826  0.9655 -0.6748
  176MPD1    C1 2679   0.465   4.078  16.624  0.5296 -0.5868 -0.3122
  176MPD1    C2 2680   0.449   4.156  16.739 -0.3253 -0.4244  0.4509
  176MPD1    C3 2681   0.475   4.109  16.867  0.7369  0.0061  0.6967
  176MPD1    C4 2682   0.534   3.988  16.889 -0.4242 -0.1193  0.3712
  176MPD1    C5 2683   0.543   3.907  16.778  0.7867  0.0612 -0.1107
  176MPD1     H 2684   0.398   4.251  16.738  0.8656  0.1993 -1.2353
  176MPD1    H1 2685   0.548   3.940  16.985 -0.9732  0.5079  0.7661
  176MPD1    H2 2686   0.531   3.881  16.566 -2.3117 -0.1333 -0.2207
  176MPD1    H3 2687   0.583   3.809  16.799 -1.0645 -0.7384 -0.3643
  176MPD1     N 2688   0.437   4.185  16.979  0.6345  0.0149  0.0938
  176MPD1    H5 2689   0.395   4.277  16.963 -0.6075 -0.7416 -0.9978
  176MPD1    N1 2690   0.421   4.128  16.500  0.7304  0.5652 -0.3764
  176MPD1    H6 2691   0.464   4.082  16.420 -0.5619 -1.0320 -0.1677
  176MPD1    H7 2692   0.424   4.229  16.494 -0.5331  0.8136  2.8173
  177MPD1     C 2693   3.215   4.625   9.705 -0.3557 -0.2576  0.6006
  177MPD1    C1 2694   3.279   4.514   9.756  1.0296  0.4551  0.0359
  177MPD1    C2 2695   3.266   4.395   9.686  0.1624  0.6992  0.1183
  177MPD1    C3 2696   3.218   4.385   9.554  0.5307 -0.7933 -0.1786
  177MPD1    C4 2697   3.190   4.505   9.491 -0.0209  0.3317 -0.4206
  177MPD1    C5 2698   3.183   4.620   9.568 -0.1107 -0.8137  0.8931
  177MPD1     H 2699   3.287   4.304   9.741 -0.1533  0.1907 -0.6029
  177MPD1    H1 2700   3.142   4.506   9.394  0.2025 -0.8910 -0.5469
  177MPD1    H2 2701   3.206   4.719   9.758  0.9189 -0.0581  0.4629
  177MPD1    H3 2702   3.155   4.719   9.534  0.5134 -0.3947  1.5863
  177MPD1     N 2703   3.180   4.258   9.499  0.3736 -0.0314  0.5836
  177MPD1    H5 2704   3.199   4.176   9.555 -0.6598 -1.9529 -1.8783
  177MPD1    N1 2705   3.305   4.504   9.891  0.0053 -0.1585  0.1213
  177MPD1    H6 2706   3.378   4.443   9.926 -1.6864 -1.1125  2.0130
  177MPD1    H7 2707   3.320   4.595   9.935  1.1981 -0.5016  0.4019
  178MPD1     C 2708   0.742   0.584  16.899  0.0860 -0.1697  0.2783
  178MPD1    C1 2709   0.810   0.608  17.015 -0.5553 -0.2739 -0.0098
  178MPD1    C2 2710   0.824   0.492  17.095 -0.1782  0.1547 -0.5242
  178MPD1    C3 2711   0.828   0.369  17.034 -0.4185  0.0581 -0.7767
  178MPD1    C4 2712   0.783   0.349  16.908  0.4209  0.4845 -0.1463
  178MPD1    C5 2713   0.732   0.458  16.844  0.2122 -0.6944  0.3419
  178MPD1     H 2714   0.873   0.510  17.190 -0.7347 -0.7452 -0.0633
  178MPD1    H1 2715   0.782   0.253  16.859 -0.0521  0.2532  0.3081
  178MPD1    H2 2716   0.698   0.669  16.848 -0.1166 -0.7815 -0.5778
  178MPD1    H3 2717   0.679   0.434  16.752  1.1622  1.7791 -0.8386
  178MPD1     N 2718   0.883   0.256  17.095  0.3568  0.7085 -0.0374
  178MPD1    H5 2719   0.872   0.171  17.040  0.8909  0.9663 -0.5382
  178MPD1    N1 2720   0.813   0.735  17.066 -1.1186  0.3235 -0.2993
  178MPD1    H6 2721   0.885   0.751  17.136 -0.0872  3.8264 -2.1736
  178MPD1    H7 2722   0.829   0.801  16.990  0.8075  0.4155  0.1837
  179MPD1     C 2723   0.984   3.753  15.374 -0.7226 -0.1622  0.0577
  179MPD1    C1 2724   0.918   3.640  15.330 -0.2317  0.4178 -0.0454
  179MPD1    C2 2725   0.844   3.564  15.415 -0.2931 -0.1975 -0.1340
  179MPD1    C3 2726   0.849   3.587  15.553 -0.7835  0.7537  0.6597
  179MPD1    C4 2727   0.927   3.686  15.601  0.0130 -0.2772  0.0663
  179MPD1    C5 2728   0.990   3.772  15.511  0.0975  0.2421 -0.1709
  179MPD1     H 2729   0.799   3.476  15.370  0.7318 -1.7287  1.8357
  179MPD1    H1 2730   0.936   3.690  15.708  0.9769 -1.6927  0.0456
  179MPD1    H2 2731   1.021   3.832  15.310 -0.5416  0.6149  1.1236
  179MPD1    H3 2732   1.053   3.845  15.561  2.2614 -2.2384  0.7376
  179MPD1     N 2733   0.775   3.513  15.644  0.6917  0.0562 -0.0697
  179MPD1    H5 2734   0.789   3.527  15.744  0.4074 -0.6752  0.0694
  179MPD1    N1 2735   0.896   3.638  15.191  1.0599  0.2752  0.6045
  179MPD1    H6 2736   0.869   3.542  15.169  0.2833  0.5266  0.4447
  179MPD1    H7 2737   0.974   3.663  15.131 -2.3202 -0.5320 -4.0977
  180MPD1     C 2738   0.197   0.036  14.692 -0.1208 -0.0451 -0.3171
  180MPD1    C1 2739   0.136   4.676  14.603  0.1525 -0.3607 -0.2006
  180MPD1    C2 2740   0.208   4.632  14.497 -0.3653 -0.7640 -0.0676
  180MPD1    C3 2741   0.343   4.644  14.490  0.1794  0.6749 -0.2818
  180MPD1    C4 2742   0.409   4.717  14.586  0.2452  1.2099 -0.7539
  180MPD1    C5 2743   0.333   0.053  14.684  0.2794 -0.7816 -0.2138
  180MPD1     H 2744   0.159   4.575  14.419  0.0825  1.0538 -1.6696
  180MPD1    H1 2745   0.514   0.023  14.586 -0.0797  2.4721  0.2488
  180MPD1    H2 2746   0.143   0.083  14.773  2.0218 -2.4028  2.5006
  180MPD1    H3 2747   0.392   0.111  14.755 -0.9282  0.0333  0.1263
  180MPD1     N 2748   0.414   4.577  14.389  0.3739  0.0093 -0.3018
  180MPD1    H5 2749   0.363   4.528  14.316  0.0600 -0.1789  0.0452
  180MPD1    N1 2750   4.718   4.678  14.607  0.4528 -0.5559 -0.3774
  180MPD1    H6 2751   4.686   4.598  14.553  2.8795 -0.9241 -1.2567
  180MPD1    H7 2752   4.687   4.668  14.704 -0.0312  0.3656 -0.4419
  181MPD1     C 2753   2.553   0.853   9.970  0.2630 -0.6934 -0.0229
  181MPD1    C1 2754   2.483   0.762   9.893 -0.1369 -0.5265  0.0324
  181MPD1    C2 2755   2.552   0.702   9.792 -0.3144  0.1589 -0.2005
  181MPD1    C3 2756   2.688   0.728   9.760 -0.5490  0.4120 -0.6059
  181MPD1    C4 2757   2.756   0.815   9.850  0.7465  0.1990  1.1196
  181MPD1    C5 2758   2.682   0.881   9.948 -0.2651 -1.3042  0.4120
  181MPD1     H 2759   2.501   0.627   9.733 -1.0427  0.4167  0.0970
  181MPD1    H1 2760   2.861   0.836   9.838  0.8373 -1.2579 -0.6762
  181MPD1    H2 2761   2.504   0.914  10.045  0.2186  0.5352 -1.0540
  181MPD1    H3 2762   2.735   0.948  10.015 -0.1644 -0.5479 -0.4399
  181MPD1     N 2763   2.763   0.661   9.655  0.1088 -0.4018 -1.0881
  181MPD1    H5 2764   2.858   0.696   9.649 -0.3083  0.6443 -1.6249
  181MPD1    N1 2765   2.350   0.736   9.926 -0.3948 -0.0336  0.5687
  181MPD1    H6 2766   2.332   0.749  10.025  0.4929  1.8722  0.4935
  181MPD1    H7 2767   2.313   0.653   9.882 -0.0261  0.6062 -0.9587
  182MPD1     C 2768   1.564   1.765  17.665  0.0265  0.1238 -0.3943
  182MPD1    C1 2769   1.504   1.751   0.101  0.8360 -0.0950 -0.5047
  182MPD1    C2 2770   1.580   1.672   0.195  0.6527 -0.0084  0.0049
  182MPD1    C3 2771   1.693   1.599   0.153 -0.1950 -0.5220 -0.1023
  182MPD1    C4 2772   1.746   1.613   0.027  0.3684 -0.0026  0.4989
  182MPD1    C5 2773   1.679   1.696  17.629 -0.1058  0.4260  0.2285
  182MPD1     H 2774   1.540   1.666   0.295  0.0740  1.0008 -0.1556
  182MPD1    H1 2775   1.836   1.562  17.680  0.2000 -0.6258  0.9871
  182MPD1    H2 2776   1.510   1.824  17.591 -1.5749  0.7546  1.2594
  182MPD1    H3 2777   1.719   1.716  17.530  1.3944  0.9235  0.9413
  182MPD1     N 2778   1.757   1.502   0.229 -0.4874 -0.6101  0.5520
  182MPD1    H5 2779   1.833   1.446   0.192  1.3137  1.5877  0.8977
  182MPD1    N1 2780   1.400   1.832   0.149 -0.2613  0.2522 -0.3782
  182MPD1    H6 2781   1.327   1.843   0.078  1.6058  1.7518 -2.0608
  182MPD1    H7 2782   1.352   1.781   0.223 -1.5221  1.9713 -0.0190
  183MPD1     C 2783   3.383   3.450   8.664  0.5820  0.5865  0.1630
  183MPD1    C1 2784   3.256   3.501   8.665 -0.2445  0.3055 -0.4171
  183MPD1    C2 2785   3.246   3.638   8.668  0.4035 -0.4945  0.0311
  183MPD1    C3 2786   3.352   3.720   8.691  0.0539  0.1081 -0.2647
  183MPD1    C4 2787   3.476   3.671   8.701  0.2777 -0.1629 -0.0593
  183MPD1    C5 2788   3.494   3.536   8.685  0.2692 -0.2385 -0.7502
  183MPD1     H 2789   3.150   3.683   8.648  0.1750 -1.1676 -0.3962
  183MPD1    H1 2790   3.564   3.734   8.702  1.0964 -1.2953 -2.9812
  183MPD1    H2 2791   3.405   3.345   8.646 -1.1973  0.7642 -2.9773
  183MPD1    H3 2792   3.595   3.497   8.678  0.7071  0.9291 -0.9470
  183MPD1     N 2793   3.328   3.855   8.687 -0.1491 -0.1234  1.0024
  183MPD1    H5 2794   3.237   3.889   8.658 -0.2026 -1.6186 -0.6104
  183MPD1    N1 2795   3.149   3.422   8.620 -0.2543 -0.1520  0.0695
  183MPD1    H6 2796   3.061   3.464   8.650 -0.7123 -0.9766 -0.1148
  183MPD1    H7 2797   3.155   3.325   8.650  0.9598  0.0662  0.5069
  184MPD1     C 2798   2.469   2.554   9.533  0.6199  0.0849 -0.2298
  184MPD1    C1 2799   2.405   2.622   9.435 -0.1447 -1.0247  0.5624
  184MPD1    C2 2800   2.433   2.756   9.422 -0.0963  0.0818  0.4198
  184MPD1    C3 2801   2.537   2.819   9.497 -0.3413  0.1058  0.0313
  184MPD1    C4 2802   2.608   2.734   9.579  0.6719 -0.1285  0.4382
  184MPD1    C5 2803   2.580   2.608   9.603 -0.5875  0.2647  0.3810
  184MPD1     H 2804   2.376   2.806   9.344  0.8748 -0.2000 -0.4645
  184MPD1    H1 2805   2.685   2.779   9.641 -1.9855  3.3984  1.1243
  184MPD1    H2 2806   2.439   2.457   9.570  1.1116 -0.2893 -0.8001
  184MPD1    H3 2807   2.634   2.561   9.684  1.9167 -3.7939 -3.6492
  184MPD1     N 2808   2.580   2.946   9.458 -0.9537  0.6167 -0.3707
  184MPD1    H5 2809   2.521   2.990   9.388  0.4757 -0.4469 -2.2716
  184MPD1    N1 2810   2.283   2.569   9.376 -0.4025 -0.1442 -0.0870
  184MPD1    H6 2811   2.283   2.467   9.371  4.3687 -0.2025  0.7935
  184MPD1    H7 2812   2.272   2.606   9.282  0.6743 -0.1892 -0.2271
  185MPD1     C 2813   2.356   3.094   8.677 -1.4852  0.5322 -0.9963
  185MPD1    C1 2814   2.351   3.210   8.746  0.6437  0.1702  0.0158
  185MPD1    C2 2815   2.423   3.225   8.865  0.0847  0.2707  0.3868
  185MPD1    C3 2816   2.519   3.128   8.897  0.3558 -0.0675  0.5798
  185MPD1    C4 2817   2.539   3.021   8.808  0.2428 -0.2367 -0.2330
  185MPD1    C5 2818   2.448   2.999   8.704 -0.1867 -0.3531 -0.6136
  185MPD1     H 2819   2.400   3.316   8.920 -2.3189 -0.1115  0.0372
  185MPD1    H1 2820   2.628   2.960   8.819 -0.4342 -1.1906 -0.0836
  185MPD1    H2 2821   2.307   3.077   8.582 -1.0553  1.7647 -1.4478
  185MPD1    H3 2822   2.448   2.915   8.635 -0.2903  0.4957 -1.6471
  185MPD1     N 2823   2.602   3.141   9.015 -0.3379  0.0524 -0.1412
  185MPD1    H5 2824   2.665   3.065   9.038 -1.1796 -1.3570 -2.4980
  185MPD1    N1 2825   2.255   3.306   8.711  0.1798  0.2249 -0.3176
  185MPD1    H6 2826   2.220   3.297   8.616  0.2103  0.7609 -0.3794
  185MPD1    H7 2827   2.277   3.398   8.747  0.0761  0.4198 -0.7599
  186MPD1     C 2828   1.532   2.635  15.699  0.1670 -0.1107 -0.6374
  186MPD1    C1 2829   1.520   2.579  15.824 -0.2369  0.2713 -0.5273
  186MPD1    C2 2830   1.449   2.643  15.930  0.5015  0.7325  0.4359
  186MPD1    C3 2831   1.386   2.763  15.901  0.3335  0.5920 -0.6181
  186MPD1    C4 2832   1.390   2.814  15.773 -0.0863  0.0905  0.1308
  186MPD1    C5 2833   1.446   2.743  15.672 -0.1200 -0.0756 -0.6047
  186MPD1     H 2834   1.462   2.605  16.030  0.1229  0.3426  0.3373
  186MPD1    H1 2835   1.339   2.906  15.749  1.4154  1.0910  0.7651
  186MPD1    H2 2836   1.592   2.595  15.617  1.5472 -0.2810  0.4489
  186MPD1    H3 2837   1.443   2.794  15.576  0.0485 -2.9181 -2.1389
  186MPD1     N 2838   1.328   2.842  16.004  0.0815 -0.4092 -0.1449
  186MPD1    H5 2839   1.306   2.938  15.979 -0.9337 -0.9524 -1.3961
  186MPD1    N1 2840   1.621   2.490  15.863  0.6672 -1.0007  0.4976
  186MPD1    H6 2841   1.647   2.424  15.790 -1.6827 -1.3998  0.0260
  186MPD1    H7 2842   1.590   2.444  15.948  0.5098 -0.9794  0.4506
  187MPD1     C 2843   4.593   1.066   0.372 -0.2246 -0.2687 -0.2678
  187MPD1    C1 2844   4.603   0.929   0.381  0.2010  0.2452 -0.4770
  187MPD1    C2 2845   4.690   0.867   0.293 -0.4666  0.0567 -0.5229
  187MPD1    C3 2846   0.051   0.948   0.210  1.0866  0.1043 -0.1507
  187MPD1    C4 2847   0.031   1.083   0.204 -0.6989 -0.1172  0.6901
  187MPD1    C5 2848   4.657   1.139   0.276  0.7038 -0.4721 -0.2222
  187MPD1     H 2849   4.703   0.760   0.303 -0.9733 -0.0421 -0.9199
  187MPD1    H1 2850   0.086   1.150   0.139 -1.4176  0.9881  1.2221
  187MPD1    H2 2851   4.519   1.119   0.432  0.0008 -0.3977  0.1286
  187MPD1    H3 2852   4.641   1.245   0.262 -0.1774 -0.6355 -0.4758
  187MPD1     N 2853   0.136   0.889   0.119  0.2090  0.1842 -0.3195
  187MPD1    H5 2854   0.180   0.958   0.059  1.8941 -0.1345  0.5640
  187MPD1    N1 2855   4.509   0.854   0.453 -0.3573  0.3383 -0.0269
  187MPD1    H6 2856   4.487   0.895   0.543 -0.1363 -1.7435  0.9930
  187MPD1    H7 2857   4.562   0.770   0.475 -0.8390 -0.1241 -0.6207
  188MPD1     C 2858   4.604   4.199  10.579 -0.5746 -0.1226  0.1399
  188MPD1    C1 2859   4.607   4.279  10.469 -0.5284 -0.6370  0.0459
  188MPD1    C2 2860   4.688   4.235  10.361  0.5878 -0.0648 -0.6226
  188MPD1    C3 2861   0.041   4.117  10.368  0.2486 -0.0682  0.3667
  188MPD1    C4 2862   0.029   4.044  10.481 -0.2274 -0.2179 -0.2704
  188MPD1    C5 2863   4.676   4.088  10.585 -0.5351 -0.6012 -0.9991
  188MPD1     H 2864   4.682   4.297  10.272  1.2202  0.5211 -0.2523
  188MPD1    H1 2865   0.105   3.969  10.500 -1.0313 -1.6448 -2.7336
  188MPD1    H2 2866   4.556   4.225  10.672  0.3032 -0.2248  0.6195
  188MPD1    H3 2867   4.665   4.027  10.675  0.1493  0.4469 -0.2071
  188MPD1     N 2868   0.127   4.070  10.262  0.0595 -0.3584 -0.3733
  188MPD1    H5 2869   0.169   3.980  10.283 -0.7808 -1.0198 -1.5252
  188MPD1    N1 2870   4.560   4.417  10.469 -0.5676  0.7198  0.2460
  188MPD1    H6 2871   4.478   4.436  10.526 -0.9082  0.5570 -0.1879
  188MPD1    H7 2872   4.534   4.450  10.377 -1.8854 -2.8841 -0.7017
  189MPD1     C 2873   2.236   0.379  17.492  0.7922 -0.0463  0.7711
  189MPD1    C1 2874   2.199   0.508  17.522 -0.1513 -0.5545 -0.3433
  189MPD1    C2 2875   2.085   0.529  17.588 -0.1109  0.2529 -0.4175
  189MPD1    C3 2876   2.002   0.436  17.636 -0.4884  0.6957 -0.2388
  189MPD1    C4 2877   2.043   0.305  17.616  0.1526  0.5311 -0.2487
  189MPD1    C5 2878   2.155   0.278  17.546 -0.0561 -0.5801 -0.1519
  189MPD1     H 2879   2.055   0.631  17.608  0.3413  0.6187 -1.6152
  189MPD1    H1 2880   1.976   0.225  17.644 -0.2026  1.2941  1.0783
  189MPD1    H2 2881   2.325   0.343  17.441 -0.2206 -0.5967 -0.5976
  189MPD1    H3 2882   2.168   0.175  17.516 -0.5447 -0.1700 -1.8048
  189MPD1     N 2883   1.887   0.477   0.024 -0.1521  0.2789  0.1710
  189MPD1    H5 2884   1.883   0.575   0.048 -0.8633  0.3954 -0.4346
  189MPD1    N1 2885   2.273   0.612  17.455 -0.0018  0.2396  0.4326
  189MPD1    H6 2886   2.370   0.582  17.447  0.1431  0.2182  2.2513
  189MPD1    H7 2887   2.269   0.703  17.500  1.2021 -0.1408  1.3281
  190MPD1     C 2888   0.906   4.585  14.936 -0.4512 -0.4140  1.1122
  190MPD1    C1 2889   1.014   4.496  14.939 -0.4536  0.3829 -0.5155
  190MPD1    C2 2890   1.069   4.470  15.067  0.0117  0.1036  0.8535
  190MPD1    C3 2891   1.031   4.528  15.184  0.1855 -0.0199 -0.7637
  190MPD1    C4 2892   0.921   4.615  15.173  0.7378 -0.3563 -0.5631
  190MPD1    C5 2893   0.862   4.639  15.055 -0.5732 -0.2672  0.2124
  190MPD1     H 2894   1.158   4.409  15.060 -0.6448 -1.1786  3.4560
  190MPD1    H1 2895   0.878   4.668  15.257  1.1143  1.1731 -1.3388
  190MPD1    H2 2896   0.850   4.600  14.844 -0.6998 -0.0277  1.3247
  190MPD1    H3 2897   0.772   4.698  15.045 -0.7388 -0.7155 -0.9200
  190MPD1     N 2898   1.103   4.498  15.304 -0.8742  0.0402 -0.3510
  190MPD1    H5 2899   1.171   4.423  15.305  1.3130  2.0287  2.3028
  190MPD1    N1 2900   1.041   4.425  14.824 -0.4773  0.5331  0.3745
  190MPD1    H6 2901   1.130   4.375  14.825 -1.4585 -1.1993  1.1824
  190MPD1    H7 2902   1.046   4.487  14.744 -0.2484  1.5024  1.1378
  191MPD1     C 2903   0.187   1.287  13.381 -0.0711 -0.3196  0.2912
  191MPD1    C1 2904   0.265   1.357  13.294  0.0240 -0.8158  0.6081
  191MPD1    C2 2905   0.221   1.479  13.244 -0.3181 -0.4926 -0.0494
  191MPD1    C3 2906   0.110   1.547  13.298  0.1282 -0.3015 -0.0739
  191MPD1    C4 2907   0.035   1.469  13.386 -0.3594  0.0307  0.5797
  191MPD1    C5 2908   0.076   1.346  13.429  0.2347  0.9312  0.6203
  191MPD1     H 2909   0.284   1.528  13.170 -1.8255 -1.4523 -1.9689
  191MPD1    H1 2910   4.665   1.499  13.435  1.0188 -0.9481  3.7758
  191MPD1    H2 2911   0.212   1.189  13.420 -0.6064 -0.9269 -0.9168
  191MPD1    H3 2912   0.010   1.288  13.493 -0.9218 -1.0022 -2.3625
  191MPD1     N 2913   0.060   1.671  13.245  0.3076  0.1220  0.2243
  191MPD1    H5 2914   0.119   1.713  13.174  2.6638 -2.1337  0.8404
  191MPD1    N1 2915   0.377   1.287  13.241  0.1014 -0.0194  0.6024
  191MPD1    H6 2916   0.422   1.234  13.315  1.8345  0.8491  0.1810
  191MPD1    H7 2917   0.451   1.351  13.211  1.2063 -0.7411  1.8111
  192MPD1     C 2918   3.959   2.172  13.529 -0.6283  0.0097  0.1460
  192MPD1    C1 2919   3.957   2.126  13.401  0.1467 -0.0518  0.5008
  192MPD1    C2 2920   4.076   2.101  13.343  0.7252  0.1916 -0.2198
  192MPD1    C3 2921   4.195   2.118  13.415 -0.4334 -0.2476 -0.0055
  192MPD1    C4 2922   4.196   2.145  13.550  0.0264  0.2094 -0.0927
  192MPD1    C5 2923   4.076   2.167  13.606 -0.5534 -0.0253 -0.0809
  192MPD1     H 2924   4.083   2.079  13.237  0.4543 -1.0503  0.0207
  192MPD1    H1 2925   4.275   2.138  13.624  0.6936  1.6450 -0.6754
  192MPD1    H2 2926   3.871   2.196  13.587 -0.1298  0.8366  0.5498
  192MPD1    H3 2927   4.074   2.188  13.712  1.1614  0.9269 -0.2352
  192MPD1     N 2928   4.323   2.095  13.360 -0.3948 -0.2090  0.2890
  192MPD1    H5 2929   4.409   2.107  13.413 -0.0454  1.5227 -0.6699
  192MPD1    N1 2930   3.840   2.138  13.322  0.5529 -0.2379 -0.4435
  192MPD1    H6 2931   3.751   2.110  13.362  0.9982  0.2376  0.8802
  192MPD1    H7 2932   3.848   2.100  13.228  3.2972  0.8751 -0.6652
  193MPD1     C 2933   4.612   1.791  16.726 -0.4456 -0.3189 -0.5764
  193MPD1    C1 2934   4.626   1.830  16.857  0.2295 -0.0434 -0.9715
  193MPD1    C2 2935   4.707   1.936  16.884  0.7067 -0.7586 -0.1571
  193MPD1    C3 2936   0.041   2.005  16.786 -0.6895  0.0573 -0.5460
  193MPD1    C4 2937   0.015   1.974  16.654  0.0921 -0.2542 -0.7096
  193MPD1    C5 2938   4.657   1.863  16.621  0.4392  0.1115 -0.9093
  193MPD1     H 2939   4.720   1.960  16.988 -1.0507 -1.7653  0.2932
  193MPD1    H1 2940   0.060   2.033  16.576  2.2539  0.2146  0.8757
  193MPD1    H2 2941   4.558   1.699  16.706 -1.1763  0.1922 -0.9500
  193MPD1    H3 2942   4.629   1.835  16.520  0.2609  1.9519 -1.3659
  193MPD1     N 2943   0.128   2.120  16.798 -0.7754  0.4500  0.7184
  193MPD1    H5 2944   0.164   2.152  16.709  1.3853  1.4058  1.9302
  193MPD1    N1 2945   4.569   1.752  16.959  0.4376  0.0851  0.2673
  193MPD1    H6 2946   4.472   1.725  16.943  0.2101  1.2005 -0.2449
  193MPD1    H7 2947   4.573   1.792  17.053  1.1646  0.5856  0.0243
  194MPD1     C 2948   2.281   4.368  17.030 -0.4910 -0.3879  0.0514
  194MPD1    C1 2949   2.352   4.416  16.919 -0.0676 -0.5972 -0.1479
  194MPD1    C2 2950   2.475   4.361  16.891 -0.4485 -0.2638 -0.3367
  194MPD1    C3 2951   2.529   4.255  16.962 -0.5248  0.7521  0.3713
  194MPD1    C4 2952   2.448   4.209  17.071 -0.2276  0.3752 -0.6617
  194MPD1    C5 2953   2.325   4.264  17.100 -0.9922  0.9274  0.7177
  194MPD1     H 2954   2.526   4.407  16.807  0.5065  0.9224  0.8857
  194MPD1    H1 2955   2.466   4.120  17.131  0.1399  1.1811  0.4322
  194MPD1    H2 2956   2.188   4.415  17.060  0.0631  0.9297 -0.3142
  194MPD1    H3 2957   2.266   4.226  17.183  1.6980 -1.0591  1.7369
  194MPD1     N 2958   2.653   4.196  16.921  0.1702  0.4366 -0.7878
  194MPD1    H5 2959   2.690   4.125  16.983 -0.3673  1.4145  0.6445
  194MPD1    N1 2960   2.310   4.523  16.840 -0.4519  0.4297 -0.4335
  194MPD1    H6 2961   2.289   4.496  16.745 -1.9266  1.0906 -0.2887
  194MPD1    H7 2962   2.228   4.574  16.871 -1.3647 -1.0312 -0.4719
  195MPD1     C 2963   0.149   1.216  17.416  0.2888  0.2439 -0.1236
  195MPD1    C1 2964   0.043   1.206  17.508  0.2454  0.6556 -1.0951
  195MPD1    C2 2965   4.712   1.080  17.541  0.4636 -0.0305  0.1538
  195MPD1    C3 2966   0.026   0.970  17.466 -0.5389  0.1700  0.2712
  195MPD1    C4 2967   0.130   0.979  17.377 -0.2866  0.4733  0.0431
  195MPD1    C5 2968   0.189   1.100  17.351  0.0286  0.6510 -0.0554
  195MPD1     H 2969   4.628   1.069  17.609  0.4843 -0.8095  0.0551
  195MPD1    H1 2970   0.168   0.893  17.324 -0.2865  0.4794  0.0331
  195MPD1    H2 2971   0.193   1.314  17.406  0.6740  0.1253  0.4052
  195MPD1    H3 2972   0.277   1.099  17.288  1.3338 -1.2994  1.7825
  195MPD1     N 2973   4.675   0.852  17.473  0.0670 -0.3312  0.4746
  195MPD1    H5 2974   4.706   0.779  17.410 -3.3170  0.4012 -2.0467
  195MPD1    N1 2975   0.014   1.305  17.597  0.6888 -0.0976  0.8770
  195MPD1    H6 2976   4.637   1.321  17.619  0.0152  1.3706 -3.2645
  195MPD1    H7 2977   0.058   1.396  17.590 -1.6425  1.0788  1.6031
  196MPD1     C 2978   3.884   0.274  17.033  0.1965  0.1126  0.2269
  196MPD1    C1 2979   3.919   0.399  17.066  0.1838  0.1839  0.2425
  196MPD1    C2 2980   3.888   0.444  17.195 -0.2521 -1.0168 -0.4539
  196MPD1    C3 2981   3.848   0.353  17.293  0.5719  0.6904  0.3360
  196MPD1    C4 2982   3.809   0.226  17.250  0.5974  0.5962 -0.5336
  196MPD1    C5 2983   3.829   0.193  17.119  0.0833 -0.1650  0.4899
  196MPD1     H 2984   3.908   0.547  17.221 -0.5875 -0.5701 -1.9948
  196MPD1    H1 2985   3.767   0.151  17.315 -1.5680  4.0778  2.0525
  196MPD1    H2 2986   3.897   0.232  16.934  0.8315 -0.0374  0.3804
  196MPD1    H3 2987   3.809   0.092  17.085 -0.7054  0.6044 -1.3241
  196MPD1     N 2988   3.841   0.375  17.432 -0.1810 -1.1294  0.4815
  196MPD1    H5 2989   3.824   0.296  17.495 -0.4201 -0.6622  1.0087
  196MPD1    N1 2990   3.970   0.478  16.964  0.3436  0.2448 -0.0435
  196MPD1    H6 2991   3.982   0.442  16.870  1.1906  0.8777 -0.1797
  196MPD1    H7 2992   4.060   0.523  16.983 -0.0023  0.6085  0.7415
  197MPD1     C 2993   3.411   2.394  17.645  0.4196  0.3679  0.2259
  197MPD1    C1 2994   3.351   2.327  17.541  0.6632 -0.5902 -0.1191
  197MPD1    C2 2995   3.371   2.370  17.413 -0.1565  0.2808 -0.4434
  197MPD1    C3 2996   3.439   2.492  17.386  0.0158  0.0090  0.8495
  197MPD1    C4 2997   3.489   2.567  17.490  0.5278  0.0390  0.8042
  197MPD1    C5 2998   3.480   2.513  17.615 -0.2781 -0.6313  0.1490
  197MPD1     H 2999   3.332   2.325  17.323 -1.9280  1.8367 -0.4707
  197MPD1    H1 3000   3.540   2.662  17.484  1.1740 -0.2626  1.4927
  197MPD1    H2 3001   3.402   2.359   0.060 -2.6277  0.1660 -0.0987
  197MPD1    H3 3002   3.531   2.560   0.010  1.1161 -0.3294 -0.8850
  197MPD1     N 3003   3.451   2.546  17.258  0.3394  1.1909  0.0753
  197MPD1    H5 3004   3.510   2.629  17.255  2.7924 -0.5783 -0.9022
  197MPD1    N1 3005   3.279   2.208  17.567 -0.6864 -0.0569 -0.4155
  197MPD1    H6 3006   3.266   2.138  17.495  0.0063 -2.5050  1.8352
  197MPD1    H7 3007   3.316   2.153  17.645  1.5950  0.4061 -1.1609
  198MPD1     C 3008   4.663   1.291  15.737 -0.3774 -0.1633  0.2110
  198MPD1    C1 3009   0.031   1.231  15.651  0.0912 -0.2328 -0.2245
  198MPD1    C2 3010   0.165   1.234  15.686 -0.2250  0.2872  0.2921
  198MPD1    C3 3011   0.205   1.277  15.814 -0.0653  0.8114 -0.2610
  198MPD1    C4 3012   0.109   1.322  15.907 -0.3060  0.1633  0.0827
  198MPD1    C5 3013   4.699   1.323  15.866 -0.4378  0.0556  0.0169
  198MPD1     H 3014   0.246   1.226  15.614 -0.4785  0.5359 -0.0196
  198MPD1    H1 3015   0.130   1.352  16.009  1.3656 -0.2159 -0.1414
  198MPD1    H2 3016   4.566   1.325  15.702 -0.6835  0.1933  1.3783
  198MPD1    H3 3017   4.615   1.352  15.928  2.3628  0.3327  3.7467
  198MPD1     N 3018   0.343   1.265  15.842 -0.7476 -0.1799 -0.1136
  198MPD1    H5 3019   0.397   1.213  15.774 -1.7296 -0.4989 -0.6515
  198MPD1    N1 3020   4.710   1.214  15.520  0.1981 -0.3892  0.2232
  198MPD1    H6 3021   4.612   1.198  15.499  0.9412 -1.6264 -2.2250
  198MPD1    H7 3022   0.049   1.156  15.463 -1.3896 -2.2947  0.4960
  199MPD1     C 3023   2.640   1.211  10.003  0.3264  0.6066 -0.1303
  199MPD1    C1 3024   2.508   1.189   9.999  0.2701 -1.3928 -0.2095
  199MPD1    C2 3025   2.439   1.209   9.885 -0.0476  0.0857 -0.3242
  199MPD1    C3 3026   2.498   1.245   9.767 -0.1760 -0.3107  0.1739
  199MPD1    C4 3027   2.633   1.278   9.774 -0.3067 -0.1385  0.3027
  199MPD1    C5 3028   2.703   1.253   9.890  0.0917 -0.2688 -0.3752
  199MPD1     H 3029   2.332   1.200   9.898 -0.1159  1.4775  0.0676
  199MPD1    H1 3030   2.684   1.304   9.682  2.4298 -0.5024  1.7188
  199MPD1    H2 3031   2.702   1.208  10.092  0.1790 -0.3191 -0.0532
  199MPD1    H3 3032   2.811   1.266   9.883 -0.0455  0.5987 -0.9363
  199MPD1     N 3033   2.429   1.273   9.651 -0.2415 -0.4792  0.4785
  199MPD1    H5 3034   2.485   1.295   9.569 -1.6525 -0.0033 -0.3448
  199MPD1    N1 3035   2.435   1.190  10.124  0.1859 -0.5250 -0.2769
  199MPD1    H6 3036   2.490   1.148  10.198 -0.9244 -1.8092 -0.1764
  199MPD1    H7 3037   2.339   1.156  10.129 -0.9641  2.6395 -0.6614
  200MPD1     C 3038   1.279   1.644  14.267 -0.3574  0.1890 -0.4743
  200MPD1    C1 3039   1.287   1.657  14.131 -0.0412  0.2485  0.1829
  200MPD1    C2 3040   1.414   1.677  14.063  0.2266 -0.2853 -0.2428
  200MPD1    C3 3041   1.522   1.716  14.142  0.5895  0.6412 -1.2516
  200MPD1    C4 3042   1.507   1.718  14.279 -0.6738  0.0890  0.3587
  200MPD1    C5 3043   1.388   1.687  14.332 -0.3534  0.1267  0.0204
  200MPD1     H 3044   1.425   1.680  13.955 -0.3416  2.1048 -0.2277
  200MPD1    H1 3045   1.586   1.741  14.350  2.1562 -0.4953 -2.6128
  200MPD1    H2 3046   1.185   1.627  14.319  0.7246  0.4473  1.5822
  200MPD1    H3 3047   1.380   1.701  14.439  2.4162  0.1978  0.2238
  200MPD1     N 3048   1.641   1.751  14.073 -0.5455 -0.1809  0.6896
  200MPD1    H5 3049   1.640   1.749  13.972 -1.1817  1.7391  0.6576
  200MPD1    N1 3050   1.177   1.616  14.051 -0.3101 -0.4380  0.0361
  200MPD1    H6 3051   1.089   1.640  14.098  0.0699  0.4186  0.3139
  200MPD1    H7 3052   1.171   1.666  13.962  1.3544  0.8563  0.6530
  201MPD1     C 3053   3.906   1.282  12.699  0.4138  0.3179 -0.4664
  201MPD1    C1 3054   3.939   1.176  12.623 -0.0279  0.3442 -0.0165
  201MPD1    C2 3055   3.988   1.060  12.673 -0.5349 -0.2845 -0.0686
  201MPD1    C3 3056   4.002   1.042  12.806 -0.5758  1.5304 -0.0393
  201MPD1    C4 3057   3.969   1.151  12.890 -0.6296  0.1609 -0.3852
  201MPD1    C5 3058   3.915   1.265  12.834  0.2078  0.0031  0.6458
  201MPD1     H 3059   4.005   0.982  12.599 -2.9541 -0.2650 -0.6405
  201MPD1    H1 3060   3.972   1.145  12.999 -0.0477 -0.8710 -0.4588
  201MPD1    H2 3061   3.867   1.377  12.663 -1.3730 -0.3628 -0.3241
  201MPD1    H3 3062   3.880   1.343  12.900 -0.8982  0.7519 -0.8258
  201MPD1     N 3063   4.064   0.921  12.858 -0.4257 -0.8943  0.2090
  201MPD1    H5 3064   4.081   0.852  12.786 -0.7586 -0.8543  0.0961
  201MPD1    N1 3065   3.953   1.206  12.486  0.2688  0.1696 -0.1342
  201MPD1    H6 3066   3.958   1.126  12.424 -2.6077 -0.5113  0.5164
  201MPD1    H7 3067   3.888   1.274  12.447 -2.6084 -0.1600  4.0275
  202MPD1     C 3068   3.408   0.189   9.945 -0.1546 -0.3117 -0.2833
  202MPD1    C1 3069   3.485   0.110  10.023 -0.2640  0.3379 -0.8536
  202MPD1    C2 3070   3.554   0.010   9.958 -0.3522  0.4261 -0.3963
  202MPD1    C3 3071   3.587   0.015   9.821 -0.1498 -0.0490  0.1023
  202MPD1    C4 3072   3.530   0.117   9.745 -0.3226  0.3976 -1.1502
  202MPD1    C5 3073   3.429   0.184   9.809  0.1316 -0.4601 -0.0168
  202MPD1     H 3074   3.599   4.653  10.018 -2.2627  1.0227  1.8044
  202MPD1    H1 3075   3.547   0.126   9.638 -0.9429  1.3922 -1.1637
  202MPD1    H2 3076   3.323   0.247   9.979  0.5254  1.0664 -0.9361
  202MPD1    H3 3077   3.362   0.247   9.751 -1.3521 -0.2794  1.9188
  202MPD1     N 3078   3.683   4.657   9.753 -0.0443  0.0803 -0.0431
  202MPD1    H5 3079   3.710   4.681   9.658  2.5925  2.0433  1.2077
  202MPD1    N1 3080   3.424   0.088  10.149  0.1679  0.6498  0.1824
  202MPD1    H6 3081   3.396   0.170  10.203 -0.3089  0.4986  0.1620
  202MPD1    H7 3082   3.497   0.051  10.210 -0.2627  0.0742  0.3465
  203MPD1     C 3083   2.789   1.569  11.730  0.7993 -0.4672 -0.1756
  203MPD1    C1 3084   2.754   1.437  11.711  0.4159 -0.6478  0.0473
  203MPD1    C2 3085   2.800   1.346  11.809  0.0232 -0.3330 -0.6780
  203MPD1    C3 3086   2.898   1.381  11.897 -0.5188  0.0625 -0.6597
  203MPD1    C4 3087   2.948   1.516  11.902  0.1537  0.8325 -0.1144
  203MPD1    C5 3088   2.887   1.607  11.820 -0.8185  0.0217 -0.2013
  203MPD1     H 3089   2.749   1.250  11.821  1.0391 -0.8760 -0.7162
  203MPD1    H1 3090   3.024   1.558  11.966 -0.1881 -0.2964  1.0427
  203MPD1    H2 3091   2.761   1.646  11.659  1.9638  0.3891  0.2798
  203MPD1    H3 3092   2.928   1.707  11.820  0.8558 -0.6642  0.2068
  203MPD1     N 3093   2.945   1.276  11.985 -0.1012  1.2658  0.5279
  203MPD1    H5 3094   2.893   1.191  11.963  2.7380 -0.4352  0.4217
  203MPD1    N1 3095   2.643   1.400  11.634 -0.7613  0.0915 -0.1517
  203MPD1    H6 3096   2.649   1.306  11.594  2.7164 -0.0508  0.7105
  203MPD1    H7 3097   2.631   1.467  11.559 -0.4431 -0.6760 -0.8839
  204MPD1     C 3098   1.128   1.526  17.539  0.1002 -0.3804 -0.6009
  204MPD1    C1 3099   1.240   1.509  17.617 -0.0603  0.1851  0.1400
  204MPD1    C2 3100   1.365   1.514  17.556  0.1763 -0.3259  0.2227
  204MPD1    C3 3101   1.370   1.529  17.416 -0.3096 -0.5310  0.3277
  204MPD1    C4 3102   1.254   1.526  17.342  0.5826  0.0392 -0.0172
  204MPD1    C5 3103   1.129   1.537  17.403 -0.2743 -0.4258 -0.2916
  204MPD1     H 3104   1.455   1.517  17.616  0.3848 -1.6557 -0.0150
  204MPD1    H1 3105   1.248   1.520  17.234  1.1000 -0.0535 -0.0387
  204MPD1    H2 3106   1.033   1.535  17.590  0.0604 -2.0982 -0.3934
  204MPD1    H3 3107   1.040   1.540  17.342  0.4717 -1.4309 -1.4328
  204MPD1     N 3108   1.489   1.511  17.358  0.0556  1.3763  0.7987
  204MPD1    H5 3109   1.572   1.493  17.414  0.6250  1.0267 -0.1513
  204MPD1    N1 3110   1.236   1.526   0.069  0.2002  0.3246 -0.3435
  204MPD1    H6 3111   1.312   1.479   0.118  1.0306  1.7220 -0.3081
  204MPD1    H7 3112   1.147   1.492   0.106  0.3357 -0.4352 -0.7049
  205MPD1     C 3113   2.602   1.174  16.493 -0.1125  0.2299 -0.0266
  205MPD1    C1 3114   2.682   1.111  16.581  0.0163 -0.0338 -0.2021
  205MPD1    C2 3115   2.639   0.995  16.646  0.5990  0.1872 -0.1014
  205MPD1    C3 3116   2.502   0.959  16.642 -0.0227  0.6697 -0.1419
  205MPD1    C4 3117   2.420   1.036  16.561 -0.1425  0.2020  0.0326
  205MPD1    C5 3118   2.470   1.138  16.486 -0.4696  0.2902 -0.6499
  205MPD1     H 3119   2.709   0.931  16.700  2.2494  0.7069 -1.6558
  205MPD1    H1 3120   2.321   0.998  16.540  0.4867 -0.0922 -2.4702
  205MPD1    H2 3121   2.649   1.239  16.420  0.0714 -0.1441 -0.2438
  205MPD1    H3 3122   2.420   1.184  16.402  2.3638  1.6511 -1.6056
  205MPD1     N 3123   2.441   0.853  16.712  0.2976  0.0581 -0.3971
  205MPD1    H5 3124   2.346   0.824  16.691 -0.1193 -0.3339  2.0563
  205MPD1    N1 3125   2.823   1.142  16.582  0.3584  0.5168  0.5357
  205MPD1    H6 3126   2.849   1.234  16.548  0.6498 -0.3506 -1.5973
  205MPD1    H7 3127   2.860   1.127  16.676  1.0484  0.9286  0.3255
  206MPD1     C 3128   3.310   4.330  16.595 -0.1305  0.4697  0.0754
  206MPD1    C1 3129   3.215   4.232  16.611 -0.3136  0.3478  0.5029
  206MPD1    C2 3130   3.140   4.201  16.498 -0.7335  0.1263 -0.1905
  206MPD1    C3 3131   3.166   4.258  16.379 -0.2864  0.7105  0.6046
  206MPD1    C4 3132   3.267   4.352  16.366  0.3652 -0.7594  1.0338
  206MPD1    C5 3133   3.339   4.387  16.476  0.2209 -0.5587 -0.1275
  206MPD1     H 3134   3.063   4.125  16.507 -0.1762 -0.5310 -1.0499
  206MPD1    H1 3135   3.291   4.402  16.273 -0.7571 -1.0914  0.5557
  206MPD1    H2 3136   3.378   4.361  16.674 -1.5177  1.1455  1.0025
  206MPD1    H3 3137   3.423   4.456  16.476  0.9300 -1.4224 -1.0618
  206MPD1     N 3138   3.078   4.233  16.265  0.6085 -0.3773 -0.1912
  206MPD1    H5 3139   3.081   4.287  16.178 -3.3495 -0.7098 -0.5521
  206MPD1    N1 3140   3.188   4.181  16.739 -0.9005  0.8648  0.1112
  206MPD1    H6 3141   3.275   4.172  16.792 -0.5289 -1.2821 -0.8859
  206MPD1    H7 3142   3.157   4.085  16.727 -0.6373  0.8135 -0.1487
  207MPD1     C 3143   0.056   1.727   9.345  0.8255  0.4629 -0.1581
  207MPD1    C1 3144   0.154   1.812   9.384 -0.2230 -0.1923  0.7460
  207MPD1    C2 3145   0.220   1.780   9.507 -0.3806  0.4475 -0.3217
  207MPD1    C3 3146   0.178   1.677   9.591 -0.0563  0.9071  0.7531
  207MPD1    C4 3147   0.062   1.611   9.554 -0.0266  0.2911  0.5691
  207MPD1    C5 3148   0.010   1.620   9.427 -0.4384  0.8993  0.0184
  207MPD1     H 3149   0.301   1.847   9.537  0.3184 -0.5160 -0.0698
  207MPD1    H1 3150   0.023   1.534   9.619  0.4645 -0.6875 -0.2852
  207MPD1    H2 3151   0.001   1.734   9.251  1.1180 -2.2843 -0.5424
  207MPD1    H3 3152   4.643   1.564   9.399  0.2916 -1.5280  2.5814
  207MPD1     N 3153   0.242   1.642   9.714 -0.4319  0.1346 -0.0535
  207MPD1    H5 3154   0.207   1.559   9.761 -2.0353  0.9430  0.1607
  207MPD1    N1 3155   0.205   1.898   9.295  0.0346  0.5402 -0.0962
  207MPD1    H6 3156   0.246   1.974   9.350 -1.0220 -0.3060  1.8632
  207MPD1    H7 3157   0.128   1.941   9.244 -0.9575  0.6028  1.4438
  208MPD1     C 3158   3.270   1.114   0.828  0.5187 -0.0480  0.5746
  208MPD1    C1 3159   3.163   1.197   0.798  0.4729 -0.2152  0.1104
  208MPD1    C2 3160   3.081   1.168   0.690 -0.2216  0.4208  0.3820
  208MPD1    C3 3161   3.095   1.050   0.620 -0.3389  0.1677 -0.0154
  208MPD1    C4 3162   3.204   0.973   0.647 -0.0470 -0.4706 -0.0208
  208MPD1    C5 3163   3.290   1.000   0.756 -0.0077 -0.2739 -1.1523
  208MPD1     H 3164   3.007   1.237   0.651  1.5045  1.0445 -1.7506
  208MPD1    H1 3165   3.211   0.877   0.597 -1.0351 -0.0734 -0.9479
  208MPD1    H2 3166   3.338   1.126   0.912  1.4200  0.4658 -0.2382
  208MPD1    H3 3167   3.384   0.949   0.773 -0.4083 -0.3051  0.9604
  208MPD1     N 3168   3.008   1.030   0.511 -0.2545  0.1338  0.2821
  208MPD1    H5 3169   2.922   1.084   0.508 -1.1011 -1.1855  0.6662
  208MPD1    N1 3170   3.145   1.322   0.872  0.0126  0.5967  0.1127
  208MPD1    H6 3171   3.046   1.344   0.882 -0.5458 -1.1035 -1.5165
  208MPD1    H7 3172   3.173   1.310   0.969 -0.3756 -3.0591 -0.2037
  209MPD1     C 3173   0.072   0.052  10.000  0.3328  0.9053 -0.0606
  209MPD1    C1 3174   0.104   0.173   9.943  0.6528  0.3583  0.5938
  209MPD1    C2 3175   0.174   0.259  10.024 -0.0619  0.8661  0.5701
  209MPD1    C3 3176   0.200   0.245  10.156  0.4714  0.2279 -0.4836
  209MPD1    C4 3177   0.169   0.122  10.208 -0.0254  0.3572 -0.5041
  209MPD1    C5 3178   0.105   0.029  10.128 -0.1297  0.2967 -1.0974
  209MPD1     H 3179   0.205   0.354   9.981 -0.3717  0.7941  0.1934
  209MPD1    H1 3180   0.194   0.100  10.311  2.5210 -1.0945 -1.4498
  209MPD1    H2 3181   0.036   4.688   9.944 -0.4594  0.0022  1.8106
  209MPD1    H3 3182   0.075   4.658  10.176 -0.8574  0.5900 -0.9979
  209MPD1     N 3183   0.257   0.355  10.222  0.0486  0.4519 -0.2721
  209MPD1    H5 3184   0.278   0.437  10.165  2.5403 -1.0575 -1.5337
  209MPD1    N1 3185   0.100   0.191   9.806 -0.2683  0.3572  0.3586
  209MPD1    H6 3186   0.030   0.133   9.759 -0.0674  2.2795 -2.2602
  209MPD1    H7 3187   0.104   0.282   9.762  2.1001 -0.0210 -0.1992
  210MPD1     C 3188   0.646   0.897  11.112 -0.3681  0.2440  0.1840
  210MPD1    C1 3189   0.553   0.790  11.110 -0.2842  0.2195 -0.1033
  210MPD1    C2 3190   0.519   0.729  10.992 -0.4711  0.0358  0.1754
  210MPD1    C3 3191   0.555   0.781  10.870  0.4259  0.3152  0.5283
  210MPD1    C4 3192   0.621   0.905  10.873  0.4846  0.1517  0.0815
  210MPD1    C5 3193   0.663   0.965  10.994 -0.1126  0.0554  0.5753
  210MPD1     H 3194   0.477   0.630  10.998 -0.7552  0.2238  1.2945
  210MPD1    H1 3195   0.649   0.961  10.785  0.5057 -0.7477 -0.4822
  210MPD1    H2 3196   0.679   0.953  11.198  1.9908 -0.0896 -0.4919
  210MPD1    H3 3197   0.719   1.058  11.003 -0.2900  0.1099  1.1683
  210MPD1     N 3198   0.538   0.725  10.742  0.3014  0.6702 -0.1632
  210MPD1    H5 3199   0.586   0.782  10.673  0.1421  0.7554 -0.2028
  210MPD1    N1 3200   0.521   0.728  11.229 -0.0353  0.5245  0.3690
  210MPD1    H6 3201   0.502   0.787  11.310 -1.1304 -0.9039  1.1570
  210MPD1    H7 3202   0.430   0.684  11.216  0.9229 -1.5123  0.5166
  211MPD1     C 3203   3.467   0.918  16.298 -0.3086  0.4711  0.2310
  211MPD1    C1 3204   3.350   0.856  16.329 -0.4454 -0.2955 -0.2847
  211MPD1    C2 3205   3.238   0.911  16.262  0.0139 -0.0095  0.9379
  211MPD1    C3 3206   3.241   1.001  16.162  0.9595 -0.0019 -0.5770
  211MPD1    C4 3207   3.359   1.059  16.133  0.1750  0.3343  0.0828
  211MPD1    C5 3208   3.469   1.012  16.201  0.4328  0.1255 -0.4479
  211MPD1     H 3209   3.137   0.875  16.280  0.3296 -2.2725 -1.7339
  211MPD1    H1 3210   3.366   1.150  16.075  0.1879  0.9250  1.0092
  211MPD1    H2 3211   3.564   0.892  16.340 -0.4830  0.8758  0.8941
  211MPD1    H3 3212   3.570   1.050  16.188  0.7312  0.9309  4.1614
  211MPD1     N 3213   3.116   1.052  16.113  0.3024 -0.1047  0.0587
  211MPD1    H5 3214   3.029   1.016  16.152 -0.0602  0.0694 -0.5920
  211MPD1    N1 3215   3.338   0.767  16.434 -0.6338 -0.2193  0.4040
  211MPD1    H6 3216   3.422   0.710  16.446 -0.3271 -0.0531 -0.9619
  211MPD1    H7 3217   3.261   0.704  16.414  0.8330 -2.2909  1.2930
  212MPD1     C 3218   2.140   4.085  16.411 -0.2773  0.4361  0.1533
  212MPD1    C1 3219   2.004   4.101  16.435  0.7951  0.0806 -0.3115
  212MPD1    C2 3220   1.939   4.009  16.513 -0.8189 -0.4328  0.1015
  212MPD1    C3 3221   2.003   3.892  16.554  0.2580  0.2767 -0.1676
  212MPD1    C4 3222   2.136   3.873  16.517 -0.3004  0.0550  0.3753
  212MPD1    C5 3223   2.209   3.976  16.457 -0.1924  0.1111  0.5930
  212MPD1     H 3224   1.836   4.027  16.542 -1.1356  0.6438 -1.6769
  212MPD1    H1 3225   2.195   3.785  16.543  0.5245  1.2653  2.6084
  212MPD1    H2 3226   2.194   4.154  16.347 -0.8437 -0.9819 -1.8673
  212MPD1    H3 3227   2.317   3.978  16.451 -0.2696  0.3581 -0.7030
  212MPD1     N 3228   1.952   3.791  16.639  0.0959  0.0987 -0.3960
  212MPD1    H5 3229   2.010   3.710  16.658  2.1639  1.6391 -0.1204
  212MPD1    N1 3230   1.936   4.216  16.392  0.4998 -0.3514 -0.8090
  212MPD1    H6 3231   1.987   4.252  16.312 -1.9981  1.3772 -1.6185
  212MPD1    H7 3232   1.840   4.193  16.368  0.4889 -2.5036  1.2557
  213MPD1     C 3233   0.110   0.243  15.884 -0.2030  0.7375  0.3796
  213MPD1    C1 3234   0.179   0.337  15.810 -0.0335 -0.2252 -0.0211
  213MPD1    C2 3235   0.159   0.316  15.680 -0.7814  0.3756 -0.4842
  213MPD1    C3 3236   0.054   0.239  15.618 -0.5975  0.0624  0.7878
  213MPD1    C4 3237   4.691   0.174  15.703  0.0009  0.4200 -0.2539
  213MPD1    C5 3238   4.720   0.170  15.834 -0.5475  0.3444 -0.2467
  213MPD1     H 3239   0.222   0.375  15.615 -2.2815  0.8698 -1.4809
  213MPD1    H1 3240   4.605   0.120  15.666  1.4369 -1.9649 -0.1462
  213MPD1    H2 3241   0.136   0.249  15.989  0.1495  2.1432  0.2115
  213MPD1    H3 3242   4.654   0.120  15.904  0.1415  2.9641  2.2909
  213MPD1     N 3243   0.032   0.261  15.481  0.3297 -0.3516 -0.0024
  213MPD1    H5 3244   0.107   0.310  15.433 -0.0541  0.2263 -0.0100
  213MPD1    N1 3245   0.302   0.390  15.855 -0.1703 -0.0881  0.6145
  213MPD1    H6 3246   0.299   0.433  15.948 -2.0090 -0.7295  0.8492
  213MPD1    H7 3247   0.325   0.470  15.796  1.5129 -1.3983 -0.4829
  214MPD1     C 3248   4.269   4.352  14.860  0.2010  0.0375 -0.2612
  214MPD1    C1 3249   4.369   4.412  14.790  1.1885  0.2850 -0.2011
  214MPD1    C2 3250   4.434   4.523  14.842  0.4510 -0.1763  0.0820
  214MPD1    C3 3251   4.395   4.578  14.964 -0.0016 -0.2418  0.3522
  214MPD1    C4 3252   4.288   4.512  15.034  0.2177  0.0590  0.2906
  214MPD1    C5 3253   4.225   4.403  14.981 -0.1773  0.1572  0.0218
  214MPD1     H 3254   4.511   4.562  14.776 -1.2171 -0.0640 -1.7879
  214MPD1    H1 3255   4.272   4.543  15.137  0.9493  2.8911 -0.4610
  214MPD1    H2 3256   4.225   4.258  14.831  1.9704 -1.1747  0.9848
  214MPD1    H3 3257   4.156   4.350  15.045 -0.7644 -3.1452 -3.3409
  214MPD1     N 3258   4.461   4.679  15.023 -0.4434 -0.1672  0.6061
  214MPD1    H5 3259   4.428   4.702  15.116  1.6439 -2.0086  1.8104
  214MPD1    N1 3260   4.410   4.358  14.668  0.0142 -0.0766 -0.0436
  214MPD1    H6 3261   4.456   4.419  14.601  3.1488  0.3719  2.5295
  214MPD1    H7 3262   4.346   4.289  14.629  0.4530  0.0415 -0.9652
  215MPD1     C 3263   4.633   0.342  10.795  0.8886 -0.1912  0.6697
  215MPD1    C1 3264   4.702   0.365  10.914  1.1425  0.7413  0.0931
  215MPD1    C2 3265   0.061   0.481  10.925 -0.9835  0.4717 -0.1666
  215MPD1    C3 3266   0.078   0.569  10.823  0.9561 -0.4490 -0.6477
  215MPD1    C4 3267   0.008   0.544  10.706  0.5294  0.9889  0.5831
  215MPD1    C5 3268   4.650   0.434  10.697 -0.2740  0.3483  0.4032
  215MPD1     H 3269   0.108   0.505  11.020 -0.6807 -0.9072  0.0354
  215MPD1    H1 3270   0.002   0.603  10.615  0.5572 -0.7391 -0.5352
  215MPD1    H2 3271   4.564   0.260  10.774  1.0270 -0.2746  0.5366
  215MPD1    H3 3272   4.597   0.430  10.603 -0.3223  3.3634  0.2893
  215MPD1     N 3273   0.158   0.687  10.838 -0.1325  0.8546  0.3589
  215MPD1    H5 3274   0.192   0.690  10.934 -0.2915  0.1353  0.4326
  215MPD1    N1 3275   4.679   0.285  11.022 -0.2057 -0.5869  0.1327
  215MPD1    H6 3276   4.651   0.194  10.984  2.6404 -1.3470 -0.1180
  215MPD1    H7 3277   0.044   0.290  11.076 -1.3987 -0.8078  2.0771
  216MPD1     C 3278   2.637   2.564  16.399 -0.0967 -0.0922  0.4659
  216MPD1    C1 3279   2.664   2.586  16.538  0.2387 -0.6081 -0.2335
  216MPD1    C2 3280   2.559   2.630  16.621 -0.2024  0.1542  0.2340
  216MPD1    C3 3281   2.440   2.686  16.570 -0.1252  0.0456  0.5227
  216MPD1    C4 3282   2.431   2.685  16.434 -0.3059 -0.9000  0.3977
  216MPD1    C5 3283   2.520   2.623  16.351  0.3369 -0.1698 -0.1269
  216MPD1     H 3284   2.580   2.640  16.726  0.2300  0.2451  0.1402
  216MPD1    H1 3285   2.343   2.726  16.384 -1.3479 -1.4887  1.7455
  216MPD1    H2 3286   2.704   2.515  16.330 -1.6508  0.4524 -1.4107
  216MPD1    H3 3287   2.489   2.621  16.248 -1.1605 -1.3227  0.3440
  216MPD1     N 3288   2.355   2.753  16.665  0.7506 -0.7040 -0.5587
  216MPD1    H5 3289   2.385   2.754  16.762  2.6441 -0.8746 -1.1430
  216MPD1    N1 3290   2.777   2.529  16.595 -0.1408 -0.3842  0.3248
  216MPD1    H6 3291   2.809   2.587  16.672  3.1991 -1.0621 -0.5406
  216MPD1    H7 3292   2.857   2.536  16.531  0.0608 -3.3289  0.2764
  217MPD1     C 3293   1.750   3.570   8.684 -0.6012 -0.3627 -0.5963
  217MPD1    C1 3294   1.850   3.487   8.717 -0.0130 -0.2549  0.6389
  217MPD1    C2 3295   1.971   3.537   8.745 -0.6253 -0.1381  0.0995
  217MPD1    C3 3296   2.004   3.670   8.730  0.4635  0.5483  0.6739
  217MPD1    C4 3297   1.904   3.755   8.691  0.1131  0.0505 -0.2381
  217MPD1    C5 3298   1.776   3.702   8.672 -0.0499 -0.2346  1.3436
  217MPD1     H 3299   2.053   3.467   8.763 -2.1555 -1.8010  0.5706
  217MPD1    H1 3300   1.917   3.863   8.691 -1.1973  0.2053  0.3747
  217MPD1    H2 3301   1.653   3.529   8.656 -1.8011  1.2355  1.1239
  217MPD1    H3 3302   1.696   3.766   8.637 -1.3322 -3.2167 -1.1446
  217MPD1     N 3303   2.132   3.731   8.751 -0.5265  0.0056 -0.0198
  217MPD1    H5 3304   2.134   3.832   8.735  0.4401 -0.4190 -2.5925
  217MPD1    N1 3305   1.831   3.347   8.701  0.2866 -0.3067  0.1326
  217MPD1    H6 3306   1.900   3.280   8.734 -0.2152 -1.6436 -1.5499
  217MPD1    H7 3307   1.736   3.313   8.710 -0.0263  0.9428  1.7263
  218MPD1     C 3308   4.677   0.996  13.317  0.5218  0.4172 -0.4850
  218MPD1    C1 3309   0.007   0.873  13.277 -0.2439 -0.3666 -0.3180
  218MPD1    C2 3310   0.083   0.863  13.163  0.0886 -0.0346  0.1758
  218MPD1    C3 3311   0.091   0.968  13.080  0.4503 -0.7752  0.5041
  218MPD1    C4 3312   0.019   1.085  13.102  0.6078  0.3765  0.2045
  218MPD1    C5 3313   4.679   1.096  13.224 -0.2567  0.3310 -0.5767
  218MPD1     H 3314   0.139   0.773  13.142 -0.8528 -0.6126  0.1534
  218MPD1    H1 3315   0.021   1.168  13.032  1.7429 -0.1279 -0.3648
  218MPD1    H2 3316   4.620   1.000  13.409  0.4200 -1.8349 -0.4358
  218MPD1    H3 3317   4.637   1.191  13.252 -2.1886  0.0564 -2.4899
  218MPD1     N 3318   0.179   0.960  12.966 -0.7596  0.1696 -0.0829
  218MPD1    H5 3319   0.222   0.869  12.952 -0.2482  0.4165 -0.1030
  218MPD1    N1 3320   4.717   0.761  13.368 -0.3305  0.3855 -0.2000
  218MPD1    H6 3321   4.715   0.670  13.322  0.3591 -0.1072  0.7565
  218MPD1    H7 3322   4.639   0.783  13.429 -0.5238  1.1023 -0.7043
  219MPD1     C 3323   0.260   1.484  12.087 -0.3798 -0.1941 -0.2246
  219MPD1    C1 3324   0.283   1.350  12.055 -0.3957  0.4109  0.0670
  219MPD1    C2 3325   0.319   1.272  12.164 -0.4526 -0.6534 -0.1249
  219MPD1    C3 3326   0.322   1.313  12.303  0.2727  0.5727  0.7536
  219MPD1    C4 3327   0.314   1.450  12.325 -0.1834  0.5187  0.5677
  219MPD1    C5 3328   0.275   1.526  12.217 -0.8562  0.7014  0.4158
  219MPD1     H 3329   0.349   1.168  12.154 -0.2630 -0.4604 -1.5225
  219MPD1    H1 3330   0.314   1.495  12.424 -1.4156 -1.3044  1.3927
  219MPD1    H2 3331   0.238   1.561  12.013 -2.2241  0.3464  0.8759
  219MPD1    H3 3332   0.260   1.628  12.250  0.5739  1.1957 -0.4354
  219MPD1     N 3333   0.346   1.234  12.418 -0.3170  0.0448  0.0562
  219MPD1    H5 3334   0.334   1.276  12.509  0.3486 -0.2250  0.2747
  219MPD1    N1 3335   0.243   1.295  11.931 -0.2398 -0.2144 -0.0806
  219MPD1    H6 3336   0.298   1.210  11.915 -1.3542 -0.8167 -0.6739
  219MPD1    H7 3337   0.245   1.360  11.853 -1.7377 -3.5360 -2.8914
  220MPD1     C 3338   3.989   2.055   9.935 -0.1301 -0.1171  0.9218
  220MPD1    C1 3339   4.071   2.037  10.049 -0.0638 -0.1699 -0.2063
  220MPD1    C2 3340   4.135   1.918  10.058 -0.4479  0.5031  0.1533
  220MPD1    C3 3341   4.098   1.811   9.975  0.2881 -0.2164 -1.2095
  220MPD1    C4 3342   4.024   1.831   9.860  0.2255  0.0987  0.5440
  220MPD1    C5 3343   3.981   1.952   9.839  0.5307 -0.3950  1.4484
  220MPD1     H 3344   4.202   1.897  10.140 -0.4062  1.3087  0.3264
  220MPD1    H1 3345   4.025   1.762   9.776  2.1378  0.8954 -0.1050
  220MPD1    H2 3346   3.931   2.144   9.914  0.9904  0.6653  1.1161
  220MPD1    H3 3347   3.927   1.982   9.750  1.2236 -1.1049  0.7917
  220MPD1     N 3348   4.161   1.688  10.008  0.5359  0.5998 -0.0051
  220MPD1    H5 3349   4.201   1.690  10.100  1.5093 -1.3997 -0.3893
  220MPD1    N1 3350   4.084   2.141  10.135  0.0395 -0.2853 -0.0915
  220MPD1    H6 3351   4.159   2.132  10.203  0.2110 -1.0635 -0.3831
  220MPD1    H7 3352   4.076   2.238  10.104 -0.9380 -0.5396 -0.6313
  221MPD1     C 3353   1.719   1.232  15.850  1.1304 -0.0726  0.9309
  221MPD1    C1 3354   1.711   1.096  15.834 -0.3183  0.4820  0.1752
  221MPD1    C2 3355   1.832   1.026  15.837 -0.1761  0.1272  0.3547
  221MPD1    C3 3356   1.952   1.088  15.853  0.2115 -0.2719  0.6198
  221MPD1    C4 3357   1.959   1.224  15.867  0.3313 -0.1247  0.7594
  221MPD1    C5 3358   1.841   1.300  15.867  0.1259  0.2150 -0.3952
  221MPD1     H 3359   1.832   0.917  15.837  0.5980  0.1222 -0.9713
  221MPD1    H1 3360   2.050   1.275  15.895  0.4401 -0.9941  1.9657
  221MPD1    H2 3361   1.626   1.287  15.837  1.2232 -0.3415 -0.8609
  221MPD1    H3 3362   1.838   1.408  15.878  3.6625  0.1736  0.9068
  221MPD1     N 3363   2.072   1.017  15.851  0.0587  0.1248  0.0407
  221MPD1    H5 3364   2.155   1.074  15.836  0.4982 -0.2913  0.9105
  221MPD1    N1 3365   1.589   1.040  15.797  0.1124  0.1174 -0.5525
  221MPD1    H6 3366   1.595   0.939  15.797 -0.9254  0.0561 -0.2026
  221MPD1    H7 3367   1.511   1.081  15.847  0.0619 -1.7762  0.8867
  222MPD1     C 3368   1.938   4.275  17.023 -0.6075  0.4375 -0.0641
  222MPD1    C1 3369   1.924   4.144  16.986 -0.1847  1.0821 -0.1324
  222MPD1    C2 3370   1.924   4.047  17.079  0.1666 -0.7213 -0.3057
  222MPD1    C3 3371   1.921   4.091  17.217  0.2636 -0.0979 -0.3590
  222MPD1    C4 3372   1.925   4.221  17.251  0.2124  0.6095  0.3654
  222MPD1    C5 3373   1.929   4.316  17.151  0.7202 -0.7334  1.2266
  222MPD1     H 3374   1.916   3.942  17.052  1.6629 -0.8140 -0.3840
  222MPD1    H1 3375   1.920   4.263  17.350 -0.0576 -1.4167  1.2215
  222MPD1    H2 3376   1.939   4.356  16.951  1.0042  1.4082  1.0573
  222MPD1    H3 3377   1.923   4.423  17.169 -0.4352 -0.7536  0.9652
  222MPD1     N 3378   1.906   3.997  17.325 -0.4153 -0.4959 -0.0762
  222MPD1    H5 3379   1.904   4.034  17.420  1.0329 -0.7292  0.0498
  222MPD1    N1 3380   1.962   4.113  16.851 -0.2723  0.3076  0.8594
  222MPD1    H6 3381   1.931   4.183  16.784  1.4714 -0.4275 -0.7241
  222MPD1    H7 3382   1.924   4.022  16.826  0.0601  0.5031 -0.3653
  223MPD1     C 3383   1.688   3.006  17.373 -0.1776 -0.6980  0.2358
  223MPD1    C1 3384   1.674   3.106  17.282  0.4229 -0.2406  0.6560
  223MPD1    C2 3385   1.687   3.237  17.325  0.0146 -0.0385 -0.1292
  223MPD1    C3 3386   1.711   3.272  17.456  0.9277  0.3168 -0.2786
  223MPD1    C4 3387   1.744   3.172  17.539 -0.1939  0.1973 -0.2931
  223MPD1    C5 3388   1.721   3.036  17.509  0.8122  0.0742 -0.2139
  223MPD1     H 3389   1.674   3.318  17.253 -1.1986  0.3527  0.5230
  223MPD1    H1 3390   1.784   3.195  17.637  1.5085  0.5444 -1.0705
  223MPD1    H2 3391   1.673   2.901  17.348 -1.7496 -0.7895  1.5465
  223MPD1    H3 3392   1.741   2.960  17.584 -1.7622  1.1843  1.6343
  223MPD1     N 3393   1.755   3.404  17.486 -0.3456  0.5195 -0.8195
  223MPD1    H5 3394   1.738   3.468  17.410  1.0636  0.5145 -1.1353
  223MPD1    N1 3395   1.677   3.074  17.149  0.5146 -0.1764  0.0979
  223MPD1    H6 3396   1.615   3.129  17.090 -0.1311 -0.1855  0.7661
  223MPD1    H7 3397   1.644   2.979  17.137  2.0989 -0.8390  1.0653
  224MPD1     C 3398   2.285   3.856   8.468  0.7526 -0.3774 -0.8058
  224MPD1    C1 3399   2.234   3.980   8.505 -0.0322  0.2000  0.4882
  224MPD1    C2 3400   2.327   4.075   8.544  0.0815 -0.3929 -1.0803
  224MPD1    C3 3401   2.468   4.053   8.536  0.1172  0.7693  0.6754
  224MPD1    C4 3402   2.508   3.927   8.503 -0.4744  0.4769  0.3292
  224MPD1    C5 3403   2.416   3.835   8.464 -0.0619  0.4650 -0.2402
  224MPD1     H 3404   2.290   4.165   8.591 -0.1326  0.5317 -3.0282
  224MPD1    H1 3405   2.613   3.905   8.488 -0.8998 -0.6852 -0.9374
  224MPD1    H2 3406   2.212   3.777   8.458 -0.2583 -0.0368  3.9405
  224MPD1    H3 3407   2.456   3.736   8.444 -0.4930  0.2944 -0.2615
  224MPD1     N 3408   2.571   4.143   8.576 -0.3714 -0.5166  0.6957
  224MPD1    H5 3409   2.662   4.099   8.570 -0.6170 -1.1532  1.7000
  224MPD1    N1 3410   2.100   4.005   8.525 -0.8427 -0.3924  0.4977
  224MPD1    H6 3411   2.066   4.100   8.537  2.2467  1.0798 -2.4449
  224MPD1    H7 3412   2.039   3.949   8.466  0.2402  0.9581 -1.8793
  225MPD1     C 3413   4.327   1.570  12.586 -0.0948 -0.0175  0.4129
  225MPD1    C1 3414   4.219   1.497  12.543  0.2600  0.2132 -0.6954
  225MPD1    C2 3415   4.142   1.553  12.442  0.2110  0.0163  0.4948
  225MPD1    C3 3416   4.168   1.679  12.390 -0.4314 -0.3343  0.1202
  225MPD1    C4 3417   4.281   1.748  12.426  0.1005  0.5481  0.0311
  225MPD1    C5 3418   4.368   1.689  12.521  0.4387 -0.8091 -0.0114
  225MPD1     H 3419   4.056   1.498  12.406  1.0513 -0.2582 -1.0796
  225MPD1    H1 3420   4.297   1.843  12.376  1.3724  0.4487  0.2450
  225MPD1    H2 3421   4.399   1.534  12.658  0.2345  0.2971  0.2450
  225MPD1    H3 3422   4.457   1.742  12.553 -0.4751  0.2691  0.7555
  225MPD1     N 3423   4.087   1.743  12.295 -0.3784 -0.8623  0.6665
  225MPD1    H5 3424   4.124   1.828  12.253 -0.7809 -0.4373  1.1801
  225MPD1    N1 3425   4.178   1.380  12.609 -0.2218  0.8340 -0.0386
  225MPD1    H6 3426   4.097   1.339  12.562 -0.6638  1.3469  0.2683
  225MPD1    H7 3427   4.254   1.315  12.628  0.4302  1.1810 -1.4660
  226MPD1     C 3428   3.282   0.509   8.906  0.5790  0.2020 -0.1660
  226MPD1    C1 3429   3.256   0.376   8.880 -0.9846  0.8026  0.1933
  226MPD1    C2 3430   3.127   0.345   8.848 -0.7830  0.5665 -0.6006
  226MPD1    C3 3431   3.025   0.433   8.841  1.0754  0.3265  0.7403
  226MPD1    C4 3432   3.053   0.563   8.877 -0.0366  0.1756  0.0610
  226MPD1    C5 3433   3.179   0.601   8.904  0.0694 -0.1054  0.3901
  226MPD1     H 3434   3.110   0.241   8.825  1.8864  0.6452 -2.8064
  226MPD1    H1 3435   2.972   0.636   8.882  0.0805  0.2197  1.4301
  226MPD1    H2 3436   3.380   0.547   8.935 -0.6036  1.2898  2.4466
  226MPD1    H3 3437   3.204   0.704   8.927 -0.0166  0.2690 -1.1653
  226MPD1     N 3438   2.911   0.378   8.792 -0.0883 -0.8529  0.0585
  226MPD1    H5 3439   2.915   0.282   8.759 -0.6135 -0.0123 -2.3794
  226MPD1    N1 3440   3.348   0.274   8.890  0.5536 -0.1869 -0.0168
  226MPD1    H6 3441   3.446   0.301   8.895 -0.1307  1.7614  2.6768
  226MPD1    H7 3442   3.328   0.180   8.856 -1.5944  0.4182 -0.4472
  227MPD1     C 3443   1.949   0.679   8.368 -0.0920  0.2164 -0.0784
  227MPD1    C1 3444   1.988   0.563   8.306  0.7685 -0.8357 -0.3480
  227MPD1    C2 3445   2.116   0.525   8.322 -0.2556  0.3798  0.2773
  227MPD1    C3 3446   2.188   0.566   8.429  1.2325 -0.1406 -0.6002
  227MPD1    C4 3447   2.138   0.667   8.507  0.0346  0.4243 -0.3760
  227MPD1    C5 3448   2.022   0.732   8.465  0.3639 -0.3519  0.2653
  227MPD1     H 3449   2.166   0.453   8.259  2.4445  3.5024 -1.1603
  227MPD1    H1 3450   2.185   0.708   8.595  0.7007  0.6574 -0.8384
  227MPD1    H2 3451   1.847   0.714   8.360 -0.1594 -0.3848 -1.7843
  227MPD1    H3 3452   1.994   0.825   8.514  0.2146  0.5070 -1.4788
  227MPD1     N 3453   2.308   0.503   8.453  0.2885 -0.0406  0.7017
  227MPD1    H5 3454   2.343   0.446   8.376 -1.3327 -2.3867  1.7004
  227MPD1    N1 3455   1.908   0.520   8.199 -0.3139  0.1673  0.3458
  227MPD1    H6 3456   1.809   0.522   8.223 -0.4122  0.0283 -0.0531
  227MPD1    H7 3457   1.928   0.430   8.157 -2.9733  0.0368 -0.6257
  228MPD1     C 3458   1.828   0.159  12.140 -1.3497  0.0512 -0.2081
  228MPD1    C1 3459   1.794   0.074  12.244 -0.0549  0.9629 -0.7568
  228MPD1    C2 3460   1.702   4.695  12.223  0.6435  0.4588 -0.1206
  228MPD1    C3 3461   1.621   4.696  12.109 -0.3388  0.1502 -0.0679
  228MPD1    C4 3462   1.641   0.066  12.017  0.0535  0.3688  0.0560
  228MPD1    C5 3463   1.752   0.151  12.025 -0.4052  0.2179 -0.5376
  228MPD1     H 3464   1.678   4.626  12.303  0.3995  2.0503  1.1728
  228MPD1    H1 3465   1.570   0.084  11.937 -0.7620  0.5670  0.8260
  228MPD1    H2 3466   1.898   0.241  12.151 -1.6077  0.2865 -0.2954
  228MPD1    H3 3467   1.771   0.232  11.955  1.7070  0.5646  0.4197
  228MPD1     N 3468   1.507   4.608  12.102 -0.3242  0.6052 -0.2641
  228MPD1    H5 3469   1.507   4.536  12.174 -0.7881 -1.4126 -2.2709
  228MPD1    N1 3470   1.869   0.068  12.359 -0.3976 -0.7848  1.1031
  228MPD1    H6 3471   1.896   0.164  12.383  1.0415 -1.4031  1.9731
  228MPD1    H7 3472   1.812   0.037  12.438 -1.2050  0.7432  1.1247
  229MPD1     C 3473   0.854   4.004  14.350 -0.1300 -0.2996 -0.5236
  229MPD1    C1 3474   0.851   3.877  14.298  0.9245 -0.5207  0.4739
  229MPD1    C2 3475   0.913   3.771  14.367  0.2182  0.0915  0.4411
  229MPD1    C3 3476   0.988   3.796  14.483 -0.3318  0.7568  0.0782
  229MPD1    C4 3477   1.005   3.928  14.516  0.4608  0.5559  0.3364
  229MPD1    C5 3478   0.937   4.024  14.454  0.4603  0.4310 -1.0407
  229MPD1     H 3479   0.895   3.672  14.326 -1.5238 -0.2087  1.9552
  229MPD1    H1 3480   1.059   3.963  14.603  1.5911 -1.1270  0.3060
  229MPD1    H2 3481   0.796   4.091  14.322 -0.3284  0.3019  1.7724
  229MPD1    H3 3482   0.945   4.120  14.503 -0.7318 -0.2435  0.4709
  229MPD1     N 3483   1.057   3.697  14.555 -0.6725 -0.6942  0.0118
  229MPD1    H5 3484   1.086   3.728  14.647 -0.5619  3.9844 -1.6039
  229MPD1    N1 3485   0.771   3.842  14.190 -0.2418  0.1313 -0.5479
  229MPD1    H6 3486   0.811   3.760  14.145 -1.1814  0.1777 -1.4748
  229MPD1    H7 3487   0.762   3.916  14.121 -0.9215  0.5937  0.0362
  230MPD1     C 3488   1.286   3.315  15.441  0.4231  0.1130  0.3755
  230MPD1    C1 3489   1.313   3.204  15.366  0.2665 -0.3037 -0.6743
  230MPD1    C2 3490   1.288   3.213  15.229 -0.2455  0.5227  0.2628
  230MPD1    C3 3491   1.261   3.332  15.172 -0.5159  0.4845  0.5668
  230MPD1    C4 3492   1.228   3.442  15.247 -0.3402  0.0265  0.0718
  230MPD1    C5 3493   1.234   3.428  15.384  0.2911  0.0723 -0.3067
  230MPD1     H 3494   1.308   3.130  15.162 -0.1795  0.5683  0.2266
  230MPD1    H1 3495   1.208   3.536  15.196 -1.9022  0.3766  1.3356
  230MPD1    H2 3496   1.277   3.317  15.549  0.7348  2.2973  0.3518
  230MPD1    H3 3497   1.206   3.516  15.441  0.6713  0.7738 -1.2093
  230MPD1     N 3498   1.254   3.333  15.033  0.6950  0.5208 -0.1846
  230MPD1    H5 3499   1.247   3.243  14.986 -0.8822  0.2266  0.6092
  230MPD1    N1 3500   1.328   3.079  15.430  0.4031  0.2102 -0.0288
  230MPD1    H6 3501   1.371   3.089  15.522  0.6216  0.1245 -0.1237
  230MPD1    H7 3502   1.398   3.023  15.383 -0.5015  0.5025 -1.7271
  231MPD1     C 3503   3.867   0.329  15.394  0.0618 -0.5598 -0.3858
  231MPD1    C1 3504   3.885   0.283  15.262  0.1776  0.6249  0.7447
  231MPD1    C2 3505   3.984   0.347  15.189 -0.8452 -0.1202 -0.3479
  231MPD1    C3 3506   4.095   0.400  15.246  0.3931 -0.1714 -0.4737
  231MPD1    C4 3507   4.086   0.424  15.384  0.5488 -0.5047  0.4485
  231MPD1    C5 3508   3.973   0.393  15.455 -0.4652  0.0257 -0.0458
  231MPD1     H 3509   3.967   0.343  15.082  0.3255 -0.1380 -0.5363
  231MPD1    H1 3510   4.163   0.489  15.425 -0.5417  1.5499 -0.8261
  231MPD1    H2 3511   3.790   0.292  15.461 -0.4718 -0.2619 -0.8356
  231MPD1    H3 3512   3.975   0.425  15.558 -0.3757 -0.0583 -0.0211
  231MPD1     N 3513   4.206   0.427  15.159 -0.1683  0.8169 -0.5597
  231MPD1    H5 3514   4.185   0.405  15.062 -0.3861 -1.4140  0.0082
  231MPD1    N1 3515   3.775   0.225  15.199 -0.0399 -0.5083  0.5470
  231MPD1    H6 3516   3.811   0.174  15.119 -2.2569  0.3883 -1.0097
  231MPD1    H7 3517   3.719   0.173  15.266  0.6334 -0.6740  0.9787
  232MPD1     C 3518   1.635   2.774   0.727  0.2792  0.5899  0.0013
  232MPD1    C1 3519   1.549   2.686   0.782  0.3675 -0.1296 -0.5453
  232MPD1    C2 3520   1.440   2.649   0.705  0.7815  0.1359 -0.5915
  232MPD1    C3 3521   1.410   2.716   0.584  0.3219  0.7956 -0.3239
  232MPD1    C4 3522   1.509   2.798   0.526  0.2890 -0.0502 -0.1991
  232MPD1    C5 3523   1.619   2.827   0.601  0.2837 -0.0306 -0.2542
  232MPD1     H 3524   1.374   2.572   0.741  2.0258 -0.7873 -0.3029
  232MPD1    H1 3525   1.488   2.850   0.433 -0.0959  0.2943  0.0783
  232MPD1    H2 3526   1.722   2.796   0.787  1.4536 -0.7074 -1.2214
  232MPD1    H3 3527   1.698   2.895   0.569  1.2389 -0.7786  0.5138
  232MPD1     N 3528   1.278   2.687   0.529  0.0777 -0.2871 -0.0820
  232MPD1    H5 3529   1.216   2.624   0.578  0.1060  0.4128  0.8465
  232MPD1    N1 3530   1.589   2.616   0.893 -0.3379  0.2954  0.2455
  232MPD1    H6 3531   1.649   2.675   0.950 -0.8058  1.5219 -0.5319
  232MPD1    H7 3532   1.513   2.579   0.949 -0.7118  1.6109  0.5932
  233MPD1     C 3533   1.105   0.329   1.512 -0.5584 -0.1395 -0.5811
  233MPD1    C1 3534   1.170   0.212   1.472  0.8887  0.0011  0.1741
  233MPD1    C2 3535   1.269   0.230   1.386 -0.3034 -1.0762  0.4417
  233MPD1    C3 3536   1.307   0.353   1.339 -0.7108 -0.5097  0.3486
  233MPD1    C4 3537   1.237   0.469   1.365  0.0052 -0.3592  0.3396
  233MPD1    C5 3538   1.139   0.452   1.464 -0.7329  0.3493  0.0902
  233MPD1     H 3539   1.313   0.141   1.342  2.3057  1.0160 -1.2048
  233MPD1    H1 3540   1.271   0.562   1.322 -1.8958  0.9476  1.6765
  233MPD1    H2 3541   1.013   0.319   1.567  0.4488 -2.5801  0.6700
  233MPD1    H3 3542   1.078   0.540   1.483 -0.0971  0.9673 -0.7207
  233MPD1     N 3543   1.400   0.361   1.230 -0.2621 -0.6381 -0.2856
  233MPD1    H5 3544   1.410   0.447   1.178 -0.1152 -1.4567 -1.6309
  233MPD1    N1 3545   1.115   0.087   1.487 -0.4792 -0.4077 -0.4605
  233MPD1    H6 3546   1.061   0.061   1.570 -0.1544 -2.6747 -0.9567
  233MPD1    H7 3547   1.193   0.023   1.474 -0.1447 -0.2978  0.9903
  234MPD1     C 3548   4.087   3.392   8.816  0.1682  0.5041 -0.0741
  234MPD1    C1 3549   4.054   3.529   8.798  0.4162  0.1838  0.0667
  234MPD1    C2 3550   3.932   3.564   8.843  0.5238  0.1323 -0.3105
  234MPD1    C3 3551   3.852   3.481   8.918  0.2501 -0.3749  0.7334
  234MPD1    C4 3552   3.884   3.348   8.933 -0.6135  0.3907  0.1516
  234MPD1    C5 3553   4.009   3.306   8.889 -0.0635  0.3129  0.3735
  234MPD1     H 3554   3.896   3.664   8.821 -2.2696 -0.8981 -0.4319
  234MPD1    H1 3555   3.825   3.283   8.997 -2.5175  2.5440  0.5786
  234MPD1    H2 3556   4.181   3.362   8.772  0.1064  0.5161 -0.2119
  234MPD1    H3 3557   4.044   3.208   8.921 -0.7640  0.3484  1.2553
  234MPD1     N 3558   3.730   3.529   8.961  0.6631  0.1780 -0.6020
  234MPD1    H5 3559   3.724   3.630   8.957 -1.1261  0.0137 -1.9085
  234MPD1    N1 3560   4.114   3.610   8.701  0.4754 -0.2056 -0.2265
  234MPD1    H6 3561   4.209   3.588   8.672 -0.0238 -1.2427 -1.0617
  234MPD1    H7 3562   4.113   3.706   8.734 -0.3281 -0.0060 -0.8261
  235MPD1     C 3563   0.092   2.951   9.018 -0.4011 -0.6815 -0.7168
  235MPD1    C1 3564   0.214   3.008   9.022 -0.3096 -0.2178 -0.3697
  235MPD1    C2 3565   0.315   2.929   9.068 -0.3185 -0.4488  0.3551
  235MPD1    C3 3566   0.306   2.794   9.093 -0.1428 -0.0440 -0.1915
  235MPD1    C4 3567   0.175   2.739   9.090 -0.3573 -0.1493 -0.9858
  235MPD1    C5 3568   0.067   2.824   9.071  0.3874  0.3189 -0.8189
  235MPD1     H 3569   0.413   2.974   9.077 -1.2976  1.6028  0.6416
  235MPD1    H1 3570   0.149   2.636   9.109  2.4192 -0.6297  0.2000
  235MPD1    H2 3571   0.007   3.017   9.005  0.2473  0.8103  2.5613
  235MPD1    H3 3572   4.688   2.783   9.083  0.5537 -0.3661 -1.7486
  235MPD1     N 3573   0.420   2.717   9.125 -0.1278  0.4902  0.2727
  235MPD1    H5 3574   0.510   2.760   9.144  0.6430 -1.3105  0.6975
  235MPD1    N1 3575   0.227   3.142   9.005  0.0385  0.0216  0.3492
  235MPD1    H6 3576   0.319   3.179   8.982 -0.6657  1.5406 -0.0278
  235MPD1    H7 3577   0.149   3.187   8.957 -0.1140 -1.1735 -0.5405
  236MPD1     C 3578   4.320   2.592   9.572  0.0187  0.4687  0.2480
  236MPD1    C1 3579   4.367   2.715   9.612  0.4343  0.0606  0.2323
  236MPD1    C2 3580   4.478   2.725   9.691  0.1849  0.6955  0.3201
  236MPD1    C3 3581   4.560   2.614   9.702  0.1695 -0.2230  0.0600
  236MPD1    C4 3582   4.511   2.495   9.661 -0.3134 -0.0162 -0.6905
  236MPD1    C5 3583   4.392   2.480   9.599  0.0585 -0.7475 -0.1286
  236MPD1     H 3584   4.507   2.823   9.728 -2.0876  0.8259  1.7383
  236MPD1    H1 3585   4.566   2.402   9.671 -2.6725 -1.1601  1.7645
  236MPD1    H2 3586   4.222   2.573   9.529  0.7412 -0.9860 -0.7721
  236MPD1    H3 3587   4.350   2.383   9.572 -2.2761  0.2611 -0.1448
  236MPD1     N 3588   4.679   2.618   9.782 -0.3242  0.0988  0.6320
  236MPD1    H5 3589   4.705   2.527   9.818 -1.6967 -0.6328 -0.2145
  236MPD1    N1 3590   4.286   2.841   9.606  0.4609 -0.1104  0.4160
  236MPD1    H6 3591   4.340   2.927   9.601 -0.2006  0.2317 -0.9021
  236MPD1    H7 3592   4.219   2.827   9.530  0.9126  2.1647 -0.3904
  237MPD1     C 3593   4.221   1.238  15.864  0.4209 -0.6145 -0.4094
  237MPD1    C1 3594   4.088   1.202  15.834  0.4295  0.0283  0.4767
  237MPD1    C2 3595   4.022   1.256  15.717  0.1320 -0.3511 -0.6630
  237MPD1    C3 3596   4.088   1.352  15.638 -0.4329  0.0130 -0.1407
  237MPD1    C4 3597   4.215   1.375  15.669 -0.4298  0.2833  0.9566
  237MPD1    C5 3598   4.279   1.324  15.783 -0.4069 -0.2718 -0.1600
  237MPD1     H 3599   3.923   1.218  15.695  0.6728 -2.2499  0.1393
  237MPD1    H1 3600   4.271   1.443  15.605 -1.8298  0.3589 -0.1896
  237MPD1    H2 3601   4.283   1.190  15.939 -1.3911 -0.7399  1.0097
  237MPD1    H3 3602   4.377   1.362  15.811 -0.7341  1.3537 -1.2391
  237MPD1     N 3603   4.037   1.413  15.522 -0.7065  0.0729  0.4097
  237MPD1    H5 3604   4.095   1.489  15.485 -0.0465 -1.9346 -2.6731
  237MPD1    N1 3605   4.022   1.132  15.933  0.4787  0.3713  0.1022
  237MPD1    H6 3606   4.081   1.058  15.971  0.3073 -0.3735 -1.0807
  237MPD1    H7 3607   3.935   1.090  15.902  0.2504  0.0129  1.2536
  238MPD1     C 3608   1.480   4.694  15.319 -0.5466 -0.1986  1.2069
  238MPD1    C1 3609   1.498   4.616  15.202  0.5796  0.1456  0.0884
  238MPD1    C2 3610   1.439   4.654  15.082 -0.4488 -0.0076  0.7110
  238MPD1    C3 3611   1.342   0.033  15.087  0.2735  0.2044 -0.7600
  238MPD1    C4 3612   1.336   0.117  15.199  0.0967  0.4115 -0.5351
  238MPD1    C5 3613   1.402   0.085  15.313  0.4844 -0.6360  0.3769
  238MPD1     H 3614   1.462   4.593  14.996  0.3748  0.7863  0.3661
  238MPD1    H1 3615   1.272   0.204  15.202  1.8453  1.5987  1.4507
  238MPD1    H2 3616   1.535   4.683  15.411 -0.5245  0.0826  1.2262
  238MPD1    H3 3617   1.381   0.145  15.401  3.3363  0.0801  0.5476
  238MPD1     N 3618   1.272   0.076  14.971  0.3602  0.1037 -0.0900
  238MPD1    H5 3619   1.205   0.153  14.976  0.0730  0.0158 -2.2570
  238MPD1    N1 3620   1.586   4.508  15.201  0.0582 -0.1751 -0.0978
  238MPD1    H6 3621   1.580   4.455  15.287 -0.6311 -1.8147 -1.1617
  238MPD1    H7 3622   1.570   4.453  15.116  2.1293 -2.2083  0.8370
  239MPD1     C 3623   1.710   1.280  14.963  0.0650 -0.1437  1.2703
  239MPD1    C1 3624   1.576   1.240  14.981 -0.1442  0.3224  0.5405
  239MPD1    C2 3625   1.501   1.263  14.870 -0.3121  0.6459 -0.4198
  239MPD1    C3 3626   1.557   1.267  14.742 -0.1073 -0.4892 -1.1085
  239MPD1    C4 3627   1.694   1.296  14.731  0.1256  0.3442 -0.6206
  239MPD1    C5 3628   1.761   1.287  14.845 -0.2442  0.2914 -0.2099
  239MPD1     H 3629   1.394   1.253  14.886 -0.2167 -0.0057 -0.1737
  239MPD1    H1 3630   1.744   1.312  14.637 -0.4118  0.6701 -0.8517
  239MPD1    H2 3631   1.770   1.286  15.053 -1.4005  0.5548  2.2159
  239MPD1    H3 3632   1.866   1.315  14.842 -0.1833  0.1029  0.1716
  239MPD1     N 3633   1.474   1.277  14.627 -0.3116  0.3982 -0.3551
  239MPD1    H5 3634   1.525   1.304  14.544  1.2963  1.5644  1.0145
  239MPD1    N1 3635   1.520   1.239  15.113  0.5772 -0.3111 -0.3812
  239MPD1    H6 3636   1.439   1.178  15.113 -0.8549  1.5926  0.6984
  239MPD1    H7 3637   1.580   1.201  15.186  1.4789  0.0208 -0.9368
  240MPD1     C 3638   0.678   1.010  13.753  0.2245  0.0180 -0.0032
  240MPD1    C1 3639   0.646   1.047  13.877  0.0954  0.7301 -0.0245
  240MPD1    C2 3640   0.710   0.979  13.989 -0.0307 -0.7846 -0.0881
  240MPD1    C3 3641   0.791   0.872  13.966 -0.0056  0.3799 -0.0525
  240MPD1    C4 3642   0.808   0.826  13.837 -0.2678  0.0828  0.5995
  240MPD1    C5 3643   0.750   0.894  13.729  0.2217 -0.0027  0.0033
  240MPD1     H 3644   0.707   1.016  14.091 -4.3777 -1.3508  0.0018
  240MPD1    H1 3645   0.872   0.742  13.811 -0.6269 -0.1452  0.4526
  240MPD1    H2 3646   0.630   1.059  13.670  0.6075  0.0887 -0.1827
  240MPD1    H3 3647   0.756   0.836  13.638 -2.2883  0.0615 -0.2106
  240MPD1     N 3648   0.857   0.817  14.080 -0.8080  0.2499 -0.6327
  240MPD1    H5 3649   0.826   0.852  14.170  1.0985 -2.2987  1.0245
  240MPD1    N1 3650   0.583   1.173  13.904 -0.3835  0.2954 -0.1177
  240MPD1    H6 3651   0.541   1.152  13.994  2.0544 -0.3166  0.8750
  240MPD1    H7 3652   0.525   1.187  13.822  0.2201  2.6503 -0.1205
  241MPD1     C 3653   1.536   0.273  14.720  0.1162  0.3391 -0.0003
  241MPD1    C1 3654   1.566   0.299  14.589  0.3382  0.5950 -0.9541
  241MPD1    C2 3655   1.488   0.388  14.525  0.0479  0.1942  0.1248
  241MPD1    C3 3656   1.390   0.461  14.584 -0.5418  0.3099  0.2295
  241MPD1    C4 3657   1.365   0.429  14.713 -0.5406  0.2395  0.2330
  241MPD1    C5 3658   1.435   0.337  14.782 -0.4427  0.4460  0.8490
  241MPD1     H 3659   1.496   0.397  14.418 -1.3137  1.4577  0.1342
  241MPD1    H1 3660   1.286   0.480  14.767  0.8746  0.4874  2.0526
  241MPD1    H2 3661   1.590   0.209  14.789 -2.0431 -1.1587  0.3035
  241MPD1    H3 3662   1.418   0.320  14.888  0.4737  0.5280  1.0072
  241MPD1     N 3663   1.294   0.532  14.524 -0.4108  0.2280  0.0253
  241MPD1    H5 3664   1.232   0.574  14.593  1.2726 -0.1362  1.7410
  241MPD1    N1 3665   1.662   0.220  14.519 -0.2063  0.3348 -0.0326
  241MPD1    H6 3666   1.674   0.255  14.424 -1.9721  0.9910 -0.0063
  241MPD1    H7 3667   1.756   0.217  14.558 -0.4612  1.2439  0.6451
  242MPD1     C 3668   0.184   4.608  15.551 -0.2812 -0.5674  0.2888
  242MPD1    C1 3669   0.310   4.662  15.530  0.2393 -0.5433  0.5761
  242MPD1    C2 3670   0.406   4.583  15.471  0.1585 -0.2746 -0.7726
  242MPD1    C3 3671   0.380   4.452  15.428  0.2598  0.4887  0.0091
  242MPD1    C4 3672   0.254   4.396  15.461 -0.1523  0.3086  0.0717
  242MPD1    C5 3673   0.156   4.477  15.515  0.6753 -0.4213 -0.5758
  242MPD1     H 3674   0.507   4.615  15.449 -0.3564  0.9668 -1.2877
  242MPD1    H1 3675   0.226   4.299  15.421  1.7593 -0.9069  1.6438
  242MPD1    H2 3676   0.106   4.669  15.597 -1.9085 -1.7529 -0.8784
  242MPD1    H3 3677   0.053   4.450  15.534  1.6237 -2.9248  0.9495
  242MPD1     N 3678   0.475   4.378  15.351  0.4983 -0.4452  0.0744
  242MPD1    H5 3679   0.445   4.287  15.320  0.5680 -0.7636  0.9333
  242MPD1    N1 3680   0.340   0.059  15.589 -0.0331 -0.2135  0.2038
  242MPD1    H6 3681   0.414   0.105  15.536 -0.8541 -1.2467 -1.8491
  242MPD1    H7 3682   0.263   0.125  15.596  0.3462  0.1085  1.2038
  243MPD1     C 3683   3.119   3.135  17.292 -0.4005 -0.2038 -0.6610
  243MPD1    C1 3684   3.060   3.095  17.175 -0.3056  0.1981  0.4143
  243MPD1    C2 3685   2.937   3.039  17.187  0.4032 -1.0229 -0.1084
  243MPD1    C3 3686   2.871   3.017  17.309 -0.7629  0.1529 -0.5444
  243MPD1    C4 3687   2.945   3.042  17.423  0.1738 -0.4546 -0.4795
  243MPD1    C5 3688   3.066   3.107  17.416  0.2338 -0.5691  0.2099
  243MPD1     H 3689   2.894   3.016  17.090  0.3860  0.5271 -0.4716
  243MPD1    H1 3690   2.912   3.014  17.522 -0.7363  1.4236 -0.2605
  243MPD1    H2 3691   3.216   3.185  17.288  0.2067 -1.2462  1.2220
  243MPD1    H3 3692   3.132   3.127  17.500 -0.2643 -0.3678  0.5560
  243MPD1     N 3693   2.750   2.969  17.309  0.4311 -0.0402  0.0585
  243MPD1    H5 3694   2.706   2.973  17.217  0.2504 -0.9627  0.1038
  243MPD1    N1 3695   3.104   3.128  17.053  0.4301  0.3227 -0.1765
  243MPD1    H6 3696   3.080   3.052  16.989 -1.2839  0.8636 -0.1693
  243MPD1    H7 3697   3.205   3.139  17.062  0.7146 -2.4660 -0.0683
  244MPD1     C 3698   1.942   2.972   0.213 -0.1063  0.2783 -0.1927
  244MPD1    C1 3699   2.071   3.007   0.241  0.5910  0.7329  0.3002
  244MPD1    C2 3700   2.166   2.959   0.157 -0.7827  0.7228  0.0962
  244MPD1    C3 3701   2.135   2.898   0.039  0.4531 -0.9740  0.2382
  244MPD1    C4 3702   2.006   2.872   0.008  0.5696  0.3410  0.4868
  244MPD1    C5 3703   1.914   2.906   0.102  0.9675  0.1512 -0.4582
  244MPD1     H 3704   2.270   2.951   0.185 -0.2586  0.1260 -2.0094
  244MPD1    H1 3705   1.981   2.826  17.600 -0.5527  0.2397  0.8323
  244MPD1    H2 3706   1.857   2.989   0.278  0.1530 -0.3644  0.3175
  244MPD1    H3 3707   1.812   2.871   0.089  1.1128 -1.2645  2.2441
  244MPD1     N 3708   2.246   2.859  17.647 -0.3231  0.8259  0.0512
  244MPD1    H5 3709   2.335   2.892  17.683  0.7851 -0.6090 -1.3742
  244MPD1    N1 3710   2.112   3.070   0.358 -0.3562  0.1953 -0.2626
  244MPD1    H6 3711   2.210   3.097   0.358 -0.3519  0.2581 -3.3184
  244MPD1    H7 3712   2.050   3.146   0.383  0.4692  0.9276 -0.4670
  245MPD1     C 3713   4.411   2.990  12.672 -0.3321 -0.1148 -0.1437
  245MPD1    C1 3714   4.538   3.020  12.722  0.6937 -0.0488  0.6444
  245MPD1    C2 3715   4.538   3.108  12.833  0.0283  0.4560  0.4305
  245MPD1    C3 3716   4.426   3.148  12.895 -0.1812  0.2703 -0.0055
  245MPD1    C4 3717   4.304   3.105  12.843 -0.6431  0.1509  0.2955
  245MPD1    C5 3718   4.299   3.025  12.735  0.7907  0.4554 -1.5052
  245MPD1     H 3719   4.629   3.151  12.872 -0.0153  2.1139 -1.2535
  245MPD1    H1 3720   4.209   3.139  12.882 -0.4018 -0.0877  1.1029
  245MPD1    H2 3721   4.408   2.936  12.579 -1.0318 -0.1009 -0.1286
  245MPD1    H3 3722   4.203   2.991  12.698  0.8773 -1.5397  0.1206
  245MPD1     N 3723   4.440   3.241  12.999  0.3590  0.0728  0.5506
  245MPD1    H5 3724   4.533   3.273  13.022  0.7926 -1.8909  1.5555
  245MPD1    N1 3725   4.652   2.992  12.650 -0.5402 -0.1390 -0.2433
  245MPD1    H6 3726   0.011   3.011  12.709  0.2583  0.2421 -1.4628
  245MPD1    H7 3727   4.651   2.898  12.611 -0.0078  0.3271 -1.3661
  246MPD1     C 3728   4.404   1.042   9.578 -0.0003  0.0802 -0.7766
  246MPD1    C1 3729   4.294   1.094   9.512  0.4976  0.7318 -0.6207
  246MPD1    C2 3730   4.288   1.233   9.526  0.2505  0.3508 -0.1328
  246MPD1    C3 3731   4.373   1.310   9.605  0.7383  0.4512  0.2210
  246MPD1    C4 3732   4.479   1.250   9.670 -0.1036 -0.8689  0.0223
  246MPD1    C5 3733   4.496   1.119   9.649 -0.5268 -0.1402 -0.3332
  246MPD1     H 3734   4.212   1.276   9.461 -0.3721  1.8213  1.5788
  246MPD1    H1 3735   4.559   1.295   9.728  0.9093 -1.1618 -1.1653
  246MPD1    H2 3736   4.414   0.934   9.568 -0.3707  0.2231 -2.7763
  246MPD1    H3 3737   4.579   1.070   9.697  0.5941  1.7209 -0.3631
  246MPD1     N 3738   4.344   1.450   9.602  0.4901 -0.2884 -0.9740
  246MPD1    H5 3739   4.272   1.487   9.541 -2.3887 -3.4578  0.5049
  246MPD1    N1 3740   4.214   1.022   9.420  0.0869 -0.1582 -0.3108
  246MPD1    H6 3741   4.205   0.923   9.442 -2.6599 -0.0880 -1.1608
  246MPD1    H7 3742   4.123   1.058   9.394 -0.0659 -0.0167  0.4453
  247MPD1     C 3743   2.868   2.796  15.195  0.7443 -0.2865 -0.3287
  247MPD1    C1 3744   2.834   2.699  15.293 -0.5048 -0.0336 -0.7588
  247MPD1    C2 3745   2.881   2.728  15.419  0.1045  0.3364 -0.0721
  247MPD1    C3 3746   2.956   2.839  15.457 -0.0926  0.2300  0.1534
  247MPD1    C4 3747   2.989   2.929  15.356  0.0501  0.1805 -0.4649
  247MPD1    C5 3748   2.954   2.899  15.229  0.0657  0.4819 -0.2972
  247MPD1     H 3749   2.864   2.658  15.500  1.7370 -2.3233 -2.0103
  247MPD1    H1 3750   3.052   3.017  15.369  2.1007 -0.9152 -2.7834
  247MPD1    H2 3751   2.836   2.798  15.092 -1.4932 -0.8666  0.3667
  247MPD1    H3 3752   2.982   2.963  15.148 -1.7232  0.7753 -0.6912
  247MPD1     N 3753   2.998   2.860  15.590  0.7140 -0.2940 -0.1785
  247MPD1    H5 3754   3.063   2.937  15.601  0.1588  0.5004 -2.4362
  247MPD1    N1 3755   2.744   2.601  15.266  0.1382  0.8221  0.2710
  247MPD1    H6 3756   2.760   2.518  15.323  0.1349  0.6330 -0.0051
  247MPD1    H7 3757   2.745   2.573  15.168 -0.9870 -0.0928  0.5067
  248MPD1     C 3758   4.208   3.802   0.322  0.2160 -0.2302  0.1011
  248MPD1    C1 3759   4.078   3.777   0.342  0.2265 -0.1730 -0.2031
  248MPD1    C2 3760   4.031   3.646   0.308 -0.0942  0.1809 -0.0250
  248MPD1    C3 3761   4.111   3.552   0.245  0.4883 -0.9160 -0.2419
  248MPD1    C4 3762   4.243   3.582   0.232 -0.7094 -0.9357 -0.0391
  248MPD1    C5 3763   4.291   3.708   0.265  0.1025 -0.2907 -0.6912
  248MPD1     H 3764   3.925   3.626   0.322 -0.2411  0.9055 -0.0779
  248MPD1    H1 3765   4.308   3.503   0.195 -0.4596 -0.2192 -1.1337
  248MPD1    H2 3766   4.251   3.897   0.350  3.0170 -1.4148 -0.1441
  248MPD1    H3 3767   4.397   3.724   0.248  0.8918 -2.2282  2.3636
  248MPD1     N 3768   4.057   3.426   0.205 -0.4858  0.5372 -0.1521
  248MPD1    H5 3769   3.958   3.407   0.215  0.0204 -1.4296  1.2892
  248MPD1    N1 3770   3.989   3.884   0.369 -0.2928 -0.2476  0.9237
  248MPD1    H6 3771   4.040   3.958   0.416  0.1946  0.1377 -0.2291
  248MPD1    H7 3772   3.904   3.860   0.421 -1.4709 -0.7540 -1.2410
  249MPD1     C 3773   0.647   1.525   9.688 -0.2666  0.5515  0.2008
  249MPD1    C1 3774   0.704   1.508   9.814 -0.8211  0.3427 -0.3773
  249MPD1    C2 3775   0.674   1.386   9.872 -0.3238  0.3159 -0.1849
  249MPD1    C3 3776   0.580   1.299   9.829  0.0174  0.1626  0.0100
  249MPD1    C4 3777   0.514   1.336   9.711 -0.2030 -0.9832 -0.3579
  249MPD1    C5 3778   0.547   1.447   9.640  0.0824 -0.3928  0.5738
  249MPD1     H 3779   0.723   1.368   9.967 -1.5166  0.0410  0.3749
  249MPD1    H1 3780   0.443   1.280   9.650 -1.8396 -0.7898  1.3723
  249MPD1    H2 3781   0.677   1.606   9.623 -0.0746  0.6435  0.4014
  249MPD1    H3 3782   0.502   1.457   9.542 -1.8037 -2.2205  1.2723
  249MPD1     N 3783   0.554   1.185   9.901 -0.4613  0.8381  0.9435
  249MPD1    H5 3784   0.615   1.166   9.981 -0.6885  0.0514  0.9351
  249MPD1    N1 3785   0.823   1.581   9.848 -0.0786 -0.2508 -0.6677
  249MPD1    H6 3786   0.854   1.567   9.944  0.5442 -2.9410 -1.2692
  249MPD1    H7 3787   0.810   1.680   9.829  0.3302  0.1678  1.2146
  250MPD2     C 3788   1.720   1.538  12.840 -0.9997  0.4950  0.2617
  250MPD2    C1 3789   1.736   1.579  12.712  0.2674 -0.2950  0.0956
  250MPD2    C2 3790   1.643   1.548  12.612  0.6507 -0.5773  0.1686
  250MPD2    C3 3791   1.545   1.453  12.641 -0.2119  0.7576  0.0822
  250MPD2    C4 3792   1.539   1.405  12.769  0.1799 -0.0088  0.7913
  250MPD2    C5 3793   1.625   1.440  12.872 -0.4465 -0.3668  0.7206
  250MPD2     H 3794   1.653   1.592  12.514  1.3268 -2.6493 -0.6902
  250MPD2    H1 3795   1.470   1.325  12.792 -0.3013  0.4229  0.8666
  250MPD2    H2 3796   1.774   1.584  12.922  0.5111  0.7987 -0.8978
  250MPD2    H3 3797   1.620   1.397  12.972 -0.7849 -0.6824  0.5684
  250MPD2     N 3798   1.453   1.404  12.549 -0.1239 -0.1632 -0.3438
  250MPD2    H5 3799   1.384   1.346  12.596  1.2948 -2.2324 -0.8596
  250MPD2    N1 3800   1.837   1.684  12.693 -0.2356 -0.0244  0.1135
  250MPD2    H7 3801   1.899   1.697  12.773  0.3412 -2.6058  0.1082
  251TMC3    C1 3802   1.976   1.841  12.588 -0.0548 -0.5093  0.3910
  251TMC3    C2 3803   1.986   1.915  12.709  0.0081 -0.0191  0.0171
  251TMC3    C3 3804   2.040   2.043  12.691 -0.0625 -0.5454  0.5549
  251TMC3    C4 3805   1.999   1.895  12.467 -0.0671 -0.0605  1.1127
  251TMC3    C5 3806   2.053   2.021  12.465  0.9292  0.4351  0.0801
  251TMC3    C6 3807   2.066   2.096  12.572  0.3810 -0.2630 -0.2761
  251TMC3     C 3808   1.867   1.748  12.575  0.1999  0.3968 -0.1156
  251TMC3     O 3809   1.819   1.740  12.463  0.2730  0.2533  0.3189
  251TMC3     H 3810   1.971   1.861  12.802  2.4847  0.9844  0.9690
  251TMC3    H1 3811   1.992   1.843  12.372 -0.3182 -0.2545  1.2396
  251TMC3    H2 3812   2.105   2.197  12.561 -2.2525  0.7647 -0.1801
  251TMC3    C7 3813   2.079   2.083  12.333 -0.2621  0.0835  0.1770
  251TMC3    C8 3814   2.110   2.107  12.797 -0.4769 -0.1918  0.3701
  251TMC3    O1 3815   2.006   2.174  12.302  0.0808  0.5387  0.1410
  251TMC3    O2 3816   2.106   2.228  12.815 -0.8175 -0.1759  0.0053
  252TMC3    C1 3817   2.862   2.303   9.024  0.0149 -0.0742 -0.3102
  252TMC3    C2 3818   2.957   2.224   9.090 -0.1105 -0.1761 -0.1644
  252TMC3    C3 3819   2.921   2.091   9.111  0.6519 -0.3979 -0.1153
  252TMC3    C4 3820   2.740   2.253   8.986 -0.6798 -1.0823  0.4424
  252TMC3    C5 3821   2.711   2.123   9.015 -0.4300  0.1634 -0.0556
  252TMC3    C6 3822   2.794   2.042   9.083  0.8121 -0.9432  0.1531
  252TMC3     C 3823   2.888   2.438   8.979 -0.1355 -0.0444 -0.3214
  252TMC3     O 3824   2.818   2.491   8.893  0.1623  0.2404  0.4283
  252TMC3     H 3825   3.055   2.260   9.119  1.5050 -1.5776 -3.8508
  252TMC3    H1 3826   2.671   2.322   8.939  0.1218 -0.6653 -0.1227
  252TMC3    H2 3827   2.767   1.943   9.119 -0.9860 -0.3305  0.4873
  252TMC3    C7 3828   2.601   2.067   8.946 -0.7367 -0.1476  0.6074
  252TMC3    C8 3829   3.013   1.998   9.180 -0.0293  0.0184 -0.4235
  252TMC3    O1 3830   2.535   2.133   8.866 -0.4803 -0.3923  0.1806
  252TMC3    O2 3831   2.997   1.877   9.170 -0.8703 -0.1716 -0.2325
  253MPD2     C 3832   3.799   1.983  15.371 -0.0381 -0.0543 -0.2356
  253MPD2    C1 3833   3.675   1.915  15.389  0.1185 -0.2046  0.0460
  253MPD2    C2 3834   3.635   1.891  15.513 -0.6792  0.2452 -0.1484
  253MPD2    C3 3835   3.700   1.933  15.629 -0.5792 -0.0809 -0.3033
  253MPD2    C4 3836   3.822   1.989  15.620 -0.1101 -0.3053 -0.4811
  253MPD2    C5 3837   3.867   2.016  15.488  0.2415 -0.9079 -0.1281
  253MPD2     H 3838   3.544   1.832  15.518  0.0581 -0.9116 -0.5476
  253MPD2    H1 3839   3.880   2.019  15.706 -0.3655  1.8843 -1.0686
  253MPD2    H2 3840   3.846   1.994  15.275  1.0396 -0.2025  0.2790
  253MPD2    H3 3841   3.969   2.051  15.478 -1.1581  2.3683 -2.8296
  253MPD2     N 3842   3.651   1.899  15.762  0.3445 -0.3922  0.1054
  253MPD2    H5 3843   3.711   1.917  15.841  0.9401 -4.8602  0.6962
  253MPD2    N1 3844   3.592   1.866  15.285 -0.1184 -0.5691  0.2467
  253MPD2    H7 3845   3.507   1.816  15.310 -2.6971  2.3945 -2.6735
  254TMC3    C1 3846   3.480   1.874  15.928  0.8698 -0.1126 -0.0354
  254TMC3    C2 3847   3.350   1.910  15.952 -0.6098  0.1141 -0.1173
  254TMC3    C3 3848   3.293   1.860  16.066  0.1469 -0.4153 -0.2136
  254TMC3    C4 3849   3.538   1.775  16.002 -0.3082  0.1812 -0.2225
  254TMC3    C5 3850   3.467   1.722  16.104 -0.0427  0.1954 -0.4345
  254TMC3    C6 3851   3.346   1.767  16.140  0.1603 -0.9062 -0.5502
  254TMC3     C 3852   3.516   1.876  15.787 -0.1984  0.0494  0.1332
  254TMC3     O 3853   3.424   1.881  15.707 -0.1178 -0.0623  0.4280
  254TMC3     H 3854   3.313   2.000  15.904  1.0413  1.0450  0.3347
  254TMC3    H1 3855   3.645   1.761  15.995 -0.4140  0.0965 -1.6761
  254TMC3    H2 3856   3.306   1.731  16.234 -1.0284 -0.5272 -0.8958
  254TMC3    C7 3857   3.535   1.645  16.207 -0.0150  0.1000 -0.1385
  254TMC3    C8 3858   3.153   1.892  16.106 -0.1324  0.7833  1.0085
  254TMC3    O1 3859   3.529   1.702  16.314  0.3408 -0.3150 -0.0159
  254TMC3    O2 3860   3.099   1.808  16.179  0.0639  0.1649  0.3195
  255MPD2     C 3861   1.830   4.356  10.532 -0.0201 -0.2601  0.7028
  255MPD2    C1 3862   1.847   4.331  10.399  0.0690 -0.6203 -0.0032
  255MPD2    C2 3863   1.936   4.227  10.366  0.4563 -0.1841 -0.5739
  255MPD2    C3 3864   2.005   4.160  10.470  0.4833  0.2019 -0.5934
  255MPD2    C4 3865   1.969   4.174  10.600 -0.4216  0.5807  0.0571
  255MPD2    C5 3866   1.877   4.273  10.627  0.6411  0.2594  0.0576
  255MPD2     H 3867   1.955   4.205  10.262  0.1477  0.5380 -0.7836
  255MPD2    H1 3868   2.018   4.132  10.687  0.9688  2.3604  0.1281
  255MPD2    H2 3869   1.756   4.428  10.563  0.9990  0.7331  0.8312
  255MPD2    H3 3870   1.842   4.300  10.726 -0.2659  1.0049 -0.4641
  255MPD2     N 3871   2.118   4.085  10.432 -0.0532 -0.7827 -0.5914
  255MPD2    H5 3872   2.143   4.085  10.334 -1.1250 -0.3955 -0.8668
  255MPD2    N1 3873   1.768   4.404  10.305  0.1843  0.3228  0.6253
  255MPD2    H7 3874   1.718   4.487  10.335 -0.6234  0.3848 -0.8605
  256TMC3    C1 3875   1.649   4.413  10.100 -0.6109 -0.7201  0.1631
  256TMC3    C2 3876   1.690   4.544  10.081  0.5264  0.6677 -0.1128
  256TMC3    C3 3877   1.668   4.589   9.954  0.4424 -0.3387  0.5126
  256TMC3    C4 3878   1.606   4.335   9.997 -0.2325  0.6200 -0.3873
  256TMC3    C5 3879   1.602   4.381   9.870  0.4902 -0.3452 -0.8202
  256TMC3    C6 3880   1.630   4.513   9.847  0.2061  0.2211 -0.7241
  256TMC3     C 3881   1.729   4.334  10.194  0.7323 -0.4721 -1.0740
  256TMC3     O 3882   1.728   4.214  10.169 -0.0100  0.0395 -0.1901
  256TMC3     H 3883   1.736   4.609  10.155  0.1700 -0.1183  0.7926
  256TMC3    H1 3884   1.584   4.229  10.008  0.7755  0.3283 -1.1477
  256TMC3    H2 3885   1.608   4.561   9.751 -0.9829  0.8974 -0.1229
  256TMC3    C7 3886   1.594   4.287   9.759  0.5303 -0.6077  0.1647
  256TMC3    C8 3887   1.721   0.001   9.925  0.0040  0.3053  0.6515
  256TMC3    O1 3888   1.541   4.181   9.780 -0.4324 -0.1326  0.2361
  256TMC3    O2 3889   1.723   0.083  10.014  0.2589 -0.5014  0.0148
  257MPD2     C 3890   0.973   1.782  13.131 -0.7140  0.3188 -0.3451
  257MPD2    C1 3891   0.943   1.663  13.077  0.5049  0.2884  0.4908
  257MPD2    C2 3892   0.933   1.553  13.161 -0.2812  0.5418 -0.0216
  257MPD2    C3 3893   0.958   1.558  13.301 -0.2107  0.8116 -0.7264
  257MPD2    C4 3894   0.982   1.683  13.350  0.2019 -0.1136  0.5307
  257MPD2    C5 3895   0.984   1.788  13.266  0.4097 -0.1966 -0.1780
  257MPD2     H 3896   0.910   1.449  13.138 -1.8898  1.1313 -1.0786
  257MPD2    H1 3897   0.988   1.711  13.454 -1.4913  1.5123  0.1907
  257MPD2    H2 3898   0.967   1.883  13.092 -1.9601 -0.2013 -1.4647
  257MPD2    H3 3899   0.999   1.886  13.310  1.2695 -0.9363  1.1915
  257MPD2     N 3900   0.952   1.445  13.383  0.4579  0.2991 -0.4886
  257MPD2    H5 3901   0.937   1.358  13.332  1.9179 -1.0742  1.4245
  257MPD2    N1 3902   0.913   1.665  12.940 -0.4000  0.1871  0.3328
  257MPD2    H7 3903   0.934   1.751  12.891  0.2541 -0.5260 -0.6533
  258TMC3    C1 3904   0.994   1.320  13.574  0.2035  0.7814  0.2530
  258TMC3    C2 3905   1.010   1.206  13.495 -0.0002 -0.1388 -0.3370
  258TMC3    C3 3906   1.015   1.087  13.558  0.2545  0.1901  0.9980
  258TMC3    C4 3907   0.997   1.313  13.710  0.5539  0.4413 -0.8105
  258TMC3    C5 3908   0.999   1.192  13.771  0.3663 -0.4578  0.6544
  258TMC3    C6 3909   1.012   1.074  13.697 -0.1043  0.2209 -0.1831
  258TMC3     C 3910   0.964   1.449  13.522  0.5184 -0.5935  0.7157
  258TMC3     O 3911   0.984   1.544  13.601  0.7428  0.2516 -0.0035
  258TMC3     H 3912   1.013   1.212  13.387  2.0667  0.9261 -0.2121
  258TMC3    H1 3913   0.987   1.403  13.770 -1.1240 -0.9152  0.9509
  258TMC3    H2 3914   1.021   0.973  13.738 -1.9627  0.9179  1.9810
  258TMC3    C7 3915   1.001   1.176  13.914  0.3347 -0.2971 -0.5891
  258TMC3    C8 3916   1.019   0.964  13.483 -0.1437  0.1094 -0.2233
  258TMC3    O1 3917   0.942   1.260  13.977 -0.1882 -0.6065 -0.0006
  258TMC3    O2 3918   1.069   0.864  13.536 -0.1275 -0.1157  0.2897
  259MPD2     C 3919   4.298   2.679   1.516 -0.1721 -0.3830  0.8350
  259MPD2    C1 3920   4.396   2.758   1.550 -0.4499  0.5767 -0.4925
  259MPD2    C2 3921   4.515   2.759   1.481 -0.1017  0.1044 -0.6201
  259MPD2    C3 3922   4.541   2.673   1.373 -0.6224 -0.4552 -0.3179
  259MPD2    C4 3923   4.433   2.590   1.342 -0.4945 -0.1676  0.8490
  259MPD2    C5 3924   4.314   2.597   1.409 -0.5093 -0.3849  0.0796
  259MPD2     H 3925   4.595   2.824   1.514 -1.6376  1.8557 -0.3189
  259MPD2    H1 3926   4.441   2.524   1.256 -0.1086  1.8628 -0.6691
  259MPD2    H2 3927   4.208   2.676   1.576  0.0007  2.6284  1.2495
  259MPD2    H3 3928   4.241   2.531   1.363  0.8526 -0.9600 -1.2619
  259MPD2     N 3929   4.668   2.664   1.310  0.2558  0.1059  0.0080
  259MPD2    H5 3930   0.021   2.729   1.335 -0.6111  1.2998 -0.5589
  259MPD2    N1 3931   4.365   2.849   1.659 -0.6557  1.3254  0.4466
  259MPD2    H7 3932   4.274   2.844   1.703 -0.9001 -1.3252 -0.3334
  260TMC3    C1 3933   0.121   2.578   1.180  0.1499 -0.4312  0.1268
  260TMC3    C2 3934   0.190   2.699   1.193 -0.0608  0.1648  0.2408
  260TMC3    C3 3935   0.319   2.696   1.147  0.2878  0.2366 -0.1124
  260TMC3    C4 3936   0.179   2.467   1.126  0.0486 -0.7183  0.5158
  260TMC3    C5 3937   0.308   2.460   1.099 -0.1315  0.1354  0.3929
  260TMC3    C6 3938   0.374   2.575   1.105 -0.5503  0.3547  0.1336
  260TMC3     C 3939   4.709   2.561   1.232  0.2515 -0.0110 -0.1915
  260TMC3     O 3940   4.651   2.464   1.185  0.0432 -0.0107 -0.2243
  260TMC3     H 3941   0.134   2.792   1.201 -1.9650 -0.9401 -0.2732
  260TMC3    H1 3942   0.115   2.382   1.106  0.5160 -1.0885  0.5801
  260TMC3    H2 3943   0.481   2.583   1.092 -0.7725  1.9647 -0.7850
  260TMC3    C7 3944   0.344   2.404   0.974 -0.2978 -0.1038 -0.4570
  260TMC3    C8 3945   0.374   2.812   1.080 -0.0803  0.5852 -0.2336
  260TMC3    O1 3946   0.429   2.468   0.911  0.2557 -0.0671 -0.6440
  260TMC3    O2 3947   0.341   2.926   1.122  0.6394 -0.4698 -0.3230
  261MPD2     C 3948   1.410   1.171  11.727 -0.3076 -0.0307  0.1900
  261MPD2    C1 3949   1.481   1.252  11.813  0.2994 -0.3551  0.0840
  261MPD2    C2 3950   1.599   1.317  11.771  0.5905  0.3384 -0.3799
  261MPD2    C3 3951   1.635   1.308  11.639 -0.7612  0.3294  0.3757
  261MPD2    C4 3952   1.565   1.217  11.560  0.2637  0.0987  0.3201
  261MPD2    C5 3953   1.457   1.147  11.609  0.8234 -0.0623  0.3732
  261MPD2     H 3954   1.661   1.381  11.832  0.9838 -1.8041  1.4900
  261MPD2    H1 3955   1.602   1.199  11.459 -2.8738 -0.4538 -0.7183
  261MPD2    H2 3956   1.322   1.113  11.752 -0.8982  0.7987  0.0005
  261MPD2    H3 3957   1.414   1.071  11.544 -0.1085  0.7498  0.0499
  261MPD2     N 3958   1.742   1.387  11.590 -0.6589  0.4742  0.0936
  261MPD2    H5 3959   1.768   1.460  11.654  1.2651 -0.1878  0.0779
  261MPD2    N1 3960   1.448   1.274  11.947 -0.3410 -0.4694  0.1805
  261MPD2    H7 3961   1.519   1.310  12.010 -0.3073  1.8932 -1.1861
  262TMC3    C1 3962   1.854   1.490  11.413 -0.0366 -0.2750  0.8804
  262TMC3    C2 3963   1.794   1.610  11.445 -0.0748  0.4786  0.1428
  262TMC3    C3 3964   1.828   1.716  11.363 -0.6908 -0.2797 -0.4097
  262TMC3    C4 3965   1.942   1.469  11.311  0.6534 -0.4886 -0.5116
  262TMC3    C5 3966   1.965   1.576  11.228  0.6985  0.2615  0.5381
  262TMC3    C6 3967   1.907   1.701  11.250  0.2266 -0.4907  0.5476
  262TMC3     C 3968   1.810   1.369  11.476 -0.0439 -0.0929 -0.2060
  262TMC3     O 3969   1.817   1.271  11.405  0.8429 -0.2110  0.3698
  262TMC3     H 3970   1.715   1.618  11.519 -0.2097 -0.2410  0.0791
  262TMC3    H1 3971   1.982   1.369  11.301 -0.1334 -0.7572 -0.9764
  262TMC3    H2 3972   1.943   1.788  11.196  1.0209 -1.5208 -0.5827
  262TMC3    C7 3973   2.023   1.548  11.095 -0.2102 -0.4241 -0.1115
  262TMC3    C8 3974   1.764   1.850  11.373 -0.3542 -0.1800 -0.3489
  262TMC3    O1 3975   2.097   1.446  11.103  0.1045 -0.0968  0.6176
  262TMC3    O2 3976   1.786   1.930  11.277 -0.1807 -0.2673 -0.0765
  263MPD2     C 3977   2.849   0.846  11.178 -0.7006  0.9808 -0.2021
  263MPD2    C1 3978   2.888   0.723  11.125  0.2873 -0.3408 -0.7161
  263MPD2    C2 3979   2.862   0.700  10.998 -0.1690  0.4667  0.2954
  263MPD2    C3 3980   2.803   0.793  10.919 -0.2348 -0.3238 -0.7053
  263MPD2    C4 3981   2.753   0.909  10.975  0.1370 -0.6975  0.0726
  263MPD2    C5 3982   2.785   0.941  11.104 -0.1908  0.2611 -0.1341
  263MPD2     H 3983   2.882   0.608  10.944 -0.0089 -0.1392  1.3982
  263MPD2    H1 3984   2.717   0.989  10.910  0.2653 -1.8657 -1.4478
  263MPD2    H2 3985   2.858   0.869  11.283  0.8343  1.4474 -0.4324
  263MPD2    H3 3986   2.762   1.038  11.148 -2.6100  0.6929 -2.3024
  263MPD2     N 3987   2.793   0.761  10.782 -0.5871 -0.0727  0.7581
  263MPD2    H5 3988   2.849   0.683  10.748 -2.2134 -1.2204  0.6804
  263MPD2    N1 3989   2.953   0.630  11.206  0.5400 -0.7694  0.3868
  263MPD2    H7 3990   2.963   0.649  11.305  2.9337 -1.7434  0.3338
  264TMC3    C1 3991   2.710   0.784  10.559  0.2837 -0.1547 -0.7225
  264TMC3    C2 3992   2.604   0.829  10.482 -0.5557 -0.3497  0.1270
  264TMC3    C3 3993   2.630   0.844  10.348 -0.5009 -0.2568  0.2485
  264TMC3    C4 3994   2.825   0.734  10.506 -0.2245  0.3297  0.4813
  264TMC3    C5 3995   2.824   0.710  10.365 -0.2253  0.2615 -0.5577
  264TMC3    C6 3996   2.724   0.766  10.288 -0.1641 -0.9266 -0.3351
  264TMC3     C 3997   2.709   0.831  10.695 -0.1700  0.4936 -1.0497
  264TMC3     O 3998   2.624   0.916  10.718 -0.6075 -0.4461 -0.9984
  264TMC3     H 3999   2.532   0.894  10.529 -1.0585 -0.3746 -0.6047
  264TMC3    H1 4000   2.908   0.700  10.568 -0.4393 -1.5067 -0.2490
  264TMC3    H2 4001   2.733   0.774  10.181 -0.7057 -0.0053 -0.3140
  264TMC3    C7 4002   2.955   0.670  10.307  0.5983 -0.0171  0.5679
  264TMC3    C8 4003   2.682   0.980  10.327  0.5251 -0.1108 -0.2905
  264TMC3    O1 4004   3.050   0.705  10.375 -0.3490 -0.4379  0.0592
  264TMC3    O2 4005   2.794   0.987  10.276 -0.0014 -0.3916 -0.1961
  265MPD2     C 4006   0.532   1.643  15.803  0.0904 -0.3367 -0.4317
  265MPD2    C1 4007   0.412   1.613  15.743  0.6342 -0.5247 -0.2765
  265MPD2    C2 4008   0.418   1.550  15.622 -0.5766 -0.5472  0.4424
  265MPD2    C3 4009   0.538   1.522  15.559  0.3038 -0.7725 -0.2244
  265MPD2    C4 4010   0.656   1.569  15.618 -0.1826 -0.2094  0.5268
  265MPD2    C5 4011   0.652   1.633  15.744  0.5829  0.5456  0.3360
  265MPD2     H 4012   0.324   1.540  15.567 -0.6775 -0.7704  0.6557
  265MPD2    H1 4013   0.758   1.557  15.583 -0.6473 -0.4274 -0.7675
  265MPD2    H2 4014   0.535   1.691  15.901  3.3584 -1.2850 -0.0915
  265MPD2    H3 4015   0.743   1.645  15.802  0.2318  0.9960  0.7993
  265MPD2     N 4016   0.541   1.457  15.430  0.0472  0.0678  0.5809
  265MPD2    H5 4017   0.634   1.468  15.390 -0.8582  0.5038 -1.3962
  265MPD2    N1 4018   0.279   1.635  15.801  0.2287  0.2290 -0.2817
  265MPD2    H7 4019   0.198   1.612  15.745 -2.3964 -0.1154  3.6497
  266TMC3    C1 4020   0.120   1.703  15.970 -0.6924  0.4244  0.6400
  266TMC3    C2 4021   0.097   1.802  16.063 -0.7528  0.0026 -0.0676
  266TMC3    C3 4022   4.689   1.838  16.081 -0.3341 -0.2675  0.2153
  266TMC3    C4 4023   0.023   1.647  15.887 -0.5558 -0.3985  0.0490
  266TMC3    C5 4024   4.620   1.691  15.916  0.2597  0.4432  0.2745
  266TMC3    C6 4025   4.586   1.789  16.005 -0.2961 -0.3551  0.3122
  266TMC3     C 4026   0.259   1.685  15.931  0.7271  0.3583 -0.5187
  266TMC3     O 4027   0.346   1.714  16.016  0.7700  0.3778  0.2683
  266TMC3     H 4028   0.178   1.851  16.116 -1.3774 -0.6597  1.4889
  266TMC3    H1 4029   0.055   1.564  15.826 -0.0839 -0.1061 -0.1054
  266TMC3    H2 4030   4.484   1.825  16.016 -0.4534 -0.6424 -0.1983
  266TMC3    C7 4031   4.530   1.655  15.810  0.3614 -0.0102  0.3198
  266TMC3    C8 4032   4.641   1.934  16.181  0.8710 -0.3512 -0.7978
  266TMC3    O1 4033   4.575   1.591  15.718 -0.4169  0.3224  0.0516
  266TMC3    O2 4034   4.542   1.885  16.240 -0.5757  0.5665 -0.1471
  267MPD2     C 4035   2.236   3.185  17.585  0.5796  0.3207  0.0401
  267MPD2    C1 4036   2.343   3.172  17.493  0.2291 -0.0147 -0.4596
  267MPD2    C2 4037   2.323   3.132  17.361 -0.3066  0.0435 -0.1075
  267MPD2    C3 4038   2.198   3.094  17.326 -0.0949 -0.4851 -0.3291
  267MPD2    C4 4039   2.091   3.108  17.411 -0.2018 -0.3542  0.3238
  267MPD2    C5 4040   2.113   3.161  17.538 -0.5329  0.0144  0.0247
  267MPD2     H 4041   2.402   3.130  17.286  1.4827 -0.2212  1.7792
  267MPD2    H1 4042   1.990   3.094  17.376 -0.8584  1.1786  1.6344
  267MPD2    H2 4043   2.249   3.216   0.001 -0.1314  2.3214 -0.4786
  267MPD2    H3 4044   2.025   3.162  17.601 -0.3384  1.5591  0.2578
  267MPD2     N 4045   2.167   3.041  17.198  0.9554 -0.5060  0.0849
  267MPD2    H5 4046   2.071   3.017  17.178  0.8427  1.2657 -1.5530
  267MPD2    N1 4047   2.469   3.210  17.554  0.1730  0.2486  0.1916
  267MPD2    H7 4048   2.464   3.234  17.653 -0.9794 -3.8993  1.1512
  268TMC3    C1 4049   2.690   3.273  17.574  0.0047 -0.0208 -0.5832
  268TMC3    C2 4050   2.797   3.338  17.519  0.3342 -0.3260 -0.0761
  268TMC3    C3 4051   2.917   3.343  17.587 -0.2767 -0.0482 -0.2788
  268TMC3    C4 4052   2.704   3.213   0.010  0.5739 -1.0534  0.5317
  268TMC3    C5 4053   2.822   3.230   0.080  0.3861  0.1678  0.3167
  268TMC3    C6 4054   2.931   3.286   0.023  0.7357 -0.4293  0.0021
  268TMC3     C 4055   2.581   3.241  17.482  0.1953 -0.0204  0.0240
  268TMC3     O 4056   2.596   3.243  17.359  0.5715 -0.0857 -0.1373
  268TMC3     H 4057   2.777   3.383  17.422 -0.1724 -2.2987 -0.8851
  268TMC3    H1 4058   2.637   3.132   0.040 -2.3788  0.2693 -2.5084
  268TMC3    H2 4059   3.027   3.268   0.071  0.1944  2.2584  2.0720
  268TMC3    C7 4060   2.825   3.162   0.212  0.4960 -0.4170  0.3004
  268TMC3    C8 4061   3.024   3.422  17.532 -0.2338 -0.0648 -0.4788
  268TMC3    O1 4062   2.936   3.118   0.248  0.0362 -0.8602  0.3980
  268TMC3    O2 4063   3.130   3.418  17.594 -0.8392  0.0048 -0.1452
  269MPD2     C 4064   2.573   1.959  15.537  0.5111 -0.1052 -0.4113
  269MPD2    C1 4065   2.455   2.012  15.597  0.3437 -0.3465 -0.4151
  269MPD2    C2 4066   2.451   2.148  15.608  0.4213  0.4899  0.4625
  269MPD2    C3 4067   2.552   2.230  15.573  0.2299 -0.1880  0.1688
  269MPD2    C4 4068   2.662   2.182  15.508 -0.8384 -0.1431  0.1849
  269MPD2    C5 4069   2.670   2.042  15.489  0.4814 -0.1501 -0.8445
  269MPD2     H 4070   2.363   2.189  15.656 -0.4452 -1.8242  0.8747
  269MPD2    H1 4071   2.751   2.237  15.481 -1.0692 -0.2592 -0.7897
  269MPD2    H2 4072   2.580   1.851  15.535  1.4163 -0.0500 -0.0026
  269MPD2    H3 4073   2.753   1.992  15.440 -0.3782 -3.1162  0.6585
  269MPD2     N 4074   2.514   2.365  15.574 -0.3905 -0.2872  0.2798
  269MPD2    H5 4075   2.419   2.391  15.599 -0.2318 -0.0460  0.6369
  269MPD2    N1 4076   2.354   1.915  15.632  0.0695  0.2746 -0.2559
  269MPD2    H7 4077   2.368   1.814  15.630  0.9289  0.4358 -2.1987
  270TMC3    C1 4078   2.152   1.825  15.707 -0.2652 -0.0001 -0.2798
  270TMC3    C2 4079   2.031   1.849  15.646  0.6744  0.1248  0.4095
  270TMC3    C3 4080   1.968   1.735  15.590 -0.1831 -0.0569 -0.2750
  270TMC3    C4 4081   2.217   1.700  15.700  0.1132  0.6457  0.0962
  270TMC3    C5 4082   2.140   1.594  15.652  0.3004 -0.6328 -0.8880
  270TMC3    C6 4083   2.015   1.609  15.595 -0.4201 -0.0556  0.5051
  270TMC3     C 4084   2.229   1.944  15.679  0.5521  0.1532  0.1835
  270TMC3     O 4085   2.177   2.056  15.689  0.0618  0.3161  0.0952
  270TMC3     H 4086   1.991   1.948  15.627  0.8541  0.0902 -0.1475
  270TMC3    H1 4087   2.307   1.683  15.758  0.5727  1.4946 -0.3642
  270TMC3    H2 4088   1.961   1.525  15.553  0.7076 -0.8841  0.6966
  270TMC3    C7 4089   2.218   1.471  15.637  0.2270 -0.9091  0.3182
  270TMC3    C8 4090   1.876   1.761  15.483  0.7923  0.3963 -0.3642
  270TMC3    O1 4091   2.335   1.485  15.667  0.1418  0.0868 -0.6943
  270TMC3    O2 4092   1.801   1.858  15.488 -0.2744  0.4684  0.1592
  271MPD2     C 4093   1.736   1.313  13.708 -0.5339 -0.1361  0.6458
  271MPD2    C1 4094   1.697   1.394  13.810 -0.3793  0.3764 -0.0317
  271MPD2    C2 4095   1.640   1.513  13.776  0.6983  0.1507 -0.0694
  271MPD2    C3 4096   1.624   1.557  13.647  0.9153  0.0801 -0.0094
  271MPD2    C4 4097   1.671   1.474  13.549  0.1470 -0.0880 -0.5314
  271MPD2    C5 4098   1.729   1.353  13.582  0.3292 -0.7355 -0.5998
  271MPD2     H 4099   1.597   1.568  13.859 -1.0173  3.9470 -3.4655
  271MPD2    H1 4100   1.685   1.507  13.446 -3.4226  0.8353 -0.6965
  271MPD2    H2 4101   1.788   1.221  13.732 -1.4683 -1.1834 -1.3150
  271MPD2    H3 4102   1.777   1.289  13.509  1.3180  0.5164 -1.0581
  271MPD2     N 4103   1.565   1.680  13.600 -0.2068 -0.4308 -0.3942
  271MPD2    H5 4104   1.556   1.687  13.499 -0.7325  0.5954 -0.2785
  271MPD2    N1 4105   1.728   1.368  13.943 -0.5458 -0.2634  0.6366
  271MPD2    H7 4106   1.676   1.420  14.014 -1.2720 -0.0950 -0.0202
  272TMC3    C1 4107   1.842   1.262  14.126  0.4810  0.1493  0.1015
  272TMC3    C2 4108   1.952   1.194  14.174 -0.6838 -1.2037  0.2295
  272TMC3    C3 4109   1.986   1.201  14.305 -0.2518  0.4605 -0.3893
  272TMC3    C4 4110   1.763   1.329  14.213  0.3046 -0.6032 -0.6774
  272TMC3    C5 4111   1.797   1.335  14.344  0.5677  0.0959  0.0306
  272TMC3    C6 4112   1.907   1.267  14.393  0.2940 -0.4591 -0.3748
  272TMC3     C 4113   1.819   1.274  13.983 -0.1012  0.3406 -0.0067
  272TMC3     O 4114   1.903   1.223  13.909  0.3362  0.1780 -0.0302
  272TMC3     H 4115   2.016   1.131  14.113  0.0994 -0.9785  0.8104
  272TMC3    H1 4116   1.685   1.398  14.183 -0.4694 -1.4356 -0.5725
  272TMC3    H2 4117   1.936   1.278  14.497 -0.4305 -0.4581 -0.1724
  272TMC3    C7 4118   1.726   1.438  14.422  0.3502  0.2909  0.0875
  272TMC3    C8 4119   2.127   1.214  14.323 -0.2799  0.4302  0.2856
  272TMC3    O1 4120   1.602   1.429  14.421  0.0219 -0.3296 -0.1157
  272TMC3    O2 4121   2.190   1.249  14.223 -0.3700 -0.3455 -0.2305
  273MPD2     C 4122   3.280   3.789  11.949  0.8730  0.3869  1.1258
  273MPD2    C1 4123   3.279   3.923  11.912  0.4610 -0.2207  0.2619
  273MPD2    C2 4124   3.270   3.959  11.775 -0.3382 -0.6360 -0.4749
  273MPD2    C3 4125   3.251   3.854  11.684  0.2127 -0.4650 -0.8092
  273MPD2    C4 4126   3.235   3.722  11.728 -0.5650 -0.1940 -0.2357
  273MPD2    C5 4127   3.264   3.694  11.851 -0.5039  0.4745  0.0780
  273MPD2     H 4128   3.269   4.062  11.741  2.0447  0.2790  2.2632
  273MPD2    H1 4129   3.225   3.640  11.657 -0.0838 -0.5438  0.0965
  273MPD2    H2 4130   3.287   3.749  12.049 -1.0971 -1.3349  0.5875
  273MPD2    H3 4131   3.284   3.593  11.884 -0.1473  0.6382  0.3676
  273MPD2     N 4132   3.231   3.885  11.548 -0.2129  0.2955 -0.6580
  273MPD2    H5 4133   3.248   3.983  11.532 -0.7256  0.1782 -1.9342
  273MPD2    N1 4134   3.308   4.031  11.998  0.3633 -0.4923 -0.5018
  273MPD2    H7 4135   3.315   4.127  11.964 -0.0712 -0.1080  0.5105
  274TMC3    C1 4136   3.218   3.887  11.316  0.5508  0.1099 -0.4825
  274TMC3    C2 4137   3.105   3.917  11.246 -0.0884 -0.3049 -0.2577
  274TMC3    C3 4138   3.106   4.032  11.173 -0.0768 -0.0061 -0.1589
  274TMC3    C4 4139   3.319   3.971  11.325  0.3455 -0.2761  0.4530
  274TMC3    C5 4140   3.308   4.093  11.263 -0.5877  0.1587 -0.0422
  274TMC3    C6 4141   3.201   4.124  11.186 -0.3833 -0.5388 -0.0177
  274TMC3     C 4142   3.193   3.809  11.434  0.4700 -0.6980  0.3993
  274TMC3     O 4143   3.128   3.710  11.428  0.2076  0.0115 -0.0502
  274TMC3     H 4144   3.022   3.847  11.244  1.0741 -1.6810 -0.1551
  274TMC3    H1 4145   3.411   3.956  11.379  1.2814  1.3995 -0.6733
  274TMC3    H2 4146   3.202   4.216  11.128  1.7002  0.5633  1.7494
  274TMC3    C7 4147   3.400   4.194  11.309 -0.3603  0.1999 -0.2947
  274TMC3    C8 4148   2.996   4.067  11.078 -0.1315  0.0148 -0.3388
  274TMC3    O1 4149   3.517   4.166  11.342 -0.1373  0.5387  0.0695
  274TMC3    O2 4150   2.983   4.189  11.047  0.3094  0.2590  0.4718
  275MPD2     C 4151   3.024   2.784  13.996  1.0044 -0.5734 -0.4287
  275MPD2    C1 4152   3.020   2.682  14.090  0.2349 -0.1900 -1.3074
  275MPD2    C2 4153   2.933   2.578  14.067  0.4600 -0.1748  1.1149
  275MPD2    C3 4154   2.846   2.580  13.968  0.9067 -0.1742  0.1106
  275MPD2    C4 4155   2.838   2.701  13.889  0.7228 -0.4039 -0.1687
  275MPD2    C5 4156   2.932   2.794  13.898  0.1333  0.3438 -0.0866
  275MPD2     H 4157   2.935   2.493  14.134 -1.3495 -1.7698 -0.8700
  275MPD2    H1 4158   2.767   2.725  13.811  1.2695 -1.0620 -0.8755
  275MPD2    H2 4159   3.092   2.868  14.001  0.9986 -0.5502 -0.7099
  275MPD2    H3 4160   2.938   2.869  13.821  1.1403  2.4923  2.1027
  275MPD2     N 4161   2.745   2.479  13.957 -0.6583 -0.2278 -0.3002
  275MPD2    H5 4162   2.662   2.493  13.902 -2.1313  1.1926  2.2716
  275MPD2    N1 4163   3.106   2.680  14.202 -0.2601 -0.1409 -0.2429
  275MPD2    H7 4164   3.108   2.597  14.260  0.0834 -0.4586 -0.7118
  276TMC3    C1 4165   3.278   2.734  14.351  0.8369 -0.5659  0.0645
  276TMC3    C2 4166   3.351   2.616  14.335  0.0456 -0.5325 -0.4343
  276TMC3    C3 4167   3.471   2.613  14.394  0.0532 -0.2553  0.5482
  276TMC3    C4 4168   3.332   2.837  14.425 -0.5314 -0.4587 -0.3965
  276TMC3    C5 4169   3.462   2.828  14.478 -0.4548  0.1344  0.3534
  276TMC3    C6 4170   3.535   2.714  14.461  0.2495  0.3830  0.1434
  276TMC3     C 4171   3.188   2.778  14.245  0.0237 -0.6457 -0.6137
  276TMC3     O 4172   3.194   2.893  14.213  0.2128  0.0119 -0.7554
  276TMC3     H 4173   3.324   2.530  14.275 -0.5379 -0.6253 -0.0457
  276TMC3    H1 4174   3.271   2.926  14.439  0.8813  0.2879  0.9369
  276TMC3    H2 4175   3.623   2.689  14.519  0.6716  0.7903 -0.3219
  276TMC3    C7 4176   3.501   2.930  14.574 -0.0654 -0.0851 -0.9098
  276TMC3    C8 4177   3.545   2.501  14.368 -0.0172 -0.5847  0.5775
  276TMC3    O1 4178   3.413   3.001  14.614  0.4084 -0.0291  0.5147
  276TMC3    O2 4179   3.654   2.525  14.322 -0.3800 -0.6493  0.3310
  277MPD2     C 4180   0.581   1.549  13.495  0.5190  0.2905  0.3658
  277MPD2    C1 4181   0.474   1.625  13.528  0.6765  0.9774 -0.1482
  277MPD2    C2 4182   0.382   1.573  13.612 -0.5772 -0.2586 -0.6197
  277MPD2    C3 4183   0.384   1.436  13.643  0.1181  0.3011 -0.3841
  277MPD2    C4 4184   0.491   1.362  13.603  0.4782 -0.1542 -0.0766
  277MPD2    C5 4185   0.588   1.414  13.522  0.8674 -0.1826  0.1560
  277MPD2     H 4186   0.299   1.631  13.651  1.1232  2.6142 -1.3322
  277MPD2    H1 4187   0.515   1.265  13.645 -0.0113 -0.5727 -0.7651
  277MPD2    H2 4188   0.659   1.583  13.428 -0.4978  0.5575 -0.6745
  277MPD2    H3 4189   0.660   1.343  13.483  3.4225  1.9408  0.9837
  277MPD2     N 4190   0.284   1.397  13.733  0.1283  0.5785  0.5027
  277MPD2    H5 4191   0.210   1.464  13.745 -0.1212  0.5836 -1.0403
  277MPD2    N1 4192   0.468   1.752  13.472  0.0398 -0.2505  0.0800
  277MPD2    H7 4193   0.535   1.777  13.399 -0.5707  0.1402 -0.3491
  278TMC3    C1 4194   0.138   1.251  13.837  0.1087  0.4799  0.4566
  278TMC3    C2 4195   0.094   1.122  13.823 -0.2671  0.0897  0.2902
  278TMC3    C3 4196   4.682   1.104  13.806 -0.1700  0.8177 -0.3022
  278TMC3    C4 4197   0.055   1.361  13.833  1.2290  0.6734  0.1974
  278TMC3    C5 4198   4.642   1.339  13.806  0.6124  0.6446  0.0121
  278TMC3    C6 4199   4.591   1.210  13.789 -0.0441  0.1923  0.3211
  278TMC3     C 4200   0.273   1.268  13.783  0.4839  0.6372 -0.1840
  278TMC3     O 4201   0.345   1.172  13.791 -0.4790  0.0328  0.0945
  278TMC3     H 4202   0.170   1.046  13.827 -0.4423 -0.0533  0.8994
  278TMC3    H1 4203   0.084   1.464  13.853 -2.6212  1.8186 -0.2060
  278TMC3    H2 4204   4.484   1.196  13.786  0.1752 -1.0607 -0.9592
  278TMC3    C7 4205   4.559   1.422  13.895 -0.4706  0.7946 -0.5171
  278TMC3    C8 4206   4.644   0.962  13.801  0.2305 -0.6744 -0.7306
  278TMC3    O1 4207   4.624   1.484  13.978 -0.1548 -0.3773  0.3855
  278TMC3    O2 4208   4.691   0.882  13.882 -0.1349  0.7806  0.0422
  279MPD2     C 4209   3.840   2.121   0.408 -0.2952 -0.1314  0.0420
  279MPD2    C1 4210   3.875   2.249   0.396  0.0057  0.0055 -0.3358
  279MPD2    C2 4211   3.965   2.293   0.296  0.2998  0.5828  0.4433
  279MPD2    C3 4212   4.018   2.201   0.206 -0.0322 -1.0529  0.3551
  279MPD2    C4 4213   3.980   2.069   0.225  0.4323  0.0426  0.3452
  279MPD2    C5 4214   3.891   2.030   0.320 -0.4690  0.3482  0.4388
  279MPD2     H 4215   3.982   2.399   0.287  0.0867  0.5791 -0.0209
  279MPD2    H1 4216   4.031   1.995   0.164 -0.3186  0.1132 -0.3741
  279MPD2    H2 4217   3.768   2.086   0.481  1.4114 -1.7085  0.9611
  279MPD2    H3 4218   3.857   1.927   0.326 -1.1512  0.5510 -0.0488
  279MPD2     N 4219   4.092   2.232   0.094 -0.6167 -0.0627 -0.1666
  279MPD2    H5 4220   4.121   2.150   0.041  3.8854  1.7758 -0.6235
  279MPD2    N1 4221   3.809   2.337   0.489 -0.4723 -0.0332 -0.3805
  279MPD2    H7 4222   3.739   2.301   0.554 -0.7345 -0.4395 -0.8895
  280TMC3    C1 4223   3.751   2.508   0.617 -0.5603 -0.4844 -0.2886
  280TMC3    C2 4224   3.801   2.591   0.720 -0.1318 -0.7517 -0.8429
  280TMC3    C3 4225   3.703   2.636   0.808  0.0707 -0.0948 -0.6921
  280TMC3    C4 4226   3.621   2.485   0.589  0.0252  0.8260 -0.3125
  280TMC3    C5 4227   3.528   2.542   0.673  0.7390 -0.5118  0.6812
  280TMC3    C6 4228   3.566   2.609   0.787  0.0218  0.4865  0.5730
  280TMC3     C 4229   3.845   2.465   0.518  0.2805 -0.1788 -0.9006
  280TMC3     O 4230   3.954   2.519   0.515 -0.4055  0.6114 -0.0217
  280TMC3     H 4231   3.906   2.617   0.735 -0.1863 -0.9478 -0.1154
  280TMC3    H1 4232   3.588   2.446   0.493 -0.6991 -2.6207  1.3498
  280TMC3    H2 4233   3.494   2.665   0.846 -0.1532  0.3661  0.4721
  280TMC3    C7 4234   3.392   2.563   0.632 -0.2707 -0.7975  0.4551
  280TMC3    C8 4235   3.737   2.697   0.942  0.4948 -0.2902 -0.8129
  280TMC3    O1 4236   3.321   2.613   0.717 -0.4014 -0.5481  0.5781
  280TMC3    O2 4237   3.660   2.774   0.994  0.1876  0.2332 -0.0986
  281TMC3    C1 4238   2.595   1.528  12.870  0.6029 -0.1044 -1.0249
  281TMC3    C2 4239   2.545   1.608  12.778  0.2975  0.4626 -0.1415
  281TMC3    C3 4240   2.412   1.637  12.783 -0.3002  0.6288  0.0670
  281TMC3    C4 4241   2.526   1.479  12.974  0.0702 -0.1784 -0.3270
  281TMC3    C5 4242   2.389   1.503  12.972 -0.4525  0.3860 -0.8506
  281TMC3    C6 4243   2.333   1.591  12.880  0.0282 -0.8865 -0.2290
  281TMC3     C 4244   2.740   1.535  12.905 -0.2080 -0.2596 -0.2555
  281TMC3     O 4245   2.789   1.425  12.932 -0.0040  0.5076  0.1150
  281TMC3     H 4246   2.615   1.661  12.714 -0.8596  0.2215 -1.6031
  281TMC3    H1 4247   2.575   1.417  13.047 -1.0013  0.0256  0.5614
  281TMC3    H2 4248   2.234   1.631  12.899  0.3681 -0.1018 -0.0920
  281TMC3    C7 4249   2.298   1.458  13.075  0.1505 -0.1112 -0.2551
  281TMC3    C8 4250   2.346   1.712  12.676 -0.7164 -0.4269  0.5074
  281TMC3    O1 4251   2.180   1.487  13.059  0.5487  0.0034 -0.0193
  281TMC3    O2 4252   2.233   1.753  12.703  0.1484  0.0061  0.2492
  282MPD2     C 4253   4.307   3.219  14.798 -0.0064 -0.2322  0.1727
  282MPD2    C1 4254   4.298   3.352  14.785 -0.2919 -0.3190  0.1139
  282MPD2    C2 4255   4.361   3.408  14.678 -0.4161 -0.5865  0.0273
  282MPD2    C3 4256   4.414   3.333  14.575 -0.0893  0.0392  0.1392
  282MPD2    C4 4257   4.412   3.194  14.590  0.3628 -0.3910 -0.2298
  282MPD2    C5 4258   4.369   3.139  14.708 -0.1678  0.2437 -0.1786
  282MPD2     H 4259   4.361   3.515  14.660 -0.4267 -0.6397 -0.2851
  282MPD2    H1 4260   4.448   3.124  14.516  2.4643  1.2689 -0.7952
  282MPD2    H2 4261   4.248   3.168  14.873  0.2454  0.3636  0.7760
  282MPD2    H3 4262   4.362   3.032  14.724 -1.3249  0.3384 -0.0987
  282MPD2     N 4263   4.464   3.394  14.451 -0.2528 -0.4358  0.0305
  282MPD2    H5 4264   4.454   3.494  14.438 -0.7928 -0.4845  0.0755
  282MPD2    N1 4265   4.233   3.424  14.885  0.0161 -0.7372  0.0711
  282MPD2    H7 4266   4.202   3.367  14.963  2.4474 -1.2418  0.6589
  283TMC3    C1 4267   4.170   3.607  15.021 -0.2673  0.4129  0.3707
  283TMC3    C2 4268   4.189   3.742  15.051 -0.1054  0.0632  0.7517
  283TMC3    C3 4269   4.164   3.783  15.178 -0.6118 -0.2829  0.5614
  283TMC3    C4 4270   4.121   3.515  15.111 -0.2573  0.5196  1.0080
  283TMC3    C5 4271   4.095   3.559  15.240 -0.6593 -0.5176  0.1570
  283TMC3    C6 4272   4.113   3.697  15.269 -0.4395  0.4149  0.1106
  283TMC3     C 4273   4.221   3.560  14.895  0.3129 -0.2745  0.1401
  283TMC3     O 4274   4.240   3.649  14.815 -0.3493  0.2278 -0.2780
  283TMC3     H 4275   4.216   3.813  14.974 -0.8184 -0.8315 -0.3218
  283TMC3    H1 4276   4.093   3.413  15.084  1.1136 -0.0552  1.7152
  283TMC3    H2 4277   4.074   3.724  15.367 -0.1501 -0.3100  0.4286
  283TMC3    C7 4278   4.056   3.467  15.349  0.3507  1.3042 -0.5483
  283TMC3    C8 4279   4.176   3.917  15.225 -0.0785 -0.0129 -0.0663
  283TMC3    O1 4280   4.001   3.516  15.451  0.3586 -0.2152  0.3900
  283TMC3    O2 4281   4.080   3.957  15.289  0.1132 -0.1794  0.1797
  284MPD2     C 4282   2.787   2.350  11.262  0.0899 -0.5893 -0.1933
  284MPD2    C1 4283   2.905   2.417  11.273  0.8255  0.8342 -0.2390
  284MPD2    C2 4284   2.958   2.437  11.402  0.9775  0.2014  0.0257
  284MPD2    C3 4285   2.897   2.391  11.516 -0.1767 -0.4070 -0.2421
  284MPD2    C4 4286   2.778   2.323  11.502 -0.2345  0.4960 -0.5726
  284MPD2    C5 4287   2.719   2.313  11.378 -0.0552 -0.6258  0.2049
  284MPD2     H 4288   3.058   2.476  11.413  1.1635 -0.6026  1.1732
  284MPD2    H1 4289   2.734   2.266  11.583  1.4509 -0.9016 -0.6483
  284MPD2    H2 4290   2.735   2.336  11.168 -1.7480  0.8418  0.6175
  284MPD2    H3 4291   2.625   2.261  11.360 -0.2666  0.3444 -1.4925
  284MPD2     N 4292   2.978   2.404  11.629 -0.3512  0.5077  0.0390
  284MPD2    H5 4293   3.059   2.465  11.622 -1.2180  1.6340 -0.0705
  284MPD2    N1 4294   2.992   2.438  11.163 -0.2663  0.2633 -0.2402
  284MPD2    H7 4295   3.083   2.473  11.189  0.8038 -2.7568  0.1044
  285TMC3    C1 4296   3.101   2.392  10.977 -0.4230 -0.0792 -0.6112
  285TMC3    C2 4297   3.147   2.269  10.934 -0.0722  1.0084 -0.0113
  285TMC3    C3 4298   3.284   2.252  10.926  0.3720 -0.0169 -1.0519
  285TMC3    C4 4299   3.181   2.494  11.012  0.0958  0.0468 -0.2631
  285TMC3    C5 4300   3.316   2.468  11.011 -0.3044 -0.3280 -0.0664
  285TMC3    C6 4301   3.375   2.349  10.965 -0.2331  0.3600 -0.0712
  285TMC3     C 4302   2.971   2.402  11.033  0.5921  0.2527  0.1035
  285TMC3     O 4303   2.878   2.335  10.986  0.5380  0.1633 -0.1184
  285TMC3     H 4304   3.075   2.191  10.914 -2.4137  2.7502  1.5527
  285TMC3    H1 4305   3.147   2.595  11.035  1.3636  0.8031 -1.6834
  285TMC3    H2 4306   3.478   2.360  10.932 -0.1969  1.6567  0.4562
  285TMC3    C7 4307   3.401   2.574  11.062  0.0812  0.1084  0.2323
  285TMC3    C8 4308   3.341   2.127  10.878  0.2869 -0.0433 -0.5507
  285TMC3    O1 4309   3.354   2.687  11.058  0.5757 -0.0947  0.3698
  285TMC3    O2 4310   3.270   2.077  10.788 -0.0444  0.0065  0.0532
  286MPD2     C 4311   2.677   0.747   0.488 -0.2235 -0.1696 -0.5203
  286MPD2    C1 4312   2.739   0.797   0.606  0.0953 -0.9822  0.0514
  286MPD2    C2 4313   2.858   0.739   0.645  0.0198 -0.6375  0.7437
  286MPD2    C3 4314   2.907   0.631   0.575 -0.0607  0.4574  0.6563
  286MPD2    C4 4315   2.842   0.589   0.457  0.1633 -0.1095 -0.0271
  286MPD2    C5 4316   2.719   0.637   0.421  0.0641  0.1983 -0.0735
  286MPD2     H 4317   2.907   0.771   0.737  0.0511 -1.0944  0.8893
  286MPD2    H1 4318   2.878   0.507   0.395 -2.1900  0.5012 -2.1600
  286MPD2    H2 4319   2.577   0.780   0.461 -0.0482  1.6785  1.1082
  286MPD2    H3 4320   2.649   0.603   0.345 -1.7779  3.5281  0.0868
  286MPD2     N 4321   3.031   0.573   0.608  0.1903 -0.6914 -0.0620
  286MPD2    H5 4322   3.074   0.510   0.541 -2.7095  0.8253 -3.3241
  286MPD2    N1 4323   2.694   0.910   0.681  0.0517  0.3047  0.0987
  286MPD2    H7 4324   2.748   0.922   0.766 -1.4113 -0.0050  1.0689
  287TMC3    C1 4325   3.234   0.533   0.712  0.2664  0.2793 -0.1787
  287TMC3    C2 4326   3.288   0.519   0.585 -0.1743  0.2680  0.1251
  287TMC3    C3 4327   3.412   0.463   0.581  0.2942  0.4763 -0.5930
  287TMC3    C4 4328   3.298   0.502   0.828  0.5460 -0.2495  0.1869
  287TMC3    C5 4329   3.423   0.446   0.807 -0.1165  0.1421 -0.6693
  287TMC3    C6 4330   3.486   0.433   0.686 -0.5300  0.4583  0.6301
  287TMC3     C 4331   3.102   0.591   0.724 -0.0095  0.3509 -0.3580
  287TMC3     O 4332   3.067   0.626   0.837  0.1926  0.0426  0.2873
  287TMC3     H 4333   3.243   0.554   0.493 -0.7633 -0.9931 -0.0777
  287TMC3    H1 4334   3.254   0.501   0.927  0.3912  0.3128  0.1231
  287TMC3    H2 4335   3.575   0.372   0.689 -0.0005  1.1470 -0.8919
  287TMC3    C7 4336   3.509   0.429   0.924  0.1316 -0.6483 -0.1559
  287TMC3    C8 4337   3.460   0.402   0.469 -0.5123 -0.3032 -0.4728
  287TMC3    O1 4338   3.451   0.394   1.027 -0.8081  0.3972 -0.3079
  287TMC3    O2 4339   3.583   0.385   0.463  0.2126  0.8197 -0.0207
  288TMC3    C1 4340   0.639   1.125  14.562 -0.5415  0.2496  0.3790
  288TMC3    C2 4341   0.517   1.188  14.583  0.2396  0.5122 -0.2649
  288TMC3    C3 4342   0.408   1.168  14.507  0.1610  0.2611  0.3144
  288TMC3    C4 4343   0.653   1.043  14.457 -0.3598 -0.6131  0.1642
  288TMC3    C5 4344   0.537   1.011  14.383  0.2920 -0.7864  0.0582
  288TMC3    C6 4345   0.415   1.070  14.412 -0.1297  0.4441  0.2851
  288TMC3     C 4346   0.750   1.137  14.657 -0.0085 -0.0564  0.2291
  288TMC3     O 4347   0.866   1.136  14.605 -0.1638  0.0570  0.0386
  288TMC3     H 4348   0.515   1.262  14.662 -1.0071  1.0708 -0.8153
  288TMC3    H1 4349   0.739   0.976  14.458 -0.8472 -1.2324  1.7181
  288TMC3    H2 4350   0.325   1.037  14.362 -0.3588  0.3230  0.7846
  288TMC3    C7 4351   0.539   0.912  14.282 -0.0704 -0.3641  0.9774
  288TMC3    C8 4352   0.288   1.193  14.579  0.0284 -0.1030 -0.5388
  288TMC3    O1 4353   0.642   0.844  14.276  0.3011 -0.1685  0.4878
  288TMC3    O2 4354   0.273   1.304  14.626  0.3312 -0.0239 -0.5174
  289MPD2     C 4355   0.557   0.434  14.623  0.0374 -0.4145  0.5603
  289MPD2    C1 4356   0.561   0.479  14.490 -0.1863 -0.4345  0.1613
  289MPD2    C2 4357   0.448   0.463  14.409  0.3357  1.0035 -0.0282
  289MPD2    C3 4358   0.331   0.411  14.466 -0.5030  0.1112  0.1201
  289MPD2    C4 4359   0.329   0.365  14.597  0.4290  0.6394 -0.2365
  289MPD2    C5 4360   0.445   0.369  14.666 -0.4202 -0.0070  0.5065
  289MPD2     H 4361   0.457   0.512  14.313 -1.0871 -0.5003 -0.9339
  289MPD2    H1 4362   0.240   0.328  14.646  0.0108  1.8225 -0.1178
  289MPD2    H2 4363   0.645   0.438  14.686  1.0333 -1.5088 -0.7781
  289MPD2    H3 4364   0.440   0.330  14.767 -0.2429 -1.7841 -0.1875
  289MPD2     N 4365   0.206   0.401  14.400 -0.3938 -0.2843  0.0088
  289MPD2    H5 4366   0.126   0.360  14.447  1.7789 -1.8703  2.3353
  289MPD2    N1 4367   0.684   0.513  14.430 -0.9102  0.5598  0.4732
  289MPD2    H7 4368   0.681   0.519  14.329 -2.1327 -1.7749  0.3545
  290TMC3    C1 4369   0.047   0.445  14.227  0.3972 -0.3043 -0.0529
  290TMC3    C2 4370   4.706   0.541  14.157 -0.1518  0.3220 -0.2255
  290TMC3    C3 4371   4.567   0.540  14.152  0.5435  0.6191 -0.2743
  290TMC3    C4 4372   4.698   0.340  14.282 -0.3912 -0.0085  0.1913
  290TMC3    C5 4373   4.558   0.342  14.264 -0.0257  0.2173 -0.3554
  290TMC3    C6 4374   4.493   0.443  14.210  0.4010  0.2541 -0.1203
  290TMC3     C 4375   0.174   0.474  14.285  0.4127 -0.4919 -0.3126
  290TMC3     O 4376   0.246   0.556  14.230  0.5524 -0.5286 -0.8858
  290TMC3     H 4377   0.043   0.622  14.115  0.5349 -0.7356 -1.3352
  290TMC3    H1 4378   0.039   0.261  14.323  0.1377  0.2315 -0.1548
  290TMC3    H2 4379   4.386   0.447  14.189  0.8427 -0.9316 -2.6106
  290TMC3    C7 4380   4.481   0.216  14.273  0.8172 -0.3103  0.4144
  290TMC3    C8 4381   4.504   0.660  14.110 -0.8469  0.7330  0.1415
  290TMC3    O1 4382   4.356   0.221  14.286  0.1946  0.5012 -0.6317
  290TMC3    O2 4383   4.395   0.650  14.056  0.6618  0.0950  0.2536
  291MPD2     C 4384   4.517   0.459   0.676  0.1303 -0.6067 -0.4873
  291MPD2    C1 4385   4.441   0.386   0.589  0.1829  0.2400 -0.6076
  291MPD2    C2 4386   4.453   0.412   0.453 -0.0489  0.1361 -0.2261
  291MPD2    C3 4387   4.550   0.499   0.408 -0.4053 -0.3479 -0.2326
  291MPD2    C4 4388   4.640   0.564   0.494  0.2711  0.1798 -0.1477
  291MPD2    C5 4389   4.617   0.544   0.630 -0.6559 -0.3429 -0.0141
  291MPD2     H 4390   4.379   0.373   0.384 -1.4789  0.5220  1.0976
  291MPD2    H1 4391   0.010   0.613   0.462  0.8281  0.7009  2.2727
  291MPD2    H2 4392   4.504   0.448   0.783 -1.1044  0.2742 -0.5490
  291MPD2    H3 4393   4.696   0.585   0.692 -0.0050 -1.4957 -0.1020
  291MPD2     N 4394   4.563   0.521   0.271  0.3676 -0.0398 -0.8577
  291MPD2    H5 4395   4.621   0.598   0.238  1.2518 -0.3634 -0.0635
  291MPD2    N1 4396   4.345   0.290   0.621  0.2083  0.1170  0.2383
  291MPD2    H7 4397   4.290   0.246   0.548  1.2381 -0.4008 -0.2346
  292TMC3    C1 4398   4.245   0.120   0.729  0.6680  1.2049  1.1065
  292TMC3    C2 4399   4.227   0.047   0.840 -0.1607 -0.0910 -0.4710
  292TMC3    C3 4400   4.171   4.646   0.838  0.3117 -1.0325 -0.1320
  292TMC3    C4 4401   4.203   0.069   0.608 -0.1986  0.3558 -0.0034
  292TMC3    C5 4402   4.149   4.668   0.608  0.7886  0.0176 -0.0902
  292TMC3    C6 4403   4.120   4.594   0.719 -0.5150 -0.2654 -0.1355
  292TMC3     C 4404   4.329   0.240   0.744 -0.2890 -0.2652  0.0773
  292TMC3     O 4405   4.358   0.283   0.855  0.1913  0.1323 -0.3328
  292TMC3     H 4406   4.267   0.081   0.935 -2.0083  0.2333  0.1812
  292TMC3    H1 4407   4.231   0.120   0.517  1.8358 -0.8508 -0.0460
  292TMC3    H2 4408   4.095   4.489   0.716 -0.2197 -0.4258  2.4735
  292TMC3    C7 4409   4.160   4.586   0.487 -0.2353  0.1039 -0.7405
  292TMC3    C8 4410   4.201   4.556   0.951  0.1874 -0.3826  0.1450
  292TMC3    O1 4411   4.172   4.467   0.511 -0.1357  0.0503 -0.0137
  292TMC3    O2 4412   4.294   4.597   1.017 -0.2754 -0.4772  0.1364
  293MPD2     C 4413   1.071   1.487  12.471  0.0795 -0.8256  0.0196
  293MPD2    C1 4414   1.023   1.393  12.559  0.8789 -0.0291  0.5396
  293MPD2    C2 4415   1.066   1.399  12.689 -0.4311 -0.2674  0.1325
  293MPD2    C3 4416   1.167   1.483  12.729 -0.0132 -0.0305  0.4072
  293MPD2    C4 4417   1.209   1.579  12.636 -0.4864 -0.2637  0.2601
  293MPD2    C5 4418   1.155   1.583  12.515 -0.6996 -0.0920 -0.9697
  293MPD2     H 4419   1.025   1.316  12.745 -1.8476  1.2483  1.3311
  293MPD2    H1 4420   1.259   1.671  12.667 -0.9658 -0.5342  1.8600
  293MPD2    H2 4421   1.041   1.482  12.367  0.2014 -1.9231  0.0393
  293MPD2    H3 4422   1.189   1.669  12.459  1.8216  0.1814  0.9927
  293MPD2     N 4423   1.216   1.496  12.860  0.1867 -0.0482  0.6428
  293MPD2    H5 4424   1.278   1.574  12.877  3.7165 -2.3642 -1.4758
  293MPD2    N1 4425   0.927   1.305  12.500 -0.2432 -0.5795  0.2293
  293MPD2    H7 4426   0.900   1.323  12.403  0.4855  1.8851  0.5043
  294TMC3    C1 4427   0.763   1.136  12.454 -0.3186 -0.1305  0.0179
  294TMC3    C2 4428   0.783   1.012  12.402 -0.2521  0.2107  0.0864
  294TMC3    C3 4429   0.736   0.996  12.273  0.8932 -0.6813  0.0146
  294TMC3    C4 4430   0.694   1.234  12.388 -0.2978  0.0433  0.4549
  294TMC3    C5 4431   0.641   1.209  12.266  0.2446 -0.2763  0.1933
  294TMC3    C6 4432   0.670   1.090  12.204  0.3104 -0.0882 -0.4115
  294TMC3     C 4433   0.861   1.198  12.550 -1.0619  0.5944  0.1893
  294TMC3     O 4434   0.884   1.137  12.654  0.0046  0.1312  0.0622
  294TMC3     H 4435   0.847   0.935  12.445 -0.8918 -1.2684 -1.5808
  294TMC3    H1 4436   0.675   1.327  12.440 -2.8737  0.9469 -2.0849
  294TMC3    H2 4437   0.624   1.064  12.109 -0.6186  2.2966 -0.6043
  294TMC3    C7 4438   0.635   1.331  12.185  0.2673  0.1984  0.3439
  294TMC3    C8 4439   0.747   0.867  12.205 -0.5024 -0.0946  0.2303
  294TMC3    O1 4440   0.621   1.440  12.235  0.2229 -0.0808  0.6681
  294TMC3    O2 4441   0.748   0.874  12.081 -0.0254 -0.5571  0.0131
  295MPD2     C 4442   1.711   3.854   1.269 -0.6184  0.1953  0.3801
  295MPD2    C1 4443   1.612   3.946   1.267 -0.1161 -0.2833  0.5342
  295MPD2    C2 4444   1.542   3.964   1.389 -0.0682  0.2073  0.4041
  295MPD2    C3 4445   1.577   3.894   1.500  0.4815 -0.6115  0.0776
  295MPD2    C4 4446   1.676   3.802   1.502 -1.0862 -0.1800 -0.2588
  295MPD2    C5 4447   1.743   3.790   1.384  0.0431 -0.2428  0.1197
  295MPD2     H 4448   1.448   4.018   1.379 -0.4909 -0.2191  2.2465
  295MPD2    H1 4449   1.708   3.742   1.586  0.2477  3.3604  1.7205
  295MPD2    H2 4450   1.778   3.830   1.187 -1.5947 -1.9603  0.2113
  295MPD2    H3 4451   1.824   3.718   1.382  0.2969  0.0485 -0.0862
  295MPD2     N 4452   1.505   3.914   1.619 -0.1200  0.0587  0.0163
  295MPD2    H5 4453   1.537   3.856   1.696  0.6649  1.1755  0.5332
  295MPD2    N1 4454   1.571   4.025   1.154  0.1463  0.0223  0.4267
  295MPD2    H7 4455   1.496   4.092   1.165  0.4768  0.6754 -1.1829
  296TMC3    C1 4456   1.350   4.001   1.771 -0.2789 -0.1969 -0.0637
  296TMC3    C2 4457   1.283   4.115   1.813  0.8530  0.1337  0.2967
  296TMC3    C3 4458   1.221   4.110   1.937 -0.1278 -0.0803  0.3806
  296TMC3    C4 4459   1.358   3.886   1.845 -0.2531  0.1673 -0.3029
  296TMC3    C5 4460   1.290   3.891   1.962 -1.1108 -0.0612  0.5911
  296TMC3    C6 4461   1.218   3.996   2.006  0.0548 -0.3237 -0.2267
  296TMC3     C 4462   1.416   4.011   1.639  0.5588  0.0327  0.4181
  296TMC3     O 4463   1.379   4.110   1.578  0.0535  0.3085  0.5672
  296TMC3     H 4464   1.289   4.209   1.758  0.7711 -1.8997 -3.1779
  296TMC3    H1 4465   1.412   3.799   1.809  0.2137  0.7121 -0.9123
  296TMC3    H2 4466   1.147   3.979   2.087 -0.1539  0.0672 -0.3276
  296TMC3    C7 4467   1.298   3.771   2.055 -0.0193  0.3595  0.5010
  296TMC3    C8 4468   1.133   4.215   1.969 -0.2482  0.2604 -0.2144
  296TMC3    O1 4469   1.322   3.664   2.002  0.2065  0.6433 -0.5847
  296TMC3    O2 4470   1.048   4.181   2.050 -0.7374  0.3110  0.3748
  297MPD2     C 4471   3.634   2.068  16.229  0.3895 -0.1155 -0.3321
  297MPD2    C1 4472   3.649   2.192  16.167 -0.7659  0.0629  0.3557
  297MPD2    C2 4473   3.781   2.232  16.145  0.6989  0.0130  0.7621
  297MPD2    C3 4474   3.885   2.152  16.176 -0.1507  0.1219  0.2399
  297MPD2    C4 4475   3.864   2.025  16.217 -0.1177 -0.8254  0.3249
  297MPD2    C5 4476   3.739   1.983  16.249  0.0092 -0.1651  0.3034
  297MPD2     H 4477   3.796   2.329  16.099  0.3745 -0.2673  0.0538
  297MPD2    H1 4478   3.949   1.958  16.231  0.5697  0.0307  0.2478
  297MPD2    H2 4479   3.533   2.028  16.237  0.4575 -0.3060 -0.4170
  297MPD2    H3 4480   3.728   1.879  16.277  1.2444 -0.6309 -0.8828
  297MPD2     N 4481   4.016   2.190  16.134  0.1209  0.2469  0.5170
  297MPD2    H5 4482   4.026   2.290  16.119 -2.9070  0.6611  1.3169
  297MPD2    N1 4483   3.544   2.286  16.133 -0.4029  0.3921 -0.3097
  297MPD2    H7 4484   3.575   2.363  16.074  0.0239 -0.8711 -1.7365
  298TMC3    C1 4485   3.323   2.338  16.053 -0.1121 -0.3145 -0.3648
  298TMC3    C2 4486   3.363   2.385  15.931 -0.9126 -0.5091 -0.0743
  298TMC3    C3 4487   3.260   2.436  15.851 -0.9692 -0.3252 -0.2911
  298TMC3    C4 4488   3.195   2.355  16.094  0.2404 -0.8068 -0.0118
  298TMC3    C5 4489   3.103   2.409  16.012  0.8128 -0.7649  0.1439
  298TMC3    C6 4490   3.134   2.449  15.880 -0.1903  0.2721 -0.1834
  298TMC3     C 4491   3.411   2.255  16.144 -0.1296 -0.1229 -0.5743
  298TMC3     O 4492   3.349   2.178  16.216  0.0973  0.5265 -0.7008
  298TMC3     H 4493   3.463   2.399  15.891 -1.3265 -0.0223 -0.9566
  298TMC3    H1 4494   3.165   2.301  16.183  0.6796 -2.1608 -0.6779
  298TMC3    H2 4495   3.069   2.507  15.815 -2.3981 -1.7403  0.2188
  298TMC3    C7 4496   2.983   2.453  16.079  0.0949  0.0757  0.3105
  298TMC3    C8 4497   3.294   2.487  15.714  0.0795 -0.4307  0.5513
  298TMC3    O1 4498   2.983   2.475  16.201 -0.4578 -0.3695  0.0409
  298TMC3    O2 4499   3.410   2.529  15.693 -0.5192  0.6096 -0.1690
  299MPD2     C 4500   4.632   0.875  11.133  0.1604  0.6654  0.1299
  299MPD2    C1 4501   4.596   0.966  11.041 -0.0752  0.3179  0.0815
  299MPD2    C2 4502   4.517   0.923  10.934  0.8163 -0.1189  0.1566
  299MPD2    C3 4503   4.473   0.794  10.929  0.2715 -0.5869  0.4023
  299MPD2    C4 4504   4.514   0.694  11.023  0.5283 -1.1377 -0.1319
  299MPD2    C5 4505   4.602   0.742  11.123  0.6216 -0.2460 -0.0085
  299MPD2     H 4506   4.475   1.003  10.873 -1.2870  0.2626  2.0932
  299MPD2    H1 4507   4.504   0.587  11.009 -0.5134 -1.1303  0.5890
  299MPD2    H2 4508   4.692   0.910  11.217  2.1558 -1.8917 -0.2402
  299MPD2    H3 4509   4.658   0.671  11.183  0.9080 -0.7963 -0.9159
  299MPD2     N 4510   4.401   0.765  10.819 -0.7447  0.2439  0.1927
  299MPD2    H5 4511   4.391   0.843  10.755  0.6377 -0.1140 -0.4591
  299MPD2    N1 4512   4.633   1.100  11.054 -0.4824 -0.1649  1.2139
  299MPD2    H7 4513   4.692   1.120  11.134 -1.4559 -0.2464  1.9610
  300TMC3    C1 4514   4.261   0.675  10.664  0.2016 -0.1668  0.4039
  300TMC3    C2 4515   4.296   0.791  10.595 -0.6551  0.2777  0.0626
  300TMC3    C3 4516   4.195   0.855  10.539 -0.7179 -0.4161  0.0649
  300TMC3    C4 4517   4.138   0.610  10.659  0.3479  0.1565 -0.3099
  300TMC3    C5 4518   4.039   0.688  10.604 -0.4136  0.4518  0.3344
  300TMC3    C6 4519   4.068   0.813  10.547 -0.3805  0.5098  0.0824
  300TMC3     C 4520   4.344   0.650  10.780  0.4213 -0.6442  0.4192
  300TMC3     O 4521   4.318   0.557  10.854 -0.6744  0.1220  0.9248
  300TMC3     H 4522   4.395   0.835  10.583 -0.1033 -0.7777  0.7241
  300TMC3    H1 4523   4.113   0.518  10.709  0.7182  0.6561  0.7983
  300TMC3    H2 4524   3.992   0.866  10.491  0.5470  1.0655 -0.6471
  300TMC3    C7 4525   3.906   0.648  10.632 -0.3059 -0.3155  0.4166
  300TMC3    C8 4526   4.216   0.994  10.505 -0.1137 -0.6340 -0.1560
  300TMC3    O1 4527   3.884   0.532  10.650 -0.1460 -0.7787  0.4646
  300TMC3    O2 4528   4.321   1.035  10.551  0.2695 -0.0782 -0.2969
  301MPD2     C 4529   1.796   3.120   1.680 -0.0628  0.3030 -0.0214
  301MPD2    C1 4530   1.675   3.065   1.633 -0.1446  0.7142  0.1844
  301MPD2    C2 4531   1.656   2.928   1.631 -0.3550  0.2256 -0.1190
  301MPD2    C3 4532   1.767   2.849   1.648 -0.2472  0.9197 -0.4986
  301MPD2    C4 4533   1.892   2.895   1.683 -0.4799 -0.3736 -0.9416
  301MPD2    C5 4534   1.900   3.031   1.695  0.9858  0.7392 -0.3517
  301MPD2     H 4535   1.555   2.900   1.604 -0.4125  1.7810 -1.4916
  301MPD2    H1 4536   1.971   2.824   1.706  2.8771  2.7897 -2.6857
  301MPD2    H2 4537   1.798   3.226   1.702  1.1442  0.2923 -0.1109
  301MPD2    H3 4538   1.994   3.071   1.729  0.6841  0.5424  0.7042
  301MPD2     N 4539   1.755   2.710   1.658  0.0237 -0.2326  0.0820
  301MPD2    H5 4540   1.843   2.660   1.661  0.8661  1.1545 -1.1079
  301MPD2    N1 4541   1.561   3.148   1.615  0.3846  0.3969  0.2956
  301MPD2    H7 4542   1.469   3.111   1.590  1.7967 -1.5542 -1.9573
  302TMC3    C1 4543   1.657   2.498   1.601  0.0825 -0.2830  0.3491
  302TMC3    C2 4544   1.784   2.460   1.558  0.4699 -0.4087 -0.1107
  302TMC3    C3 4545   1.794   2.325   1.515 -0.0712 -0.2635 -0.4129
  302TMC3    C4 4546   1.547   2.415   1.594 -0.3095 -0.3744  0.4848
  302TMC3    C5 4547   1.562   2.288   1.548  0.7278 -0.9532  0.1728
  302TMC3    C6 4548   1.687   2.243   1.512  0.3223 -0.3357  0.2995
  302TMC3     C 4549   1.636   2.639   1.631  0.6090 -0.5306  0.0899
  302TMC3     O 4550   1.525   2.685   1.648  0.1263 -0.1137 -0.3398
  302TMC3     H 4551   1.868   2.529   1.556  1.3306 -1.3893  2.1631
  302TMC3    H1 4552   1.454   2.440   1.645  1.0513  0.3426  2.6272
  302TMC3    H2 4553   1.684   2.143   1.472  1.2439  0.6658 -2.2756
  302TMC3    C7 4554   1.449   2.213   1.500  0.2706 -0.1179  0.7887
  302TMC3    C8 4555   1.924   2.263   1.483 -0.2301 -0.3834 -0.1653
  302TMC3    O1 4556   1.463   2.089   1.480 -0.3763 -0.0279 -0.1315
  302TMC3    O2 4557   1.925   2.157   1.421 -0.0459 -0.4135 -0.2667
  303MPD2     C 4558   1.502   0.576  10.178 -0.1376 -0.3288 -0.3427
  303MPD2    C1 4559   1.437   0.472  10.114 -0.4269 -0.2714 -0.6951
  303MPD2    C2 4560   1.446   0.460   9.981  0.3214 -0.0638  0.4042
  303MPD2    C3 4561   1.523   0.537   9.898 -0.3270 -0.1320  0.2340
  303MPD2    C4 4562   1.590   0.635   9.960  0.1778  0.4755 -0.6126
  303MPD2    C5 4563   1.575   0.659  10.093  0.2840  1.0895 -0.1782
  303MPD2     H 4564   1.390   0.380   9.933  0.4829  0.2229 -0.2723
  303MPD2    H1 4565   1.652   0.706   9.905  2.9161 -0.4106  1.3507
  303MPD2    H2 4566   1.506   0.596  10.284 -1.1819 -1.2071 -0.1407
  303MPD2    H3 4567   1.629   0.743  10.135  2.0435  1.0042 -2.2755
  303MPD2     N 4568   1.530   0.534   9.755 -0.2199 -0.5643 -0.1569
  303MPD2    H5 4569   1.600   0.586   9.702 -0.3642 -1.0925 -0.8696
  303MPD2    N1 4570   1.358   0.388  10.198 -0.1026 -0.2315  0.4591
  303MPD2    H7 4571   1.357   0.411  10.297  2.0716  1.9880 -0.0284
  304TMC3    C1 4572   1.191   0.240  10.276  0.2021 -0.1778 -0.6587
  304TMC3    C2 4573   1.057   0.226  10.245  0.1370 -0.0380 -0.0705
  304TMC3    C3 4574   0.980   0.126  10.303 -0.6109 -0.1983 -0.0080
  304TMC3    C4 4575   1.244   0.164  10.381 -0.2193  0.5096 -0.1677
  304TMC3    C5 4576   1.160   0.075  10.442  0.5081  0.4373  0.3424
  304TMC3    C6 4577   1.030   0.056  10.411 -0.0887  0.8328 -0.0283
  304TMC3     C 4578   1.276   0.282  10.169 -0.0575  0.2418  0.0928
  304TMC3     O 4579   1.258   0.225  10.060  0.2039 -0.3414 -0.4334
  304TMC3     H 4580   1.023   0.293  10.167  0.5403  1.3052  0.9081
  304TMC3    H1 4581   1.352   0.166  10.394 -0.3025 -0.3046  0.7179
  304TMC3    H2 4582   0.979   4.689  10.448 -0.2673  0.8691 -0.1853
  304TMC3    C7 4583   1.233   4.671  10.459  0.0484 -0.2500 -0.4127
  304TMC3    C8 4584   0.903   0.043  10.215  0.2792 -0.3638 -0.5370
  304TMC3    O1 4585   1.343   4.678  10.518  0.0539 -0.3113 -0.5313
  304TMC3    O2 4586   0.891   4.647  10.249 -0.2308 -0.3457  0.3886
  305MPD2     C 4587   0.566   3.878  13.892 -0.1504  0.2493  0.7950
  305MPD2    C1 4588   0.515   3.753  13.915  0.4908  0.2354 -0.4247
  305MPD2    C2 4589   0.479   3.687  13.801 -0.3497  0.1966 -0.5181
  305MPD2    C3 4590   0.489   3.742  13.675  0.0961  1.1221  0.3737
  305MPD2    C4 4591   0.552   3.856  13.655  1.0053 -0.0708  0.6006
  305MPD2    C5 4592   0.590   3.924  13.764 -0.3895  0.2546 -0.0011
  305MPD2     H 4593   0.430   3.593  13.826 -2.1612  1.2047 -0.2565
  305MPD2    H1 4594   0.579   3.893  13.556 -2.4899  0.1738 -0.2616
  305MPD2    H2 4595   0.591   3.939  13.978 -0.0946  2.6614 -0.9270
  305MPD2    H3 4596   0.643   4.017  13.756  1.2281 -0.6579  0.1358
  305MPD2     N 4597   0.438   3.661  13.562  0.1794 -0.1667  0.1055
  305MPD2    H5 4598   0.432   3.706  13.471  0.1089 -0.3511  0.0202
  305MPD2    N1 4599   0.489   3.712  14.050  0.0658  0.7737  0.5747
  305MPD2    H7 4600   0.526   3.778  14.117 -2.5819  1.3115  1.5216
  306TMC3    C1 4601   0.493   3.585  14.233  0.0431  0.1839  0.5425
  306TMC3    C2 4602   0.574   3.485  14.276  0.0094 -0.0465  0.1541
  306TMC3    C3 4603   0.595   3.485  14.419 -0.1798 -0.1198  0.9159
  306TMC3    C4 4604   0.421   3.673  14.307 -0.2494  1.0919  0.1604
  306TMC3    C5 4605   0.451   3.678  14.436  0.0580 -0.2145 -0.6048
  306TMC3    C6 4606   0.538   3.589  14.491 -0.6542 -0.7658  0.3497
  306TMC3     C 4607   0.471   3.585  14.093 -0.5193  0.4976 -0.9974
  306TMC3     O 4608   0.460   3.479  14.031 -0.1152  0.7571  0.3582
  306TMC3     H 4609   0.626   3.417  14.210  2.1899  1.1435  0.6471
  306TMC3    H1 4610   0.355   3.742  14.256 -0.8229 -0.6698 -1.4954
  306TMC3    H2 4611   0.534   3.574  14.598 -0.7690 -3.1704  0.0127
  306TMC3    C7 4612   0.372   3.764  14.519 -0.4425  0.0728 -0.1231
  306TMC3    C8 4613   0.695   3.400  14.478  1.0138  0.0834  0.1467
  306TMC3    O1 4614   0.263   3.795  14.476 -0.6321  0.4594 -0.4091
  306TMC3    O2 4615   0.712   3.289  14.424 -0.0927  0.1598  0.1872
  307MPD2     C 4616   2.987   2.175   0.173  0.0804 -0.7102 -0.1587
  307MPD2    C1 4617   2.889   2.094   0.131 -0.1821 -0.0951 -0.5081
  307MPD2    C2 4618   2.776   2.155   0.071  0.1055  0.0538 -0.4518
  307MPD2    C3 4619   2.756   2.294   0.061  1.5207 -0.2375  0.3050
  307MPD2    C4 4620   2.860   2.370   0.111 -0.0541  0.6726 -0.2594
  307MPD2    C5 4621   2.977   2.310   0.152  0.4325  0.3219 -0.2648
  307MPD2     H 4622   2.701   2.090   0.028  0.4615  0.1863 -1.2661
  307MPD2    H1 4623   2.870   2.476   0.089  2.8644  0.4345  0.0223
  307MPD2    H2 4624   3.077   2.134   0.217  1.2441 -1.1328 -2.9310
  307MPD2    H3 4625   3.069   2.365   0.167 -0.9349  2.2453  1.1300
  307MPD2     N 4626   2.643   2.342   0.004 -0.0551  0.0047 -0.4909
  307MPD2    H5 4627   2.596   2.272  17.635  0.9141  0.4635 -1.8838
  307MPD2    N1 4628   2.895   1.954   0.133 -0.0471  0.0049  0.1815
  307MPD2    H7 4629   2.814   1.913   0.088 -0.4115 -1.9258  2.5880
  308TMC3    C1 4630   2.237   2.488   0.011 -0.3402 -0.7865 -0.6599
  308TMC3    C2 4631   2.205   2.431  17.575  0.5124 -0.1341  1.0169
  308TMC3    C3 4632   2.311   2.405  17.492 -0.3659 -0.2966  0.9433
  308TMC3    C4 4633   2.361   2.508   0.049  0.1296  0.4733  0.6209
  308TMC3    C5 4634   2.469   2.488  17.654 -0.2208  0.1487 -0.1871
  308TMC3    C6 4635   2.442   2.425  17.533 -0.0540  0.3783 -0.3371
  308TMC3     C 4636   2.135   2.516   0.116  0.4204 -0.6163 -0.1415
  308TMC3     O 4637   2.171   2.570   0.220  0.0721  0.2492  0.0418
  308TMC3     H 4638   2.102   2.409  17.552  0.3784  1.5044  0.0685
  308TMC3    H1 4639   2.378   2.554   0.146 -0.2913 -0.3061  1.0624
  308TMC3    H2 4640   2.523   2.396  17.468 -0.2012 -1.2740  0.2205
  308TMC3    C7 4641   2.600   2.475   0.024  0.0410  0.7348 -0.6548
  308TMC3    C8 4642   2.295   2.332  17.369  0.6913 -0.4247 -0.2501
  308TMC3    O1 4643   2.637   2.555   0.110 -0.1926  0.3335 -0.1340
  308TMC3    O2 4644   2.368   2.362  17.278  1.2143 -0.4955 -0.2340
  309MPD2     C 4645   1.634   1.703  16.725  0.0247 -0.6111 -0.2452
  309MPD2    C1 4646   1.643   1.825  16.668  0.0277 -0.4353 -0.3265
  309MPD2    C2 4647   1.551   1.929  16.699 -0.7940  0.3462 -0.6890
  309MPD2    C3 4648   1.438   1.907  16.776  0.2403 -0.6982  0.2863
  309MPD2    C4 4649   1.425   1.783  16.837 -0.1159 -0.1400  0.3812
  309MPD2    C5 4650   1.522   1.691  16.807 -0.0688  0.2614  0.3243
  309MPD2     H 4651   1.566   2.028  16.658  1.2558  0.6116  0.6944
  309MPD2    H1 4652   1.345   1.756  16.904 -0.0837  2.9447  1.6674
  309MPD2    H2 4653   1.696   1.615  16.712 -0.3791 -1.0102  0.5730
  309MPD2    H3 4654   1.501   1.600  16.863 -0.8647  0.4293  0.2966
  309MPD2     N 4655   1.328   1.992  16.800 -0.7596  0.5725 -0.7124
  309MPD2    H5 4656   1.249   1.959  16.855 -1.1263 -1.4881 -2.4596
  309MPD2    N1 4657   1.742   1.851  16.567 -0.0426 -0.2551 -0.2944
  309MPD2    H7 4658   1.749   1.940  16.519  1.0770  0.3217  0.9375
  310TMC3    C1 4659   1.919   1.812  16.419  0.3269 -0.3358  0.4041
  310TMC3    C2 4660   1.842   1.867  16.322  0.1420  0.0209 -0.3687
  310TMC3    C3 4661   1.903   1.904  16.205  1.0709  0.5528  0.9370
  310TMC3    C4 4662   2.056   1.781  16.404  0.5567 -0.2211  0.3976
  310TMC3    C5 4663   2.110   1.824  16.290 -0.0237  0.7474  0.0230
  310TMC3    C6 4664   2.038   1.883  16.187  0.1666 -0.4071 -0.7227
  310TMC3     C 4665   1.847   1.763  16.533 -0.3777  0.1478 -0.8514
  310TMC3     O 4666   1.885   1.657  16.589 -0.0077  0.1066 -0.0516
  310TMC3     H 4667   1.734   1.871  16.321  0.1429  0.0351 -0.4259
  310TMC3    H1 4668   2.103   1.726  16.484  0.4477 -1.3450 -0.3014
  310TMC3    H2 4669   2.081   1.903  16.089 -2.4753  0.3357 -1.7196
  310TMC3    C7 4670   2.239   1.765  16.257  0.5382  0.2200  0.2722
  310TMC3    C8 4671   1.836   1.952  16.083 -0.8227  0.2179 -0.1663
  310TMC3    O1 4672   2.276   1.671  16.325 -0.5507  0.0462  0.3271
  310TMC3    O2 4673   1.896   1.941  15.978  0.2052 -0.4214 -0.0703
  311MPD2     C 4674   3.793   3.036  12.416  0.1699 -0.3672  0.2970
  311MPD2    C1 4675   3.822   3.150  12.491 -0.1267 -0.2498 -0.2759
  311MPD2    C2 4676   3.723   3.211  12.562 -0.9693 -0.3391 -0.0813
  311MPD2    C3 4677   3.595   3.172  12.558  0.7004  0.7917 -0.5869
  311MPD2    C4 4678   3.562   3.060  12.483  0.0375  0.2518  0.8607
  311MPD2    C5 4679   3.661   2.992  12.411 -0.4074  0.5995  0.4161
  311MPD2     H 4680   3.750   3.298  12.621  0.4548 -0.9796  0.2155
  311MPD2    H1 4681   3.464   3.019  12.462  1.5394 -2.1170 -1.4463
  311MPD2    H2 4682   3.870   2.976  12.370 -0.7713 -2.2117  1.1454
  311MPD2    H3 4683   3.641   2.904  12.351  3.2643 -0.9252  1.4562
  311MPD2     N 4684   3.505   3.246  12.639 -0.3377 -0.4047  0.1246
  311MPD2    H5 4685   3.545   3.308  12.708  0.5855 -1.9929  1.0163
  311MPD2    N1 4686   3.951   3.206  12.507 -0.2582 -0.4461 -0.0479
  311MPD2    H7 4687   3.946   3.286  12.569 -0.0562  0.8857 -1.7955
  312TMC3    C1 4688   3.306   3.302  12.764  0.1608  0.3329 -0.9843
  312TMC3    C2 4689   3.185   3.264  12.801 -0.2786 -0.6909  0.3772
  312TMC3    C3 4690   3.106   3.344  12.877 -0.3435 -0.1227 -0.5579
  312TMC3    C4 4691   3.353   3.426  12.799 -0.0208  0.6496  0.1787
  312TMC3    C5 4692   3.265   3.517  12.863  0.2100  0.3748 -0.4670
  312TMC3    C6 4693   3.144   3.476  12.902 -0.5190  0.5597 -0.0755
  312TMC3     C 4694   3.370   3.223  12.656  0.1337 -0.0264 -0.0101
  312TMC3     O 4695   3.302   3.132  12.609 -0.0579  0.0322  0.5303
  312TMC3     H 4696   3.148   3.165  12.779 -1.5665 -0.6003  2.1672
  312TMC3    H1 4697   3.456   3.452  12.774  0.6523 -0.6412  1.5725
  312TMC3    H2 4698   3.090   3.541  12.970 -1.7500 -0.9617  0.4151
  312TMC3    C7 4699   3.329   3.609  12.957 -0.0392 -0.6349  0.0258
  312TMC3    C8 4700   2.964   3.307  12.873  0.4897  0.5424  0.1348
  312TMC3    O1 4701   3.330   3.733  12.956  0.2258 -0.3971  0.1639
  312TMC3    O2 4702   2.927   3.194  12.846 -1.2002 -0.3780  0.3284
  313MPD2     C 4703   3.770   1.534  10.575  0.1241 -0.1581 -0.3749
  313MPD2    C1 4704   3.674   1.588  10.492  0.4091 -0.2268 -0.2444
  313MPD2    C2 4705   3.612   1.501  10.403  0.0351  0.2191  0.2677
  313MPD2    C3 4706   3.643   1.363  10.395 -0.3402  0.6309  0.8736
  313MPD2    C4 4707   3.735   1.316  10.484  0.4588 -0.4882 -0.1178
  313MPD2    C5 4708   3.799   1.400  10.576 -1.0401  0.7888  0.5551
  313MPD2     H 4709   3.546   1.535  10.324  0.3775 -1.5748 -0.7916
  313MPD2    H1 4710   3.757   1.210  10.492  0.4186 -0.5805 -1.2401
  313MPD2    H2 4711   3.815   1.599  10.649 -0.4264  0.2189 -0.3678
  313MPD2    H3 4712   3.874   1.365  10.647 -0.7456  0.6771  0.1866
  313MPD2     N 4713   3.583   1.288  10.296  0.0645  0.1851  0.5279
  313MPD2    H5 4714   3.530   1.343  10.228 -0.5425  0.1480  0.9703
  313MPD2    N1 4715   3.640   1.726  10.517  0.4175 -0.1231  0.9060
  313MPD2    H7 4716   3.693   1.773  10.589  1.2300  0.1377  0.1419
  314TMC3    C1 4717   3.522   1.932  10.487  0.5965  0.5671 -0.6217
  314TMC3    C2 4718   3.593   1.986  10.587  0.0153  0.1618  0.3439
  314TMC3    C3 4719   3.575   2.120  10.607  0.2858 -0.8504  0.4805
  314TMC3    C4 4720   3.441   1.999  10.403 -0.9341 -0.2309  0.2457
  314TMC3    C5 4721   3.430   2.134  10.423  0.2544  0.1035 -0.1835
  314TMC3    C6 4722   3.484   2.195  10.533 -0.1777 -0.0863  0.0773
  314TMC3     C 4723   3.540   1.792  10.450 -0.0969 -0.1326 -0.3086
  314TMC3     O 4724   3.466   1.755  10.362  0.7481  0.0585 -0.8180
  314TMC3     H 4725   3.659   1.933  10.654  0.9758  0.5647 -0.2764
  314TMC3    H1 4726   3.409   1.953  10.310 -0.4074  1.0830 -0.5796
  314TMC3    H2 4727   3.488   2.302  10.549  1.6281  0.2742 -2.9279
  314TMC3    C7 4728   3.419   2.217  10.310  0.1361 -0.4144  0.7710
  314TMC3    C8 4729   3.642   2.190  10.721 -0.0410 -0.5974 -0.0993
  314TMC3    O1 4730   3.402   2.159  10.205 -0.1883  0.6165  0.0355
  314TMC3    O2 4731   3.593   2.304  10.740 -0.0156  0.7494 -0.1821
  315MPD2     C 4732   2.892   1.820  17.445 -0.0973  0.7191 -0.4626
  315MPD2    C1 4733   3.021   1.855  17.489 -0.7840  0.1444  0.5877
  315MPD2    C2 4734   3.057   1.989  17.481 -0.7089 -0.3709 -0.4450
  315MPD2    C3 4735   2.965   2.093  17.444 -0.1863  0.5324 -0.0551
  315MPD2    C4 4736   2.843   2.052  17.397 -0.3242 -0.5375  0.4207
  315MPD2    C5 4737   2.812   1.918  17.394 -0.4657  0.1951 -0.1103
  315MPD2     H 4738   3.151   2.009  17.531 -1.3583 -0.6435  0.8994
  315MPD2    H1 4739   2.770   2.123  17.360 -1.2815 -2.0669 -0.6267
  315MPD2    H2 4740   2.847   1.721  17.450  0.8367  0.3011 -0.3989
  315MPD2    H3 4741   2.711   1.886  17.373  0.5322 -3.4414  0.7153
  315MPD2     N 4742   3.013   2.229  17.451  0.4454  0.1502  0.4113
  315MPD2    H5 4743   3.096   2.251  17.505  0.8998  0.9917 -0.6194
  315MPD2    N1 4744   3.113   1.764  17.548  0.2901  0.1866  1.0162
  315MPD2    H7 4745   3.200   1.797  17.588 -0.2088 -0.0235  2.2556
  316TMC3    C1 4746   3.017   2.457  17.401 -0.6368 -0.0460  0.8768
  316TMC3    C2 4747   3.074   2.498  17.521  0.0049  0.5014  0.9290
  316TMC3    C3 4748   3.126   2.624  17.534 -0.5336  0.4868 -0.3151
  316TMC3    C4 4749   3.011   2.540  17.292 -0.0148  0.5563 -0.2970
  316TMC3    C5 4750   3.069   2.668  17.309  0.6753  0.1896 -0.6731
  316TMC3    C6 4751   3.129   2.703  17.427 -0.6433 -0.4003  0.2049
  316TMC3     C 4752   2.950   2.330  17.383 -0.6645 -1.0197  0.1427
  316TMC3     O 4753   2.852   2.331  17.307  0.3910 -0.3599  0.3535
  316TMC3     H 4754   3.072   2.430  17.606  2.2353  2.1275  2.2658
  316TMC3    H1 4755   2.968   2.509  17.198 -0.2795 -0.1648  0.0568
  316TMC3    H2 4756   3.183   2.797  17.434 -2.6311  0.6376  1.5344
  316TMC3    C7 4757   3.109   2.733  17.190  0.3365 -0.2315 -0.8423
  316TMC3    C8 4758   3.112   2.687  17.664  0.8536  0.5051 -0.5633
  316TMC3    O1 4759   3.223   2.779  17.201  0.1544  0.2168  0.0494
  316TMC3    O2 4760   3.033   2.776  17.659 -0.9674 -0.2251 -0.0060
  317MPD2     C 4761   0.088   4.580  11.972  0.3813  0.4424  0.5805
  317MPD2    C1 4762   0.219   4.591  11.923 -0.1171  0.2208  0.1738
  317MPD2    C2 4763   0.323   4.600  12.017 -0.5288 -0.0630 -0.3902
  317MPD2    C3 4764   0.300   4.594  12.151 -0.4161 -0.3711  0.4922
  317MPD2    C4 4765   0.170   4.573  12.199  0.5366 -0.1589  0.3208
  317MPD2    C5 4766   0.070   4.570  12.104 -0.0991  0.8324  0.0162
  317MPD2     H 4767   0.427   4.603  11.987  0.0733 -1.3658  1.5917
  317MPD2    H1 4768   0.155   4.564  12.306  0.7820  0.2815  0.3930
  317MPD2    H2 4769   0.005   4.555  11.907  2.1411 -3.0172 -0.3618
  317MPD2    H3 4770   4.688   4.559  12.137  0.5190 -0.2979  1.5428
  317MPD2     N 4771   0.410   4.580  12.240 -0.5538  1.0100 -0.7025
  317MPD2    H5 4772   0.379   4.560  12.335  2.2681 -0.6599 -0.1321
  317MPD2    N1 4773   0.253   4.577  11.784  0.3746 -0.4846  0.2708
  317MPD2    H7 4774   0.351   4.591  11.765  0.4742  0.2617  1.2788
  318TMC3    C1 4775   0.612   4.588  12.330  0.0187  0.4190 -0.5917
  318TMC3    C2 4776   0.589   4.478  12.403  0.4545  0.1523 -0.0801
  318TMC3    C3 4777   0.681   4.449  12.499  1.3857  0.2940 -0.2930
  318TMC3    C4 4778   0.718   4.670  12.360  0.1733  0.0496 -0.1006
  318TMC3    C5 4779   0.814   4.631  12.447  0.7864 -0.2849  0.2198
  318TMC3    C6 4780   0.799   4.517  12.515  0.5439 -0.6437 -0.2716
  318TMC3     C 4781   0.540   4.622  12.215 -0.3886 -0.5590 -1.1446
  318TMC3     O 4782   0.604   4.662  12.119  0.1126  0.1063  0.0377
  318TMC3     H 4783   0.508   4.410  12.376  1.6836 -1.3717  0.0656
  318TMC3    H1 4784   0.729   0.039  12.301 -0.6723  1.3979  1.7940
  318TMC3    H2 4785   0.875   4.482  12.584  0.1224 -2.6353 -0.8140
  318TMC3    C7 4786   0.946   4.683  12.434  0.7324 -0.6265 -0.2645
  318TMC3    C8 4787   0.644   4.360  12.609  1.3413 -0.3643 -0.0278
  318TMC3    O1 4788   0.946   0.067  12.369 -0.1922  1.1797 -0.0004
  318TMC3    O2 4789   0.738   4.319  12.669 -0.4752  0.2898  0.1805
  319MPD2     C 4790   1.414   1.318  16.964 -0.0442  0.3139 -0.3779
  319MPD2    C1 4791   1.300   1.313  17.048  0.6414 -0.9502 -0.0669
  319MPD2    C2 4792   1.185   1.368  16.994  0.4113  0.0340  0.1961
  319MPD2    C3 4793   1.169   1.416  16.864 -0.2360  0.3360 -0.1305
  319MPD2    C4 4794   1.282   1.423  16.786 -0.4863  0.0394  0.6807
  319MPD2    C5 4795   1.399   1.371  16.838 -0.1131 -0.1578 -0.2919
  319MPD2     H 4796   1.096   1.377  17.055 -1.0628 -0.5133 -1.8739
  319MPD2    H1 4797   1.279   1.466  16.687 -2.6124 -0.0627  0.7126
  319MPD2    H2 4798   1.515   1.296  16.996  0.8917  2.9714 -1.5469
  319MPD2    H3 4799   1.486   1.373  16.772 -1.8373  0.7644 -2.5274
  319MPD2     N 4800   1.052   1.464  16.805 -0.1694  0.5901 -0.0996
  319MPD2    H5 4801   1.060   1.476  16.705  1.9906 -0.5162 -0.0664
  319MPD2    N1 4802   1.286   1.249  17.175  0.3021  0.1273 -0.3047
  319MPD2    H7 4803   1.204   1.272  17.230  0.2971 -2.0995  0.6336
  320TMC3    C1 4804   0.820   1.472  16.764 -0.5046 -0.4775 -0.0764
  320TMC3    C2 4805   0.832   1.563  16.664  0.0269 -0.1766  0.3915
  320TMC3    C3 4806   0.717   1.585  16.601 -0.7797 -0.0034  0.6209
  320TMC3    C4 4807   0.705   1.403  16.790 -0.5742  0.4902  0.1092
  320TMC3    C5 4808   0.595   1.428  16.710 -0.1959  0.6088 -0.1398
  320TMC3    C6 4809   0.595   1.530  16.627  0.7719 -0.6112  0.1726
  320TMC3     C 4810   0.922   1.453  16.859  0.1834  0.2587 -0.3658
  320TMC3     O 4811   0.883   1.409  16.965 -0.2868 -1.0849  0.6109
  320TMC3     H 4812   0.925   1.615  16.643 -1.0604  1.9011  0.7289
  320TMC3    H1 4813   0.717   1.312  16.847 -0.7321  0.2248 -0.2845
  320TMC3    H2 4814   0.517   1.546  16.553  0.8442 -1.3568 -0.0621
  320TMC3    C7 4815   0.528   1.313  16.660  0.0672  0.0021  0.7395
  320TMC3    C8 4816   0.719   1.638  16.466  0.0335 -0.2942  0.1217
  320TMC3    O1 4817   0.585   1.204  16.670  0.2000  0.2141 -0.1453
  320TMC3    O2 4818   0.616   1.695  16.424 -0.0966 -0.1361  0.0313
  321TMC3    C1 4819   1.325   1.122  17.366 -0.7478  0.3536 -0.0796
  321TMC3    C2 4820   1.396   1.033  17.447 -0.3130 -0.1894  0.6626
  321TMC3    C3 4821   1.377   1.024  17.577 -0.2867  0.4533 -0.4650
  321TMC3    C4 4822   1.216   1.185  17.415  0.0390  0.6296  0.3316
  321TMC3    C5 4823   1.191   1.167  17.548  0.2534  0.2673  0.6180
  321TMC3    C6 4824   1.278   1.100  17.633  0.5668 -0.4881 -0.4560
  321TMC3     C 4825   1.380   1.171  17.236  0.3047  0.1410  0.1451
  321TMC3     O 4826   1.493   1.130  17.199 -0.1985  0.0781 -0.9440
  321TMC3     H 4827   1.486   0.993  17.401  0.4986  0.4635  1.6727
  321TMC3    H1 4828   1.142   1.240  17.358  0.8231 -0.0779 -1.3921
  321TMC3    H2 4829   1.264   1.113   0.053  2.6339  1.0549 -0.3659
  321TMC3    C7 4830   1.054   1.137  17.577  0.3744 -0.4566 -0.7120
  321TMC3    C8 4831   1.377   0.897  17.640  0.0721  0.3457  0.3303
  321TMC3    O1 4832   0.969   1.186  17.505 -0.0657  0.3432 -0.2674
  321TMC3    O2 4833   1.288   0.876   0.032 -0.1937 -0.3946 -0.3458
  322MPD2     C 4834   0.627   3.210  13.111  0.1189  0.1291  0.3702
  322MPD2    C1 4835   0.571   3.117  13.198  0.1816  0.3500 -0.7275
  322MPD2    C2 4836   0.545   2.990  13.155  0.3133  0.3941  0.2871
  322MPD2    C3 4837   0.572   2.955  13.026 -0.1413  0.3204  0.3101
  322MPD2    C4 4838   0.622   3.051  12.937 -0.0457 -0.1821  0.8091
  322MPD2    C5 4839   0.657   3.172  12.986  0.8539 -0.5329  0.2933
  322MPD2     H 4840   0.526   2.912  13.228  1.0333  1.0985  1.2240
  322MPD2    H1 4841   0.651   3.044  12.832 -2.7638 -0.0925  0.0492
  322MPD2    H2 4842   0.652   3.310  13.145  3.2891 -0.1202 -1.2300
  322MPD2    H3 4843   0.693   3.250  12.920  2.5658 -0.9634  0.7149
  322MPD2     N 4844   0.560   2.821  12.979 -0.1124 -0.2080 -0.1151
  322MPD2    H5 4845   0.528   2.757  13.051  0.3090 -1.2587 -0.8693
  322MPD2    N1 4846   0.556   3.161  13.337 -0.2891 -0.0006  0.1648
  322MPD2    H7 4847   0.597   3.251  13.359  0.1512 -0.1763  0.0653
  323TMC3    C1 4848   0.480   3.145  13.561  0.1125  0.6045 -0.2494
  323TMC3    C2 4849   0.598   3.210  13.599  0.0571 -0.2227 -0.3092
  323TMC3    C3 4850   0.623   3.239  13.730 -1.1622  0.1080  0.5006
  323TMC3    C4 4851   0.396   3.104  13.654 -0.1185 -0.3323  0.7004
  323TMC3    C5 4852   0.410   3.147  13.785  0.6370  0.1755 -0.7733
  323TMC3    C6 4853   0.525   3.212  13.825 -0.2727 -0.1018 -0.4915
  323TMC3     C 4854   0.483   3.087  13.430 -0.1998  0.3928  0.4208
  323TMC3     O 4855   0.415   2.989  13.415  0.0160  0.1893  0.3009
  323TMC3     H 4856   0.679   3.230  13.530  1.0262  0.1660  0.9273
  323TMC3    H1 4857   0.307   3.045  13.635 -0.7990  0.9148 -0.0065
  323TMC3    H2 4858   0.537   3.235  13.930  0.2886 -0.8000 -0.3980
  323TMC3    C7 4859   0.303   3.115  13.879  0.6679 -0.4765 -0.4257
  323TMC3    C8 4860   0.753   3.281  13.781  0.1813  0.6211 -0.3290
  323TMC3    O1 4861   0.242   3.012  13.856  0.0531 -0.1739 -0.0490
  323TMC3    O2 4862   0.841   3.326  13.708 -0.5527  0.1699 -0.7052
  324MPD2     C 4863   2.161   3.560  14.159 -0.0502 -0.4386  0.3116
  324MPD2    C1 4864   2.135   3.671  14.236  0.2095 -0.0498  0.4181
  324MPD2    C2 4865   2.003   3.692  14.259 -1.0543 -0.3927 -0.5504
  324MPD2    C3 4866   1.901   3.611  14.218  0.5629 -0.8958 -0.1255
  324MPD2    C4 4867   1.933   3.505  14.134  0.3929  0.1608  0.7423
  324MPD2    C5 4868   2.065   3.476  14.117  0.3849  0.4491  0.1462
  324MPD2     H 4869   1.982   3.773  14.327 -1.4777 -0.8516 -0.1281
  324MPD2    H1 4870   1.852   3.441  14.101 -0.6372  2.2754 -0.8126
  324MPD2    H2 4871   2.260   3.531  14.126  0.6233  3.0983 -0.8315
  324MPD2    H3 4872   2.085   3.397  14.046 -0.0480  1.9142 -1.5850
  324MPD2     N 4873   1.761   3.644  14.235 -0.3215  0.8498  0.0505
  324MPD2    H5 4874   1.690   3.572  14.221  1.6987 -0.7453 -1.8325
  324MPD2    N1 4875   2.230   3.743  14.305  0.4225  0.2437 -0.0576
  324MPD2    H7 4876   2.192   3.812  14.369  0.4417  0.0336  0.1805
  325TMC3    C1 4877   1.582   3.778  14.303  0.4104  0.4405 -0.4543
  325TMC3    C2 4878   1.496   3.716  14.217 -0.0437  0.5872 -0.6218
  325TMC3    C3 4879   1.361   3.730  14.248  0.3423  1.0498  0.8390
  325TMC3    C4 4880   1.547   3.852  14.405 -0.8180 -0.4735  0.0391
  325TMC3    C5 4881   1.412   3.865  14.429  0.6414 -0.0828 -0.5866
  325TMC3    C6 4882   1.321   3.805  14.348  0.1593 -0.1356 -0.3191
  325TMC3     C 4883   1.719   3.767  14.285 -0.2334 -0.2298 -0.0050
  325TMC3     O 4884   1.784   3.870  14.302 -0.4481 -0.2383 -0.0495
  325TMC3     H 4885   1.533   3.675  14.124  1.5374 -0.2795  0.3829
  325TMC3    H1 4886   1.617   3.890  14.478 -1.8148 -1.8385  1.7041
  325TMC3    H2 4887   1.215   3.823  14.364  0.1967 -0.7978  0.6776
  325TMC3    C7 4888   1.385   3.995  14.496  0.3943 -1.3987 -0.2407
  325TMC3    C8 4889   1.279   3.747  14.135 -0.0628  0.2344 -0.3807
  325TMC3    O1 4890   1.485   4.046  14.550  0.3436  0.2429  0.3308
  325TMC3    O2 4891   1.331   3.799  14.038 -1.0558 -0.0259  0.2413
  326MPD2     C 4892   2.628   0.043  11.099  0.0303  0.3973 -0.2785
  326MPD2    C1 4893   2.658   0.005  10.971 -0.3374 -0.2007 -0.0489
  326MPD2    C2 4894   2.792   0.019  10.931  0.5470 -0.4962  0.5358
  326MPD2    C3 4895   2.893   0.029  11.023 -0.5953 -0.1675 -0.2813
  326MPD2    C4 4896   2.860   0.044  11.156  0.2867  0.2743  0.3649
  326MPD2    C5 4897   2.725   0.047  11.194 -0.1133 -0.7043  0.2414
  326MPD2     H 4898   2.811   0.003  10.825 -2.0540  1.0559 -0.1678
  326MPD2    H1 4899   2.941   0.060  11.225  0.4857 -0.0816  0.2128
  326MPD2    H2 4900   2.531   0.036  11.147 -0.1346 -1.2689 -0.8819
  326MPD2    H3 4901   2.702   0.055  11.299 -1.3953  2.8512 -0.3452
  326MPD2     N 4902   3.027   0.034  10.998  0.1077 -0.4434  0.1345
  326MPD2    H5 4903   3.098   0.042  11.070 -1.9421 -1.3598  2.2857
  326MPD2    N1 4904   2.562   4.681  10.876  0.0902 -0.0775  0.2143
  326MPD2    H7 4905   2.602   4.631  10.797  1.7392  1.5422  0.0248
  327TMC3    C1 4906   2.382   4.548  10.818 -0.3408 -0.3526 -0.2063
  327TMC3    C2 4907   2.291   4.578  10.721 -0.0132 -0.2525 -0.5605
  327TMC3    C3 4908   2.272   4.489  10.620  0.0388 -0.1269 -0.1820
  327TMC3    C4 4909   2.458   4.432  10.802 -0.4646  0.7034  0.1248
  327TMC3    C5 4910   2.429   4.344  10.701 -0.2654  0.8731 -0.4974
  327TMC3    C6 4911   2.328   4.366  10.616  0.0466 -0.2479 -0.0478
  327TMC3     C 4912   2.428   4.667  10.898  0.6797 -0.6271  0.0090
  327TMC3     O 4913   2.345   0.002  10.968 -0.1621  0.5535  0.2386
  327TMC3     H 4914   2.249   4.677  10.714 -0.6912 -0.5885 -1.2536
  327TMC3    H1 4915   2.530   4.412  10.880 -0.3943  0.0465 -0.1124
  327TMC3    H2 4916   2.306   4.286  10.547  2.1043  0.7748 -1.8867
  327TMC3    C7 4917   2.489   4.213  10.692  0.4141  0.8867  0.0707
  327TMC3    C8 4918   2.222   4.561  10.495 -0.4475  0.7319 -0.2600
  327TMC3    O1 4919   2.478   4.158  10.582  0.1469 -0.6335 -0.1399
  327TMC3    O2 4920   2.163   4.667  10.514  0.5063 -1.0377  0.0725
  328MPD2     C 4921   0.627   0.094  17.434 -0.6079  0.0781 -0.1435
  328MPD2    C1 4922   0.553   0.041  17.330 -0.3095 -0.3488  0.4714
  328MPD2    C2 4923   0.512   0.133  17.234 -0.1085 -0.1444  0.2081
  328MPD2    C3 4924   0.537   0.271  17.233 -0.1245 -0.0684  0.2760
  328MPD2    C4 4925   0.626   0.309  17.331 -0.1446 -0.4479 -0.4977
  328MPD2    C5 4926   0.667   0.229  17.428  0.1558  0.1721 -0.1686
  328MPD2     H 4927   0.446   0.095  17.157  1.5902 -0.0391 -1.3095
  328MPD2    H1 4928   0.663   0.410  17.342 -0.5996 -0.3622  0.2001
  328MPD2    H2 4929   0.674   0.034  17.511 -0.1743  0.1856 -0.3245
  328MPD2    H3 4930   0.718   0.273  17.512 -2.1099 -0.0575  1.3408
  328MPD2     N 4931   0.494   0.362  17.130  0.0015  0.3281 -0.5737
  328MPD2    H5 4932   0.508   0.459  17.158 -0.5914  0.5052 -0.9019
  328MPD2    N1 4933   0.504   4.630  17.323 -0.1882 -0.9552 -0.3460
  328MPD2    H7 4934   0.461   4.595  17.239 -1.9442  0.0224  0.1432
  329TMC3    C1 4935   0.478   4.407  17.378 -0.0868 -0.6037 -0.1305
  329TMC3    C2 4936   0.347   4.436  17.378  0.0364  0.0396 -0.3687
  329TMC3    C3 4937   0.250   4.378  17.295 -0.2036  0.2579 -0.2891
  329TMC3    C4 4938   0.527   4.331  17.275 -0.2096 -0.7921 -0.6264
  329TMC3    C5 4939   0.432   4.271  17.192  0.4260  0.2150 -0.3069
  329TMC3    C6 4940   0.294   4.282  17.211 -0.2448 -0.4357  0.1073
  329TMC3     C 4941   0.543   4.531  17.412  0.1936  0.2183 -0.8670
  329TMC3     O 4942   0.599   4.539  17.517 -0.0944 -0.5749 -0.3510
  329TMC3     H 4943   0.321   4.520  17.441  0.5289 -2.8664  3.7353
  329TMC3    H1 4944   0.633   4.312  17.267 -0.0022  0.3803 -0.7342
  329TMC3    H2 4945   0.236   4.216  17.147 -1.4222  1.4500 -0.7775
  329TMC3    C7 4946   0.486   4.163  17.101 -0.7040 -0.2308 -1.0439
  329TMC3    C8 4947   0.115   4.424  17.282 -0.5907 -0.9384  0.4605
  329TMC3    O1 4948   0.580   4.100  17.145 -0.4778 -0.1587 -0.0277
  329TMC3    O2 4949   0.043   4.385  17.192  0.3893 -0.2672  0.4496
  330TMC3    C1 4950   2.939   3.931   9.279  0.3868  0.3252 -0.0501
  330TMC3    C2 4951   2.999   3.833   9.350  0.0190 -0.3422  0.2065
  330TMC3    C3 4952   3.106   3.871   9.426 -0.3851 -0.3880 -0.2371
  330TMC3    C4 4953   2.981   4.062   9.275  0.2508  0.7632 -0.2575
  330TMC3    C5 4954   3.080   4.092   9.367 -0.0493 -0.1500 -0.3963
  330TMC3    C6 4955   3.137   4.004   9.452 -0.2054 -0.1736  0.0616
  330TMC3     C 4956   2.807   3.916   9.226 -0.9380 -0.0869  0.3961
  330TMC3     O 4957   2.768   4.009   9.158 -0.1030  0.1071 -0.6155
  330TMC3     H 4958   2.960   3.733   9.334 -0.4756  0.3148 -2.7285
  330TMC3    H1 4959   2.934   4.146   9.225 -1.0271  0.8175  1.0481
  330TMC3    H2 4960   3.230   4.024   9.503 -0.4182  0.4165  0.2190
  330TMC3    C7 4961   3.093   4.235   9.391 -0.6031 -0.3184 -0.5184
  330TMC3    C8 4962   3.197   3.769   9.477 -0.0211 -0.3245 -0.4624
  330TMC3    O1 4963   3.042   4.322   9.318 -0.7240 -0.4137 -0.2456
  330TMC3    O2 4964   3.290   3.806   9.545  0.5368  0.1844  0.4360
  331MPD2     C 4965   1.206   3.554  12.488  0.2513  0.1347  0.1710
  331MPD2    C1 4966   1.297   3.559  12.386  0.6784  0.4748  0.8548
  331MPD2    C2 4967   1.357   3.450  12.341 -0.1933 -0.2248  0.5966
  331MPD2    C3 4968   1.316   3.325  12.380  0.8081  0.1699 -0.1824
  331MPD2    C4 4969   1.222   3.318  12.481  0.7559  0.2593 -0.3379
  331MPD2    C5 4970   1.167   3.431  12.536  1.2108  0.0591  0.4951
  331MPD2     H 4971   1.417   3.453  12.251  1.4736  1.0929  1.7631
  331MPD2    H1 4972   1.186   3.218  12.502 -1.2454  0.9315 -0.5896
  331MPD2    H2 4973   1.147   3.632  12.534  1.8494  0.9375  0.8436
  331MPD2    H3 4974   1.086   3.418  12.607  1.2338 -4.1354 -0.2599
  331MPD2     N 4975   1.359   3.213  12.303 -0.1561  0.2750 -0.5423
  331MPD2    H5 4976   1.427   3.227  12.229  2.2636  0.7991  1.8009
  331MPD2    N1 4977   1.315   3.681  12.320  0.0740  0.6822  0.4433
  331MPD2    H7 4978   1.252   3.757  12.341 -0.3296  0.0231  1.6066
  332TMC3    C1 4979   1.344   3.000  12.206  0.7466 -0.1096 -0.0049
  332TMC3    C2 4980   1.340   3.049  12.079  0.1271 -0.4985  0.2307
  332TMC3    C3 4981   1.355   2.957  11.979  0.0699  0.2188 -0.8269
  332TMC3    C4 4982   1.368   2.862  12.231  0.5515 -0.0645  0.2608
  332TMC3    C5 4983   1.393   2.779  12.123  0.3482  0.4322  0.4505
  332TMC3    C6 4984   1.394   2.833  11.997  0.0538  1.0045 -0.6060
  332TMC3     C 4985   1.324   3.078  12.327  0.3991 -0.4052 -0.1968
  332TMC3     O 4986   1.263   3.021  12.416  0.0513 -0.1335  0.0479
  332TMC3     H 4987   1.322   3.150  12.043 -0.9073 -0.5069  0.6989
  332TMC3    H1 4988   1.392   2.820  12.328 -0.2326  0.7315  0.7928
  332TMC3    H2 4989   1.411   2.766  11.914 -3.5251 -0.7343  0.0894
  332TMC3    C7 4990   1.515   2.695  12.133 -0.1263  0.6597  0.0792
  332TMC3    C8 4991   1.387   3.015  11.850 -0.2969 -0.2867 -0.6440
  332TMC3    O1 4992   1.515   2.593  12.061  0.4949  0.1454  0.0835
  332TMC3    O2 4993   1.432   3.132  11.852  0.4071 -0.0396 -0.1785
  333MPD2     C 4994   1.593   2.686  10.991 -0.2934  0.2708  0.9411
  333MPD2    C1 4995   1.646   2.578  10.930 -0.4886  0.2385  0.3419
  333MPD2    C2 4996   1.606   2.451  10.971  0.1725  0.3591  0.6104
  333MPD2    C3 4997   1.520   2.445  11.080  0.1882  0.2929  0.3347
  333MPD2    C4 4998   1.460   2.553  11.130  0.8112  0.1225  0.0281
  333MPD2    C5 4999   1.495   2.677  11.084  0.1109 -0.7040  0.8140
  333MPD2     H 5000   1.660   2.365  10.931  0.0880  0.8166 -0.4925
  333MPD2    H1 5001   1.388   2.554  11.211 -1.4515  1.2076 -1.9862
  333MPD2    H2 5002   1.623   2.781  10.949  0.7672 -0.4532  0.0691
  333MPD2    H3 5003   1.445   2.770  11.110 -0.7221 -0.7565 -0.5782
  333MPD2     N 5004   1.481   2.313  11.130 -0.5658 -0.4121  0.1487
  333MPD2    H5 5005   1.517   2.229  11.086 -0.8385 -1.3914  1.7687
  333MPD2    N1 5006   1.735   2.602  10.826 -0.1122 -0.1624 -0.0042
  333MPD2    H7 5007   1.739   2.696  10.788  1.0038  0.3220  1.3195
  334TMC3    C1 5008   1.915   2.587  10.691 -0.5703 -0.1634  0.3235
  334TMC3    C2 5009   2.002   2.510  10.617  0.0137  0.1130  0.4466
  334TMC3    C3 5010   2.094   2.575  10.536 -0.0688 -0.6564 -0.4669
  334TMC3    C4 5011   1.919   2.728  10.685  0.3133  0.0017  0.4528
  334TMC3    C5 5012   2.001   2.780  10.589  0.9169 -0.5410  0.4034
  334TMC3    C6 5013   2.087   2.709  10.511  0.2928 -0.0908 -0.0753
  334TMC3     C 5014   1.823   2.516  10.774 -0.4096  0.0679 -0.9627
  334TMC3     O 5015   1.842   2.399  10.800  0.1488 -0.5676  0.2225
  334TMC3     H 5016   2.011   2.403  10.633 -1.4786 -0.1090 -0.2474
  334TMC3    H1 5017   1.859   2.797  10.744  0.1244 -1.6793  2.2042
  334TMC3    H2 5018   2.160   2.759  10.448  0.4120  1.1807  1.0954
  334TMC3    C7 5019   2.013   2.923  10.589  0.0174 -0.5030  0.7868
  334TMC3    C8 5020   2.193   2.491  10.475 -0.0555 -0.5739 -0.0720
  334TMC3    O1 5021   1.964   2.992  10.679  0.0210  0.3028 -0.9481
  334TMC3    O2 5022   2.177   2.368  10.478  0.4575  0.1177 -0.5832
  335TMC3    C1 5023   0.942   0.104  17.256  1.1889 -0.0953  0.3289
  335TMC3    C2 5024   0.878   0.006  17.184 -0.5282 -0.4454  0.5716
  335TMC3    C3 5025   0.930   4.600  17.183 -0.3398  0.7887 -0.2368
  335TMC3    C4 5026   1.051   0.085  17.330  0.2213  0.5817 -0.3633
  335TMC3    C5 5027   1.108   4.679  17.314 -0.0129  0.1811  0.1281
  335TMC3    C6 5028   1.056   4.575  17.237 -0.1003  0.6724  0.3182
  335TMC3     C 5029   0.930   0.244  17.225  0.2098 -0.1224 -0.3413
  335TMC3     O 5030   0.961   0.325  17.309 -0.6672  0.2825  0.2092
  335TMC3     H 5031   0.785   0.014  17.129  2.2919 -1.3439 -4.2763
  335TMC3    H1 5032   1.097   0.173  17.374  1.4078 -0.4550  0.4842
  335TMC3    H2 5033   1.112   4.482  17.230  0.4170  0.9669  0.4601
  335TMC3    C7 5034   1.238   4.660  17.360  0.4842  1.3364  0.6043
  335TMC3    C8 5035   0.876   4.503  17.093  0.0212 -0.0891  0.4720
  335TMC3    O1 5036   1.305   4.584  17.291 -0.2378 -0.5889 -0.5959
  335TMC3    O2 5037   0.815   4.551  16.999  0.2976 -0.1447 -0.0576
  336MPD2     C 5038   0.783   3.069  16.267  0.5445 -0.5940  0.4322
  336MPD2    C1 5039   0.784   3.053  16.127 -0.4443  0.2795 -0.4077
  336MPD2    C2 5040   0.856   2.940  16.080 -0.0096 -0.1232  0.2810
  336MPD2    C3 5041   0.919   2.857  16.166  0.0444 -0.5243 -0.3129
  336MPD2    C4 5042   0.907   2.873  16.301 -0.1654 -0.1970  0.0245
  336MPD2    C5 5043   0.844   2.980  16.352  0.5881 -0.6585  0.6349
  336MPD2     H 5044   0.863   2.928  15.972  1.2803  1.0877  0.2301
  336MPD2    H1 5045   0.937   2.799  16.374  1.8524  0.3543 -0.2722
  336MPD2    H2 5046   0.746   3.160  16.313  0.8652 -1.1529  1.7997
  336MPD2    H3 5047   0.827   2.977  16.459  1.9120 -2.5875  0.7983
  336MPD2     N 5048   0.970   2.733  16.123 -0.2137  0.0385  0.1239
  336MPD2    H5 5049   0.996   2.663  16.192 -0.5637  0.7593  0.9789
  336MPD2    N1 5050   0.730   3.146  16.029 -0.1700 -0.8878  0.0731
  336MPD2    H7 5051   0.750   3.127  15.931 -0.7161  0.2114 -0.2486
  337TMC3    C1 5052   0.572   3.306  15.949  0.4190  0.4300  0.4025
  337TMC3    C2 5053   0.447   3.258  15.913  0.7499  0.3856 -0.4513
  337TMC3    C3 5054   0.399   3.266  15.788  0.1350  0.1174  0.7403
  337TMC3    C4 5055   0.654   3.362  15.860  0.8089 -0.3799 -0.0637
  337TMC3    C5 5056   0.603   3.390  15.735 -0.9061  0.3250 -0.0826
  337TMC3    C6 5057   0.476   3.345  15.697 -0.2793  0.6227 -0.5073
  337TMC3     C 5058   0.629   3.232  16.062 -0.7127  0.8254 -0.0691
  337TMC3     O 5059   0.559   3.238  16.164  0.0007  0.3310  0.3408
  337TMC3     H 5060   0.387   3.206  15.987 -0.3212  1.9798 -0.1825
  337TMC3    H1 5061   0.747   3.394  15.907 -0.7979  3.4394  0.5309
  337TMC3    H2 5062   0.433   3.378  15.603 -1.7599  1.0749  0.3199
  337TMC3    C7 5063   0.687   3.412  15.622 -0.1144  0.3903 -0.3785
  337TMC3    C8 5064   0.266   3.226  15.762  0.5828  0.0488 -0.2554
  337TMC3    O1 5065   0.649   3.354  15.522 -0.3553 -0.1266  0.2081
  337TMC3    O2 5066   0.189   3.207  15.855 -0.1408  0.9572 -0.2605
  338MPD2     C 5067   1.051   2.119   0.766 -0.3751  0.2496  0.0809
  338MPD2    C1 5068   1.003   2.066   0.651 -0.4701 -0.2374 -0.0194
  338MPD2    C2 5069   0.872   2.016   0.646 -0.0561  0.1045 -0.4391
  338MPD2    C3 5070   0.797   2.023   0.765 -0.1384  0.4829 -0.3349
  338MPD2    C4 5071   0.854   2.075   0.884  0.3696 -0.0289 -0.0048
  338MPD2    C5 5072   0.983   2.119   0.883  0.1086 -0.0935 -0.3851
  338MPD2     H 5073   0.819   1.977   0.560 -0.8570  2.2735 -0.9388
  338MPD2    H1 5074   0.801   2.091   0.978  1.7767  0.2238  0.7424
  338MPD2    H2 5075   1.150   2.163   0.761 -0.5643  0.6493 -0.0694
  338MPD2    H3 5076   1.026   2.152   0.976  1.9991 -1.9589 -0.6002
  338MPD2     N 5077   0.674   1.959   0.766 -0.7156  0.6205 -0.0884
  338MPD2    H5 5078   0.634   1.944   0.674  0.9344  3.2120 -1.1970
  338MPD2    N1 5079   1.090   2.084   0.542 -0.3165 -0.3958 -0.5652
  338MPD2    H7 5080   1.179   2.120   0.573  0.4235 -1.9285 -0.8998
  339TMC3    C1 5081   0.465   1.901   0.846 -0.1595 -0.4109  0.1681
  339TMC3    C2 5082   0.429   1.772   0.865  0.0972 -0.6055  0.4056
  339TMC3    C3 5083   0.364   1.704   0.763 -0.4355  0.4733 -0.1976
  339TMC3    C4 5084   0.434   1.971   0.724  0.2053  0.1614  0.7320
  339TMC3    C5 5085   0.379   1.898   0.622 -0.0122 -0.6082 -0.4879
  339TMC3    C6 5086   0.341   1.771   0.642  0.1911 -0.1936  1.0228
  339TMC3     C 5087   0.605   1.915   0.882  0.3087 -0.1956  0.0929
  339TMC3     O 5088   0.646   1.885   0.998 -0.6070 -0.0326  0.4141
  339TMC3     H 5089   0.455   1.712   0.951  3.5351  0.7261  0.2795
  339TMC3    H1 5090   0.451   2.078   0.711  1.3268  0.0260  1.0340
  339TMC3    H2 5091   0.306   1.717   0.555  0.1008  0.4684  0.6582
  339TMC3    C7 5092   0.433   1.924   0.489 -0.8685  0.0554 -0.2827
  339TMC3    C8 5093   0.358   1.556   0.756  0.6638  0.0522  0.4806
  339TMC3    O1 5094   0.406   1.845   0.400  0.0002  0.3909 -0.6316
  339TMC3    O2 5095   0.367   1.513   0.641 -0.2682  0.2982 -0.6407
  340MPD2     C 5096   1.735   4.122   9.290 -0.0564  0.0942 -0.1346
  340MPD2    C1 5097   1.705   4.047   9.403  0.4300 -0.0558  0.2726
  340MPD2    C2 5098   1.668   4.121   9.514  0.6297 -0.4845  0.0521
  340MPD2    C3 5099   1.691   4.258   9.528  0.0880  0.7073 -0.0705
  340MPD2    C4 5100   1.750   4.326   9.424 -0.1632 -0.5374  0.3216
  340MPD2    C5 5101   1.755   4.256   9.305 -0.2218  0.1913 -0.0021
  340MPD2     H 5102   1.616   4.064   9.590 -1.1676  1.0211 -0.0653
  340MPD2    H1 5103   1.766   4.433   9.433 -2.0917 -0.4368  2.6656
  340MPD2    H2 5104   1.746   4.077   9.191 -0.5347  0.5969 -0.4126
  340MPD2    H3 5105   1.783   4.311   9.216 -0.5231  1.3135  0.6089
  340MPD2     N 5106   1.661   4.330   9.642  0.0417  0.1813 -0.2429
  340MPD2    H5 5107   1.706   4.421   9.647  0.5929 -0.1267  0.3170
  340MPD2    N1 5108   1.688   3.909   9.403 -0.2900  0.1698 -0.3254
  340MPD2    H7 5109   1.653   3.872   9.490 -0.0472  1.0453  0.1379
  341TMC3    C1 5110   1.718   3.680   9.354  0.0237 -0.6680  0.5185
  341TMC3    C2 5111   1.605   3.651   9.430 -0.2404  0.0241  0.0636
  341TMC3    C3 5112   1.607   3.521   9.475  0.5071 -0.7776 -0.2932
  341TMC3    C4 5113   1.836   3.606   9.343  0.1157 -0.3953 -0.7603
  341TMC3    C5 5114   1.829   3.489   9.415 -0.1069 -0.3306 -0.3911
  341TMC3    C6 5115   1.720   3.449   9.488 -0.4397  0.7502 -0.3019
  341TMC3     C 5116   1.722   3.819   9.304  0.4238 -0.3482 -0.2449
  341TMC3     O 5117   1.810   3.839   9.218 -0.0624  0.4837 -0.4216
  341TMC3     H 5118   1.512   3.707   9.424 -1.2042 -1.3576  2.1687
  341TMC3    H1 5119   1.927   3.653   9.308  0.8906  0.0915  1.8760
  341TMC3    H2 5120   1.721   3.367   9.559  1.0229 -0.6212 -1.8832
  341TMC3    C7 5121   1.954   3.425   9.471  0.1244  0.2911  0.7737
  341TMC3    C8 5122   1.491   3.470   9.545  0.2563 -0.0219  0.4425
  341TMC3    O1 5123   1.942   3.308   9.505  0.2787 -0.0567 -0.1941
  341TMC3    O2 5124   1.517   3.380   9.626  0.1280  0.2352  0.1061
  342MPD2     C 5125   3.788   3.344  17.598 -1.1777  0.8515  0.5416
  342MPD2    C1 5126   3.911   3.343  17.524  0.3211 -0.0826 -0.0458
  342MPD2    C2 5127   3.996   3.456  17.536 -0.6612  0.5804  0.2088
  342MPD2    C3 5128   3.954   3.568  17.608  0.5724 -0.3353 -0.5010
  342MPD2    C4 5129   3.840   3.559  17.686  0.1437 -0.6324  0.1909
  342MPD2    C5 5130   3.763   3.454  17.681  0.1165  0.1772  0.9689
  342MPD2     H 5131   4.087   3.458  17.477 -0.6738  0.2029  0.1784
  342MPD2    H1 5132   3.801   3.638   0.063  2.3062  0.3607  0.3122
  342MPD2    H2 5133   3.709   3.270  17.591  0.8581 -1.2241 -0.0632
  342MPD2    H3 5134   3.671   3.452   0.051  0.7046  1.6660  1.9841
  342MPD2     N 5135   4.015   3.696  17.608  0.3054  0.6276 -0.1360
  342MPD2    H5 5136   3.976   3.767  17.669  0.7700 -0.4745  1.4629
  342MPD2    N1 5137   3.968   3.227  17.461  0.5824 -0.0364 -0.0564
  342MPD2    H7 5138   4.061   3.250  17.427 -0.4471 -0.9547 -3.5748
  343TMC3    C1 5139   3.973   3.009  17.376 -0.4388  0.3380 -0.8224
  343TMC3    C2 5140   4.072   3.034  17.289 -0.2055 -0.2082  0.3646
  343TMC3    C3 5141   4.134   2.943  17.211 -0.6049  0.3146  0.0800
  343TMC3    C4 5142   3.926   2.881  17.389 -0.1584 -0.0233 -0.3066
  343TMC3    C5 5143   3.993   2.785  17.320 -0.2222 -0.7326 -0.8005
  343TMC3    C6 5144   4.091   2.814  17.228  0.9827  0.2007 -0.6853
  343TMC3     C 5145   3.890   3.114  17.431  0.1998  0.5953 -0.7027
  343TMC3     O 5146   3.779   3.090  17.474  0.3115  0.5552  0.4103
  343TMC3     H 5147   4.086   3.137  17.259 -3.0928 -0.3171 -1.3758
  343TMC3    H1 5148   3.838   2.849  17.444 -0.8214  1.7792 -0.3296
  343TMC3    H2 5149   4.127   2.728  17.172  1.6232 -0.1423  0.2357
  343TMC3    C7 5150   3.951   2.648  17.331  0.7434 -0.0480  0.6307
  343TMC3    C8 5151   4.253   2.987  17.139  0.0432 -0.9092 -0.1017
  343TMC3    O1 5152   3.954   2.576  17.227 -0.3475  0.1921  0.7182
  343TMC3    O2 5153   4.263   3.108  17.121 -0.1681 -0.4818  0.1652
  344MPD2     C 5154   0.098   1.860  10.605  0.4914  0.4452 -0.9161
  344MPD2    C1 5155   0.196   1.810  10.681 -0.1721 -0.2542 -0.1452
  344MPD2    C2 5156   0.319   1.860  10.672  0.2717  0.4026 -0.1609
  344MPD2    C3 5157   0.351   1.960  10.581  0.1074 -0.1264  0.1011
  344MPD2    C4 5158   0.248   2.012  10.510  0.2999  0.0848 -0.7658
  344MPD2    C5 5159   0.121   1.963  10.528  0.5064 -0.0817  0.3890
  344MPD2     H 5160   0.389   1.813  10.741 -0.9651 -0.3429  0.5761
  344MPD2    H1 5161   0.263   2.089  10.435 -0.0431 -0.0342 -0.9565
  344MPD2    H2 5162   0.000   1.817  10.621  1.2534 -1.6556 -1.8245
  344MPD2    H3 5163   0.040   1.997  10.464  1.0208  1.7318  0.7050
  344MPD2     N 5164   0.480   2.015  10.571  0.2714  0.3981  0.7698
  344MPD2    H5 5165   0.492   2.067  10.485 -2.4164 -0.5496 -0.1954
  344MPD2    N1 5166   0.186   1.710  10.781  0.1760  0.9805  0.0072
  344MPD2    H7 5167   0.268   1.681  10.834 -0.4707 -0.5337  0.1774
  345TMC3    C1 5168   0.676   2.117  10.628 -0.3898  0.1312 -0.0459
  345TMC3    C2 5169   0.742   2.184  10.728 -0.4872 -0.6104  0.3415
  345TMC3    C3 5170   0.811   2.298  10.692  0.5728 -0.2876  0.1965
  345TMC3    C4 5171   0.682   2.151  10.498  0.4636  0.1307  0.2720
  345TMC3    C5 5172   0.762   2.266  10.469 -0.9491  1.2790 -0.0496
  345TMC3    C6 5173   0.827   2.342  10.563 -0.4220  0.5329 -0.6381
  345TMC3     C 5174   0.580   2.016  10.657  0.7458 -0.2162 -0.1867
  345TMC3     O 5175   0.582   1.981  10.774  0.5432 -0.3542 -0.2456
  345TMC3     H 5176   0.734   2.159  10.834 -1.6468  0.2300  0.4515
  345TMC3    H1 5177   0.632   2.107  10.413  1.8979 -2.5345  0.8287
  345TMC3    H2 5178   0.895   2.421  10.533  0.8035  0.3288  1.6397
  345TMC3    C7 5179   0.751   2.339  10.345  0.0939 -0.0374  0.3535
  345TMC3    C8 5180   0.836   2.409  10.788 -0.1336  0.2452 -0.7453
  345TMC3    O1 5181   0.784   2.454  10.334  0.2409 -0.6238 -0.4921
  345TMC3    O2 5182   0.876   2.510  10.735 -0.6525 -0.7387 -0.6770
  346MPD2     C 5183   0.444   4.255  13.447 -0.2115 -0.1564  0.7693
  346MPD2    C1 5184   0.560   4.330  13.457  0.2587  0.1709 -0.0541
  346MPD2    C2 5185   0.607   4.364  13.579  0.5443  0.7711  0.0340
  346MPD2    C3 5186   0.545   4.335  13.694  0.2477  0.0475  0.1311
  346MPD2    C4 5187   0.424   4.271  13.684  0.0900 -0.5642  0.1529
  346MPD2    C5 5188   0.376   4.239  13.568  0.2271  0.5251 -0.0642
  346MPD2     H 5189   0.698   4.422  13.585  1.2766 -0.3804  0.0289
  346MPD2    H1 5190   0.366   4.265  13.775 -1.3921 -0.1339 -0.7698
  346MPD2    H2 5191   0.400   4.231  13.351  0.4423  0.6829  0.2589
  346MPD2    H3 5192   0.281   4.188  13.558  1.1312 -1.2561  0.5474
  346MPD2     N 5193   0.604   4.383  13.816 -0.1434  0.0514 -0.0527
  346MPD2    H5 5194   0.697   4.424  13.811  0.2934 -0.9772 -0.3349
  346MPD2    N1 5195   0.635   4.380  13.346  0.1765 -0.2518  0.3786
  346MPD2    H7 5196   0.692   4.463  13.357 -2.1312  1.6500 -2.0882
  347TMC3    C1 5197   0.609   4.435  14.053 -0.2738 -0.4160  0.3871
  347TMC3    C2 5198   0.730   4.373  14.063 -0.0429  0.4370 -0.1037
  347TMC3    C3 5199   0.789   4.389  14.181  0.0223 -0.1458  0.2791
  347TMC3    C4 5200   0.540   4.487  14.162 -0.0645 -0.3682  0.2688
  347TMC3    C5 5201   0.598   4.475  14.282 -0.0884 -0.6820  0.0443
  347TMC3    C6 5202   0.720   4.430  14.291  0.3267 -0.5698 -0.5650
  347TMC3     C 5203   0.532   4.397  13.931 -0.4103 -0.1724 -0.0380
  347TMC3     O 5204   0.410   4.391  13.943  0.2387  0.2944  0.1231
  347TMC3     H 5205   0.785   4.322  13.985  0.4713 -1.5468  1.5632
  347TMC3    H1 5206   0.451   4.546  14.145 -0.7486 -0.9979  1.6886
  347TMC3    H2 5207   0.761   4.421  14.391 -3.1432 -1.9756  0.7181
  347TMC3    C7 5208   0.556   4.556  14.396 -0.3153 -0.3484 -0.4732
  347TMC3    C8 5209   0.925   4.352  14.194 -0.4804  0.1506 -0.5759
  347TMC3    O1 5210   0.629   4.581  14.493  0.4456  0.4015 -0.3362
  347TMC3    O2 5211   0.964   4.256  14.128  0.4827 -0.0324  0.3826
  348MPD2     C 5212   3.641   2.775  11.793 -0.5849  0.1486 -0.5334
  348MPD2    C1 5213   3.663   2.909  11.831 -0.1867  0.0162 -0.5377
  348MPD2    C2 5214   3.617   3.008  11.750 -0.1882 -0.2611  0.0105
  348MPD2    C3 5215   3.523   2.985  11.648  0.1970 -0.6430 -0.4639
  348MPD2    C4 5216   3.499   2.854  11.605 -0.1986  0.3698 -0.8972
  348MPD2    C5 5217   3.565   2.756  11.680  0.0548 -0.4288  0.1775
  348MPD2     H 5218   3.641   3.110  11.779 -0.5810 -0.8057  2.2716
  348MPD2    H1 5219   3.452   2.835  11.509 -0.9557 -3.1127  0.1620
  348MPD2    H2 5220   3.678   2.693  11.853  0.8931  1.8217  0.8522
  348MPD2    H3 5221   3.560   2.652  11.650  1.6190 -0.3869 -0.2234
  348MPD2     N 5222   3.476   3.096  11.571 -0.0440 -0.6225 -0.5451
  348MPD2    H5 5223   3.515   3.187  11.594  3.0156 -1.7932 -1.1357
  348MPD2    N1 5224   3.730   2.950  11.944 -0.0926  0.1882 -0.2638
  348MPD2    H7 5225   3.756   3.048  11.955 -1.2654  0.3624  0.9977
  349TMC3    C1 5226   3.883   2.934  12.115 -0.2692  0.6661  0.1327
  349TMC3    C2 5227   3.990   2.855  12.132 -0.5794  0.0892 -0.5240
  349TMC3    C3 5228   4.111   2.910  12.109 -0.2674  0.5603  0.5335
  349TMC3    C4 5229   3.897   3.070  12.103  0.3727 -0.1184  0.6132
  349TMC3    C5 5230   4.020   3.123  12.073 -1.1629 -0.0017 -0.8713
  349TMC3    C6 5231   4.130   3.045  12.079 -0.2728 -0.0582 -0.2761
  349TMC3     C 5232   3.772   2.872  12.046  0.1901  0.1606 -0.9296
  349TMC3     O 5233   3.743   2.753  12.065  0.3842 -1.2439  0.1659
  349TMC3     H 5234   3.964   2.750  12.136  1.1803 -0.4150 -2.4508
  349TMC3    H1 5235   3.807   3.129  12.094  2.4175  2.7699 -0.7042
  349TMC3    H2 5236   4.229   3.084  12.063 -0.1538  0.5764  1.9766
  349TMC3    C7 5237   4.004   3.197  11.951 -0.5528 -0.5872 -0.2871
  349TMC3    C8 5238   4.210   2.837  12.188 -0.4284  0.3338  0.4672
  349TMC3    O1 5239   3.892   3.193  11.900  0.1664  0.1539 -0.0984
  349TMC3    O2 5240   4.181   2.725  12.224  0.0681 -0.4252  0.4951
  350MPD2     C 5241   3.418   0.728   9.424  0.5759  0.2430 -0.2743
  350MPD2    C1 5242   3.302   0.744   9.492  0.1010 -0.2159  0.3181
  350MPD2    C2 5243   3.308   0.813   9.610  0.3497  0.5955  0.2231
  350MPD2    C3 5244   3.419   0.879   9.649 -0.5951  0.2975 -0.6234
  350MPD2    C4 5245   3.531   0.879   9.570 -0.1194  0.3498  0.2093
  350MPD2    C5 5246   3.530   0.793   9.461 -0.1285 -0.9512  1.0100
  350MPD2     H 5247   3.220   0.814   9.673  1.1580  0.0321  1.3443
  350MPD2    H1 5248   3.613   0.948   9.587  1.4111 -1.1290 -1.1735
  350MPD2    H2 5249   3.411   0.671   9.332  1.7520 -0.5509  0.1305
  350MPD2    H3 5250   3.611   0.792   9.389  0.0469  0.7541  1.1780
  350MPD2     N 5251   3.421   0.950   9.769  0.3575  0.4863 -0.4658
  350MPD2    H5 5252   3.327   0.964   9.805 -0.0403 -0.7204 -1.0371
  350MPD2    N1 5253   3.181   0.680   9.454 -0.2853 -0.4098  0.6950
  350MPD2    H7 5254   3.110   0.702   9.523  0.1442  4.0698 -0.2722
  351TMC3    C1 5255   3.003   0.564   9.351  0.3669 -0.7085 -0.6017
  351TMC3    C2 5256   2.949   0.510   9.234  0.1505 -0.1457  0.0456
  351TMC3    C3 5257   2.813   0.485   9.234  0.0825  0.3669  0.4014
  351TMC3    C4 5258   2.926   0.588   9.456 -0.3975  0.3287  0.1915
  351TMC3    C5 5259   2.795   0.561   9.447  0.4119  0.0216 -0.5615
  351TMC3    C6 5260   2.734   0.510   9.341  0.0093  0.5165 -0.1378
  351TMC3     C 5261   3.149   0.603   9.349  0.5523  0.7036  0.0050
  351TMC3     O 5262   3.224   0.543   9.274  0.0886 -0.4411 -0.4616
  351TMC3     H 5263   3.012   0.481   9.151  1.5030 -0.1228  1.0636
  351TMC3    H1 5264   2.978   0.613   9.548 -0.6130 -1.1253  0.6976
  351TMC3    H2 5265   2.628   0.485   9.333  0.3822 -1.6408  1.7761
  351TMC3    C7 5266   2.712   0.571   9.561 -0.2694  0.2013  0.0341
  351TMC3    C8 5267   2.769   0.380   9.138  0.1076  0.4323 -0.3531
  351TMC3    O1 5268   2.608   0.510   9.569  0.3125  0.2023  0.2171
  351TMC3    O2 5269   2.851   0.298   9.108  0.0752  0.3588  0.2834
  352MPD2     C 5270   0.840   3.955   1.675  0.2442  0.5629 -0.9526
  352MPD2    C1 5271   0.931   3.949   1.567  0.5027  0.4105  0.5260
  352MPD2    C2 5272   1.037   3.854   1.576  0.0138 -0.0712 -0.3509
  352MPD2    C3 5273   1.043   3.788   1.700  0.8032  0.0430 -0.5122
  352MPD2    C4 5274   0.963   3.812   1.804  1.2758 -0.3939 -0.2260
  352MPD2    C5 5275   0.858   3.887   1.790  0.1723  0.4188  0.0876
  352MPD2     H 5276   1.107   3.848   1.493 -1.9059 -2.8580 -1.7461
  352MPD2    H1 5277   0.976   3.756   1.896  1.9710 -1.3346 -0.8926
  352MPD2    H2 5278   0.749   4.013   1.667 -0.0862  0.2261  0.2898
  352MPD2    H3 5279   0.786   3.886   1.871 -0.2580  0.8042 -0.2883
  352MPD2     N 5280   1.131   3.676   1.716  0.1526 -0.3004 -0.8445
  352MPD2    H5 5281   1.108   3.615   1.793  0.9379 -0.0560 -0.4216
  352MPD2    N1 5282   0.909   4.033   1.459 -0.3395  0.4918 -0.0373
  352MPD2    H7 5283   0.834   4.099   1.472 -2.8054 -2.3324  0.0861
  353TMC3    C1 5284   1.255   3.498   1.663  0.1212 -0.3030 -0.8912
  353TMC3    C2 5285   1.385   3.462   1.652 -1.7571  0.2498 -0.1271
  353TMC3    C3 5286   1.418   3.329   1.647 -0.3284 -0.1101 -0.0220
  353TMC3    C4 5287   1.153   3.408   1.688  0.4679 -0.5322  0.2026
  353TMC3    C5 5288   1.189   3.278   1.695 -0.6622  0.5412  0.1599
  353TMC3    C6 5289   1.320   3.241   1.675 -0.7759  1.0200 -0.4677
  353TMC3     C 5290   1.222   3.633   1.629  0.1522 -0.0643 -0.2758
  353TMC3     O 5291   1.301   3.693   1.554  0.4054 -0.2718 -0.0401
  353TMC3     H 5292   1.463   3.537   1.644 -2.2246  1.0475  2.5795
  353TMC3    H1 5293   1.054   3.451   1.681  0.2313 -1.1029 -0.0051
  353TMC3    H2 5294   1.347   3.138   1.693  1.4697  1.4193 -1.6104
  353TMC3    C7 5295   1.097   3.179   1.653  0.1212  1.5272  0.1647
  353TMC3    C8 5296   1.555   3.283   1.638  0.9885  0.5124  0.2228
  353TMC3    O1 5297   1.141   3.085   1.584  0.2972  0.6230 -0.1234
  353TMC3    O2 5298   1.634   3.375   1.635 -0.3096 -0.5348  0.0138
  354TMC3    C1 5299   3.296   0.622  13.187 -0.7607  0.4674  0.4219
  354TMC3    C2 5300   3.289   0.758  13.141 -0.2199 -0.2392 -0.2106
  354TMC3    C3 5301   3.388   0.788  13.047 -0.4407 -0.0645 -0.0874
  354TMC3    C4 5302   3.380   0.524  13.144 -0.7004 -0.0249  1.1400
  354TMC3    C5 5303   3.454   0.561  13.036 -0.8975 -0.0555  0.0637
  354TMC3    C6 5304   3.477   0.692  13.005 -0.2699  0.7131  0.6115
  354TMC3     C 5305   3.248   0.603  13.321  0.7119  0.3057 -0.7535
  354TMC3     O 5306   3.230   0.485  13.351  0.3621 -0.2542  0.2279
  354TMC3     H 5307   3.202   0.819  13.164  0.5165 -0.1971  2.5565
  354TMC3    H1 5308   3.351   0.420  13.150  3.0251 -1.1595 -0.7600
  354TMC3    H2 5309   3.553   0.714  12.931 -0.4444  1.8501  0.7700
  354TMC3    C7 5310   3.454   0.478  12.915  0.4850 -0.0021 -0.8702
  354TMC3    C8 5311   3.352   0.882  12.943 -0.6038 -0.3255 -0.4877
  354TMC3    O1 5312   3.441   0.359  12.933 -0.2717  0.1729  0.0243
  354TMC3    O2 5313   3.365   0.842  12.828 -0.2460 -0.0908  0.7979
  355MPD2     C 5314   2.877   1.321  10.865  0.2296  0.2838 -0.0623
  355MPD2    C1 5315   2.953   1.223  10.926 -0.2278 -0.3064  0.1467
  355MPD2    C2 5316   2.957   1.221  11.064  0.3807 -0.4265 -0.3090
  355MPD2    C3 5317   2.893   1.321  11.143 -0.5348 -0.4415  0.1738
  355MPD2    C4 5318   2.815   1.420  11.082  0.0336 -0.4631 -0.1971
  355MPD2    C5 5319   2.807   1.410  10.940  0.0147  0.6528 -0.2907
  355MPD2     H 5320   3.021   1.151  11.117  0.3348  0.7377  1.2932
  355MPD2    H1 5321   2.770   1.497  11.145  0.8165 -0.6450  0.5838
  355MPD2    H2 5322   2.884   1.328  10.757 -0.3855 -1.2933 -0.2043
  355MPD2    H3 5323   2.748   1.480  10.883  0.9255 -0.2978 -2.3654
  355MPD2     N 5324   2.914   1.339  11.283 -0.2106 -0.2391  0.0729
  355MPD2    H5 5325   2.907   1.433  11.321  0.2566  0.3206 -1.2243
  355MPD2    N1 5326   3.020   1.133  10.834  0.4844 -0.2259 -0.3216
  355MPD2    H7 5327   2.985   1.121  10.740 -2.3093 -0.4959  0.7522
  356TMC3    C1 5328   3.038   1.288  11.477  0.9488 -0.1217 -0.8479
  356TMC3    C2 5329   3.161   1.228  11.489  0.7232 -0.0627  0.4516
  356TMC3    C3 5330   3.274   1.302  11.520 -0.4050 -0.4185  0.7109
  356TMC3    C4 5331   3.028   1.422  11.499 -0.2863  0.1433  0.2386
  356TMC3    C5 5332   3.142   1.492  11.534 -0.0717  0.4079  0.0604
  356TMC3    C6 5333   3.267   1.436  11.545  0.3628 -0.6710  0.1950
  356TMC3     C 5334   2.962   1.238  11.363  0.4495  0.5151  0.2178
  356TMC3     O 5335   2.948   1.118  11.355 -0.1393  0.1212  0.5575
  356TMC3     H 5336   3.172   1.125  11.457  2.5756 -0.1014  1.2074
  356TMC3    H1 5337   2.929   1.465  11.516  0.5232  1.6912  1.0281
  356TMC3    H2 5338   3.358   1.493  11.562  1.8322 -3.5336  1.8257
  356TMC3    C7 5339   3.131   1.629  11.570  0.8298 -0.0278  0.3779
  356TMC3    C8 5340   3.400   1.234  11.469  0.4656  0.4775  0.3412
  356TMC3    O1 5341   3.047   1.703  11.515 -0.5301  0.2608  0.4970
  356TMC3    O2 5342   3.390   1.138  11.395 -0.1217 -0.2697 -0.6817
  357MPD2     C 5343   1.345   0.966   0.650 -0.0520  0.0057 -0.4106
  357MPD2    C1 5344   1.483   0.956   0.654 -0.8428 -0.0503 -0.5325
  357MPD2    C2 5345   1.529   0.838   0.707 -0.2117 -0.3633 -0.3006
  357MPD2    C3 5346   1.447   0.738   0.756  0.4865  0.0158  0.4591
  357MPD2    C4 5347   1.314   0.756   0.749 -0.8078  0.3930  0.5337
  357MPD2    C5 5348   1.267   0.868   0.694  0.5234  0.1670 -0.2600
  357MPD2     H 5349   1.635   0.821   0.717 -0.1358 -0.2327 -0.8749
  357MPD2    H1 5350   1.250   0.681   0.794 -1.4965 -0.5588 -2.0112
  357MPD2    H2 5351   1.304   1.060   0.616  2.2307  1.1482 -0.0165
  357MPD2    H3 5352   1.158   0.874   0.698  0.3928 -3.1796  0.8212
  357MPD2     N 5353   1.494   0.623   0.826 -0.0219  0.1332 -0.5933
  357MPD2    H5 5354   1.435   0.565   0.886 -0.2284  1.7138  0.7238
  357MPD2    N1 5355   1.569   1.055   0.597 -0.0337  0.1132  0.0920
  357MPD2    H7 5356   1.530   1.145   0.569 -0.7452 -0.2843 -0.1979
  358TMC3    C1 5357   1.774   1.152   0.516 -0.1119 -0.2058  0.0352
  358TMC3    C2 5358   1.912   1.150   0.513  0.2813 -0.0772  0.3649
  358TMC3    C3 5359   1.976   1.258   0.461  0.0920  0.5829  0.3635
  358TMC3    C4 5360   1.702   1.259   0.470  0.5001 -0.5632  0.6575
  358TMC3    C5 5361   1.779   1.347   0.398  0.4626 -0.4696 -0.2583
  358TMC3    C6 5362   1.916   1.367   0.405 -0.1752  0.0408  0.2508
  358TMC3     C 5363   1.706   1.037   0.573 -0.0495  0.4909  0.0387
  358TMC3     O 5364   1.776   0.941   0.595  0.0546 -0.3178 -0.0625
  358TMC3     H 5365   1.972   1.069   0.550  2.2172  1.1841 -0.0209
  358TMC3    H1 5366   1.596   1.266   0.453  0.6196  1.0776  0.5828
  358TMC3    H2 5367   1.963   1.441   0.341 -0.3292  1.4430  1.7590
  358TMC3    C7 5368   1.718   1.469   0.356  0.0017 -0.6284  0.2382
  358TMC3    C8 5369   2.118   1.243   0.429  0.8333 -0.5212 -0.2964
  358TMC3    O1 5370   1.620   1.494   0.423  0.3835  0.0853 -0.3006
  358TMC3    O2 5371   2.159   1.128   0.412 -0.3723 -0.3080 -0.0443
  359MPD2     C 5372   3.117   4.500  12.649 -0.1964 -0.1544  0.1213
  359MPD2    C1 5373   3.204   4.388  12.648 -0.5261  0.0701  0.5099
  359MPD2    C2 5374   3.227   4.317  12.763 -0.7091 -0.4307 -0.7071
  359MPD2    C3 5375   3.181   4.363  12.881  0.0889 -0.0265 -0.2351
  359MPD2    C4 5376   3.103   4.473  12.885  0.2662  0.0500  0.1571
  359MPD2    C5 5377   3.071   4.540  12.773 -0.3576 -0.4224 -0.1990
  359MPD2     H 5378   3.296   4.234  12.768 -1.7808 -1.3918 -1.9513
  359MPD2    H1 5379   3.067   4.514  12.979  0.6735  0.3949  0.1604
  359MPD2    H2 5380   3.092   4.565  12.566 -1.4931 -0.9140 -0.0914
  359MPD2    H3 5381   3.013   4.630  12.793  0.2746 -0.2948  1.0637
  359MPD2     N 5382   3.217   4.300  13.006  0.6664 -0.0451 -0.3110
  359MPD2    H5 5383   3.151   4.318  13.081  1.7797  2.7889 -0.0314
  359MPD2    N1 5384   3.264   4.347  12.522  0.2193 -0.6063  0.1509
  359MPD2    H7 5385   3.333   4.272  12.519 -0.5508 -1.3644  1.0222
  360TMC3    C1 5386   3.308   4.335  12.294 -0.4636  0.1402 -0.1043
  360TMC3    C2 5387   3.368   4.409  12.198 -0.5818  0.1288 -0.2235
  360TMC3    C3 5388   3.455   4.355  12.107  0.0203 -0.0868  0.0549
  360TMC3    C4 5389   3.319   4.201  12.289 -0.0253 -1.1433 -0.8723
  360TMC3    C5 5390   3.393   4.152  12.188 -0.0289 -0.2367 -0.0626
  360TMC3    C6 5391   3.469   4.221  12.098 -0.0965 -0.2946 -0.6584
  360TMC3     C 5392   3.257   4.414  12.405 -0.1907  0.2800 -0.2098
  360TMC3     O 5393   3.225   4.527  12.376  0.1527 -0.5143  0.1027
  360TMC3     H 5394   3.372   4.517  12.205 -1.1641  0.1385 -0.0839
  360TMC3    H1 5395   3.264   4.137  12.357 -0.0030 -1.2110 -0.9173
  360TMC3    H2 5396   3.525   4.163  12.025 -1.7927  1.4374 -3.3530
  360TMC3    C7 5397   3.344   4.026  12.136 -0.3098 -0.1533 -0.8408
  360TMC3    C8 5398   3.548   4.445  12.040 -0.8149 -0.2650  0.0809
  360TMC3    O1 5399   3.335   3.936  12.215  0.3483 -0.1084 -0.1117
  360TMC3    O2 5400   3.518   4.564  12.040  0.1257 -0.0705 -0.5707
  361MPD2     C 5401   0.349   3.584  16.797 -0.7178  0.1710  0.5236
  361MPD2    C1 5402   0.354   3.614  16.933 -0.2058 -0.6874  0.0585
  361MPD2    C2 5403   0.425   3.529  17.014 -0.3886  0.0184  0.0054
  361MPD2    C3 5404   0.500   3.425  16.958  0.8363 -0.2130 -0.1332
  361MPD2    C4 5405   0.512   3.413  16.822 -0.2713 -0.5199 -0.5135
  361MPD2    C5 5406   0.426   3.483  16.744  0.6938 -0.1219 -0.3294
  361MPD2     H 5407   0.436   3.556  17.118  1.1716  1.3654 -0.5167
  361MPD2    H1 5408   0.569   3.337  16.770 -0.5542 -1.8175  1.0626
  361MPD2    H2 5409   0.298   3.648  16.726 -0.1610  0.5484  0.4618
  361MPD2    H3 5410   0.441   3.459  16.640 -0.2701 -0.6556 -0.3418
  361MPD2     N 5411   0.566   3.323  17.035  0.5286  0.0800 -0.2847
  361MPD2    H5 5412   0.616   3.250  16.986  3.0481  0.2590  2.0424
  361MPD2    N1 5413   0.284   3.729  16.981 -0.5434 -0.8660 -0.2257
  361MPD2    H7 5414   0.221   3.766  16.910 -0.0273  1.4261  0.5053
  362TMC3    C1 5415   0.219   3.908  17.124 -0.7278 -0.3350 -0.1545
  362TMC3    C2 5416   0.189   3.928  17.250  0.8674  0.6836  0.8748
  362TMC3    C3 5417   0.090   4.022  17.269 -0.2227  0.3390  0.2721
  362TMC3    C4 5418   0.162   3.971  17.015 -0.6275 -0.4917  0.1248
  362TMC3    C5 5419   0.069   4.064  17.045 -0.3908 -0.1614  0.2298
  362TMC3    C6 5420   0.023   4.095  17.173  0.2700 -0.0505 -0.0177
  362TMC3     C 5421   0.298   3.785  17.105 -0.0983 -0.0594  0.2149
  362TMC3     O 5422   0.385   3.773  17.189  0.0331 -0.1711 -0.0003
  362TMC3     H 5423   0.223   3.874  17.337  2.1901 -1.0785 -0.7363
  362TMC3    H1 5424   0.205   3.961  16.915 -1.2269 -1.9717  0.0200
  362TMC3    H2 5425   4.665   4.165  17.194  0.9438  0.7028  0.0181
  362TMC3    C7 5426   0.018   4.131  16.931 -0.1904  0.7094 -0.6401
  362TMC3    C8 5427   0.078   4.073  17.398 -0.3115 -0.0671  0.4694
  362TMC3    O1 5428   0.059   4.095  16.823  0.1714  0.7489  0.0167
  362TMC3    O2 5429   0.182   4.074  17.459  0.0771  0.5711 -0.3300
  363TMC3    C1 5430   3.373   4.094   8.722  0.0755  0.1254 -0.6127
  363TMC3    C2 5431   3.454   4.190   8.770  0.5313  0.5228  0.5060
  363TMC3    C3 5432   3.406   4.323   8.764  0.5636 -0.6302  0.7130
  363TMC3    C4 5433   3.256   4.121   8.650  0.7410 -0.1414  0.6261
  363TMC3    C5 5434   3.222   4.255   8.634  0.1714  0.5759 -0.0695
  363TMC3    C6 5435   3.291   4.358   8.697 -0.4357 -0.3902  0.3954
  363TMC3     C 5436   3.418   3.955   8.726  0.0981  0.2227  0.4505
  363TMC3     O 5437   3.517   3.937   8.800 -0.1263  0.3932 -0.7858
  363TMC3     H 5438   3.555   4.167   8.803  0.1651  0.0241  1.2665
  363TMC3    H1 5439   3.187   4.046   8.615  0.0730  1.2258 -1.0452
  363TMC3    H2 5440   3.260   4.462   8.696 -1.7886 -0.7928 -0.0098
  363TMC3    C7 5441   3.125   4.277   8.530  0.0874 -0.3039  0.3918
  363TMC3    C8 5442   3.501   4.425   8.811  0.7872  0.1648  0.8972
  363TMC3    O1 5443   3.086   4.173   8.473 -0.2067 -0.4895 -0.1631
  363TMC3    O2 5444   3.501   4.540   8.765  0.4772  0.2341 -0.1131
  364MPD2     C 5445   2.066   4.564  10.008  0.2242 -0.1590  0.6532
  364MPD2    C1 5446   2.073   4.670  10.096  0.3760 -0.1161 -0.1739
  364MPD2    C2 5447   2.130   4.648  10.219  0.6517 -1.2318  0.2727
  364MPD2    C3 5448   2.178   4.516  10.255  0.4411  0.0918  0.0924
  364MPD2    C4 5449   2.182   4.416  10.159 -0.0321 -0.2452 -0.3809
  364MPD2    C5 5450   2.128   4.444  10.033 -0.0390  0.5956  0.5895
  364MPD2     H 5451   2.125   0.009  10.289  1.2240  0.4037 -1.6123
  364MPD2    H1 5452   2.229   4.321  10.179 -1.6570 -0.9295  0.1841
  364MPD2    H2 5453   2.016   4.586   9.914  2.7345 -0.6705 -0.7964
  364MPD2    H3 5454   2.128   4.372   9.952 -0.4286  1.1647  0.0873
  364MPD2     N 5455   2.231   4.484  10.383 -0.1363 -0.6997  0.3105
  364MPD2    H5 5456   2.293   4.403  10.386 -0.1184 -0.7582 -1.7558
  364MPD2    N1 5457   2.023   0.074  10.058 -0.6478 -0.1821 -0.1238
  364MPD2    H7 5458   1.993   0.086   9.962  4.3301 -0.8887 -1.7515
  365TMC3    C1 5459   2.006   0.308  10.040  0.0578 -1.1223 -0.1256
  365TMC3    C2 5460   2.069   0.312   9.917 -1.2286 -0.5947 -0.2422
  365TMC3    C3 5461   2.090   0.442   9.862 -0.2193  0.7802 -0.6906
  365TMC3    C4 5462   1.958   0.417  10.100  0.1916  0.2087 -0.2225
  365TMC3    C5 5463   1.968   0.543  10.040  0.0128 -0.7965 -0.2071
  365TMC3    C6 5464   2.026   0.551   9.914  0.4487 -0.4694  0.1006
  365TMC3     C 5465   2.029   0.198  10.130 -0.4104 -0.3220 -0.0529
  365TMC3     O 5466   2.038   0.225  10.248 -0.1184  0.7542  0.4083
  365TMC3     H 5467   2.132   0.228   9.891 -1.3699 -0.1719 -1.9579
  365TMC3    H1 5468   1.905   0.404  10.193  0.1327  0.8345 -0.1714
  365TMC3    H2 5469   2.035   0.650   9.873 -0.0724 -0.0242  1.0509
  365TMC3    C7 5470   1.970   0.660  10.129 -0.4923 -0.0045  0.3923
  365TMC3    C8 5471   2.148   0.449   9.725  0.6557 -0.5568  0.3534
  365TMC3    O1 5472   1.927   0.764  10.078  0.5220  0.1546  0.0683
  365TMC3    O2 5473   2.132   0.546   9.655 -0.0938 -0.6391  0.3925
  366MPD2     C 5474   0.280   2.281  15.409  0.0245  0.1019 -0.2319
  366MPD2    C1 5475   0.389   2.290  15.325  0.2020  0.4527 -0.5325
  366MPD2    C2 5476   0.415   2.179  15.253 -0.2816  0.5190  1.0396
  366MPD2    C3 5477   0.332   2.070  15.257  0.0073 -0.3222 -0.3964
  366MPD2    C4 5478   0.223   2.062  15.336  0.3250 -0.1148 -0.1979
  366MPD2    C5 5479   0.197   2.174  15.407  0.1091 -0.4310  0.3373
  366MPD2     H 5480   0.502   2.174  15.190 -0.1169  2.9835  1.0817
  366MPD2    H1 5481   0.148   1.984  15.339 -3.7093  3.7442 -1.1512
  366MPD2    H2 5482   0.259   2.361  15.478  2.4506  1.8717 -1.5471
  366MPD2    H3 5483   0.106   2.173  15.467  1.2204 -1.1677  2.0139
  366MPD2     N 5484   0.373   1.965  15.178  0.6368 -0.1060 -0.0756
  366MPD2    H5 5485   0.448   1.985  15.113 -1.0067 -0.2226 -2.0011
  366MPD2    N1 5486   0.485   2.392  15.325  0.2902 -0.3589 -0.7024
  366MPD2    H7 5487   0.565   2.379  15.263  0.0831 -0.9241 -0.8565
  367TMC3    C1 5488   0.598   2.577  15.407  0.5109 -0.5135 -0.0823
  367TMC3    C2 5489   0.706   2.500  15.372 -0.5435  0.6388 -0.3353
  367TMC3    C3 5490   0.821   2.564  15.334  0.2878  0.1082  0.8882
  367TMC3    C4 5491   0.599   2.713  15.416  0.7125 -0.2378  1.1535
  367TMC3    C5 5492   0.714   2.773  15.372 -0.3435 -0.1968 -0.6548
  367TMC3    C6 5493   0.833   2.699  15.346  0.2001 -0.6045  0.4701
  367TMC3     C 5494   0.468   2.512  15.389 -0.5107  0.7143  0.1005
  367TMC3     O 5495   0.371   2.563  15.437 -0.2874 -0.3947  0.2352
  367TMC3     H 5496   0.711   2.392  15.362 -2.1631  0.5582 -0.3400
  367TMC3    H1 5497   0.505   2.767  15.409  1.6850  1.2624 -0.2066
  367TMC3    H2 5498   0.925   2.749  15.317  0.1432  0.5761  2.2777
  367TMC3    C7 5499   0.684   2.879  15.274  0.0441 -0.0809 -0.1547
  367TMC3    C8 5500   0.944   2.487  15.324 -0.3393 -0.0546 -0.1807
  367TMC3    O1 5501   0.575   2.936  15.295  0.0539  0.6283 -0.3226
  367TMC3    O2 5502   1.046   2.549  15.342  0.2849  0.0212  0.2238
  368MPD2     C 5503   1.937   3.322  12.684 -1.0298  0.0824  0.0939
  368MPD2    C1 5504   1.953   3.461  12.704  0.3286  0.4184  0.3140
  368MPD2    C2 5505   2.055   3.505  12.788  0.1732 -0.1032 -0.5062
  368MPD2    C3 5506   2.143   3.410  12.845  0.7525  0.9568  0.5632
  368MPD2    C4 5507   2.125   3.277  12.816  0.9864  0.1630  0.1050
  368MPD2    C5 5508   2.020   3.235  12.740  0.0886  0.2904  0.7122
  368MPD2     H 5509   2.064   3.612  12.801  0.4296  0.0965 -2.2508
  368MPD2    H1 5510   2.195   3.199  12.844 -1.6913 -2.1115  0.4448
  368MPD2    H2 5511   1.858   3.286  12.619  0.9682  1.2820 -2.9754
  368MPD2    H3 5512   2.013   3.131  12.708  0.4895  0.3006  0.5977
  368MPD2     N 5513   2.253   3.448  12.922  0.0675  0.1805  0.4141
  368MPD2    H5 5514   2.313   3.374  12.958  3.4508  2.0267 -1.4465
  368MPD2    N1 5515   1.863   3.549  12.633  0.1895 -0.4624  0.5687
  368MPD2    H7 5516   1.783   3.511  12.583 -0.4673  0.7902  0.6520
  369TMC3    C1 5517   1.775   3.758  12.574 -0.1275 -0.3817 -0.0627
  369TMC3    C2 5518   1.807   3.875  12.516 -0.7589 -0.1096 -0.0493
  369TMC3    C3 5519   1.703   3.960  12.490  0.0599 -0.1727  0.0922
  369TMC3    C4 5520   1.645   3.721  12.599 -0.1201  0.0516 -0.2501
  369TMC3    C5 5521   1.541   3.803  12.570 -0.9937  0.5201  0.6907
  369TMC3    C6 5522   1.569   3.927  12.519 -0.4797  0.0267 -0.2154
  369TMC3     C 5523   1.878   3.688  12.637 -0.5615  0.2098 -0.6751
  369TMC3     O 5524   1.971   3.756  12.671 -0.9461  0.4545  0.2912
  369TMC3     H 5525   1.910   3.899  12.493 -0.7892  0.1945  0.1312
  369TMC3    H1 5526   1.624   3.630  12.654  0.5102  0.0582  0.0100
  369TMC3    H2 5527   1.493   4.002  12.497  1.4907  2.2071  0.3606
  369TMC3    C7 5528   1.427   3.783  12.659 -0.2605 -0.4812  0.4316
  369TMC3    C8 5529   1.715   4.100  12.461 -0.3824 -0.1026 -0.3671
  369TMC3    O1 5530   1.457   3.721  12.758  0.6145 -0.3223  0.0815
  369TMC3    O2 5531   1.629   4.162  12.402  0.3164  0.0805 -0.0031
  370TMC3    C1 5532   1.291   4.363  16.468 -0.3541 -0.3330  0.0559
  370TMC3    C2 5533   1.268   4.296  16.584 -0.8998 -0.7751  0.3742
  370TMC3    C3 5534   1.230   4.165  16.581 -1.2576  0.4222 -0.4823
  370TMC3    C4 5535   1.263   4.300  16.349 -0.0236  0.2110  0.1692
  370TMC3    C5 5536   1.231   4.168  16.343  0.1600 -0.0781  0.8562
  370TMC3    C6 5537   1.214   4.095  16.457 -0.5437 -0.2377  0.0906
  370TMC3     C 5538   1.261   4.506  16.475  0.5226  0.1618  0.1284
  370TMC3     O 5539   1.191   4.545  16.561  0.2761 -0.0286 -0.5164
  370TMC3     H 5540   1.290   4.348  16.677 -1.3753  3.3341 -1.7968
  370TMC3    H1 5541   1.249   4.360  16.260 -0.6729 -2.6866 -1.6788
  370TMC3    H2 5542   1.177   3.993  16.460  0.1432 -0.4772  0.3690
  370TMC3    C7 5543   1.200   4.113  16.213 -0.0123 -0.4671 -0.3169
  370TMC3    C8 5544   1.205   4.090  16.702  0.3664 -0.0551  0.1998
  370TMC3    O1 5545   1.123   4.181  16.144  0.1283  0.1480 -0.2663
  370TMC3    O2 5546   1.209   3.966  16.689  0.3739  0.4365  0.1893
  371TMC3    C1 5547   2.526   2.600  15.557 -0.6167  0.4311  0.2569
  371TMC3    C2 5548   2.394   2.599  15.528  0.6320  0.6492 -1.0338
  371TMC3    C3 5549   2.335   2.724  15.517  0.1132  0.0859 -0.0430
  371TMC3    C4 5550   2.597   2.709  15.593 -0.0604 -0.0348  0.0081
  371TMC3    C5 5551   2.537   2.831  15.578  1.0360  0.2240  0.1730
  371TMC3    C6 5552   2.408   2.841  15.549  0.2320 -0.1040  0.1341
  371TMC3     C 5553   2.596   2.474  15.549  0.2719  0.0345  0.4965
  371TMC3     O 5554   2.718   2.477  15.553 -0.0568 -0.0179 -0.5165
  371TMC3     H 5555   2.334   2.513  15.502  1.9809 -0.3555 -0.7954
  371TMC3    H1 5556   2.704   2.693  15.603  0.0271  0.4354 -0.1927
  371TMC3    H2 5557   2.355   2.935  15.552  1.3040  0.4923  0.3070
  371TMC3    C7 5558   2.600   2.958  15.615 -0.0620  0.2445 -0.0761
  371TMC3    C8 5559   2.195   2.727  15.486 -0.1161  1.0252  0.6158
  371TMC3    O1 5560   2.562   3.057  15.545 -0.4542 -0.1174  0.1560
  371TMC3    O2 5561   2.146   2.636  15.425  0.8957 -0.8364 -0.9493
  372MPD2     C 5562   3.138   3.807  13.616  0.4325  0.4093  0.1736
  372MPD2    C1 5563   3.178   3.670  13.616 -0.2299 -0.4863  0.1945
  372MPD2    C2 5564   3.076   3.579  13.607 -0.1615  0.3136  0.0187
  372MPD2    C3 5565   2.943   3.613  13.607  0.1737 -0.3586 -0.9854
  372MPD2    C4 5566   2.906   3.742  13.603  0.0402 -0.2569 -0.6001
  372MPD2    C5 5567   3.004   3.842  13.612 -0.3232  0.1546 -1.0935
  372MPD2     H 5568   3.100   3.474  13.622 -0.9310  0.4409  2.1470
  372MPD2    H1 5569   2.808   3.778  13.575  0.1018  2.1429  2.2448
  372MPD2    H2 5570   3.198   3.893  13.643 -1.3660  1.3691  1.1771
  372MPD2    H3 5571   2.981   3.948  13.613  2.2254  0.6948 -0.3413
  372MPD2     N 5572   2.845   3.510  13.593 -0.1910 -0.4286 -0.3800
  372MPD2    H5 5573   2.874   3.413  13.598 -2.8947 -1.0374  3.7505
  372MPD2    N1 5574   3.315   3.637  13.630  0.1537  0.0160 -0.2357
  372MPD2    H7 5575   3.333   3.538  13.640  0.2410  0.1887  1.2177
  373TMC3    C1 5576   2.634   3.401  13.611  1.0933 -0.6877 -0.1770
  373TMC3    C2 5577   2.534   3.397  13.698  0.0619  0.2032 -0.7739
  373TMC3    C3 5578   2.461   3.282  13.702  1.0926 -0.9053 -0.0848
  373TMC3    C4 5579   2.672   3.299  13.535 -0.3435 -0.4019 -0.0835
  373TMC3    C5 5580   2.593   3.188  13.542  0.2120  0.1326  0.5756
  373TMC3    C6 5581   2.487   3.177  13.626 -0.3803 -0.6345 -0.1537
  373TMC3     C 5582   2.707   3.528  13.597  0.1445  0.8747 -0.0583
  373TMC3     O 5583   2.647   3.638  13.619 -0.4209 -0.0534 -0.3653
  373TMC3     H 5584   2.505   3.486  13.752 -0.2225  0.6259 -1.6360
  373TMC3    H1 5585   2.754   3.304  13.465 -1.8600 -2.5704 -2.0288
  373TMC3    H2 5586   2.424   3.089  13.630 -1.6653  0.2155 -1.7543
  373TMC3    C7 5587   2.631   3.070  13.463 -0.7430  0.3480 -0.6226
  373TMC3    C8 5588   2.386   3.258  13.822  0.2319  0.6901 -0.2411
  373TMC3    O1 5589   2.575   2.967  13.493  0.4132 -0.0630  0.1489
  373TMC3    O2 5590   2.317   3.159  13.821 -0.2010  0.0214 -0.1046
  374TMC3    C1 5591   2.723   3.124   9.416 -0.5602  0.7832  0.7668
  374TMC3    C2 5592   2.784   3.230   9.479  0.2969  0.2493  0.6636
  374TMC3    C3 5593   2.783   3.346   9.406  0.6308  0.1765 -0.2299
  374TMC3    C4 5594   2.683   3.122   9.284  0.1096  0.5844 -0.3277
  374TMC3    C5 5595   2.679   3.244   9.215  0.4181  0.0802  0.1436
  374TMC3    C6 5596   2.716   3.357   9.281  0.0346  0.4722 -0.0439
  374TMC3     C 5597   2.692   3.009   9.500 -0.2484 -0.4148 -0.0536
  374TMC3     O 5598   2.765   2.989   9.595 -0.6791 -0.6347 -0.7260
  374TMC3     H 5599   2.826   3.223   9.578 -0.3543 -0.8809  0.8713
  374TMC3    H1 5600   2.640   3.033   9.238  0.3567  0.3804 -0.1646
  374TMC3    H2 5601   2.711   3.449   9.223  1.3113  1.8560  2.0335
  374TMC3    C7 5602   2.605   3.252   9.092 -0.2374  0.6175 -0.0038
  374TMC3    C8 5603   2.823   3.461   9.470  0.0503  0.6036 -0.0340
  374TMC3    O1 5604   2.540   3.353   9.089  0.3565  0.0802  0.0435
  374TMC3    O2 5605   2.810   3.558   9.394 -0.0336  0.2115  0.0934
  375MPD2     C 5606   2.606   4.447  17.345 -0.3738  0.0326 -1.1211
  375MPD2    C1 5607   2.553   4.522  17.236  0.2167 -0.0769 -0.7740
  375MPD2    C2 5608   2.640   4.546  17.133 -0.9420  0.5825  0.6948
  375MPD2    C3 5609   2.774   4.508  17.135 -0.4257  0.6235 -0.1792
  375MPD2    C4 5610   2.820   4.436  17.246 -0.2643  0.0419 -0.1983
  375MPD2    C5 5611   2.735   4.396  17.343 -0.1339 -0.1073 -0.9021
  375MPD2     H 5612   2.587   4.595  17.052  2.2238  2.9814  0.0563
  375MPD2    H1 5613   2.922   4.401  17.254 -0.6193 -1.1663 -1.0702
  375MPD2    H2 5614   2.547   4.430  17.434  0.6431 -1.1084 -0.6613
  375MPD2    H3 5615   2.765   4.341  17.432  1.7952  1.7125 -0.4345
  375MPD2     N 5616   2.849   4.530  17.016 -0.0184  0.6323  0.0692
  375MPD2    H5 5617   2.938   4.481  17.006 -0.6402 -0.2256 -1.1412
  375MPD2    N1 5618   2.424   4.586  17.239 -0.5232 -0.5079 -0.0238
  375MPD2    H7 5619   2.398   4.641  17.158 -0.8025 -0.7853 -0.1211
  376TMC3    C1 5620   2.889   4.584  16.800  0.5243  0.5350  0.2952
  376TMC3    C2 5621   3.014   4.631  16.810  0.3271  0.0181  0.6273
  376TMC3    C3 5622   3.092   4.626  16.695  0.1898  0.2718 -0.5981
  376TMC3    C4 5623   2.841   4.513  16.694  0.4642 -0.0092  0.7020
  376TMC3    C5 5624   2.919   4.500  16.582 -0.8734  0.5352 -0.4872
  376TMC3    C6 5625   3.043   4.556  16.590 -0.0935  0.1386  0.4047
  376TMC3     C 5626   2.807   4.608  16.908  0.1444  0.1970 -0.2370
  376TMC3     O 5627   2.696   4.645  16.877 -0.2345 -0.4381 -0.3101
  376TMC3     H 5628   3.038   4.674  16.906  1.3561 -0.2339  0.4866
  376TMC3    H1 5629   2.735   4.492  16.701  0.7437 -2.3762 -2.3430
  376TMC3    H2 5630   3.109   4.540  16.506  0.7228  1.2885  0.8188
  376TMC3    C7 5631   2.852   4.476  16.460 -0.7009  0.0839 -0.0727
  376TMC3    C8 5632   3.207   4.711  16.676 -0.3250  0.1512  0.2049
  376TMC3    O1 5633   2.921   4.498  16.363 -0.0887  0.0936 -0.5237
  376TMC3    O2 5634   3.269   4.689  16.573 -0.4065 -0.7499  0.4024
  377MPD2     C 5635   1.093   4.157  11.818 -0.5643 -0.2697 -0.6366
  377MPD2    C1 5636   1.164   4.128  11.933  0.3027 -0.4799  0.0924
  377MPD2    C2 5637   1.089   4.084  12.041  0.0118  0.7041 -0.1125
  377MPD2    C3 5638   0.952   4.084  12.033  0.3333  0.0768  0.9674
  377MPD2    C4 5639   0.882   4.103  11.916 -0.6183 -0.5801 -0.2221
  377MPD2    C5 5640   0.957   4.152  11.806  0.5771  0.7990  0.1226
  377MPD2     H 5641   1.137   4.078  12.138  1.6731  0.2505 -0.9672
  377MPD2    H1 5642   0.774   4.107  11.910 -0.7627 -1.6739  1.9768
  377MPD2    H2 5643   1.153   4.186  11.732 -1.1161 -1.7612 -1.5234
  377MPD2    H3 5644   0.904   4.176  11.715 -1.0948  0.3393  0.9740
  377MPD2     N 5645   0.862   4.058  12.138  0.0963 -0.6407  0.1581
  377MPD2    H5 5646   0.764   4.081  12.122  0.4679  0.6733 -0.2499
  377MPD2    N1 5647   1.302   4.165  11.929  0.6410  0.3241  0.2254
  377MPD2    H7 5648   1.333   4.217  11.848  1.1513 -2.5659 -1.4121
  378TMC3    C1 5649   1.649   4.196  11.802 -0.3172 -0.0113  0.3843
  378TMC3    C2 5650   1.547   4.251  11.879  0.4310 -0.2505  0.0802
  378TMC3    C3 5651   1.527   4.202  12.005  0.3825 -0.3157 -0.1264
  378TMC3    C4 5652   1.737   4.111  11.866  0.1110 -0.3773  0.3429
  378TMC3    C5 5653   1.731   4.100  12.004  0.0108  0.6945 -0.4601
  378TMC3    C6 5654   1.618   4.122  12.077 -0.0619 -0.4425 -0.0316
  378TMC3     C 5655   1.604   4.136  11.680  1.1194  1.0032 -0.3273
  378TMC3     O 5656   1.583   4.015  11.691  0.0866 -0.2597  0.4661
  378TMC3     H 5657   1.469   4.314  11.837 -0.7450 -1.4445  0.4581
  378TMC3    H1 5658   1.819   4.065  11.814  1.2028  2.1377 -0.1469
  378TMC3    H2 5659   1.607   4.082  12.177  0.2042  1.5394  0.8092
  378TMC3    C7 5660   1.846   4.046  12.077 -0.1236 -0.7713  0.0084
  378TMC3    C8 5661   1.387   4.174  12.039 -0.2584 -0.6400 -0.8548
  378TMC3    O1 5662   1.812   3.982  12.175 -0.4242 -0.3046  0.4788
  378TMC3    O2 5663   1.362   4.122  12.145 -0.3373  0.2126 -0.0544
  379MPD2     C 5664   1.474   2.220  15.836  0.0856 -0.0496 -0.1363
  379MPD2    C1 5665   1.593   2.169  15.794 -0.2728  0.1508 -0.3937
  379MPD2    C2 5666   1.677   2.105  15.885  0.7045 -0.0311  0.4612
  379MPD2    C3 5667   1.649   2.102  16.020  0.2966 -0.3519  0.0040
  379MPD2    C4 5668   1.526   2.149  16.062  0.3894 -0.3603 -0.0881
  379MPD2    C5 5669   1.441   2.205  15.967 -0.5630  0.1163  0.4297
  379MPD2     H 5670   1.765   2.057  15.845  1.9260  0.9112  2.0145
  379MPD2    H1 5671   1.483   2.133  16.161  1.0368  1.7877  0.5317
  379MPD2    H2 5672   1.406   2.272  15.770  0.0769 -0.1988 -0.2443
  379MPD2    H3 5673   1.348   2.243  16.006 -0.1170 -1.1041  2.6912
  379MPD2     N 5674   1.729   2.033  16.118  0.2013  0.4550  0.0704
  379MPD2    H5 5675   1.697   2.025  16.214 -2.1981  2.3180 -0.5673
  379MPD2    N1 5676   1.628   2.190  15.659 -0.6076 -0.4210  1.0555
  379MPD2    H7 5677   1.553   2.217  15.596  1.3193  1.8829 -0.2136
  380TMC3    C1 5678   1.743   2.156  15.455 -0.3173 -0.1340  0.6392
  380TMC3    C2 5679   1.855   2.139  15.378 -0.4520  0.2674 -0.6008
  380TMC3    C3 5680   1.851   2.129  15.244 -0.2005  0.5460 -0.1896
  380TMC3    C4 5681   1.622   2.164  15.387 -0.7917 -1.3346  0.3219
  380TMC3    C5 5682   1.622   2.161  15.249 -0.2124 -0.0990 -0.2171
  380TMC3    C6 5683   1.732   2.143  15.176 -0.3263 -0.0347 -0.0860
  380TMC3     C 5684   1.752   2.170  15.604 -0.7067 -0.2509  0.4242
  380TMC3     O 5685   1.854   2.145  15.663  0.2354 -0.0211 -0.1940
  380TMC3     H 5686   1.951   2.134  15.428 -1.1554  2.1031  0.9608
  380TMC3    H1 5687   1.526   2.167  15.438 -0.2948 -3.2159  1.3690
  380TMC3    H2 5688   1.724   2.143  15.068  2.7213  0.6040 -0.2945
  380TMC3    C7 5689   1.501   2.145  15.173  0.0905 -0.0435 -0.0899
  380TMC3    C8 5690   1.960   2.197  15.173  0.0994 -0.1150  0.8187
  380TMC3    O1 5691   1.509   2.072  15.074 -0.0350  0.3917  0.2011
  380TMC3    O2 5692   1.926   2.273  15.085  0.3716  0.5076 -0.0698
  381TMC3    C1 5693   1.282   2.919  16.209 -0.8866  0.4461 -0.2766
  381TMC3    C2 5694   1.312   3.047  16.163  0.4098  0.8804 -0.1002
  381TMC3    C3 5695   1.263   3.148  16.245 -0.4108  0.2955  0.2560
  381TMC3    C4 5696   1.229   2.892  16.332  0.6597 -0.8284  0.4577
  381TMC3    C5 5697   1.193   2.999  16.412  0.5388  0.2469 -0.8131
  381TMC3    C6 5698   1.200   3.128  16.370 -0.2931 -0.6962 -0.2385
  381TMC3     C 5699   1.329   2.807  16.137  0.0917 -0.5249  0.2133
  381TMC3     O 5700   1.312   2.696  16.191  0.1775  0.1315 -0.1473
  381TMC3     H 5701   1.350   3.075  16.066 -0.8833  3.1593  0.0470
  381TMC3    H1 5702   1.211   2.792  16.371 -0.0931 -0.3518  1.3496
  381TMC3    H2 5703   1.173   3.214  16.431  2.2639  0.1320 -0.2814
  381TMC3    C7 5704   1.136   2.977  16.544  0.1119  0.0536  0.4500
  381TMC3    C8 5705   1.327   3.279  16.212  0.0182  0.7389  0.7711
  381TMC3    O1 5706   1.099   2.860  16.565 -0.0938  0.5257  0.1624
  381TMC3    O2 5707   1.431   3.275  16.151 -0.4173 -0.0467  0.7246
  382MPD2     C 5708   0.646   1.247  17.125  0.2815  0.5906 -0.1034
  382MPD2    C1 5709   0.608   1.271  17.255  0.6042  0.0873  0.5382
  382MPD2    C2 5710   0.573   1.169  17.332  0.6693  0.2540  0.7944
  382MPD2    C3 5711   0.558   1.039  17.278  0.4736 -0.5051 -0.5144
  382MPD2    C4 5712   0.600   1.016  17.151 -0.1124 -0.0357  0.5901
  382MPD2    C5 5713   0.646   1.121  17.076 -0.2157 -0.6225 -0.7011
  382MPD2     H 5714   0.544   1.194  17.433  0.6629  0.1344  0.8217
  382MPD2    H1 5715   0.597   0.918  17.103  3.5527 -0.1224  0.5272
  382MPD2    H2 5716   0.672   1.322  17.052  2.8981 -0.9804 -0.7823
  382MPD2    H3 5717   0.694   1.105  16.980  2.9184 -1.6955  1.0231
  382MPD2     N 5718   0.503   0.926  17.353  0.3739 -0.0478 -0.3136
  382MPD2    H5 5719   0.490   0.840  17.300  2.2854 -0.4620 -0.1207
  382MPD2    N1 5720   0.609   1.404  17.313 -0.2690  0.3682  0.1061
  382MPD2    H7 5721   0.599   1.413  17.414  0.4775  0.0126  0.2099
  383TMC3    C1 5722   0.390   0.817  17.530  0.4874 -0.4902  0.3657
  383TMC3    C2 5723   0.348   0.711  17.446  0.2542  0.3169 -0.5240
  383TMC3    C3 5724   0.263   0.609  17.487  1.2196 -0.0288  0.2478
  383TMC3    C4 5725   0.334   0.818  17.654 -0.1537 -0.1224  0.7116
  383TMC3    C5 5726   0.247   0.719   0.001 -0.8334 -0.2248  0.3357
  383TMC3    C6 5727   0.212   0.608  17.612 -0.5083 -0.3241 -0.8343
  383TMC3     C 5728   0.475   0.931  17.487 -0.9148 -0.3566 -0.1304
  383TMC3     O 5729   0.483   1.025  17.567 -0.5068  0.4573  0.4105
  383TMC3     H 5730   0.370   0.710  17.339  1.1150  0.2201 -0.3483
  383TMC3    H1 5731   0.355   0.890   0.044  0.4978 -1.2002  1.5480
  383TMC3    H2 5732   0.123   0.552  17.638  1.3528 -3.0578 -0.2953
  383TMC3    C7 5733   0.142   0.749   0.101  0.3782 -0.4261 -0.2496
  383TMC3    C8 5734   0.173   0.564  17.390  0.2829  0.0862  0.0534
  383TMC3    O1 5735   0.090   0.650   0.153  0.6842 -0.1012  1.0466
  383TMC3    O2 5736   0.090   0.638  17.337 -0.4620 -0.0149 -0.1838
  384MPD2     C 5737   1.855   2.187  11.753  0.0162  0.3804  0.2762
  384MPD2    C1 5738   1.853   2.061  11.801 -0.5993  0.5332 -0.3279
  384MPD2    C2 5739   1.922   1.960  11.746  0.1529 -0.7727 -0.3548
  384MPD2    C3 5740   2.001   1.982  11.636 -0.2871  0.4012  0.3435
  384MPD2    C4 5741   2.001   2.103  11.576  0.3324 -0.4058  0.2716
  384MPD2    C5 5742   1.930   2.207  11.641 -0.0400 -0.4309  0.4757
  384MPD2     H 5743   1.919   1.858  11.784  4.7031 -0.2823  1.3464
  384MPD2    H1 5744   2.064   2.129  11.491 -1.2776 -1.9464 -1.3930
  384MPD2    H2 5745   1.801   2.273  11.790  0.7263 -0.5817  3.5114
  384MPD2    H3 5746   1.927   2.310  11.607 -1.8124 -0.2881  1.0666
  384MPD2     N 5747   2.072   1.867  11.591  0.2144  0.0160 -0.4999
  384MPD2    H5 5748   2.071   1.780  11.643  1.4552 -0.9184 -2.0411
  384MPD2    N1 5749   1.787   2.029  11.924 -0.0531  0.0720  0.2298
  384MPD2    H7 5750   1.793   1.931  11.950  1.3700  0.2141  0.4212
  385TMC3    C1 5751   2.246   1.745  11.506 -0.1335  0.2009 -0.2954
  385TMC3    C2 5752   2.236   1.652  11.413 -0.4755 -0.3637 -0.0292
  385TMC3    C3 5753   2.256   1.522  11.448  0.0083  0.1697 -0.2485
  385TMC3    C4 5754   2.275   1.714  11.633 -0.1194  0.6184  0.2749
  385TMC3    C5 5755   2.256   1.580  11.670 -0.1797  0.0287 -0.4511
  385TMC3    C6 5756   2.248   1.479  11.579  0.4352 -0.4578 -0.5196
  385TMC3     C 5757   2.163   1.861  11.494 -0.0529 -0.3936  0.1063
  385TMC3     O 5758   2.166   1.936  11.396  0.4163 -0.2736 -0.4644
  385TMC3     H 5759   2.215   1.676  11.310  0.2876  2.0571  0.3941
  385TMC3    H1 5760   2.275   1.796  11.704  2.0975  2.0765 -1.4026
  385TMC3    H2 5761   2.249   1.375  11.609  1.0994 -0.2745  0.0854
  385TMC3    C7 5762   2.155   1.590  11.775  0.4027  1.3234  0.0178
  385TMC3    C8 5763   2.302   1.421  11.356  0.3661  0.4405  0.3499
  385TMC3    O1 5764   2.043   1.623  11.743 -0.2344 -0.2630  0.1164
  385TMC3    O2 5765   2.269   1.303  11.379 -0.0457  0.6545 -0.1005
  386TMC3    C1 5766   2.873   4.058  11.800  0.4105 -0.4959 -1.1226
  386TMC3    C2 5767   2.898   3.976  11.692  0.4085 -0.4100  0.3712
  386TMC3    C3 5768   2.859   4.019  11.570  0.3095  0.4196  1.3256
  386TMC3    C4 5769   2.813   4.184  11.783 -0.0551 -0.4824 -0.9187
  386TMC3    C5 5770   2.775   4.219  11.664 -0.6657 -0.4274  0.5810
  386TMC3    C6 5771   2.796   4.138  11.551 -0.2731 -0.5681  0.5567
  386TMC3     C 5772   2.916   4.021  11.930 -0.0896 -0.1410 -0.9250
  386TMC3     O 5773   2.945   4.114  12.000  0.3539  0.1951  0.0146
  386TMC3     H 5774   2.933   3.874  11.706  1.3136 -0.1048  0.2939
  386TMC3    H1 5775   2.779   4.243  11.867  2.4784  0.9042 -0.8611
  386TMC3    H2 5776   2.778   4.178  11.451  0.7218 -0.7268  0.3135
  386TMC3    C7 5777   2.651   4.279  11.671 -0.2711  1.1657  0.5780
  386TMC3    C8 5778   2.812   3.924  11.468 -0.6341  0.0870 -0.2611
  386TMC3    O1 5779   2.629   4.377  11.741 -0.4005 -0.1429 -0.4901
  386TMC3    O2 5780   2.721   3.963  11.399 -0.3320  0.1852 -0.2474
  387MPD2     C 5781   0.168   3.603   9.601 -1.0515 -0.0517 -0.3751
  387MPD2    C1 5782   0.266   3.592   9.692 -0.2325  0.2225  0.3230
  387MPD2    C2 5783   0.332   3.480   9.731 -0.2669 -0.0833  0.4369
  387MPD2    C3 5784   0.294   3.361   9.676 -0.4777 -0.0938 -0.8239
  387MPD2    C4 5785   0.188   3.362   9.582  0.5336 -0.0824  0.5979
  387MPD2    C5 5786   0.129   3.483   9.543  0.4661  0.1479  0.6288
  387MPD2     H 5787   0.410   3.475   9.807 -0.9296 -0.2243  1.1020
  387MPD2    H1 5788   0.158   3.271   9.532  0.1666  0.3214  0.0854
  387MPD2    H2 5789   0.113   3.692   9.574  0.3903  1.0980  0.4910
  387MPD2    H3 5790   0.063   3.484   9.456  0.2436 -0.7519  0.7829
  387MPD2     N 5791   0.353   3.244   9.725  0.0959 -0.1096 -0.3489
  387MPD2    H5 5792   0.431   3.265   9.787 -0.0203 -0.5225 -0.0571
  387MPD2    N1 5793   0.315   3.707   9.756 -0.1875  0.4213  0.0496
  387MPD2    H7 5794   0.392   3.692   9.820  0.1761 -1.4478 -0.8373
  388TMC3    C1 5795   0.310   3.913   9.872  0.7681  0.0152 -0.3308
  388TMC3    C2 5796   0.217   4.001   9.932 -0.1376  0.0238 -0.2091
  388TMC3    C3 5797   0.241   4.034  10.064 -0.5817 -0.0543  0.4088
  388TMC3    C4 5798   0.420   3.869   9.940 -0.4105 -0.4707 -0.1364
  388TMC3    C5 5799   0.441   3.911  10.070 -0.4897  0.0691  0.3534
  388TMC3    C6 5800   0.352   3.990  10.136  0.3252 -0.6227 -0.4988
  388TMC3     C 5801   0.267   3.834   9.752  0.0024  0.7250 -0.1186
  388TMC3     O 5802   0.189   3.893   9.679  0.1325  0.0886  0.3292
  388TMC3     H 5803   0.125   4.030   9.883 -1.6406 -2.4301  1.1730
  388TMC3    H1 5804   0.503   3.833   9.881  1.6459  0.4398  2.1795
  388TMC3    H2 5805   0.375   4.027  10.235  1.4342 -1.1901 -0.5379
  388TMC3    C7 5806   0.521   3.827  10.153  0.2554  0.2100 -0.0681
  388TMC3    C8 5807   0.144   4.121  10.135 -0.6700  0.1427  0.7127
  388TMC3    O1 5808   0.524   3.854  10.274 -0.0196 -0.6079  0.6057
  388TMC3    O2 5809   0.087   4.212  10.076 -0.2181  0.1531  0.3082
  389MPD2     C 5810   4.568   2.128  10.972  0.2854 -0.2044 -0.4930
  389MPD2    C1 5811   4.459   2.065  10.931 -0.9932 -0.0617  0.6757
  389MPD2    C2 5812   4.368   2.021  11.024 -0.7419 -0.1652  0.0396
  389MPD2    C3 5813   4.389   2.051  11.158  0.6328 -0.7081 -0.2739
  389MPD2    C4 5814   4.498   2.119  11.199 -0.4516 -0.6449  0.2403
  389MPD2    C5 5815   4.585   2.165  11.100  0.2006  0.7617 -0.7160
  389MPD2     H 5816   4.273   1.974  11.000 -1.5221  0.9113  1.0386
  389MPD2    H1 5817   4.520   2.151  11.301 -0.9356 -0.0390  0.1540
  389MPD2    H2 5818   4.651   2.162  10.911 -0.8077 -0.9375 -2.3740
  389MPD2    H3 5819   4.669   2.218  11.143  1.4899 -1.7709 -0.0977
  389MPD2     N 5820   4.298   2.014  11.261  0.6236 -0.2231  0.1535
  389MPD2    H5 5821   4.336   2.026  11.354  0.6550 -0.3038  0.1504
  389MPD2    N1 5822   4.452   2.031  10.795  0.4880 -0.2913  0.3304
  389MPD2    H7 5823   4.519   2.080  10.737  1.6324 -0.7857  1.2399
  390TMC3    C1 5824   4.121   1.908  11.373 -0.0193 -0.0451  0.1041
  390TMC3    C2 5825   4.025   1.802  11.378  0.1602 -0.3003  0.3812
  390TMC3    C3 5826   3.924   1.801  11.469 -0.1761 -1.0600  0.5152
  390TMC3    C4 5827   4.116   2.003  11.472 -0.0439 -0.3877 -0.0202
  390TMC3    C5 5828   4.013   2.000  11.567 -0.5390 -0.1584 -0.0165
  390TMC3    C6 5829   3.919   1.900  11.562 -0.4848  0.9087  0.3665
  390TMC3     C 5830   4.181   1.939  11.247  0.1871 -0.5315 -1.2055
  390TMC3     O 5831   4.113   1.908  11.147  0.6861 -0.3757  0.9095
  390TMC3     H 5832   4.019   1.731  11.297 -1.0071  1.3239 -0.9711
  390TMC3    H1 5833   4.178   2.091  11.466  1.1306 -1.1749  0.6103
  390TMC3    H2 5834   3.846   1.881  11.639 -1.2978 -1.5492 -1.0101
  390TMC3    C7 5835   4.013   2.104  11.676 -0.3133  0.0213  0.6672
  390TMC3    C8 5836   3.810   1.718  11.436  0.3906  0.5175 -0.0100
  390TMC3    O1 5837   4.121   2.154  11.708  0.0489  0.0907 -0.8598
  390TMC3    O2 5838   3.841   1.625  11.368 -0.4137 -0.2527 -0.5466
  391MPD2     C 5839   3.024   3.075  10.916  0.4835 -0.1303  0.6906
  391MPD2    C1 5840   3.107   3.175  10.938  0.3808  0.7891  0.7034
  391MPD2    C2 5841   3.160   3.255  10.841  0.0461  0.4177 -0.4079
  391MPD2    C3 5842   3.118   3.235  10.707 -0.8293  0.3736 -0.0441
  391MPD2    C4 5843   3.025   3.134  10.678 -0.3259 -0.3398 -1.0653
  391MPD2    C5 5844   2.983   3.053  10.785 -0.3776 -0.1290  0.1847
  391MPD2     H 5845   3.236   3.327  10.870 -0.7055  0.1806  2.1339
  391MPD2    H1 5846   2.984   3.120  10.579  1.6319 -1.0346 -1.7648
  391MPD2    H2 5847   2.986   3.008  10.993 -3.3265  1.8518  0.5396
  391MPD2    H3 5848   2.918   2.968  10.765  0.1436 -0.4056 -0.3288
  391MPD2     N 5849   3.177   3.315  10.608 -0.3507  0.3956 -0.1871
  391MPD2    H5 5850   3.262   3.364  10.631 -0.1424 -0.1358  0.1593
  391MPD2    N1 5851   3.122   3.204  11.077 -0.2525  0.0589  0.0520
  391MPD2    H7 5852   3.110   3.129  11.145  1.8988 -1.5841 -1.3855
  392TMC3    C1 5853   3.198   3.427  10.391  0.5753  0.0740  0.3086
  392TMC3    C2 5854   3.178   3.413  10.259  0.5222  0.1943 -0.0325
  392TMC3    C3 5855   3.211   3.512  10.170 -0.5709 -0.1320  0.3397
  392TMC3    C4 5856   3.237   3.544  10.444  0.2052 -0.6890 -0.9731
  392TMC3    C5 5857   3.271   3.644  10.357 -0.0731  0.3851  0.6830
  392TMC3    C6 5858   3.259   3.630  10.219  0.4583 -0.0109  0.1724
  392TMC3     C 5859   3.130   3.336  10.480  0.0220 -0.3913  0.4257
  392TMC3     O 5860   3.038   3.271  10.431 -0.8956 -0.6162  0.1095
  392TMC3     H 5861   3.145   3.319  10.216 -1.9472  0.0167  2.2561
  392TMC3    H1 5862   3.234   3.559  10.552 -0.9289 -0.0928 -1.0878
  392TMC3    H2 5863   3.308   3.702  10.155 -0.5323  1.8002  1.4690
  392TMC3    C7 5864   3.360   3.749  10.421  0.3390 -0.4370  0.0147
  392TMC3    C8 5865   3.173   3.499  10.030  0.5807 -0.5652  0.1213
  392TMC3    O1 5866   3.405   3.720  10.531  0.3697 -0.6174 -0.0519
  392TMC3    O2 5867   3.163   3.382   9.997 -0.9340  0.0276 -0.2830
  393TMC3    C1 5868   2.334   1.533   9.968  0.1466  0.7057 -0.3769
  393TMC3    C2 5869   2.232   1.525  10.058  0.7128 -0.2973 -0.9568
  393TMC3    C3 5870   2.257   1.509  10.192 -0.3143  0.2208  0.0243
  393TMC3    C4 5871   2.460   1.525  10.007 -0.4478 -0.4849 -0.9637
  393TMC3    C5 5872   2.486   1.508  10.145  0.1817 -1.2219 -0.1757
  393TMC3    C6 5873   2.385   1.498  10.236 -0.4683 -0.3424 -0.5919
  393TMC3     C 5874   2.303   1.581   9.836  0.6592  0.0782  0.7693
  393TMC3     O 5875   2.390   1.640   9.771  0.1380  0.5300  0.2942
  393TMC3     H 5876   2.127   1.528  10.030  0.4781 -2.0975 -0.2994
  393TMC3    H1 5877   2.541   1.547   9.938  0.3495  0.0580  0.1344
  393TMC3    H2 5878   2.413   1.504  10.340  2.4553  1.6572 -1.4905
  393TMC3    C7 5879   2.612   1.558  10.196  0.0345  0.5783  0.3744
  393TMC3    C8 5880   2.159   1.535  10.297 -0.7334 -0.0069 -0.3059
  393TMC3    O1 5881   2.598   1.649  10.281 -0.0807  0.5665 -0.1967
  393TMC3    O2 5882   2.194   1.512  10.411 -0.3621 -0.5589 -0.1344
  394TMC3    C1 5883   4.358   1.907  10.598 -0.4099 -0.0418  0.6460
  394TMC3    C2 5884   4.345   1.773  10.569  0.4271  0.2971  0.1911
  394TMC3    C3 5885   4.379   1.736  10.441  0.5849 -0.5159  0.2928
  394TMC3    C4 5886   4.425   2.000  10.519  0.0051  0.3861 -0.3983
  394TMC3    C5 5887   4.455   1.955  10.394 -0.8785 -0.3026 -0.1943
  394TMC3    C6 5888   4.431   1.824  10.356  0.3913 -0.6156  0.0700
  394TMC3     C 5889   4.357   1.937  10.740 -0.4072 -0.8349 -1.0332
  394TMC3     O 5890   4.262   1.880  10.796  0.4392  0.6751  0.4946
  394TMC3     H 5891   4.286   1.703  10.626  1.4257 -0.6859  0.0241
  394TMC3    H1 5892   4.404   2.105  10.539  0.1412  0.3963 -0.3106
  394TMC3    H2 5893   4.445   1.799  10.251  1.1687  1.6263 -0.3789
  394TMC3    C7 5894   4.535   2.033  10.297  0.4766 -0.9402 -0.1379
  394TMC3    C8 5895   4.285   1.644  10.380 -0.2814 -0.8484  0.1700
  394TMC3    O1 5896   4.486   2.140  10.259  0.1911  0.1434  0.4019
  394TMC3    O2 5897   4.224   1.692  10.286 -0.0064 -0.1214 -0.1489
  395TMC3    C1 5898   3.475   0.015  14.576  0.2143 -0.0678  0.5468
  395TMC3    C2 5899   3.458   4.687  14.447 -1.0816 -0.4695  0.1788
  395TMC3    C3 5900   3.579   4.690  14.374 -0.1857  0.0042 -0.0705
  395TMC3    C4 5901   3.589   0.043  14.640  0.3129 -0.5326  0.4264
  395TMC3    C5 5902   3.702   0.030  14.564 -0.1856 -0.5701  0.6245
  395TMC3    C6 5903   3.704   4.706  14.431 -0.8613 -0.0514  0.0126
  395TMC3     C 5904   3.353   0.000  14.654 -0.0379 -0.2174  0.1635
  395TMC3     O 5905   3.339   0.083  14.734 -0.2908  0.3970  0.0970
  395TMC3     H 5906   3.365   4.692  14.391  0.0220  1.4320 -1.4842
  395TMC3    H1 5907   3.601   0.070  14.745 -0.8500 -1.8128  0.8887
  395TMC3    H2 5908   3.790   4.711  14.365 -1.5903 -2.3733 -1.1189
  395TMC3    C7 5909   3.830   0.081  14.610 -0.0228  1.0157  0.7010
  395TMC3    C8 5910   3.582   4.711  14.233  0.6392 -0.0464  0.2856
  395TMC3    O1 5911   3.824   0.159  14.704 -0.1905 -0.1409  0.3423
  395TMC3    O2 5912   3.678   0.054  14.185  0.1177  0.1451  0.5929
  396MPD2     C 5913   4.014   0.793  17.068  0.4715 -0.0632  0.0691
  396MPD2    C1 5914   3.881   0.822  17.036  0.1689 -0.7205  0.4434
  396MPD2    C2 5915   3.838   0.953  17.037 -0.0372 -0.7135 -0.3115
  396MPD2    C3 5916   3.927   1.057  17.061 -0.0447  0.1928  0.1529
  396MPD2    C4 5917   4.057   1.030  17.093 -0.2334 -0.3061 -0.9323
  396MPD2    C5 5918   4.094   0.900  17.110 -0.7342 -0.3088 -0.1224
  396MPD2     H 5919   3.738   0.981  17.007 -1.1001 -2.2563  1.7275
  396MPD2    H1 5920   4.132   1.107  17.104  0.6227 -1.2620 -0.1238
  396MPD2    H2 5921   4.050   0.690  17.068  0.7423  0.0332  0.2211
  396MPD2    H3 5922   4.193   0.882  17.149 -0.5255 -0.4583 -0.7242
  396MPD2     N 5923   3.887   1.185  17.027 -0.0346 -0.3496 -0.5043
  396MPD2    H5 5924   3.796   1.200  16.985  0.5575  4.5968  0.0067
  396MPD2    N1 5925   3.794   0.712  17.013  0.5137  0.4433 -0.6358
  396MPD2    H7 5926   3.837   0.622  16.995  1.1225  0.6357 -0.1447
  397TMC3    C1 5927   3.609   0.615  16.909  0.1080  0.0323  0.5093
  397TMC3    C2 5928   3.659   0.626  16.784  0.5500  0.1826 -0.5299
  397TMC3    C3 5929   3.577   0.617  16.672  0.1512  0.5411 -0.3045
  397TMC3    C4 5930   3.473   0.599  16.921 -0.1987  0.4386 -0.0809
  397TMC3    C5 5931   3.396   0.588  16.809  0.1968  0.0147  0.1654
  397TMC3    C6 5932   3.447   0.588  16.687 -0.9535  0.6098 -0.1970
  397TMC3     C 5933   3.655   0.721  16.995  0.1599  0.6758 -0.3638
  397TMC3     O 5934   3.578   0.807  17.042  0.0559 -0.5090 -0.8704
  397TMC3     H 5935   3.762   0.655  16.769  1.0707 -1.4965 -0.2373
  397TMC3    H1 5936   3.428   0.609  17.019  2.3763  2.1999  0.9326
  397TMC3    H2 5937   3.384   0.570  16.601 -1.0710  1.3255 -0.2553
  397TMC3    C7 5938   3.259   0.536  16.817 -0.5682  0.1986  0.3583
  397TMC3    C8 5939   3.626   0.627  16.537 -0.0722 -0.0208 -0.2880
  397TMC3    O1 5940   3.192   0.554  16.713  0.3492 -0.4888  0.3352
  397TMC3    O2 5941   3.558   0.558  16.462  0.1204  0.3991 -0.4352
  398MPD2     C 5942   1.556   1.071   0.176  0.4304  0.5867  0.3120
  398MPD2    C1 5943   1.665   1.000   0.140  0.2255 -0.2578  0.0142
  398MPD2    C2 5944   1.756   1.054   0.061 -0.0765 -0.0625 -0.3293
  398MPD2    C3 5945   1.739   1.179   0.001  0.1319 -0.3757 -0.2057
  398MPD2    C4 5946   1.628   1.249   0.035 -0.6442  0.4758  1.0744
  398MPD2    C5 5947   1.542   1.196   0.122 -0.2099 -0.6363  0.3898
  398MPD2     H 5948   1.840   0.993   0.030 -0.4937 -1.5010  1.3690
  398MPD2    H1 5949   1.607   1.348  17.683 -1.6935  0.1527  0.8400
  398MPD2    H2 5950   1.471   1.030   0.230  1.7855  0.2752  2.2271
  398MPD2    H3 5951   1.455   1.258   0.141 -1.3621 -1.8560 -0.8671
  398MPD2     N 5952   1.835   1.229  17.597  0.0181 -0.6786  0.6906
  398MPD2    H5 5953   1.919   1.174  17.581  0.1537 -0.1313 -0.5344
  398MPD2    N1 5954   1.699   0.873   0.196  0.4479 -0.1434  0.5453
  398MPD2    H7 5955   1.791   0.837   0.171  1.3334  1.3605  1.6349
  399TMC3    C1 5956   1.665   0.667   0.304  0.0941  0.3247  0.2688
  399TMC3    C2 5957   1.725   0.600   0.199 -0.4504  0.3056 -0.5877
  399TMC3    C3 5958   1.735   0.467   0.200 -0.0362  0.3598  0.1683
  399TMC3    C4 5959   1.614   0.599   0.414  0.4354 -0.1776  0.3544
  399TMC3    C5 5960   1.630   0.461   0.403 -0.1887 -0.1498  0.0659
  399TMC3    C6 5961   1.687   0.394   0.298  0.0958  0.9829 -0.1108
  399TMC3     C 5962   1.616   0.805   0.290  0.1002 -0.0773 -0.6772
  399TMC3     O 5963   1.506   0.826   0.339 -0.4282  0.3591 -0.3812
  399TMC3     H 5964   1.755   0.659   0.113  0.1341  0.1905 -0.4618
  399TMC3    H1 5965   1.571   0.644   0.502 -1.4385 -1.2031 -0.0424
  399TMC3    H2 5966   1.677   0.287   0.286  2.4176  0.6201  1.1958
  399TMC3    C7 5967   1.565   0.374   0.502  0.0291  0.3636 -0.2667
  399TMC3    C8 5968   1.811   0.387   0.100 -0.4026  0.0383 -0.3245
  399TMC3    O1 5969   1.603   0.259   0.522  0.2864  0.3855  0.5678
  399TMC3    O2 5970   1.824   0.268   0.120  0.1862  0.3969 -0.0681
  400TMC3    C1 5971   0.383   0.422  16.928  0.3960  0.4833 -0.0107
  400TMC3    C2 5972   0.371   0.381  16.795  0.5728 -0.0762 -1.2107
  400TMC3    C3 5973   0.352   0.462  16.695  0.0797  0.7979 -0.3687
  400TMC3    C4 5974   0.375   0.553  16.963  0.3975 -0.4213  0.5805
  400TMC3    C5 5975   0.355   0.637  16.855 -0.1330 -0.0230 -0.0278
  400TMC3    C6 5976   0.353   0.593  16.717  0.5991  0.7253  0.3041
  400TMC3     C 5977   0.440   0.319  17.011  0.3250 -0.2358  0.1887
  400TMC3     O 5978   0.421   0.207  16.968  0.1878 -0.1759  0.2004
  400TMC3     H 5979   0.378   0.276  16.770  0.3250 -0.4678  0.3662
  400TMC3    H1 5980   0.386   0.589  17.065  1.7742  1.2546 -0.1498
  400TMC3    H2 5981   0.339   0.672  16.643 -0.9381 -0.3889 -0.5765
  400TMC3    C7 5982   0.375   0.779  16.875  0.0401 -0.2441 -0.2159
  400TMC3    C8 5983   0.374   0.416  16.557  0.6614 -0.0127  0.3062
  400TMC3    O1 5984   0.442   0.832  16.788 -1.0452 -0.8637 -0.0897
  400TMC3    O2 5985   0.412   0.498  16.474 -0.3661 -0.3634 -0.2158
  401MPD2     C 5986   3.179   3.834   0.804  0.4740 -0.4951  0.7689
  401MPD2    C1 5987   3.242   3.736   0.875  0.2386 -0.2116 -0.9784
  401MPD2    C2 5988   3.218   3.604   0.844  0.0585  0.3453  0.5025
  401MPD2    C3 5989   3.131   3.576   0.740 -0.0596  0.0857 -0.1725
  401MPD2    C4 5990   3.062   3.676   0.673  0.3958  0.1093 -0.1627
  401MPD2    C5 5991   3.088   3.806   0.708  0.4530  0.0006  0.9322
  401MPD2     H 5992   3.273   3.528   0.898 -1.3786 -0.5873  0.6437
  401MPD2    H1 5993   2.996   3.662   0.588  1.6683 -2.7903 -0.6520
  401MPD2    H2 5994   3.180   3.938   0.836  0.3021  0.3130 -1.8878
  401MPD2    H3 5995   3.030   3.883   0.658  0.6672 -0.1538  0.4420
  401MPD2     N 5996   3.113   3.434   0.714  0.2839  0.0175  0.0851
  401MPD2    H5 5997   3.166   3.364   0.764  1.0118 -0.4638 -1.3545
  401MPD2    N1 5998   3.347   3.756   0.962 -0.1828 -0.2676 -0.0899
  401MPD2    H7 5999   3.395   3.669   0.986 -0.2718  0.1502  1.5668
  402TMC3    C1 6000   3.007   3.245   0.622  0.1398 -0.4910 -0.3345
  402TMC3    C2 6001   2.994   3.191   0.740 -0.3959  0.1660 -0.1508
  402TMC3    C3 6002   3.050   3.067   0.757 -0.5138 -0.2134  0.6096
  402TMC3    C4 6003   3.071   3.179   0.517  0.3501 -0.1090 -0.1453
  402TMC3    C5 6004   3.124   3.057   0.541  0.0453 -0.5400 -0.2936
  402TMC3    C6 6005   3.121   3.002   0.662 -0.2593 -1.2246  0.0273
  402TMC3     C 6006   3.026   3.385   0.613 -0.8265 -0.8295  0.2095
  402TMC3     O 6007   2.989   3.442   0.513 -0.1991 -0.4453 -0.1642
  402TMC3     H 6008   2.962   3.254   0.822  0.8931  2.7602 -1.6484
  402TMC3    H1 6009   3.089   3.236   0.426 -0.4161 -1.1112 -0.9201
  402TMC3    H2 6010   3.165   2.904   0.675 -0.6346 -1.0760  2.3209
  402TMC3    C7 6011   3.237   3.005   0.466  0.3251 -0.2585 -0.2388
  402TMC3    C8 6012   3.048   3.013   0.896  0.0747  0.1269  0.2095
  402TMC3    O1 6013   3.340   2.969   0.523 -0.4963 -0.2888  0.0893
  402TMC3    O2 6014   3.113   2.911   0.910 -0.1659 -0.1081  0.0037
  403MPD2     C 6015   1.668   1.901  12.921  0.9584  0.5381 -0.0806
  403MPD2    C1 6016   1.675   1.828  13.035 -0.4161  0.1447 -0.0240
  403MPD2    C2 6017   1.768   1.865  13.133  0.1614 -0.0037 -0.1149
  403MPD2    C3 6018   1.843   1.979  13.120  0.3563  0.4157  0.1168
  403MPD2    C4 6019   1.838   2.051  13.002 -0.0950  0.4586  0.9609
  403MPD2    C5 6020   1.750   2.007  12.903 -0.3199  0.1479  0.3148
  403MPD2     H 6021   1.788   1.807  13.222 -1.4016  2.5801  1.9365
  403MPD2    H1 6022   1.902   2.133  12.972  2.2597 -1.2547  1.2377
  403MPD2    H2 6023   1.614   1.867  12.833  1.6169 -2.1304  0.5433
  403MPD2    H3 6024   1.749   2.063  12.810  0.1610 -0.0256  0.2061
  403MPD2     N 6025   1.934   2.019  13.226  0.5027  0.1432  0.3508
  403MPD2    H5 6026   1.952   1.955  13.302  0.3643  0.2953  0.5120
  403MPD2    N1 6027   1.566   1.739  13.062 -0.1004  0.6197  0.6505
  403MPD2    H7 6028   1.489   1.723  12.999  0.5957  1.9929 -0.5378
  404TMC3    C1 6029   1.427   1.587  13.184  0.0469 -0.6284 -0.1976
  404TMC3    C2 6030   1.386   1.544  13.306  0.0084  0.6392  0.2125
  404TMC3    C3 6031   1.287   1.452  13.313 -0.2419  0.4153  0.1083
  404TMC3    C4 6032   1.379   1.535  13.071  0.1356  0.1602 -0.1500
  404TMC3    C5 6033   1.272   1.440  13.075 -0.6178  0.7540  0.0833
  404TMC3    C6 6034   1.241   1.391  13.199  0.6236  0.3213 -0.3181
  404TMC3     C 6035   1.544   1.669  13.183 -0.2776  0.2265 -0.0182
  404TMC3     O 6036   1.611   1.667  13.286 -0.0946  0.2507 -0.2836
  404TMC3     H 6037   1.427   1.582  13.399  1.0170 -2.2141  0.9311
  404TMC3    H1 6038   1.419   1.566  12.975  0.1431  1.6509  0.3338
  404TMC3    H2 6039   1.165   1.314  13.200  0.3747  0.5254 -2.3351
  404TMC3    C7 6040   1.191   1.412  12.965  0.1174 -0.1130 -0.0850
  404TMC3    C8 6041   1.305   1.354  13.414 -0.2181 -0.6267 -0.4365
  404TMC3    O1 6042   1.110   1.322  12.983  0.0140 -0.5341  0.6737
  404TMC3    O2 6043   1.317   1.239  13.379  0.6721 -0.1582  1.0165
  405MPD2     C 6044   1.924   2.478  14.165  0.4678 -0.3792  0.2175
  405MPD2    C1 6045   1.928   2.404  14.045 -0.1041 -0.4624 -0.2949
  405MPD2    C2 6046   1.910   2.471  13.924  0.4847  0.5570 -0.0476
  405MPD2    C3 6047   1.847   2.593  13.930 -0.1305  0.2430 -0.4081
  405MPD2    C4 6048   1.839   2.659  14.048  1.1143 -0.1840  0.3372
  405MPD2    C5 6049   1.866   2.602  14.167  0.0792 -0.0305 -0.1368
  405MPD2     H 6050   1.919   2.421  13.828  0.0136  2.6220 -1.1566
  405MPD2    H1 6051   1.802   2.761  14.053 -1.4961 -1.1683  0.7899
  405MPD2    H2 6052   1.946   2.436  14.263 -0.5987  0.1582  0.6990
  405MPD2    H3 6053   1.855   2.653  14.262  0.9806  0.8424 -0.4996
  405MPD2     N 6054   1.780   2.637  13.810  0.3405  0.3516 -0.3181
  405MPD2    H5 6055   1.795   2.573  13.733  0.2025  0.6740 -0.6117
  405MPD2    N1 6056   1.957   2.264  14.055  0.0807 -0.1639  0.3670
  405MPD2    H7 6057   1.967   2.215  14.143  0.5940  2.8397  1.9914
  406TMC3    C1 6058   1.368   2.713  13.695 -0.9895 -0.0913  0.2506
  406TMC3    C2 6059   1.371   2.625  13.588  0.0386  0.7069  0.4856
  406TMC3    C3 6060   1.500   2.589  13.554  0.7247  0.3283 -0.8669
  406TMC3    C4 6061   1.478   2.765  13.752  0.1525  0.0358 -0.2476
  406TMC3    C5 6062   1.599   2.728  13.704 -0.1385  0.8690 -0.3022
  406TMC3    C6 6063   1.611   2.631  13.611  0.3199 -0.3661  0.1683
  406TMC3     C 6064   1.240   2.743  13.759 -0.1911  0.5360 -0.4722
  406TMC3     O 6065   1.135   2.738  13.691 -0.5041 -0.4539  0.2894
  406TMC3     H 6066   1.281   2.581  13.547  0.6101  1.0786 -1.1475
  406TMC3    H1 6067   1.473   2.844  13.826 -1.1635 -1.9230  1.7598
  406TMC3    H2 6068   1.710   2.611  13.572 -0.0497 -0.6399 -0.6441
  406TMC3    C7 6069   1.702   2.749  13.804  0.0213  0.7167 -0.4040
  406TMC3    C8 6070   1.522   2.469  13.481  0.8052  0.0268  0.6128
  406TMC3    O1 6071   1.694   2.839  13.884 -0.0180 -0.1713 -0.2290
  406TMC3    O2 6072   1.460   2.439  13.383 -0.3971 -0.2056  0.5652
  407MPD2     C 6073   4.403   3.144   9.468  0.0684 -0.4154  0.0894
  407MPD2    C1 6074   4.513   3.121   9.548 -0.3518  0.3570  0.6127
  407MPD2    C2 6075   4.537   3.216   9.649  0.1637  0.5320 -0.6966
  407MPD2    C3 6076   4.475   3.345   9.641 -1.0498 -0.1592 -0.3669
  407MPD2    C4 6077   4.377   3.362   9.544  0.0939  0.1366  0.1510
  407MPD2    C5 6078   4.333   3.261   9.468 -0.2523 -0.0982  0.3829
  407MPD2     H 6079   4.626   3.201   9.708 -0.0740  0.4699 -0.3518
  407MPD2    H1 6080   4.320   3.454   9.544  2.1110  1.3917  1.6964
  407MPD2    H2 6081   4.363   3.078   9.391  0.8491  2.1863 -2.5280
  407MPD2    H3 6082   4.252   3.278   9.398  1.9321  1.8386 -1.7086
  407MPD2     N 6083   4.514   3.454   9.723  0.9215  0.0447 -0.0857
  407MPD2    H5 6084   4.471   3.545   9.704 -0.7528 -0.1775  2.7633
  407MPD2    N1 6085   4.604   3.017   9.524  0.7465  0.1356 -0.7585
  407MPD2    H7 6086   4.682   3.002   9.587  0.4910  1.7044 -0.0686
  408TMC3    C1 6087   4.714   2.836   9.411 -0.5127  0.2652  0.3663
  408TMC3    C2 6088   0.115   2.884   9.447 -0.0719  0.2060  0.0801
  408TMC3    C3 6089   0.216   2.792   9.458 -0.5057 -1.0031  0.0308
  408TMC3    C4 6090   4.689   2.704   9.395  0.2164 -0.2612 -0.2654
  408TMC3    C5 6091   0.071   2.616   9.403  0.1289 -0.3160 -0.6730
  408TMC3    C6 6092   0.197   2.662   9.431  0.4329  0.6071 -0.3461
  408TMC3     C 6093   4.603   2.930   9.416 -0.8933 -0.7907  0.5148
  408TMC3     O 6094   4.515   2.918   9.330  0.2475  0.5050  0.2908
  408TMC3     H 6095   0.115   2.992   9.461 -2.0435  0.1899  0.0902
  408TMC3    H1 6096   4.587   2.672   9.378  0.2815 -1.2918  1.3308
  408TMC3    H2 6097   0.281   2.594   9.440 -2.9537 -3.3678  1.0636
  408TMC3    C7 6098   0.043   2.480   9.428 -0.2544 -0.7078  1.0279
  408TMC3    C8 6099   0.351   2.847   9.451 -0.1887 -0.2173  0.1000
  408TMC3    O1 6100   4.675   2.429   9.358  0.2849  0.2792 -0.1446
  408TMC3    O2 6101   0.448   2.772   9.440 -0.1943 -0.3602  0.1163
  409MPD2     C 6102   4.127   0.028  16.867  0.0046  0.7637  0.5241
  409MPD2    C1 6103   4.165   0.122  16.963 -0.5573  0.8239  0.0039
  409MPD2    C2 6104   4.216   0.245  16.919  0.0335  0.2029 -0.6960
  409MPD2    C3 6105   4.244   0.266  16.785 -0.2280 -0.3942 -0.2239
  409MPD2    C4 6106   4.218   0.162  16.696 -0.1081  0.2393  0.3088
  409MPD2    C5 6107   4.155   0.043  16.734  0.4660  0.0039 -0.6663
  409MPD2     H 6108   4.234   0.329  16.984  1.1190 -0.5289 -0.0483
  409MPD2    H1 6109   4.211   0.174  16.588 -3.4319 -0.4855  0.4472
  409MPD2    H2 6110   4.074   4.658  16.894  0.1373  0.8101  0.9525
  409MPD2    H3 6111   4.116   4.696  16.660 -1.1158 -0.9851  1.0855
  409MPD2     N 6112   4.293   0.376  16.716 -0.2426 -0.5125  0.9717
  409MPD2    H5 6113   4.323   0.354  16.621 -0.1200 -1.6407  1.2701
  409MPD2    N1 6114   4.155   0.100  17.106  0.5342 -0.0225  0.2986
  409MPD2    H7 6115   4.175   0.185  17.158  1.1961 -1.0871  1.8027
  410TMC3    C1 6116   4.446   0.535  16.699  0.0279  0.3736  0.0688
  410TMC3    C2 6117   4.564   0.485  16.752  0.1550 -0.0710 -0.8457
  410TMC3    C3 6118   4.675   0.566  16.762  0.2928  0.3706 -0.4198
  410TMC3    C4 6119   4.441   0.666  16.659  0.2293 -0.2066 -0.7333
  410TMC3    C5 6120   4.560   0.744  16.662  0.3546  0.3194  0.5894
  410TMC3    C6 6121   4.673   0.691  16.721 -0.5880  1.0142  0.3321
  410TMC3     C 6122   4.336   0.487  16.771  0.3424  0.5748 -0.2402
  410TMC3     O 6123   4.301   0.537  16.878 -0.2665  0.3767  0.0076
  410TMC3     H 6124   4.566   0.391  16.805 -1.0503  0.9447  1.0066
  410TMC3    H1 6125   4.355   0.699  16.602 -0.2552 -2.3975 -1.2523
  410TMC3    H2 6126   0.043   0.750  16.727  0.5770 -0.6703 -0.7078
  410TMC3    C7 6127   4.589   0.844  16.558  0.2163  0.0388  0.0465
  410TMC3    C8 6128   0.030   0.547  16.885 -0.0314 -0.4631 -1.1911
  410TMC3    O1 6129   4.705   0.869  16.550  0.3870 -0.4503 -0.4296
  410TMC3    O2 6130   0.062   0.647  16.946  0.5083 -0.1300  0.2241
  411MPD2     C 6131   4.540   0.836  14.490  0.2456  0.1026 -0.1044
  411MPD2    C1 6132   4.408   0.871  14.451 -0.1440  0.0726  0.0507
  411MPD2    C2 6133   4.309   0.771  14.454 -0.2946 -0.2535 -0.1787
  411MPD2    C3 6134   4.342   0.637  14.485 -0.2645  0.5942 -0.1914
  411MPD2    C4 6135   4.475   0.604  14.501 -0.3918  0.2834 -0.6456
  411MPD2    C5 6136   4.571   0.701  14.501 -0.1058  0.3641 -0.0128
  411MPD2     H 6137   4.204   0.798  14.445 -1.1777 -3.9287 -1.1555
  411MPD2    H1 6138   4.509   0.502  14.484  1.4541  0.7528  0.3152
  411MPD2    H2 6139   4.621   0.905  14.512  0.7413 -1.3826  2.6804
  411MPD2    H3 6140   4.669   0.657  14.514 -0.6733 -0.6409  0.8633
  411MPD2     N 6141   4.244   0.536  14.491 -0.2252  0.5716  0.7789
  411MPD2    H5 6142   4.285   0.447  14.518  0.8864  0.3920 -1.4731
  411MPD2    N1 6143   4.371   1.006  14.421 -0.4576 -0.3664 -0.1196
  411MPD2    H7 6144   4.449   1.070  14.433  1.8367 -2.8204 -1.8965
  412TMC3    C1 6145   4.033   0.428  14.477 -0.1336  0.3637 -0.4672
  412TMC3    C2 6146   3.897   0.463  14.486  0.0551  0.3724 -0.1865
  412TMC3    C3 6147   3.819   0.430  14.379 -0.5023 -0.1117  0.4549
  412TMC3    C4 6148   4.084   0.351  14.377 -0.4192 -0.2053 -0.0024
  412TMC3    C5 6149   3.994   0.306  14.277 -0.0483  0.2913  0.6265
  412TMC3    C6 6150   3.862   0.342  14.287 -0.0445  0.9966  0.0973
  412TMC3     C 6151   4.109   0.551  14.471  0.4361  0.5087 -0.2750
  412TMC3     O 6152   4.037   0.649  14.448  0.2718 -0.5105 -0.1046
  412TMC3     H 6153   3.862   0.526  14.566 -2.4173  1.3348 -2.0464
  412TMC3    H1 6154   4.189   0.328  14.375 -0.2354  0.5888  0.5506
  412TMC3    H2 6155   3.790   0.313  14.211  1.0150  1.6150 -1.1438
  412TMC3    C7 6156   4.042   0.349  14.149 -0.6236 -0.1207 -0.0220
  412TMC3    C8 6157   3.739   0.545  14.338 -0.1653 -0.2582 -0.2326
  412TMC3    O1 6158   3.957   0.424  14.104 -0.5241 -0.1682  0.3817
  412TMC3    O2 6159   3.691   0.621  14.426 -0.5990  0.0834  0.1551
  413MPD2     C 6160   1.163   4.157  15.680 -0.0006 -0.5736  0.2680
  413MPD2    C1 6161   1.158   4.121  15.551  0.1596 -0.6845 -0.1511
  413MPD2    C2 6162   1.257   4.036  15.503 -0.6532 -0.1455 -0.1965
  413MPD2    C3 6163   1.366   3.999  15.583 -0.0272 -0.4965  0.0504
  413MPD2    C4 6164   1.369   4.046  15.712 -0.3554 -0.1988 -0.8363
  413MPD2    C5 6165   1.268   4.122  15.757 -0.6277  0.0007  0.1757
  413MPD2     H 6166   1.262   4.008  15.399  3.5453  1.0028 -0.3160
  413MPD2    H1 6167   1.453   4.036  15.779  0.7418  1.9455 -1.8862
  413MPD2    H2 6168   1.081   4.213  15.725  0.0382 -0.5959  0.3668
  413MPD2    H3 6169   1.261   4.159  15.858 -1.9785 -1.0983  0.4745
  413MPD2     N 6170   1.465   3.909  15.533 -0.0340  0.5106  0.7141
  413MPD2    H5 6171   1.447   3.878  15.438 -2.1756  0.4751  1.1395
  413MPD2    N1 6172   1.045   4.155  15.481 -0.1447  0.5289  0.1542
  413MPD2    H7 6173   0.975   4.208  15.532 -0.9823  0.3582 -0.8130
  414TMC3    C1 6174   1.643   3.778  15.500 -0.3075 -0.4251 -0.2212
  414TMC3    C2 6175   1.668   3.645  15.551  0.3206  0.5018  0.4792
  414TMC3    C3 6176   1.633   3.541  15.470 -0.5940 -0.5245 -0.1347
  414TMC3    C4 6177   1.597   3.802  15.371  0.2069  0.3687  0.4167
  414TMC3    C5 6178   1.564   3.690  15.300 -0.0741  0.4941  0.2440
  414TMC3    C6 6179   1.583   3.565  15.344 -0.0847 -0.1068 -0.3560
  414TMC3     C 6180   1.580   3.872  15.592 -0.0506  0.1942 -0.0882
  414TMC3     O 6181   1.608   3.871  15.709  0.2484 -0.0389 -0.4532
  414TMC3     H 6182   1.690   3.636  15.657  0.7536  0.9269  0.4257
  414TMC3    H1 6183   1.586   3.903  15.333  0.7654  0.6440  0.9809
  414TMC3    H2 6184   1.537   3.477  15.300 -0.2939  0.3396 -1.0227
  414TMC3    C7 6185   1.479   3.705  15.184  0.1862  0.2391  0.2570
  414TMC3    C8 6186   1.717   3.432  15.469 -0.2221 -0.2187  0.3634
  414TMC3    O1 6187   1.380   3.780  15.197  0.4320  0.8519 -0.3310
  414TMC3    O2 6188   1.684   3.345  15.391 -0.0299  0.5786 -0.3065
  415TMC3    C1 6189   1.522   0.429   9.545  0.3781 -0.5128 -0.6702
  415TMC3    C2 6190   1.579   0.535   9.473 -0.1285  0.1635  0.2615
  415TMC3    C3 6191   1.610   0.507   9.347  0.4507  0.3355 -0.3311
  415TMC3    C4 6192   1.528   0.297   9.506 -0.7374 -0.2424 -0.0119
  415TMC3    C5 6193   1.549   0.284   9.372 -0.3063 -0.4924 -0.4334
  415TMC3    C6 6194   1.582   0.387   9.291  0.2695 -0.2755 -0.1161
  415TMC3     C 6195   1.474   0.438   9.682 -0.7608 -0.1447  0.2138
  415TMC3     O 6196   1.402   0.343   9.714 -0.1719  0.5935 -0.6659
  415TMC3     H 6197   1.580   0.639   9.503 -2.5514  0.2701  0.0048
  415TMC3    H1 6198   1.517   0.218   9.578  3.1507 -1.2794 -0.5840
  415TMC3    H2 6199   1.599   0.370   9.186 -0.1714  1.1539 -0.4134
  415TMC3    C7 6200   1.539   0.148   9.316 -1.1301  0.0601 -0.3666
  415TMC3    C8 6201   1.649   0.615   9.251 -0.3016  0.5871 -0.6437
  415TMC3    O1 6202   1.565   0.137   9.195  0.4792 -0.0643  0.4765
  415TMC3    O2 6203   1.620   0.591   9.134  0.4257 -0.0987  0.7230
  416MPD2     C 6204   3.499   4.638  11.520  0.2396 -0.0251  0.0875
  416MPD2    C1 6205   3.392   4.661  11.437  0.0255  0.6581  0.7177
  416MPD2    C2 6206   3.353   4.550  11.370 -0.7692  0.8151  0.0808
  416MPD2    C3 6207   3.410   4.423  11.381  1.0527  0.0897  0.3457
  416MPD2    C4 6208   3.511   4.409  11.475 -0.4785 -0.0614  0.3113
  416MPD2    C5 6209   3.552   4.515  11.548  0.5432  0.5436  0.3808
  416MPD2     H 6210   3.266   4.563  11.307 -1.0832 -2.1133 -0.0885
  416MPD2    H1 6211   3.551   4.312  11.505  1.9334  0.9144  0.2756
  416MPD2    H2 6212   3.528   4.717  11.588  1.1260 -1.7383  1.6977
  416MPD2    H3 6213   3.632   4.513  11.621 -2.5539  2.8390  3.8291
  416MPD2     N 6214   3.351   4.316  11.307 -0.2639  0.4354 -0.2447
  416MPD2    H5 6215   3.262   4.331  11.261 -1.3534  0.1938  1.7896
  416MPD2    N1 6216   3.329   0.067  11.430 -0.1657 -0.2605 -0.1547
  416MPD2    H7 6217   3.375   0.139  11.486  0.1051  1.3222 -2.4053
  417TMC3    C1 6218   3.189   0.245  11.362 -0.0036  0.5987  0.0001
  417TMC3    C2 6219   3.199   0.300  11.489 -0.1234 -0.5131 -0.8108
  417TMC3    C3 6220   3.164   0.433  11.505 -0.3600  0.5373 -0.1863
  417TMC3    C4 6221   3.128   0.313  11.259 -0.1230  0.5291  0.1503
  417TMC3    C5 6222   3.082   0.443  11.282  0.8990 -0.0852  0.5004
  417TMC3    C6 6223   3.112   0.505  11.405  0.0206 -0.4497 -0.0202
  417TMC3     C 6224   3.237   0.110  11.341 -0.0383 -0.5039 -0.2077
  417TMC3     O 6225   3.195   0.056  11.239 -0.0626 -0.5456  0.1732
  417TMC3     H 6226   3.243   0.243  11.570 -0.2153  0.4760 -0.0608
  417TMC3    H1 6227   3.109   0.264  11.164  0.2813  0.1259  0.2734
  417TMC3    H2 6228   3.079   0.608  11.416  0.2236 -0.2546 -1.1767
  417TMC3    C7 6229   3.009   0.508  11.177  0.4724  0.4436  0.7479
  417TMC3    C8 6230   3.184   0.504  11.627 -0.5333  0.7721 -0.2254
  417TMC3    O1 6231   2.993   0.433  11.076 -0.2340  0.2455 -0.2039
  417TMC3    O2 6232   3.157   0.625  11.624 -0.5405  0.2019  0.5613
  418TMC3    C1 6233   2.171   1.345  17.396 -0.1745  0.2475  0.2089
  418TMC3    C2 6234   2.050   1.290  17.437  0.7858  0.1236  0.1482
  418TMC3    C3 6235   1.950   1.381  17.457 -0.0117 -0.1561  0.0612
  418TMC3    C4 6236   2.186   1.483  17.381 -0.2358 -0.4516  0.0888
  418TMC3    C5 6237   2.082   1.564  17.397  0.4146 -0.2545  0.4776
  418TMC3    C6 6238   1.958   1.515  17.431 -0.3379  0.6715  0.0976
  418TMC3     C 6239   2.284   1.256  17.388 -0.5180  0.3051  0.6969
  418TMC3     O 6240   2.253   1.140  17.366  0.0483 -0.2292 -0.5697
  418TMC3     H 6241   2.038   1.186  17.463  0.9510 -0.1191 -0.7636
  418TMC3    H1 6242   2.275   1.522  17.333 -0.2614  1.2165  1.4153
  418TMC3    H2 6243   1.876   1.581  17.453 -0.1562  0.9608 -0.0928
  418TMC3    C7 6244   2.092   1.706  17.382 -0.3824  0.4847  0.0844
  418TMC3    C8 6245   1.823   1.336  17.511  0.2146  0.5164 -0.5784
  418TMC3    O1 6246   2.003   1.771  17.437  0.3248 -0.3327 -0.2519
  418TMC3    O2 6247   1.724   1.401  17.478 -0.2570 -0.1150  0.0945
  419MPD2     C 6248   1.252   0.250  11.925 -0.5272 -0.2879 -0.9802
  419MPD2    C1 6249   1.127   0.217  11.977  0.3662 -0.1725 -0.5481
  419MPD2    C2 6250   1.104   0.251  12.112  0.5273  0.3818 -0.1650
  419MPD2    C3 6251   1.192   0.331  12.189  0.2624  1.0339 -0.7384
  419MPD2    C4 6252   1.316   0.352  12.131 -0.7320 -0.2188 -0.0059
  419MPD2    C5 6253   1.342   0.315  12.002  0.3354  0.3359  0.6699
  419MPD2     H 6254   1.009   0.224  12.155  1.3727 -0.6356  1.0711
  419MPD2    H1 6255   1.387   0.418  12.179  0.5093 -2.4180  1.1343
  419MPD2    H2 6256   1.288   0.225  11.825 -0.3226 -0.4197 -0.8733
  419MPD2    H3 6257   1.441   0.341  11.966  0.0779 -2.0262 -1.7236
  419MPD2     N 6258   1.153   0.353  12.323 -0.5219 -0.3535  0.7707
  419MPD2    H5 6259   1.064   0.312  12.350 -0.5233 -0.4289  0.6502
  419MPD2    N1 6260   1.031   0.155  11.906  0.0581  0.2364 -0.0924
  419MPD2    H7 6261   0.947   0.126  11.955  0.8712  0.7416  1.5914
  420TMC3    C1 6262   1.198   0.346  12.553 -0.2118 -0.7983 -0.4206
  420TMC3    C2 6263   1.067   0.303  12.557 -0.6535 -0.3140  0.3257
  420TMC3    C3 6264   1.033   0.207  12.648  0.4721 -0.0778 -0.1961
  420TMC3    C4 6265   1.287   0.314  12.643 -0.2533 -0.3663  0.1571
  420TMC3    C5 6266   1.249   0.221  12.736 -0.0929 -0.2059 -0.3691
  420TMC3    C6 6267   1.126   0.162  12.738 -0.6245 -0.5776  0.3456
  420TMC3     C 6268   1.245   0.384  12.423  0.4981 -0.0066  0.2920
  420TMC3     O 6269   1.362   0.425  12.420 -0.5983 -0.0647  0.1642
  420TMC3     H 6270   0.999   0.353  12.489  0.6561  0.1731 -0.6510
  420TMC3    H1 6271   1.388   0.350  12.630 -0.7034  0.7593 -0.2047
  420TMC3    H2 6272   1.095   0.088  12.811 -1.0456 -1.0465 -0.3036
  420TMC3    C7 6273   1.320   0.212  12.859 -0.7543 -0.7677 -0.2711
  420TMC3    C8 6274   0.897   0.207  12.698  0.4290  0.7938 -0.3242
  420TMC3    O1 6275   1.253   0.169  12.953  0.3141 -0.2585 -0.4556
  420TMC3    O2 6276   0.854   0.102  12.738  0.3828  0.4010 -0.1401
  421TMC3    C1 6277   2.034   2.170  13.367  0.0432  0.5017 -0.1196
  421TMC3    C2 6278   2.023   2.292  13.413  0.1951  0.8251 -1.1354
  421TMC3    C3 6279   2.087   2.324  13.532  0.7988 -0.0693 -0.0962
  421TMC3    C4 6280   2.123   2.079  13.422  0.6914  0.0846  0.1152
  421TMC3    C5 6281   2.187   2.117  13.541 -0.2911 -0.2216 -0.6098
  421TMC3    C6 6282   2.180   2.247  13.591  0.2702 -0.4362  0.0541
  421TMC3     C 6283   1.985   2.144  13.236  0.2164  0.1024  0.5025
  421TMC3     O 6284   1.952   2.243  13.175 -0.1604  0.3576  0.0592
  421TMC3     H 6285   1.957   2.363  13.365  1.6481  2.6658 -0.4345
  421TMC3    H1 6286   2.143   1.981  13.380 -0.1901  0.1046 -0.3488
  421TMC3    H2 6287   2.258   2.273  13.661  2.0424  1.0082 -2.4960
  421TMC3    C7 6288   2.273   2.028  13.608 -0.3170 -0.2037  0.1163
  421TMC3    C8 6289   2.050   2.454  13.585 -0.5288  0.0679 -0.0775
  421TMC3    O1 6290   2.299   2.059  13.720  0.5343 -0.1487 -0.0310
  421TMC3    O2 6291   1.949   2.505  13.540  0.9134 -0.1310  0.2994
  422TMC3    C1 6292   4.416   3.241  12.480 -0.2855 -0.1139 -0.2749
  422TMC3    C2 6293   4.425   3.321  12.592 -0.2175 -0.4449 -0.0400
  422TMC3    C3 6294   4.308   3.370  12.636  0.0594  0.3843  0.5286
  422TMC3    C4 6295   4.299   3.194  12.429  0.5808 -0.1016 -0.3940
  422TMC3    C5 6296   4.180   3.247  12.473  1.0312  0.7170  0.4168
  422TMC3    C6 6297   4.184   3.329  12.583  0.6491  0.5901  0.4775
  422TMC3     C 6298   4.535   3.244  12.392  0.6366  0.4404  0.1377
  422TMC3     O 6299   4.516   3.313  12.293  0.0843  0.3434 -0.2448
  422TMC3     H 6300   4.519   3.365  12.621 -1.3452  2.0911 -0.2239
  422TMC3    H1 6301   4.311   3.118  12.353  1.5351 -1.0325  0.6672
  422TMC3    H2 6302   4.088   3.370  12.613 -0.2663 -0.7415 -0.6391
  422TMC3    C7 6303   4.066   3.174  12.439 -0.2634  0.3896 -0.2807
  422TMC3    C8 6304   4.314   3.489  12.718 -0.1639 -0.0506  0.2197
  422TMC3    O1 6305   4.084   3.076  12.372  0.9575  0.1741 -0.1267
  422TMC3    O2 6306   4.413   3.560  12.701  0.1336  0.1296  0.3846
  423MPD2     C 6307   1.068   4.217   0.630 -0.7272  0.1899  0.0438
  423MPD2    C1 6308   1.073   4.099   0.704 -0.5156  0.8138 -0.4080
  423MPD2    C2 6309   1.125   3.983   0.642  0.0402  0.2645 -0.0298
  423MPD2    C3 6310   1.176   3.997   0.517  0.1300  0.1048 -0.2937
  423MPD2    C4 6311   1.184   4.114   0.452  0.3796 -0.3054 -0.1189
  423MPD2    C5 6312   1.131   4.227   0.507  0.2901 -0.0705 -0.3843
  423MPD2     H 6313   1.147   3.899   0.708  1.0934  0.5520 -0.0081
  423MPD2    H1 6314   1.249   4.120   0.365 -0.1611  0.2278 -0.4856
  423MPD2    H2 6315   1.041   4.308   0.682 -0.1386  0.9753 -1.0312
  423MPD2    H3 6316   1.143   4.325   0.464  0.6555 -0.2380 -0.6716
  423MPD2     N 6317   1.248   3.896   0.460 -0.9088 -0.1368 -0.1186
  423MPD2    H5 6318   1.272   3.923   0.365 -0.6226 -0.4779 -0.1457
  423MPD2    N1 6319   1.025   4.093   0.839 -0.4557 -0.7575 -0.2887
  423MPD2    H7 6320   1.061   4.024   0.904  0.9429  0.9753  0.7787
  424TMC3    C1 6321   0.895   4.180   1.025  0.2775  0.1898 -0.2031
  424TMC3    C2 6322   0.951   4.104   1.124  0.2535  0.2138  0.1027
  424TMC3    C3 6323   0.912   4.126   1.254 -0.4379  0.6294 -0.2465
  424TMC3    C4 6324   0.809   4.279   1.069  0.4296 -0.6065  0.3329
  424TMC3    C5 6325   0.788   4.310   1.198  0.6093 -0.8405 -0.1292
  424TMC3    C6 6326   0.844   4.235   1.294  0.2822  0.0810 -0.1092
  424TMC3     C 6327   0.924   4.174   0.884  0.1596 -0.2206  0.1393
  424TMC3     O 6328   0.840   4.230   0.813  0.2545 -0.2122 -0.1177
  424TMC3     H 6329   1.001   4.010   1.106  1.0034  0.4814  0.8045
  424TMC3    H1 6330   0.774   4.349   0.994  1.4395 -0.3278  0.1230
  424TMC3    H2 6331   0.845   4.250   1.401  1.4272 -1.6236  0.1255
  424TMC3    C7 6332   0.701   4.423   1.218 -0.5051  0.5890  0.2287
  424TMC3    C8 6333   0.976   4.038   1.347 -0.5537  0.7413  0.1809
  424TMC3    O1 6334   0.703   4.507   1.134  0.3150 -0.0558  0.3193
  424TMC3    O2 6335   1.075   3.970   1.311  0.1251  0.3282 -0.0741
  425MPD2     C 6336   0.191   3.588  17.605  0.3414  0.3754  0.4665
  425MPD2    C1 6337   0.122   3.598  17.486  0.2844 -0.5720  0.5878
  425MPD2    C2 6338   0.025   3.700  17.472  0.1680  0.1272 -0.5012
  425MPD2    C3 6339   4.704   3.769  17.581  0.4914 -0.5866 -0.1404
  425MPD2    C4 6340   0.055   3.763   0.013 -0.6097 -0.0869 -0.0880
  425MPD2    C5 6341   0.160   3.672   0.022  0.6296  0.2766  0.3059
  425MPD2     H 6342   4.713   3.717  17.370 -3.4320  1.7248  0.9458
  425MPD2    H1 6343   0.020   3.812   0.104  0.2311 -0.5959  0.5112
  425MPD2    H2 6344   0.267   3.515  17.632  0.9687  1.5633  1.9531
  425MPD2    H3 6345   0.214   3.662   0.116  1.1722  0.4170  0.0128
  425MPD2     N 6346   4.593   3.853  17.565  0.2865 -0.7476 -0.2939
  425MPD2    H5 6347   4.536   3.849  17.481 -0.5703  1.8295  0.1543
  425MPD2    N1 6348   0.161   3.509  17.383  0.6509 -0.1132 -0.0664
  425MPD2    H7 6349   0.248   3.457  17.393  1.1268  0.6689 -0.1160
  426TMC3    C1 6350   0.130   3.365  17.200  0.2485  0.1328  0.2423
  426TMC3    C2 6351   0.124   3.360  17.060  0.6630  0.0886  0.6207
  426TMC3    C3 6352   0.168   3.246  17.000  0.8541 -0.1823  0.2216
  426TMC3    C4 6353   0.179   3.258  17.277 -0.8816 -0.0295 -0.3855
  426TMC3    C5 6354   0.214   3.143  17.205 -0.6941 -0.2134  0.0242
  426TMC3    C6 6355   0.203   3.135  17.072  0.2281  0.0805 -0.3791
  426TMC3     C 6356   0.097   3.490  17.266 -0.8356 -0.4454  0.0357
  426TMC3     O 6357   0.005   3.551  17.215  0.1396 -0.3101  0.5942
  426TMC3     H 6358   0.078   3.445  17.011 -1.3176 -1.1192  0.3799
  426TMC3    H1 6359   0.200   3.264  17.384  1.3679 -0.1417 -0.8159
  426TMC3    H2 6360   0.213   3.042  17.018  0.2696  0.1816 -0.5437
  426TMC3    C7 6361   0.280   3.027  17.263 -0.9506  0.3584  0.0851
  426TMC3    C8 6362   0.180   3.237  16.857  0.1156  0.3526  0.9407
  426TMC3    O1 6363   0.304   2.928  17.198  0.2951  0.0864  0.2975
  426TMC3    O2 6364   0.239   3.138  16.816  0.3007  0.3329 -0.3567
  427MPD2     C 6365   3.349   0.925  14.799 -0.1132  0.5311 -0.0204
  427MPD2    C1 6366   3.330   0.878  14.926 -0.6448 -0.0748 -0.3159
  427MPD2    C2 6367   3.200   0.888  14.972  0.2413  1.1156 -0.0405
  427MPD2    C3 6368   3.094   0.912  14.884 -0.0110 -0.1514 -0.0101
  427MPD2    C4 6369   3.117   0.961  14.761 -0.5087 -0.4823 -0.4651
  427MPD2    C5 6370   3.250   0.982  14.729  1.0420 -0.1343 -0.8019
  427MPD2     H 6371   3.183   0.846  15.071  1.9988 -0.1936 -0.3048
  427MPD2    H1 6372   3.042   0.986  14.688  0.4878  0.2818 -1.2281
  427MPD2    H2 6373   3.448   0.916  14.755  0.2125  0.1594  0.7970
  427MPD2    H3 6374   3.274   1.015  14.628 -1.7158  3.1014 -0.3781
  427MPD2     N 6375   2.958   0.904  14.918  1.0567  0.4109 -0.1873
  427MPD2    H5 6376   2.898   0.909  14.837 -0.5618  0.2647  1.0004
  427MPD2    N1 6377   3.431   0.836  15.009 -0.1091  0.4541 -0.1787
  427MPD2    H7 6378   3.409   0.821  15.107  1.4939 -1.6089 -0.1551
  428TMC3    C1 6379   3.656   0.752  15.065 -0.5931  0.1620 -0.0928
  428TMC3    C2 6380   3.610   0.672  15.167 -0.0206 -0.0386 -0.3238
  428TMC3    C3 6381   3.702   0.632  15.257  0.4843 -0.3695 -0.9468
  428TMC3    C4 6382   3.792   0.752  15.032  0.5010  0.3261  0.7462
  428TMC3    C5 6383   3.885   0.709  15.133  0.1414 -0.0117 -0.1389
  428TMC3    C6 6384   3.834   0.656  15.244 -0.3414  0.2389 -0.6479
  428TMC3     C 6385   3.567   0.818  14.970  0.6343 -0.8753 -0.4956
  428TMC3     O 6386   3.623   0.836  14.865  0.2432  0.0199 -0.3879
  428TMC3     H 6387   3.503   0.670  15.189 -0.5255  1.3275 -2.6951
  428TMC3    H1 6388   3.825   0.813  14.948  1.5858 -0.9440  0.2517
  428TMC3    H2 6389   3.891   0.634  15.333 -2.1100 -3.8246 -0.5345
  428TMC3    C7 6390   4.030   0.753  15.150  0.0021  0.0923 -0.1237
  428TMC3    C8 6391   3.645   0.587  15.379 -0.0299 -0.4017 -0.1475
  428TMC3    O1 6392   4.080   0.748  15.263  0.7150 -0.2621  0.0269
  428TMC3    O2 6393   3.689   0.632  15.486 -0.2200 -0.3777 -0.2249
  429MPD2     C 6394   4.246   1.355   0.292  0.8655 -0.2664 -0.7206
  429MPD2    C1 6395   4.242   1.228   0.236 -0.3956  0.3454  0.1779
  429MPD2    C2 6396   4.278   1.220   0.103 -0.3104  0.2767  0.1242
  429MPD2    C3 6397   4.314   1.329   0.029  0.4468  0.0751  0.0525
  429MPD2    C4 6398   4.319   1.451   0.091 -0.1813 -0.3785 -0.2740
  429MPD2    C5 6399   4.291   1.463   0.225 -1.1057  0.5032  0.0798
  429MPD2     H 6400   4.279   1.120   0.061  1.2796  0.2965  0.1029
  429MPD2    H1 6401   4.344   1.544   0.042  0.6882  0.6954  2.1837
  429MPD2    H2 6402   4.228   1.369   0.398 -0.6052 -1.5446 -0.8072
  429MPD2    H3 6403   4.289   1.564   0.265  0.3013 -0.4352  2.5423
  429MPD2     N 6404   4.356   1.311  17.582 -0.4590  0.1991  0.2158
  429MPD2    H5 6405   4.359   1.218  17.542  0.7362  0.3270 -0.0028
  429MPD2    N1 6406   4.205   1.110   0.301 -0.2624  0.3897  0.4851
  429MPD2    H7 6407   4.216   1.027   0.244 -0.8345 -1.5832  3.2143
  430TMC3    C1 6408   4.407   1.350  17.361 -0.6700  0.1877  0.0952
  430TMC3    C2 6409   4.355   1.428  17.260  0.9542 -0.1437  0.4165
  430TMC3    C3 6410   4.373   1.379  17.130  0.3290 -0.3970 -0.1357
  430TMC3    C4 6411   4.471   1.230  17.334 -1.1097 -1.0813  0.1434
  430TMC3    C5 6412   4.487   1.190  17.201  0.3443 -0.1540 -0.3289
  430TMC3    C6 6413   4.444   1.265  17.099  0.2312 -0.1459 -1.0263
  430TMC3     C 6414   4.387   1.409  17.489  0.4306  0.3606  0.2807
  430TMC3     O 6415   4.379   1.534  17.499 -0.6378  0.3571  0.3468
  430TMC3     H 6416   4.304   1.521  17.284  0.5078 -0.2348 -0.1790
  430TMC3    H1 6417   4.519   1.175  17.414  1.5037  0.2290 -0.5255
  430TMC3    H2 6418   4.478   1.237  17.000  0.5304  0.4701 -1.0972
  430TMC3    C7 6419   4.603   1.108  17.165  0.4210 -0.1189 -0.3073
  430TMC3    C8 6420   4.317   1.449  17.020  0.0039 -0.1245  0.6483
  430TMC3    O1 6421   4.581   0.986  17.165  0.1212 -0.2052 -0.3529
  430TMC3    O2 6422   4.347   1.396  16.913 -0.0672  0.3355  0.6123
  431MPD2     C 6423   0.764   0.536  12.374  1.0298  0.0049 -0.5314
  431MPD2    C1 6424   0.756   0.628  12.269  0.4328  0.2408 -0.0647
  431MPD2    C2 6425   0.774   0.572  12.138 -0.1436  0.6437 -0.1008
  431MPD2    C3 6426   0.757   0.432  12.110  0.0164 -0.3291  0.4165
  431MPD2    C4 6427   0.743   0.352  12.220  0.2443 -0.3174 -0.0540
  431MPD2    C5 6428   0.751   0.402  12.350 -0.3428 -0.0902  0.4507
  431MPD2     H 6429   0.794   0.637  12.054 -0.7320 -0.7191 -1.3002
  431MPD2    H1 6430   0.726   0.246  12.204 -0.4408  0.0064 -1.4488
  431MPD2    H2 6431   0.781   0.564  12.478  0.7265  2.3112 -1.0914
  431MPD2    H3 6432   0.760   0.340  12.438 -3.7095 -0.6334  0.4166
  431MPD2     N 6433   0.749   0.371  11.984  0.1224  0.1040 -0.3289
  431MPD2    H5 6434   0.706   0.279  11.979 -1.3723  0.6416  2.4597
  431MPD2    N1 6435   0.752   0.766  12.299  0.0591  0.3779  0.1994
  431MPD2    H7 6436   0.739   0.796  12.395 -0.9870  1.8623 -0.4053
  432TMC3    C1 6437   0.789   0.331  11.755 -0.7257 -0.0725  0.4190
  432TMC3    C2 6438   0.804   0.371  11.630 -0.7515 -0.7383  0.7152
  432TMC3    C3 6439   0.865   0.279  11.552 -0.5795 -0.1648  0.4999
  432TMC3    C4 6440   0.810   0.196  11.798 -0.2440  0.3369  0.2561
  432TMC3    C5 6441   0.900   0.118  11.722 -0.6773  0.0923  0.3870
  432TMC3    C6 6442   0.902   0.152  11.590  0.0125 -0.0520  1.0647
  432TMC3     C 6443   0.788   0.427  11.863  0.0649 -0.1092  0.1325
  432TMC3     O 6444   0.812   0.542  11.839 -0.5485  0.1863  0.2923
  432TMC3     H 6445   0.777   0.470  11.598  0.8106 -0.7109 -0.5322
  432TMC3    H1 6446   0.796   0.158  11.898  0.9728 -1.7546 -0.3591
  432TMC3    H2 6447   0.973   0.101  11.525 -1.7107 -1.6795  0.4466
  432TMC3    C7 6448   1.032   0.127  11.769 -0.4588  0.5559 -0.0757
  432TMC3    C8 6449   0.926   0.320  11.422 -1.0910 -0.4440  0.3998
  432TMC3    O1 6450   1.124   0.139  11.688 -0.0406  0.6251  0.1571
  432TMC3    O2 6451   0.948   0.236  11.336 -0.1178 -0.4944 -0.3332
  433MPD2     C 6452   4.324   3.955  10.789  0.4590  0.4228 -0.1211
  433MPD2    C1 6453   4.280   3.835  10.848 -0.2743  0.0632  0.8865
  433MPD2    C2 6454   4.223   3.846  10.973  0.1816  0.1237 -0.3639
  433MPD2    C3 6455   4.221   3.973  11.041 -0.0082  1.2324 -0.1491
  433MPD2    C4 6456   4.245   4.089  10.967  0.5220 -0.0943  0.1603
  433MPD2    C5 6457   4.308   4.082  10.845 -0.6456 -0.2296  0.5892
  433MPD2     H 6458   4.188   3.758  11.026  0.0149  0.5817  0.2900
  433MPD2    H1 6459   4.228   4.191  11.001  0.3950 -0.7292  1.9787
  433MPD2    H2 6460   4.380   3.940  10.698 -0.5438 -1.5821 -0.4056
  433MPD2    H3 6461   4.338   4.172  10.793 -0.9570 -0.9880 -0.9055
  433MPD2     N 6462   4.187   3.982  11.177  0.5483  0.2776 -0.5589
  433MPD2    H5 6463   4.162   3.893  11.220 -0.0360  0.5894 -0.2517
  433MPD2    N1 6464   4.298   3.715  10.772  0.2021 -0.0077 -0.2264
  433MPD2    H7 6465   4.351   3.724  10.686 -0.1397 -1.6300 -0.5957
  434TMC3    C1 6466   4.329   3.486  10.744  0.0093 -0.6154 -0.0436
  434TMC3    C2 6467   4.398   3.392  10.811 -0.2708  0.2712 -0.3819
  434TMC3    C3 6468   4.523   3.342  10.770 -0.2289 -0.0803 -0.1589
  434TMC3    C4 6469   4.370   3.525  10.619  0.5970 -0.0115 -0.1035
  434TMC3    C5 6470   4.492   3.475  10.574 -1.0192 -0.2777 -0.5954
  434TMC3    C6 6471   4.573   3.391  10.651 -0.1045 -0.6594  0.8638
  434TMC3     C 6472   4.263   3.592  10.820 -0.6719  0.3662  0.4058
  434TMC3     O 6473   4.202   3.557  10.919  0.1323  0.1387  0.3510
  434TMC3     H 6474   4.372   3.370  10.914  2.2822  0.9858  0.4224
  434TMC3    H1 6475   4.316   3.589  10.550  0.3725  0.8889  0.9047
  434TMC3    H2 6476   4.672   3.366  10.614  0.6253  2.7777  0.5092
  434TMC3    C7 6477   4.508   3.461  10.428  0.6386  0.7493 -0.0878
  434TMC3    C8 6478   4.620   3.337  10.883 -0.0937 -0.1570 -0.2488
  434TMC3    O1 6479   4.460   3.546  10.359 -0.5961 -0.2045  0.4135
  434TMC3    O2 6480   4.575   3.285  10.983  0.0334 -0.0262 -0.1464
  435MPD2     C 6481   1.763   4.249  15.574 -0.5583  0.1487  0.1095
  435MPD2    C1 6482   1.683   4.259  15.687 -0.1594  0.3327 -0.2670
  435MPD2    C2 6483   1.728   4.205  15.810  0.4806  0.7950 -0.3699
  435MPD2    C3 6484   1.841   4.129  15.822 -0.0206 -0.6000  0.4409
  435MPD2    C4 6485   1.927   4.132  15.707  1.1910 -0.0189  0.0533
  435MPD2    C5 6486   1.883   4.189  15.597  0.7118 -0.6843  0.1953
  435MPD2     H 6487   1.664   4.225  15.895  0.4823 -1.3424  0.1142
  435MPD2    H1 6488   2.020   4.077  15.708  0.0614 -1.9246 -1.0038
  435MPD2    H2 6489   1.732   4.274  15.473  0.1865  1.5706  0.2309
  435MPD2    H3 6490   1.942   4.159  15.511  3.8059  0.3331  1.9423
  435MPD2     N 6491   1.868   4.066  15.942 -0.0358 -0.6504 -0.1717
  435MPD2    H5 6492   1.795   4.087  16.010 -0.9045 -2.1399 -0.6436
  435MPD2    N1 6493   1.556   4.322  15.683  0.2406 -0.1811  0.1279
  435MPD2    H7 6494   1.506   4.310  15.771  0.3119  0.0836  0.2066
  436TMC3    C1 6495   1.201   4.523  15.767 -0.2331 -0.5401 -0.6021
  436TMC3    C2 6496   1.326   4.475  15.746 -0.7670  0.7565 -0.6014
  436TMC3    C3 6497   1.370   4.459  15.619 -0.1763 -0.2999  0.2018
  436TMC3    C4 6498   1.117   4.550  15.666 -0.4323  0.3068 -0.1902
  436TMC3    C5 6499   1.163   4.521  15.542 -0.0980 -0.0998 -0.3276
  436TMC3    C6 6500   1.293   4.477  15.512  0.2546 -0.0666  0.5097
  436TMC3     C 6501   1.146   4.519  15.893 -0.3940 -0.1310  0.5716
  436TMC3     O 6502   1.200   4.447  15.979 -0.0482  0.2543  0.2471
  436TMC3     H 6503   1.390   4.469  15.833 -0.5344  0.5902 -0.7827
  436TMC3    H1 6504   1.012   4.576  15.675 -0.3970  0.3508  0.0777
  436TMC3    H2 6505   1.329   4.470  15.410 -0.5639  1.5499  0.1087
  436TMC3    C7 6506   1.076   4.558  15.427 -0.0389 -0.1768 -0.0660
  436TMC3    C8 6507   1.495   4.395  15.582 -0.8636  0.1578  0.9111
  436TMC3    O1 6508   1.003   4.651  15.454 -0.2599  0.2819 -0.2663
  436TMC3    O2 6509   1.536   4.408  15.466 -0.7633 -0.4294  0.0029
  437TMC3    C1 6510   4.627   1.852  13.212 -0.8116  0.0142  0.4943
  437TMC3    C2 6511   4.530   1.928  13.266  0.2022 -0.5133  0.0868
  437TMC3    C3 6512   4.479   2.028  13.190  0.2638 -0.0313 -0.6403
  437TMC3    C4 6513   4.664   1.871  13.078 -0.7012 -0.0070 -0.3915
  437TMC3    C5 6514   4.609   1.975  13.009 -0.0131 -0.5436  0.2417
  437TMC3    C6 6515   4.505   2.041  13.059 -0.7583  0.3671 -0.2248
  437TMC3     C 6516   4.680   1.748  13.300 -0.0425  0.7420  0.1977
  437TMC3     O 6517   4.636   1.740  13.415 -0.5223 -0.2565 -0.2481
  437TMC3     H 6518   4.485   1.906  13.362 -0.3906 -0.2747 -0.1342
  437TMC3    H1 6519   0.012   1.800  13.033 -0.7632 -1.3685  1.6646
  437TMC3    H2 6520   4.456   2.122  13.007  0.5755 -0.9164 -3.4721
  437TMC3    C7 6521   4.638   1.999  12.867 -0.6325  0.6950  0.1742
  437TMC3    C8 6522   4.342   2.071  13.225  0.0335 -0.6974  0.5300
  437TMC3    O1 6523   4.540   2.023  12.798  0.2798  0.4651  0.4470
  437TMC3    O2 6524   4.265   2.053  13.131 -0.5843 -0.5414  0.0890
  438MPD2     C 6525   2.042   2.078  16.673  0.3874 -0.1364  0.0147
  438MPD2    C1 6526   2.118   1.971  16.724  0.7250  0.3987 -0.3832
  438MPD2    C2 6527   2.058   1.875  16.805 -0.1422 -0.2660  0.3513
  438MPD2    C3 6528   1.931   1.886  16.857 -0.2109 -0.2795  0.0342
  438MPD2    C4 6529   1.866   2.007  16.821 -0.3770  0.7217  1.1153
  438MPD2    C5 6530   1.917   2.099  16.728 -0.2968 -0.0351 -0.0086
  438MPD2     H 6531   2.113   1.785  16.832 -0.4020 -0.4740  0.1916
  438MPD2    H1 6532   1.766   2.036  16.854 -1.5937  0.3662 -2.2180
  438MPD2    H2 6533   2.075   2.157  16.606 -2.2958 -0.0026 -1.1453
  438MPD2    H3 6534   1.857   2.182  16.693 -0.4492 -0.3051 -0.3836
  438MPD2     N 6535   1.866   1.794  16.935  0.3695 -0.0114 -0.6094
  438MPD2    H5 6536   1.772   1.825  16.958  0.9205  0.9303  0.3633
  438MPD2    N1 6537   2.254   1.962  16.694  0.0638 -0.7978  0.4278
  438MPD2    H7 6538   2.295   1.884  16.745  0.9596 -0.2787  0.4834
  439TMC3    C1 6539   2.456   1.986  16.587 -0.6327 -0.1605 -0.3017
  439TMC3    C2 6540   2.488   1.936  16.472 -0.7422 -0.0291 -0.9014
  439TMC3    C3 6541   2.605   1.873  16.467  0.0662 -0.0453  0.1450
  439TMC3    C4 6542   2.532   1.993  16.699 -1.2731  0.5003 -0.7157
  439TMC3    C5 6543   2.641   1.919  16.697 -0.1672 -0.0667 -0.7139
  439TMC3    C6 6544   2.683   1.861  16.583  0.0392  0.4940  0.4405
  439TMC3     C 6545   2.317   2.029  16.596 -0.1934  0.0152 -0.5624
  439TMC3     O 6546   2.275   2.097  16.502 -0.2836 -0.2431  0.0563
  439TMC3     H 6547   2.407   1.929  16.399 -2.6942 -2.2109  1.4951
  439TMC3    H1 6548   2.492   2.042  16.787 -0.2384  0.2487 -0.1115
  439TMC3    H2 6549   2.784   1.822  16.578  0.1521  0.9018 -0.5415
  439TMC3    C7 6550   2.756   1.961  16.781  0.3338 -0.4598  0.1804
  439TMC3    C8 6551   2.688   1.888  16.349 -0.1015  0.0932  0.2078
  439TMC3    O1 6552   2.844   1.880  16.808 -0.1411  0.1089  0.3862
  439TMC3    O2 6553   2.789   1.817  16.351 -0.3403 -0.4446 -0.5921
  440MPD2     C 6554   1.614   2.997  14.475 -0.3647 -0.3743  0.4401
  440MPD2    C1 6555   1.610   3.077  14.587 -0.8449 -0.1502  0.2876
  440MPD2    C2 6556   1.710   3.055  14.681 -0.0575 -0.5526 -0.3758
  440MPD2    C3 6557   1.826   2.971  14.652  0.4970  0.1851  0.5565
  440MPD2    C4 6558   1.826   2.902  14.537 -0.6260 -0.4707  0.7671
  440MPD2    C5 6559   1.717   2.909  14.452 -0.0117  0.0633  0.5628
  440MPD2     H 6560   1.709   3.110  14.774 -1.9041  1.0769 -1.3606
  440MPD2    H1 6561   1.907   2.836  14.508 -0.3396 -0.0886  0.7078
  440MPD2    H2 6562   1.531   2.999  14.404  0.5965 -1.4250 -0.7144
  440MPD2    H3 6563   1.707   2.860  14.356 -3.2610  0.3406  0.7552
  440MPD2     N 6564   1.934   2.955  14.737  0.1290 -0.1585 -0.1484
  440MPD2    H5 6565   2.012   2.913  14.686  1.9263  1.9623  0.8344
  440MPD2    N1 6566   1.496   3.155  14.631  0.3611 -0.5159  0.1777
  440MPD2    H7 6567   1.497   3.164  14.732 -2.5748 -0.1006  0.1632
  441TMC3    C1 6568   2.085   2.970  14.916  0.5379  0.8956  0.0486
  441TMC3    C2 6569   2.125   3.052  15.024 -0.6911 -0.9837  0.8336
  441TMC3    C3 6570   2.197   2.992  15.118  0.2590 -0.5067  0.5741
  441TMC3    C4 6571   2.109   2.840  14.911  0.7061  0.4608 -0.2069
  441TMC3    C5 6572   2.202   2.785  14.996  0.7181 -0.9264 -0.1197
  441TMC3    C6 6573   2.239   2.861  15.103 -0.5206  0.6465  0.4325
  441TMC3     C 6574   1.969   3.022  14.852 -0.9500  0.6130 -0.7810
  441TMC3     O 6575   1.906   3.107  14.914  0.4853  0.0051 -0.2877
  441TMC3     H 6576   2.097   3.156  15.037 -3.8039 -1.6156 -0.8727
  441TMC3    H1 6577   2.071   2.789  14.823 -0.9800  0.0289  0.7544
  441TMC3    H2 6578   2.276   2.812  15.193  0.5071  0.7176  0.0411
  441TMC3    C7 6579   2.208   2.643  15.000  0.5604  0.0131 -0.2839
  441TMC3    C8 6580   2.213   3.055  15.251  0.0158  0.1768 -0.5629
  441TMC3    O1 6581   2.125   2.585  14.932  0.4617  0.3583 -0.2501
  441TMC3    O2 6582   2.324   3.046  15.304 -0.5420 -0.9052 -0.4071
  442MPD2     C 6583   4.468   3.058  16.101  0.1151 -0.0802 -0.4907
  442MPD2    C1 6584   4.421   2.985  16.212  0.5236 -0.3603  0.3330
  442MPD2    C2 6585   4.405   2.849  16.191  0.7793  0.2437  0.0469
  442MPD2    C3 6586   4.428   2.787  16.067 -0.5790  0.2353 -0.7637
  442MPD2    C4 6587   4.470   2.858  15.959  0.3430  0.1961 -0.1697
  442MPD2    C5 6588   4.495   2.993  15.981  0.4861  0.2098  0.8022
  442MPD2     H 6589   4.384   2.785  16.276  1.9648 -0.8372 -0.4676
  442MPD2    H1 6590   4.508   2.809  15.870  2.0887 -0.0212  0.7035
  442MPD2    H2 6591   4.480   3.165  16.110 -0.9120 -0.0220  0.3407
  442MPD2    H3 6592   4.525   3.054  15.897 -1.9386 -1.3511 -1.1837
  442MPD2     N 6593   4.402   2.648  16.037 -1.2906 -0.5130  0.3435
  442MPD2    H5 6594   4.420   2.611  15.944 -2.0413 -1.0754  0.4276
  442MPD2    N1 6595   4.399   3.044  16.338  0.1615  0.2803  0.6157
  442MPD2    H7 6596   4.367   2.982  16.411  1.7832  0.2918  1.3361
  443TMC3    C1 6597   4.389   3.199  16.510 -0.4176 -1.2419 -0.5817
  443TMC3    C2 6598   4.418   3.329  16.551 -0.5096  0.2871  0.0944
  443TMC3    C3 6599   4.359   3.369  16.667  0.4608 -0.6336  0.0693
  443TMC3    C4 6600   4.313   3.104  16.579  0.4038 -0.1940  0.2890
  443TMC3    C5 6601   4.256   3.153  16.692 -0.1260 -0.3779  0.6609
  443TMC3    C6 6602   4.280   3.282  16.742 -0.2042 -1.0780  0.8065
  443TMC3     C 6603   4.415   3.172  16.370  0.0503  0.1156 -0.2941
  443TMC3     O 6604   4.444   3.270  16.304 -0.7029 -0.3000  0.4353
  443TMC3     H 6605   4.460   3.406  16.487 -0.0054  0.7803  1.0197
  443TMC3    H1 6606   4.288   3.005  16.542  1.6785 -0.0958 -0.8418
  443TMC3    H2 6607   4.242   3.310  16.839  0.6607  1.4023  0.4223
  443TMC3    C7 6608   4.134   3.083  16.737 -0.2234 -0.0318 -0.4326
  443TMC3    C8 6609   4.334   3.510  16.678 -0.2401  0.3055 -0.5265
  443TMC3    O1 6610   4.114   2.969  16.695 -0.6623  0.0823  0.8737
  443TMC3    O2 6611   4.439   3.573  16.684 -0.1161 -0.3673 -0.3738
  444MPD2     C 6612   4.490   3.012  16.961  0.9738  0.5556  0.2727
  444MPD2    C1 6613   4.452   2.895  17.014 -0.0581 -0.8751 -0.1865
  444MPD2    C2 6614   4.539   2.784  16.992  0.4122 -0.6645 -0.5956
  444MPD2    C3 6615   4.656   2.790  16.919  0.3903 -0.4024  0.3934
  444MPD2    C4 6616   4.693   2.910  16.865 -0.7116  0.1831 -0.2190
  444MPD2    C5 6617   4.606   3.023  16.888  0.1589  0.3751 -0.4715
  444MPD2     H 6618   4.508   2.685  17.023  1.2836 -0.0668  2.1370
  444MPD2    H1 6619   0.065   2.919  16.810 -0.5415  0.5638  0.1300
  444MPD2    H2 6620   4.439   3.107  16.964  2.4175  1.3394  0.1772
  444MPD2    H3 6621   4.633   3.112  16.833 -0.2066  0.9137  0.2162
  444MPD2     N 6622   0.019   2.674  16.903  0.3594 -0.2568  0.5843
  444MPD2    H5 6623   4.709   2.591  16.954 -0.1920 -0.4668 -0.0902
  444MPD2    N1 6624   4.332   2.884  17.090  0.1096  0.0953 -0.4983
  444MPD2    H7 6625   4.302   2.792  17.121 -0.5326  0.2486 -0.6681
  445TMC3    C1 6626   0.223   2.553  16.869  0.8577 -0.6508  0.0538
  445TMC3    C2 6627   0.162   2.437  16.919  0.0041  1.3945  0.4503
  445TMC3    C3 6628   0.213   2.320  16.878 -0.1067 -0.3984 -0.1486
  445TMC3    C4 6629   0.343   2.543  16.798 -0.3841 -0.4818  0.5395
  445TMC3    C5 6630   0.390   2.417  16.765 -0.2224 -0.6903  0.3765
  445TMC3    C6 6631   0.338   2.303  16.817 -0.5010  0.3008  0.2920
  445TMC3     C 6632   0.144   2.673  16.842  0.4642 -0.2835 -0.1149
  445TMC3     O 6633   0.203   2.747  16.763  0.2804 -0.4473 -0.4260
  445TMC3     H 6634   0.065   2.425  16.966 -1.0300 -1.1455 -2.2793
  445TMC3    H1 6635   0.384   2.629  16.746  0.6569  0.2755  2.6374
  445TMC3    H2 6636   0.362   2.199  16.795  2.0660  1.2087 -1.1584
  445TMC3    C7 6637   0.486   2.414  16.656 -0.3343 -0.7464  0.1488
  445TMC3    C8 6638   0.133   2.206  16.907 -0.2311  0.3713  0.5490
  445TMC3    O1 6639   0.495   2.503  16.567  0.0134 -0.5463 -0.2481
  445TMC3    O2 6640   0.070   2.199  17.013  0.5376 -0.2002 -0.3078
  446MPD2     C 6641   4.263   3.149  11.306  0.0355 -0.6481 -0.4623
  446MPD2    C1 6642   4.208   3.198  11.188  0.3670  0.0586 -0.2060
  446MPD2    C2 6643   4.248   3.324  11.151  0.1055 -0.2499 -0.2986
  446MPD2    C3 6644   4.343   3.400  11.217  0.2918 -0.6463  0.0760
  446MPD2    C4 6645   4.376   3.352  11.340  0.5855  0.5113 -0.7927
  446MPD2    C5 6646   4.340   3.229  11.383 -0.5281 -0.8681  0.7045
  446MPD2     H 6647   4.216   3.366  11.057  0.8980 -0.2994 -0.5917
  446MPD2    H1 6648   4.443   3.412  11.402 -0.8802  0.4839  0.7938
  446MPD2    H2 6649   4.239   3.056  11.357  0.6356  0.0330  1.0693
  446MPD2    H3 6650   4.376   3.193  11.479  0.6037 -2.3648 -0.2871
  446MPD2     N 6651   4.385   3.522  11.161 -0.6832 -0.2591 -0.0893
  446MPD2    H5 6652   4.334   3.556  11.080  1.9592  0.8270 -1.2835
  446MPD2    N1 6653   4.102   3.132  11.115  0.5594 -0.3107  0.2609
  446MPD2    H7 6654   4.050   3.183  11.044  1.0597  1.4985  1.1999
  447TMC3    C1 6655   4.524   3.719  11.131  0.2873  0.3581 -0.5450
  447TMC3    C2 6656   4.556   3.701  10.999 -0.0837  0.4680  0.3399
  447TMC3    C3 6657   4.661   3.769  10.947  0.2093 -0.2225  0.1626
  447TMC3    C4 6658   4.606   3.803  11.205  0.8357 -0.4293  0.2142
  447TMC3    C5 6659   4.710   3.877  11.148 -0.4605 -0.3213  0.0361
  447TMC3    C6 6660   0.019   3.859  11.013 -0.5653 -0.3259 -0.2300
  447TMC3     C 6661   4.499   3.590  11.208  0.3797  0.4503 -0.3138
  447TMC3     O 6662   4.580   3.560  11.294 -0.3428 -0.0048  0.4625
  447TMC3     H 6663   4.506   3.630  10.935 -1.5284  1.2219  0.6449
  447TMC3    H1 6664   4.590   3.827  11.310  0.2473 -1.9139  0.4690
  447TMC3    H2 6665   0.096   3.920  10.966 -1.1511  0.1890 -0.5295
  447TMC3    C7 6666   0.111   3.864  11.230 -0.1981 -0.1416 -0.1332
  447TMC3    C8 6667   4.692   3.726  10.809  0.3395  0.4030 -0.2915
  447TMC3    O1 6668   0.211   3.867  11.157 -0.1475 -0.0233  0.1337
  447TMC3    O2 6669   4.596   3.685  10.744 -0.1105  0.1459  0.1149
  448TMC3    C1 6670   2.823   4.127  16.787  0.1722 -0.5924 -0.0857
  448TMC3    C2 6671   2.825   4.051  16.677  0.8871 -0.4895  0.3742
  448TMC3    C3 6672   2.886   3.930  16.693 -0.7037  0.5479  0.2280
  448TMC3    C4 6673   2.888   4.097  16.903 -0.0851  0.7296 -0.0811
  448TMC3    C5 6674   2.965   3.989  16.903  0.5716 -0.2526 -0.2010
  448TMC3    C6 6675   2.975   3.903  16.798  0.1619 -0.4534 -0.3642
  448TMC3     C 6676   2.713   4.215  16.803 -0.3595  0.2993 -0.4576
  448TMC3     O 6677   2.656   4.254  16.699 -0.1583  0.7198  0.3001
  448TMC3     H 6678   2.767   4.080  16.590 -0.2814  2.0165  1.9849
  448TMC3    H1 6679   2.882   4.151  16.996 -0.8352  0.3002  0.1179
  448TMC3    H2 6680   3.033   3.811  16.805  0.0505 -0.3466  2.2226
  448TMC3    C7 6681   3.037   3.963  17.023 -0.4106 -0.3214  1.1319
  448TMC3    C8 6682   2.849   3.811  16.616 -0.3617 -0.0748  0.4581
  448TMC3    O1 6683   3.075   4.067  17.076 -0.2766  0.4280  0.3294
  448TMC3    O2 6684   2.868   3.705  16.670 -0.1765  0.0025 -0.2336
  449MPD2     C 6685   4.253   2.090  14.078 -0.1843 -0.6100 -0.8432
  449MPD2    C1 6686   4.147   2.158  14.020  0.1836 -0.2846 -0.2040
  449MPD2    C2 6687   4.025   2.112  14.026 -0.3496 -0.1342  0.2114
  449MPD2    C3 6688   3.990   2.007  14.104  0.2664 -0.0378 -0.2430
  449MPD2    C4 6689   4.096   1.936  14.163 -0.0090  0.1757 -0.0546
  449MPD2    C5 6690   4.224   1.972  14.139 -0.4500  0.7590  0.3053
  449MPD2     H 6691   3.941   2.163  13.978 -1.6911 -0.2124  2.4933
  449MPD2    H1 6692   4.078   1.840  14.209 -0.8925  0.4347  0.1446
  449MPD2    H2 6693   4.356   2.124  14.079  0.1743 -1.6693 -1.2955
  449MPD2    H3 6694   4.309   1.909  14.162 -0.5518  1.2268  2.0162
  449MPD2     N 6695   3.859   1.962  14.100  0.0411 -0.2350 -0.1175
  449MPD2    H5 6696   3.792   2.019  14.050 -2.5459 -0.5558  2.9590
  449MPD2    N1 6697   4.162   2.279  13.952  0.3346  0.0690 -0.3551
  449MPD2    H7 6698   4.078   2.330  13.927 -0.0707 -0.3130  0.2291
  450TMC3    C1 6699   4.246   2.457  13.822  0.7464 -0.1626  0.2865
  450TMC3    C2 6700   4.292   2.440  13.695 -0.1328  0.6012  0.3401
  450TMC3    C3 6701   4.222   2.487  13.590 -1.0793 -0.5146  0.3821
  450TMC3    C4 6702   4.123   2.502  13.840 -0.2204 -0.5323  0.4837
  450TMC3    C5 6703   4.041   2.533  13.733 -0.2286  0.3926 -0.1186
  450TMC3    C6 6704   4.087   2.527  13.607 -0.1625  0.5394  0.1020
  450TMC3     C 6705   4.280   2.343  13.913  0.6359 -0.3082 -0.4333
  450TMC3     O 6706   4.390   2.294  13.902  0.2836  0.2310 -0.3993
  450TMC3     H 6707   4.380   2.380  13.677 -0.5648 -0.2570  1.0832
  450TMC3    H1 6708   4.090   2.500  13.943 -2.7206 -0.0233 -0.2840
  450TMC3    H2 6709   4.022   2.558  13.526 -2.6326  0.1873  1.9765
  450TMC3    C7 6710   3.913   2.474  13.762 -1.1441 -0.5392 -0.4264
  450TMC3    C8 6711   4.268   2.470  13.451  0.4616  0.2776 -0.3194
  450TMC3    O1 6712   3.907   2.392  13.853 -0.2916 -0.1197 -0.2698
  450TMC3    O2 6713   4.188   2.477  13.359 -0.7931 -0.5425 -0.3762
  451MPD2     C 6714   4.523   0.230   1.511 -0.1709 -0.5076  0.3988
  451MPD2    C1 6715   4.624   0.304   1.464  0.3088 -0.6923 -0.2498
  451MPD2    C2 6716   0.037   0.276   1.495  0.2599 -0.6516  0.6520
  451MPD2    C3 6717   0.069   0.175   1.585  0.0529 -0.5055 -0.8174
  451MPD2    C4 6718   4.684   0.114   1.646 -0.6310 -0.3537 -0.0440
  451MPD2    C5 6719   4.553   0.130   1.602  0.1895  0.4121  0.5208
  451MPD2     H 6720   0.120   0.327   1.448 -1.9636  1.4222 -0.9945
  451MPD2    H1 6721   4.703   0.035   1.717  3.0833 -0.7184 -1.4658
  451MPD2    H2 6722   4.420   0.252   1.486 -0.2358 -1.6264 -0.3658
  451MPD2    H3 6723   4.480   0.064   1.648  0.4896 -0.5651 -0.3870
  451MPD2     N 6724   0.200   0.136   1.625 -0.4867  0.7783  0.2166
  451MPD2    H5 6725   0.212   0.063   1.694 -0.1134  1.0768  0.4721
  451MPD2    N1 6726   4.582   0.417   1.387 -0.4325 -0.2718 -0.1504
  451MPD2    H7 6727   4.485   0.417   1.361 -0.3202 -0.5819 -0.5677
  452TMC3    C1 6728   0.430   0.174   1.660  0.2070  0.3865  0.6060
  452TMC3    C2 6729   0.420   0.163   1.794  0.0189 -0.6781  0.4939
  452TMC3    C3 6730   0.533   0.132   1.866 -0.2294 -0.1241  0.4442
  452TMC3    C4 6731   0.534   0.122   1.590 -0.1108 -0.9416 -0.0768
  452TMC3    C5 6732   0.637   0.070   1.655 -0.2194  0.2897 -0.2700
  452TMC3    C6 6733   0.638   0.069   1.794  0.8070 -0.5223  0.0534
  452TMC3     C 6734   0.312   0.208   1.585 -0.2602  0.0238 -0.2256
  452TMC3     O 6735   0.329   0.276   1.484  0.1951 -0.2182  0.1738
  452TMC3     H 6736   0.337   0.207   1.848  0.3453  1.0552 -0.4252
  452TMC3    H1 6737   0.533   0.118   1.481 -2.3891  1.4329 -0.1438
  452TMC3    H2 6738   0.726   0.041   1.852  1.2948  0.0808 -0.3901
  452TMC3    C7 6739   0.725   4.708   1.577 -0.0283 -0.1803  0.4517
  452TMC3    C8 6740   0.514   0.102   2.008 -0.7851  0.2049  0.2289
  452TMC3    O1 6741   0.788   0.041   1.489 -0.2662 -0.3113  0.4657
  452TMC3    O2 6742   0.402   0.060   2.042 -0.4144 -0.1020  0.0215
  453TMC3    C1 6743   1.794   2.758  11.560  0.2381 -0.3341  0.6506
  453TMC3    C2 6744   1.693   2.670  11.596 -0.0379 -0.2896  0.0108
  453TMC3    C3 6745   1.644   2.578  11.503  0.4014 -0.0788  0.2789
  453TMC3    C4 6746   1.843   2.755  11.429 -0.0732  0.1188  0.1683
  453TMC3    C5 6747   1.786   2.666  11.335 -0.1764 -0.2880  0.0917
  453TMC3    C6 6748   1.687   2.579  11.373 -0.1937 -0.8606 -0.4305
  453TMC3     C 6749   1.874   2.815  11.664 -0.1236  0.1564 -0.3140
  453TMC3     O 6750   1.977   2.857  11.622  0.9721  0.6160  0.4240
  453TMC3     H 6751   1.649   2.668  11.694  0.2973 -5.4032  0.0718
  453TMC3    H1 6752   1.934   2.810  11.407  0.4679 -0.1465  1.7542
  453TMC3    H2 6753   1.635   2.517  11.300 -0.7644 -1.3072  0.3542
  453TMC3    C7 6754   1.859   2.647  11.214  0.8276 -0.3391  0.1467
  453TMC3    C8 6755   1.584   2.462  11.558 -0.5515  0.5263 -0.1855
  453TMC3    O1 6756   1.880   2.530  11.181  0.1293 -0.3997  0.0256
  453TMC3    O2 6757   1.503   2.479  11.653 -0.1506 -0.0001  0.1286
  454MPD2     C 6758   0.689   2.594  15.741 -0.3209 -0.6695  0.1675
  454MPD2    C1 6759   0.567   2.522  15.747  0.6245 -0.3842 -0.9875
  454MPD2    C2 6760   0.449   2.585  15.788 -0.1836 -0.0521  0.3370
  454MPD2    C3 6761   0.469   2.711  15.843 -0.3628 -0.2048 -0.5209
  454MPD2    C4 6762   0.587   2.778  15.838  0.4933 -0.2938 -1.6740
  454MPD2    C5 6763   0.699   2.720  15.782  0.2476  0.6518  0.4329
  454MPD2     H 6764   0.358   2.527  15.796 -1.1355  1.7326  2.2214
  454MPD2    H1 6765   0.596   2.881  15.872 -2.9467  0.0143 -1.7021
  454MPD2    H2 6766   0.779   2.540  15.713  0.7934  1.0695  0.4080
  454MPD2    H3 6767   0.794   2.771  15.790 -0.8500  2.5007  1.5988
  454MPD2     N 6768   0.347   2.754  15.904 -0.2351  0.8609 -0.0578
  454MPD2    H5 6769   0.268   2.690  15.907 -1.1752  2.0022 -0.5085
  454MPD2    N1 6770   0.556   2.379  15.731 -0.1741 -0.7683 -0.2253
  454MPD2    H7 6771   0.467   2.338  15.756 -0.9139  0.2789 -1.1396
  455TMC3    C1 6772   0.193   2.876  16.044  0.2314 -0.6425  0.8739
  455TMC3    C2 6773   0.177   2.966  16.149 -0.6026 -0.5524  0.4445
  455TMC3    C3 6774   0.104   2.928  16.255 -0.3554 -0.0397 -0.2374
  455TMC3    C4 6775   0.133   2.756  16.046  0.3599 -0.9580 -0.0865
  455TMC3    C5 6776   0.053   2.729  16.151 -0.2766  0.3608  0.1797
  455TMC3    C6 6777   0.036   2.810  16.262  0.7194 -0.5705 -0.6889
  455TMC3     C 6778   0.320   2.871  15.975 -0.0880 -0.3507  0.0699
  455TMC3     O 6779   0.403   2.958  15.995  0.0665  0.1014 -0.5539
  455TMC3     H 6780   0.244   3.051  16.156 -1.3192  0.1752 -1.5151
  455TMC3    H1 6781   0.124   2.693  15.958 -0.2149 -0.7361 -0.1914
  455TMC3    H2 6782   4.706   2.786  16.354  1.2128 -0.5965 -0.4242
  455TMC3    C7 6783   0.044   2.585  16.177 -0.1610  0.4091  0.2401
  455TMC3    C8 6784   0.104   3.016  16.370  0.1775 -0.2762 -0.7007
  455TMC3    O1 6785   0.129   2.519  16.118 -0.2170  0.1183 -0.1687
  455TMC3    O2 6786   0.096   2.951  16.475 -0.2700  0.0698 -0.5268
  456MPD2     C 6787   2.675   2.564  15.917 -0.4686  0.0370 -0.2576
  456MPD2    C1 6788   2.780   2.568  16.008  0.2856 -0.0961  0.2493
  456MPD2    C2 6789   2.788   2.671  16.097 -0.3276 -0.0471  0.1522
  456MPD2    C3 6790   2.683   2.770  16.102 -0.0541 -0.0118 -0.4590
  456MPD2    C4 6791   2.572   2.755  16.024 -0.0980 -0.0576 -0.4143
  456MPD2    C5 6792   2.565   2.653  15.929  0.3853  0.3250 -0.4375
  456MPD2     H 6793   2.872   2.677  16.166  1.1079 -0.8386 -1.5381
  456MPD2    H1 6794   2.491   2.828  16.023 -0.5122 -0.5201 -0.4550
  456MPD2    H2 6795   2.679   2.487  15.840 -1.9791  0.5734 -0.8709
  456MPD2    H3 6796   2.475   2.632  15.873  1.0604 -1.8026 -0.7238
  456MPD2     N 6797   2.689   2.866  16.210 -0.0015  0.3154  0.4306
  456MPD2    H5 6798   2.764   2.852  16.277 -0.0833 -0.4668  0.3582
  456MPD2    N1 6799   2.893   2.486  15.981 -0.3937  0.4345 -0.1720
  456MPD2    H7 6800   2.901   2.430  15.897  0.7404 -0.1640  0.3498
  457TMC3    C1 6801   2.600   3.020  16.365  0.5149  0.3680  0.3180
  457TMC3    C2 6802   2.558   3.152  16.389 -0.8327  0.1621 -0.4483
  457TMC3    C3 6803   2.564   3.199  16.514 -0.0768  0.0398 -0.3652
  457TMC3    C4 6804   2.653   2.945  16.467 -0.2851 -0.3135 -0.0562
  457TMC3    C5 6805   2.648   2.998  16.594  0.2900  0.1177  0.5694
  457TMC3    C6 6806   2.592   3.122  16.622 -0.1021  0.6006 -0.3066
  457TMC3     C 6807   2.596   2.966  16.229 -0.0237  0.1902  0.0935
  457TMC3     O 6808   2.499   3.008  16.163 -0.5952  0.4243  0.5933
  457TMC3     H 6809   2.501   3.211  16.317 -0.8602 -0.9506 -1.3383
  457TMC3    H1 6810   2.699   2.849  16.449  2.2326  0.9661 -0.4260
  457TMC3    H2 6811   2.601   3.167  16.720 -0.2415 -0.6885  0.2983
  457TMC3    C7 6812   2.713   2.922  16.696  0.5095 -1.2899  0.0742
  457TMC3    C8 6813   2.580   3.345  16.533  0.4047 -0.0698 -0.1851
  457TMC3    O1 6814   2.673   2.951  16.808 -0.7306  0.0871  0.7437
  457TMC3    O2 6815   2.648   3.375  16.626  0.2371 -0.3879 -0.0941
  458MPD2     C 6816   0.194   1.874  12.449 -0.1201 -0.1147 -0.3489
  458MPD2    C1 6817   0.269   1.851  12.557  0.0784  0.0590  0.4164
  458MPD2    C2 6818   0.215   1.887  12.681  0.0666 -0.2385 -0.4455
  458MPD2    C3 6819   0.080   1.930  12.698 -0.1527  0.1346 -0.1792
  458MPD2    C4 6820   0.008   1.947  12.585  0.1249  0.4345  0.0953
  458MPD2    C5 6821   0.066   1.918  12.455  1.2670  0.6217  0.1289
  458MPD2     H 6822   0.277   1.881  12.770  0.5088 -0.4318 -0.7691
  458MPD2    H1 6823   4.640   2.007  12.592  0.3860  1.0652 -2.0266
  458MPD2    H2 6824   0.234   1.862  12.349  1.1453  1.3650 -0.0282
  458MPD2    H3 6825   0.007   1.943  12.367  0.0853  0.9616  1.0198
  458MPD2     N 6826   0.043   1.961  12.831 -0.2146  0.5975 -0.7243
  458MPD2    H5 6827   0.121   1.942  12.893 -1.4779 -0.5354  0.5066
  458MPD2    N1 6828   0.404   1.803  12.551  0.0744 -0.5025  0.1722
  458MPD2    H7 6829   0.445   1.799  12.458 -1.7635  1.1276 -0.7194
  459TMC3    C1 6830   0.593   1.682  12.616 -0.3730 -0.2658 -0.5512
  459TMC3    C2 6831   0.670   1.745  12.520 -0.5823 -0.4014  0.3589
  459TMC3    C3 6832   0.802   1.762  12.556 -0.1849  0.4585  0.3963
  459TMC3    C4 6833   0.654   1.608  12.717 -0.3892  0.5990 -0.9010
  459TMC3    C5 6834   0.786   1.615  12.741 -0.3512 -0.0251 -0.2288
  459TMC3    C6 6835   0.863   1.696  12.662 -0.2035  0.6634 -1.1951
  459TMC3     C 6836   0.469   1.736  12.648  0.2755  0.0196  0.1564
  459TMC3     O 6837   0.430   1.704  12.757  0.3983  0.0760 -0.0870
  459TMC3     H 6838   0.635   1.823  12.453 -0.0515 -1.2915 -0.9521
  459TMC3    H1 6839   0.588   1.551  12.781  1.6357  2.4051  2.8152
  459TMC3    H2 6840   0.971   1.704  12.667 -0.2403  0.8213 -0.6594
  459TMC3    C7 6841   0.835   1.570  12.870 -0.8431 -0.3137  0.0169
  459TMC3    C8 6842   0.894   1.823  12.459 -0.8492  0.1452 -0.3005
  459TMC3    O1 6843   0.792   1.472  12.922 -0.1226 -0.3110 -0.1650
  459TMC3    O2 6844   0.999   1.877  12.497  0.0031 -0.4250 -0.8170
  460MPD2     C 6845   0.299   3.723  10.637 -0.0504 -0.9662  0.6995
  460MPD2    C1 6846   0.162   3.707  10.645 -0.1583  1.1803 -0.1230
  460MPD2    C2 6847   0.082   3.693  10.530 -0.3746 -0.5259  0.3481
  460MPD2    C3 6848   0.148   3.700  10.407 -0.0597 -0.2105 -0.7191
  460MPD2    C4 6849   0.283   3.693  10.402  0.0456 -0.3864  0.1961
  460MPD2    C5 6850   0.359   3.698  10.514  0.0962  0.1829 -0.4173
  460MPD2     H 6851   4.697   3.709  10.542  0.0545  2.8357 -0.4181
  460MPD2    H1 6852   0.344   3.702  10.313  0.0260 -0.7294  0.1497
  460MPD2    H2 6853   0.369   3.721  10.720 -0.1980 -2.1545  0.8001
  460MPD2    H3 6854   0.467   3.700  10.520  0.0457 -0.3995  0.7661
  460MPD2     N 6855   0.065   3.712  10.290 -0.1733  0.1635 -0.2247
  460MPD2    H5 6856   4.687   3.729  10.302  0.1703  2.7408 -0.9820
  460MPD2    N1 6857   0.105   3.734  10.770  0.4219  0.2957 -0.7214
  460MPD2    H7 6858   0.171   3.754  10.844  0.0815  1.3117 -0.6953
  461TMC3    C1 6859   0.007   3.692  10.067 -0.2998  0.0878 -0.0215
  461TMC3    C2 6860   0.009   3.603   9.965 -0.5034  0.0698 -0.2051
  461TMC3    C3 6861   4.618   3.579   9.893 -0.2654 -0.4278 -0.2407
  461TMC3    C4 6862   4.619   3.771  10.092 -0.1460 -0.8444  0.1864
  461TMC3    C5 6863   4.508   3.747  10.022 -0.2499  0.5269 -0.5936
  461TMC3    C6 6864   4.499   3.647   9.928 -0.3061  0.3877  0.0935
  461TMC3     C 6865   0.107   3.670  10.163 -0.1795  0.5619 -0.2779
  461TMC3     O 6866   0.219   3.644  10.122 -0.2940  0.3649 -0.9252
  461TMC3     H 6867   0.102   3.550   9.948 -0.5672 -0.1717  0.2129
  461TMC3    H1 6868   4.632   3.860  10.153  0.6973 -0.8248 -0.0168
  461TMC3    H2 6869   4.411   3.635   9.866 -0.4497 -1.7145  0.7275
  461TMC3    C7 6870   4.399   3.846  10.029 -0.3772  0.2484 -0.4034
  461TMC3    C8 6871   4.612   3.455   9.821  0.5531 -0.3583 -0.0111
  461TMC3    O1 6872   4.323   3.845   9.931 -0.5234 -0.0606 -0.4261
  461TMC3    O2 6873   4.686   3.366   9.868 -0.0765  1.0932 -0.2951
  462TMC3    C1 6874   4.563   0.676  17.583  0.2756 -0.2435  0.3685
  462TMC3    C2 6875   4.570   0.590  17.482 -0.0015 -0.0431  0.8045
  462TMC3    C3 6876   4.544   0.452  17.506  0.0462  0.5454 -0.3744
  462TMC3    C4 6877   4.552   0.627   0.025  0.3631  0.0874  0.0387
  462TMC3    C5 6878   4.536   0.493   0.046 -0.2482 -1.0458  0.2352
  462TMC3    C6 6879   4.542   0.400  17.634  0.0629 -0.6485  0.3458
  462TMC3     C 6880   4.584   0.817  17.570  0.3860  0.4405 -0.7497
  462TMC3     O 6881   4.525   0.886  17.655  0.1935  0.1512  0.4338
  462TMC3     H 6882   4.578   0.623  17.379 -0.9122  1.2466  1.1498
  462TMC3    H1 6883   4.536   0.699   0.104  1.2415  1.4207 -1.0130
  462TMC3    H2 6884   4.502   0.303  17.659  0.4467 -1.6633 -2.9051
  462TMC3    C7 6885   4.503   0.436   0.176 -0.2020 -0.6759  0.2734
  462TMC3    C8 6886   4.559   0.354  17.403 -0.2460 -0.1894  0.6510
  462TMC3    O1 6887   4.469   0.320   0.189  0.3999  0.3022  0.9087
  462TMC3    O2 6888   4.526   0.381  17.288 -0.0538 -0.5578 -0.4724
  463MPD2     C 6889   0.526   4.295   2.410  0.2421  0.0585  0.0380
  463MPD2    C1 6890   0.473   4.176   2.459 -0.0079 -0.1329  0.2936
  463MPD2    C2 6891   0.541   4.107   2.560 -0.4922  0.1470  0.0389
  463MPD2    C3 6892   0.666   4.152   2.608 -0.6594  0.4240 -0.6482
  463MPD2    C4 6893   0.716   4.269   2.557  0.2903  0.2113  0.0541
  463MPD2    C5 6894   0.653   4.329   2.452 -0.8090 -0.7754  0.7383
  463MPD2     H 6895   0.500   4.012   2.593 -2.0261  0.3781 -1.2370
  463MPD2    H1 6896   0.813   4.309   2.584 -0.0137  1.4176 -0.6569
  463MPD2    H2 6897   0.481   4.356   2.333 -0.2802  2.1076  1.9762
  463MPD2    H3 6898   0.680   4.432   2.429 -0.9652 -1.0077 -0.4649
  463MPD2     N 6899   0.737   4.085   2.712 -0.0105  0.3316 -0.0483
  463MPD2    H5 6900   0.825   4.126   2.741  0.7905 -0.1460 -1.7945
  463MPD2    N1 6901   0.361   4.119   2.396 -0.1990 -0.0578 -0.2689
  463MPD2    H7 6902   0.341   4.022   2.419 -0.6861 -0.4625 -2.3857
  464TMC3    C1 6903   0.220   4.077   2.222  0.4282 -0.1175 -0.1059
  464TMC3    C2 6904   0.209   4.096   2.084  0.4264  0.4707 -0.0603
  464TMC3    C3 6905   0.105   4.037   2.021  0.7752  1.0335 -0.0238
  464TMC3    C4 6906   0.122   4.011   2.291  0.7891 -0.4756 -0.9840
  464TMC3    C5 6907   0.026   3.950   2.220 -0.1648  0.6016  0.2871
  464TMC3    C6 6908   0.014   3.957   2.084 -0.7553 -0.1000  0.0737
  464TMC3     C 6909   0.294   4.176   2.289 -0.0817  0.2410  0.4010
  464TMC3     O 6910   0.290   4.284   2.242 -0.3525 -0.1490 -0.3313
  464TMC3     H 6911   0.267   4.174   2.036  1.4532 -2.6059 -3.9108
  464TMC3    H1 6912   0.121   4.014   2.399 -0.4494  0.7491 -1.0290
  464TMC3    H2 6913   4.644   3.912   2.048 -0.5624 -1.2142  0.9681
  464TMC3    C7 6914   4.660   3.854   2.294 -0.2631  0.5246 -0.1854
  464TMC3    C8 6915   0.094   4.065   1.875 -0.2365 -0.1451 -0.5924
  464TMC3    O1 6916   4.638   3.888   2.410 -0.1475  0.0474 -0.2778
  464TMC3    O2 6917   0.190   4.132   1.833  0.2340 -0.5153  0.2667
  465MPD2     C 6918   2.334   2.495  16.894  0.1966  0.9158 -0.2128
  465MPD2    C1 6919   2.246   2.555  16.976  0.0197  0.0831 -0.1377
  465MPD2    C2 6920   2.113   2.543  16.945  0.1258 -0.5088 -0.0462
  465MPD2    C3 6921   2.073   2.480  16.835  0.2605 -0.1958  0.1800
  465MPD2    C4 6922   2.157   2.419  16.749  0.6719 -0.1612  0.3957
  465MPD2    C5 6923   2.292   2.422  16.783  0.2430  0.5027  0.2316
  465MPD2     H 6924   2.041   2.582  17.017  1.3895  0.0796  0.8958
  465MPD2    H1 6925   2.128   2.358  16.664 -0.3658  2.8172 -1.3936
  465MPD2    H2 6926   2.442   2.496  16.906  0.4179  0.0814 -2.1869
  465MPD2    H3 6927   2.372   2.377  16.724 -1.3778  0.0049 -1.5851
  465MPD2     N 6928   1.935   2.490  16.803 -0.3159  0.7427  0.3589
  465MPD2    H5 6929   1.873   2.537  16.867 -0.6168  0.3603  0.3479
  465MPD2    N1 6930   2.278   2.638  17.081 -0.1922  0.1241 -0.0012
  465MPD2    H7 6931   2.212   2.664  17.154 -0.1116  0.4502 -0.0433
  466TMC3    C1 6932   1.544   2.520  16.792 -0.0541  0.6986  0.1365
  466TMC3    C2 6933   1.499   2.626  16.714 -0.6754  0.2341  0.8062
  466TMC3    C3 6934   1.575   2.655  16.600 -0.5946 -0.3961  0.1853
  466TMC3    C4 6935   1.665   2.463  16.780  0.4757  0.4197 -0.3784
  466TMC3    C5 6936   1.739   2.500  16.669 -0.5341 -0.2928 -1.0960
  466TMC3    C6 6937   1.693   2.591  16.573 -0.0407  0.7248 -0.0623
  466TMC3     C 6938   1.453   2.461  16.882 -0.0455  0.5646 -0.2497
  466TMC3     O 6939   1.495   2.369  16.947  0.2736  0.5850 -0.8648
  466TMC3     H 6940   1.401   2.670  16.726 -0.4542  1.0379 -0.4395
  466TMC3    H1 6941   1.690   2.370  16.828  2.6402  0.9640 -0.4394
  466TMC3    H2 6942   1.762   2.615  16.493  2.7206 -0.3823  1.9740
  466TMC3    C7 6943   1.885   2.471  16.677  0.0708  0.4357 -0.6006
  466TMC3    C8 6944   1.556   2.779  16.531 -0.2040  0.5021 -0.1364
  466TMC3    O1 6945   1.941   2.467  16.569  0.1735 -0.5448  0.8352
  466TMC3    O2 6946   1.613   2.797  16.426 -0.6492 -0.0028  0.0714
  467TMC3    C1 6947   2.733   1.242  13.864 -0.3853 -0.0509 -0.5068
  467TMC3    C2 6948   2.674   1.220  13.744 -0.6976  0.2654  0.3174
  467TMC3    C3 6949   2.565   1.135  13.728  0.1495  0.0692 -0.3099
  467TMC3    C4 6950   2.677   1.190  13.980 -0.3339 -0.1016  0.4538
  467TMC3    C5 6951   2.561   1.109  13.958  0.6371 -0.0638  0.2949
  467TMC3    C6 6952   2.504   1.081  13.832  0.1760 -0.2238 -0.4763
  467TMC3     C 6953   2.855   1.308  13.865  0.2900 -0.1870 -0.6865
  467TMC3     O 6954   2.931   1.305  13.770 -0.1591  0.0461 -0.1788
  467TMC3     H 6955   2.698   1.276  13.654  0.6043  2.7363  2.2255
  467TMC3    H1 6956   2.713   1.207  14.081 -0.9512 -1.8811  0.9670
  467TMC3    H2 6957   2.429   1.005  13.809  1.3375 -1.5178  0.0077
  467TMC3    C7 6958   2.518   1.037  14.072  0.2167 -0.2562 -0.1617
  467TMC3    C8 6959   2.504   1.139  13.600  0.0814  0.0873  0.2362
  467TMC3    O1 6960   2.595   1.047  14.167  0.3885  0.7848  0.0540
  467TMC3    O2 6961   2.583   1.124  13.506 -0.7549  0.7312 -0.6121
  468MPD2     C 6962   2.213   3.361  10.410 -0.0009 -0.1336 -1.0493
  468MPD2    C1 6963   2.200   3.319  10.543  0.7664  0.1676 -0.1228
  468MPD2    C2 6964   2.147   3.193  10.568  0.4678 -0.5239 -0.2761
  468MPD2    C3 6965   2.113   3.109  10.455  0.8039 -0.1351 -0.1967
  468MPD2    C4 6966   2.142   3.152  10.325 -0.3808  0.3122 -0.1992
  468MPD2    C5 6967   2.189   3.275  10.301  0.5315 -0.1563 -0.0851
  468MPD2     H 6968   2.129   3.162  10.670 -0.3168 -0.8580 -0.5161
  468MPD2    H1 6969   2.133   3.093  10.234 -1.6314 -1.9891  1.4372
  468MPD2    H2 6970   2.239   3.465  10.390 -1.0327  0.9538  3.3261
  468MPD2    H3 6971   2.216   3.309  10.202 -1.6662 -0.0585 -0.6419
  468MPD2     N 6972   2.060   2.974  10.474  0.2282 -0.2110 -0.4978
  468MPD2    H5 6973   2.054   2.913  10.393 -0.4133  0.0145 -0.6146
  468MPD2    N1 6974   2.245   3.401  10.647 -0.4642  0.0728  0.3764
  468MPD2    H7 6975   2.271   3.353  10.732 -1.8745  1.4072  1.5610
  469TMC3    C1 6976   2.287   3.599  10.770  0.1724  0.6581  0.5279
  469TMC3    C2 6977   2.389   3.542  10.837  0.0939  0.0444 -0.6401
  469TMC3    C3 6978   2.452   3.619  10.928 -0.1771  0.3932  0.3599
  469TMC3    C4 6979   2.232   3.716  10.805  0.3392  0.1485  0.0127
  469TMC3    C5 6980   2.302   3.799  10.892 -0.4180  0.3347 -0.7443
  469TMC3    C6 6981   2.414   3.749  10.953  0.2802 -0.2605  0.5605
  469TMC3     C 6982   2.234   3.540  10.647 -0.0651 -0.0988  0.8342
  469TMC3     O 6983   2.154   3.606  10.584 -0.2619  0.6993 -0.1722
  469TMC3     H 6984   2.415   3.440  10.812 -0.7114 -0.2633 -0.2177
  469TMC3    H1 6985   2.161   3.771  10.745  2.6360  1.9454 -1.0639
  469TMC3    H2 6986   2.461   3.814  11.026  0.2960 -0.8462  1.0650
  469TMC3    C7 6987   2.243   3.929  10.924  0.1520  0.7494 -0.2595
  469TMC3    C8 6988   2.565   3.562  10.993 -0.7616  0.0274  0.5620
  469TMC3    O1 6989   2.118   3.933  10.913 -0.1230 -0.1935 -0.0045
  469TMC3    O2 6990   2.618   3.460  10.946  0.2473  0.4240 -0.2368
  470TMC3    C1 6991   3.836   0.494  17.631 -1.0393  0.2742  0.2649
  470TMC3    C2 6992   3.812   0.610   0.012  0.3705 -0.1892 -0.0481
  470TMC3    C3 6993   3.803   0.607   0.150 -0.2808 -0.6486  0.2850
  470TMC3    C4 6994   3.879   0.383   0.009 -0.5017 -0.3441 -0.4135
  470TMC3    C5 6995   3.876   0.383   0.146 -0.7967  0.7607  1.2832
  470TMC3    C6 6996   3.847   0.499   0.222 -0.1150 -0.1356 -0.3580
  470TMC3     C 6997   3.832   0.500  17.489 -0.2998 -0.5164 -0.2497
  470TMC3     O 6998   3.806   0.602  17.429 -0.0472 -0.6612 -0.3571
  470TMC3     H 6999   3.781   0.698  17.644 -0.3821  0.4942  1.4693
  470TMC3    H1 7000   3.912   0.292  17.648  0.8157  0.0957 -0.3475
  470TMC3    H2 7001   3.835   0.495   0.329 -0.6094  1.4899 -0.3524
  470TMC3    C7 7002   3.851   0.257   0.192  0.0067 -0.1416 -0.0850
  470TMC3    C8 7003   3.791   0.732   0.225  0.1948  0.7946  0.5726
  470TMC3    O1 7004   3.836   0.165   0.111  0.1706 -0.1162  0.0496
  470TMC3    O2 7005   3.772   0.735   0.348 -0.0404 -0.2382  0.0738
  471MPD2     C 7006   4.120   1.847  16.767 -0.0994 -0.3402 -0.4523
  471MPD2    C1 7007   4.147   1.716  16.734  0.2274 -0.7176 -0.0421
  471MPD2    C2 7008   4.203   1.630  16.825  0.9512 -0.0881  0.2172
  471MPD2    C3 7009   4.232   1.664  16.951 -0.0856  0.4711  0.7822
  471MPD2    C4 7010   4.200   1.791  16.984 -0.7205  0.2753 -0.5340
  471MPD2    C5 7011   4.150   1.883  16.893 -0.2878 -0.2752 -0.7013
  471MPD2     H 7012   4.203   1.527  16.792  1.6193 -0.2080  0.5866
  471MPD2    H1 7013   4.209   1.835  17.083  1.6043  2.8961 -1.8869
  471MPD2    H2 7014   4.071   1.912  16.696  0.7290 -1.6911 -2.2613
  471MPD2    H3 7015   4.141   1.987  16.921 -4.8550 -0.6740 -0.6315
  471MPD2     N 7016   4.285   1.580  17.047 -0.0864 -0.1824 -0.2696
  471MPD2    H5 7017   4.311   1.613  17.140 -1.3327 -2.1551  0.7851
  471MPD2    N1 7018   4.124   1.651  16.607  0.0668 -0.5047 -0.0519
  471MPD2    H7 7019   4.164   1.558  16.601  1.3318 -0.1717  3.1010
  472TMC3    C1 7020   4.051   1.598  16.402  0.4420  0.2522  0.3851
  472TMC3    C2 7021   4.017   1.646  16.269  0.3316  0.8686 -0.5537
  472TMC3    C3 7022   4.038   1.557  16.162  0.1045  0.9575  0.2236
  472TMC3    C4 7023   4.093   1.466  16.417  0.1177 -0.6244 -0.0981
  472TMC3    C5 7024   4.116   1.389  16.302 -0.1892  0.2397  0.0822
  472TMC3    C6 7025   4.091   1.435  16.177 -0.7890  0.4989 -0.4788
  472TMC3     C 7026   4.055   1.704  16.497  0.1395 -0.3771 -0.7374
  472TMC3     O 7027   4.009   1.818  16.476  0.0520  0.2910  0.5970
  472TMC3     H 7028   3.955   1.732  16.249 -0.8807  0.0387 -0.3688
  472TMC3    H1 7029   4.139   1.441  16.512  1.5747  0.5208 -0.5022
  472TMC3    H2 7030   4.109   1.370  16.092  0.9618  2.1738 -1.3901
  472TMC3    C7 7031   4.190   1.264  16.330  0.6924  0.0551 -0.0823
  472TMC3    C8 7032   3.950   1.583  16.048 -0.5131 -0.5920 -0.9105
  472TMC3    O1 7033   4.179   1.229  16.446 -0.4932 -0.4860 -0.6875
  472TMC3    O2 7034   3.906   1.693  16.026  0.4012  0.1982 -0.0856
  473MPD2     C 7035   0.011   3.434  13.714  0.0879 -0.1691 -0.4279
  473MPD2    C1 7036   0.016   3.537  13.624  0.1399  0.0753 -0.4359
  473MPD2    C2 7037   0.067   3.665  13.665 -0.3753 -0.3692 -0.2429
  473MPD2    C3 7038   0.122   3.682  13.790 -0.2438  0.0677  0.0895
  473MPD2    C4 7039   0.119   3.576  13.879  0.2030  0.1374 -0.0567
  473MPD2    C5 7040   0.067   3.453  13.843  0.5086  0.1471  0.0125
  473MPD2     H 7041   0.066   3.748  13.596  1.0602 -1.0502 -1.0907
  473MPD2    H1 7042   0.165   3.584  13.977 -1.3647  1.2255  0.6020
  473MPD2    H2 7043   4.694   3.335  13.689 -0.3803  0.0977 -0.7731
  473MPD2    H3 7044   0.077   3.367  13.908 -0.0561 -1.0895 -1.5415
  473MPD2     N 7045   0.164   3.806  13.839 -0.1339  0.0317  0.6867
  473MPD2    H5 7046   0.208   3.804  13.931  2.4806 -0.2965 -0.5770
  473MPD2    N1 7047   4.686   3.525  13.492 -0.0658 -1.1727 -0.1042
  473MPD2    H7 7048   4.711   3.598  13.427  0.2282  0.3506  1.7315
  474TMC3    C1 7049   0.181   4.038  13.871  0.0473  0.1547 -0.4254
  474TMC3    C2 7050   0.093   4.144  13.862 -0.3344  0.4523 -0.1945
  474TMC3    C3 7051   0.100   4.235  13.963 -0.2306 -0.6434  0.1269
  474TMC3    C4 7052   0.262   4.013  13.980  0.7619 -0.9360 -0.8301
  474TMC3    C5 7053   0.250   4.103  14.082 -0.6292 -0.1071 -0.0652
  474TMC3    C6 7054   0.180   4.217  14.068 -0.2829 -0.1345  0.0072
  474TMC3     C 7055   0.152   3.927  13.781  0.1301 -0.3878  0.2042
  474TMC3     O 7056   0.104   3.952  13.670  0.0642 -0.3672 -0.0896
  474TMC3     H 7057   0.025   4.158  13.779  0.4418  0.0244 -0.9060
  474TMC3    H1 7058   0.329   3.929  13.991 -0.5084 -1.8149  0.1774
  474TMC3    H2 7059   0.192   4.291  14.147  2.5513  0.5486 -1.0626
  474TMC3    C7 7060   0.334   4.075  14.201  0.5934 -0.3838  0.2183
  474TMC3    C8 7061   4.685   4.301  13.984 -0.0038 -0.1116  0.5547
  474TMC3    O1 7062   0.419   3.982  14.189  0.2029  0.4749 -0.6667
  474TMC3    O2 7063   4.595   4.245  13.930 -0.8096 -0.1769  0.4026
  475MPD2     C 7064   3.119   1.599  10.218  0.4072  0.1022  0.3820
  475MPD2    C1 7065   3.084   1.477  10.167  0.4017 -0.4884 -0.8146
  475MPD2    C2 7066   2.959   1.438  10.135  0.0406 -0.1535  1.2488
  475MPD2    C3 7067   2.861   1.531  10.173 -0.3378 -0.5853 -0.1170
  475MPD2    C4 7068   2.891   1.647  10.240  0.0546 -0.6869  0.1045
  475MPD2    C5 7069   3.020   1.681  10.259 -0.0551 -0.3321  0.0772
  475MPD2     H 7070   2.935   1.338  10.100  0.4120  0.2196 -0.0532
  475MPD2    H1 7071   2.815   1.709  10.286 -0.4627  0.7985 -2.7152
  475MPD2    H2 7072   3.223   1.613  10.247  0.2599 -0.5430  1.2447
  475MPD2    H3 7073   3.045   1.775  10.306  1.2488 -0.6241 -0.0302
  475MPD2     N 7074   2.723   1.493  10.142 -0.6362  0.2157  0.0915
  475MPD2    H5 7075   2.713   1.426  10.066  1.6327 -2.2624  1.9711
  475MPD2    N1 7076   3.194   1.392  10.140 -0.2841  0.2965 -0.0343
  475MPD2    H7 7077   3.289   1.419  10.160  0.4894 -0.4407 -2.7951
  476TMC3    C1 7078   3.318   1.217  10.052  0.5203 -0.4602 -0.8436
  476TMC3    C2 7079   3.365   1.161   9.940 -0.4141 -0.4305 -0.1991
  476TMC3    C3 7080   3.473   1.081   9.951 -0.0118 -0.5444 -0.0722
  476TMC3    C4 7081   3.376   1.208  10.173  0.0172 -0.2161  0.5146
  476TMC3    C5 7082   3.489   1.126  10.176 -0.0964 -0.0040  0.6270
  476TMC3    C6 7083   3.542   1.059  10.065  0.3148 -0.6219 -0.0951
  476TMC3     C 7084   3.189   1.282  10.055 -0.0926 -0.3609  0.1132
  476TMC3     O 7085   3.102   1.264   9.966  0.2124  0.0118 -0.3486
  476TMC3     H 7086   3.298   1.163   9.854 -0.8962 -0.7023  0.1715
  476TMC3    H1 7087   3.334   1.240  10.268 -0.5440 -1.7320  0.7763
  476TMC3    H2 7088   3.634   1.003  10.072 -1.0012 -2.8750 -1.0600
  476TMC3    C7 7089   3.585   1.153  10.278  0.1051  0.2813 -0.4528
  476TMC3    C8 7090   3.528   1.012   9.833  0.6688 -0.3653 -0.0651
  476TMC3    O1 7091   3.647   1.058  10.324  0.4819 -0.5074 -0.3124
  476TMC3    O2 7092   3.650   1.015   9.812  0.0971 -0.3570  0.0247
  477MPD2     C 7093   0.865   3.172  11.802  0.0098  0.0557  1.1453
  477MPD2    C1 7094   0.741   3.106  11.812 -0.8521  0.1315 -0.0695
  477MPD2    C2 7095   0.730   2.998  11.903 -0.1598 -0.0290  0.1957
  477MPD2    C3 7096   0.843   2.950  11.960 -0.3193 -0.5123 -0.2851
  477MPD2    C4 7097   0.968   3.016  11.939 -0.1117  0.3879 -0.0498
  477MPD2    C5 7098   0.980   3.134  11.862 -0.6662  0.7049  0.3106
  477MPD2     H 7099   0.635   2.950  11.920  0.3954 -0.2585  2.6925
  477MPD2    H1 7100   1.062   3.002  11.991  0.7168  1.0463 -1.3472
  477MPD2    H2 7101   0.870   3.268  11.752  0.9008 -1.4745 -1.7098
  477MPD2    H3 7102   1.075   3.187  11.861 -0.3164  0.0917  1.4859
  477MPD2     N 7103   0.832   2.831  12.039  1.0473  0.2007  0.1964
  477MPD2    H5 7104   0.737   2.802  12.061  0.6070  1.9453  0.5864
  477MPD2    N1 7105   0.628   3.165  11.751  0.0660 -0.1320  0.1575
  477MPD2    H7 7106   0.644   3.253  11.702  2.0213  0.3910  1.7401
  478TMC3    C1 7107   0.405   3.218  11.685 -0.3153 -0.4858  0.1551
  478TMC3    C2 7108   0.289   3.241  11.751 -0.1352  0.2854 -0.0784
  478TMC3    C3 7109   0.211   3.334  11.695 -0.0003 -0.1886 -0.2450
  478TMC3    C4 7110   0.445   3.277  11.573  0.5534 -0.8658 -0.6985
  478TMC3    C5 7111   0.354   3.358  11.509  0.8926 -0.1785 -0.9779
  478TMC3    C6 7112   0.242   3.392  11.575 -0.1592 -0.2981 -0.0083
  478TMC3     C 7113   0.497   3.130  11.763 -0.2304  0.5326 -0.1315
  478TMC3     O 7114   0.446   3.052  11.841 -0.4483 -0.0923 -0.1285
  478TMC3     H 7115   0.272   3.189  11.845 -3.4494  2.0592  0.3052
  478TMC3    H1 7116   0.540   3.248  11.529 -0.4655 -0.9271 -2.8685
  478TMC3    H2 7117   0.168   3.458  11.531 -0.2770  0.0865  0.7785
  478TMC3    C7 7118   0.369   3.372  11.362  0.5297 -0.3031 -0.5518
  478TMC3    C8 7119   0.093   3.362  11.776  0.0639 -0.1853 -0.1047
  478TMC3    O1 7120   0.480   3.341  11.323 -0.2352 -0.0762 -0.3986
  478TMC3    O2 7121   0.071   3.296  11.876  0.1668  0.2873  0.6350
  479MPD2     C 7122   4.245   0.953  14.907  0.5377  0.1261 -0.1964
  479MPD2    C1 7123   4.200   0.895  15.027  0.3440  0.4147 -0.6619
  479MPD2    C2 7124   4.266   0.940  15.137 -0.9513  0.4338 -0.2539
  479MPD2    C3 7125   4.348   1.047  15.147 -0.0487 -0.2529 -0.6023
  479MPD2    C4 7126   4.378   1.106  15.029  0.0365 -0.5860 -0.8137
  479MPD2    C5 7127   4.330   1.064  14.911  0.8577  0.4110 -0.2078
  479MPD2     H 7128   4.227   0.897  15.229  0.2231 -0.3123 -0.1004
  479MPD2    H1 7129   4.451   1.186  15.022 -0.1469 -0.4925 -1.6507
  479MPD2    H2 7130   4.208   0.925  14.809 -1.2070 -0.6524  0.6957
  479MPD2    H3 7131   4.366   1.109  14.820 -0.9355  2.0213 -0.1133
  479MPD2     N 7132   4.398   1.109  15.261 -0.1872  0.1665 -0.0400
  479MPD2    H5 7133   4.474   1.175  15.248  0.4451 -0.2804  1.4015
  479MPD2    N1 7134   4.085   0.811  15.033  0.2473 -0.0299  0.3148
  479MPD2    H7 7135   4.035   0.793  14.947  1.4517 -2.2702  0.0872
  480TMC3    C1 7136   4.081   0.942  15.572 -0.5046 -0.4890  0.1009
  480TMC3    C2 7137   3.967   0.975  15.499 -0.1242  0.3130 -0.4738
  480TMC3    C3 7138   3.991   1.052  15.384 -0.0822 -0.6058  0.1548
  480TMC3    C4 7139   4.206   0.981  15.533  0.3195 -0.0443 -0.2064
  480TMC3    C5 7140   4.222   1.062  15.428  0.4986 -1.1872  1.0033
  480TMC3    C6 7141   4.116   1.095  15.344  0.2703 -0.4195  0.8710
  480TMC3     C 7142   4.064   0.865  15.694  0.2972 -0.1176 -0.2302
  480TMC3     O 7143   3.965   0.792  15.709  0.0360 -0.1787 -0.2127
  480TMC3     H 7144   3.869   0.944  15.532  0.7068  0.9279  2.6151
  480TMC3    H1 7145   4.299   0.967  15.586  0.7291  3.3587 -0.0061
  480TMC3    H2 7146   4.128   1.167  15.264 -0.7944 -0.5913  0.5608
  480TMC3    C7 7147   4.354   1.104  15.395 -0.5829  0.4572  0.1521
  480TMC3    C8 7148   3.885   1.054  15.282  0.4169  0.3482 -0.5540
  480TMC3    O1 7149   4.430   1.142  15.486 -0.6154 -0.4155 -0.2292
  480TMC3    O2 7150   3.784   0.991  15.318  0.2520  0.0602 -0.0909
  481MPD2     C 7151   1.560   0.143  14.018 -0.1805 -0.6070  0.0369
  481MPD2    C1 7152   1.444   0.216  14.033  0.5777 -1.1112 -0.4476
  481MPD2    C2 7153   1.359   0.204  14.145 -0.3010  0.4565  0.3625
  481MPD2    C3 7154   1.398   0.113  14.242  0.1298  0.8686  0.6440
  481MPD2    C4 7155   1.521   0.048  14.233 -0.2581 -0.4579  0.9137
  481MPD2    C5 7156   1.601   0.063  14.124  0.1092 -0.1558  0.4372
  481MPD2     H 7157   1.261   0.250  14.151 -1.0349 -0.7886 -2.1062
  481MPD2    H1 7158   1.558   4.712  14.317  0.5162 -2.1935 -0.6074
  481MPD2    H2 7159   1.625   0.162  13.934 -0.3316  0.3703  0.1350
  481MPD2    H3 7160   1.694   0.007  14.119  0.3671  0.2468  0.7286
  481MPD2     N 7161   1.324   0.081  14.354  0.6671  0.1909 -0.1048
  481MPD2    H5 7162   1.372   0.024  14.423  0.6627 -0.7537 -0.8852
  481MPD2    N1 7163   1.416   0.306  13.925 -0.6648  0.2077 -0.1005
  481MPD2    H7 7164   1.460   0.289  13.835  0.2392 -1.0855  0.5845
  482TMC3    C1 7165   1.299   0.436  13.782  0.4036 -0.0957 -0.0150
  482TMC3    C2 7166   1.173   0.450  13.743  0.5923 -0.2396  0.7257
  482TMC3    C3 7167   1.153   0.455  13.612 -1.2527  0.3115  0.2861
  482TMC3    C4 7168   1.405   0.423  13.692  0.2093  0.2087 -0.0144
  482TMC3    C5 7169   1.378   0.416  13.558 -0.5457 -0.0916  0.7938
  482TMC3    C6 7170   1.253   0.437  13.520 -0.6790 -0.3647 -0.5307
  482TMC3     C 7171   1.305   0.388  13.921  0.8517 -0.2187 -0.2570
  482TMC3     O 7172   1.218   0.425  14.001 -0.5757 -0.1234 -0.1970
  482TMC3     H 7173   1.096   0.459  13.818 -1.1538 -2.2090 -0.8443
  482TMC3    H1 7174   1.505   0.438  13.730  0.8036 -0.1987 -1.4005
  482TMC3    H2 7175   1.221   0.450  13.417 -0.0366  2.6614 -0.3569
  482TMC3    C7 7176   1.473   0.439  13.455 -0.3314  0.0872  1.2543
  482TMC3    C8 7177   1.011   0.458  13.565 -0.4807 -0.4219  0.1345
  482TMC3    O1 7178   1.592   0.462  13.480 -0.2034 -0.0135 -0.3082
  482TMC3    O2 7179   0.924   0.527  13.617 -0.0539  0.4909  0.0063
  483TMC3    C1 7180   3.521   3.853   1.081  0.3595 -0.4078 -0.7176
  483TMC3    C2 7181   3.582   3.977   1.114  0.9589  0.0044  0.1419
  483TMC3    C3 7182   3.704   3.967   1.172 -0.2836  0.2371  0.0960
  483TMC3    C4 7183   3.577   3.730   1.088  0.3417 -0.1278  0.4826
  483TMC3    C5 7184   3.700   3.734   1.145 -0.2156 -0.6435 -0.4204
  483TMC3    C6 7185   3.764   3.847   1.194 -0.2505 -0.0057  0.2814
  483TMC3     C 7186   3.397   3.873   1.019  0.1915 -0.4432  0.3143
  483TMC3     O 7187   3.354   3.983   1.016 -0.4343 -0.3380  0.8613
  483TMC3     H 7188   3.537   4.074   1.094  0.7042 -0.0910  0.2526
  483TMC3    H1 7189   3.517   3.645   1.058 -0.6095  0.6071  0.3141
  483TMC3    H2 7190   3.865   3.837   1.234  1.5928  1.6503 -3.9858
  483TMC3    C7 7191   3.773   3.610   1.142 -0.0205 -0.0434 -0.1664
  483TMC3    C8 7192   3.782   4.083   1.151 -0.3211  0.0220 -0.0207
  483TMC3    O1 7193   3.895   3.622   1.158  0.3092  0.1753  0.2669
  483TMC3    O2 7194   3.741   4.169   1.073 -0.2951  0.2425  0.3044
  484MPD2     C 7195   0.903   1.643  12.137  0.2186 -0.1504 -0.5022
  484MPD2    C1 7196   0.948   1.741  12.227  0.7352  0.7421  0.5192
  484MPD2    C2 7197   1.074   1.798  12.207 -0.2213  0.6520  0.0858
  484MPD2    C3 7198   1.157   1.742  12.109  0.5884 -0.3532 -0.6234
  484MPD2    C4 7199   1.116   1.631  12.038 -0.0122 -0.0604  0.2509
  484MPD2    C5 7200   0.984   1.590  12.046 -0.0524 -0.8037  0.0487
  484MPD2     H 7201   1.110   1.878  12.270 -0.5561  0.2824  0.7435
  484MPD2    H1 7202   1.173   1.590  11.956 -0.9930 -0.2377 -0.3415
  484MPD2    H2 7203   0.807   1.598  12.159 -0.5560  1.9973  0.4473
  484MPD2    H3 7204   0.930   1.519  11.984  1.1582 -2.2598  0.6605
  484MPD2     N 7205   1.290   1.795  12.096 -0.3052 -0.0607 -0.7337
  484MPD2    H5 7206   1.357   1.737  12.049 -0.7667 -0.8656 -0.4007
  484MPD2    N1 7207   0.860   1.761  12.337 -0.5401 -0.1637 -0.4709
  484MPD2    H7 7208   0.770   1.715  12.321 -0.2444 -0.6321 -0.7974
  485TMC3    C1 7209   1.476   1.936  12.136  0.4287  0.5828 -0.8861
  485TMC3    C2 7210   1.550   1.826  12.160  0.4461 -0.0325 -0.6050
  485TMC3    C3 7211   1.682   1.837  12.188  0.0948  0.4259 -0.4600
  485TMC3    C4 7212   1.526   2.065  12.134 -0.4321  0.4516  0.4874
  485TMC3    C5 7213   1.660   2.059  12.117 -0.2861  0.1542 -0.0723
  485TMC3    C6 7214   1.740   1.953  12.152  0.2043  0.1298 -0.2632
  485TMC3     C 7215   1.332   1.916  12.146 -0.1514 -0.0469  0.2659
  485TMC3     O 7216   1.262   2.014  12.175  0.1058  0.7518 -0.0468
  485TMC3     H 7217   1.504   1.729  12.176  1.0915 -0.5547 -1.9933
  485TMC3    H1 7218   1.470   2.151  12.099 -0.8301 -0.5733 -1.4148
  485TMC3    H2 7219   1.848   1.957  12.160  0.1819 -3.6425  2.0744
  485TMC3    C7 7220   1.700   2.115  11.990  0.8436  0.6007  0.2617
  485TMC3    C8 7221   1.760   1.728  12.126  0.0988  0.1776  0.9091
  485TMC3    O1 7222   1.641   2.215  11.946 -0.0481 -0.1700 -0.2797
  485TMC3    O2 7223   1.768   1.737  12.005 -0.1485  0.2194  0.5968
  486MPD2     C 7224   3.559   1.253  12.991  0.2369 -0.5553  0.2893
  486MPD2    C1 7225   3.503   1.254  12.868 -0.1852 -0.1066  0.3457
  486MPD2    C2 7226   3.419   1.361  12.846  0.4011 -0.5317  0.2989
  486MPD2    C3 7227   3.404   1.467  12.936  0.1205  0.0081  0.1131
  486MPD2    C4 7228   3.472   1.462  13.057  0.4794  0.1489 -0.1006
  486MPD2    C5 7229   3.550   1.349  13.086  0.4384  0.5268  0.7586
  486MPD2     H 7230   3.365   1.363  12.752 -0.9378  0.0177  1.0781
  486MPD2    H1 7231   3.453   1.525  13.143  0.1150  1.7947 -1.3832
  486MPD2    H2 7232   3.625   1.171  13.015  1.5696  0.2399 -0.6704
  486MPD2    H3 7233   3.613   1.340  13.173 -0.1131  0.0898  1.1123
  486MPD2     N 7234   3.315   1.578  12.904  0.1630 -0.2682  0.2039
  486MPD2    H5 7235   3.285   1.573  12.807 -2.4429 -1.9658  1.1230
  486MPD2    N1 7236   3.536   1.155  12.776 -0.6453 -0.6674 -0.4480
  486MPD2    H7 7237   3.574   1.072  12.820  2.4296  1.0633  0.0769
  487TMC3    C1 7238   3.589   1.042  12.586 -0.6648 -0.5368 -0.1058
  487TMC3    C2 7239   3.530   0.981  12.483  0.4618  0.0688 -0.2710
  487TMC3    C3 7240   3.576   0.855  12.458 -0.7420 -0.5417 -0.0174
  487TMC3    C4 7241   3.684   0.980  12.666  0.8831 -0.1897  0.0799
  487TMC3    C5 7242   3.718   0.854  12.638 -0.3489 -0.7164  0.0859
  487TMC3    C6 7243   3.674   0.792  12.530  0.2779  0.2481  0.0338
  487TMC3     C 7244   3.525   1.161  12.639  0.1099 -0.1426  1.0537
  487TMC3     O 7245   3.466   1.239  12.566 -0.1728 -0.1973  0.3261
  487TMC3     H 7246   3.458   1.024  12.415 -2.6312 -0.7096  2.5560
  487TMC3    H1 7247   3.736   1.031  12.747  0.7890 -1.4715  0.9481
  487TMC3    H2 7248   3.702   0.688  12.515 -2.7025 -0.5459 -0.0789
  487TMC3    C7 7249   3.761   0.779  12.757  0.5643  0.9232 -0.6490
  487TMC3    C8 7250   3.509   0.791  12.341  0.8601 -0.2922 -0.0928
  487TMC3    O1 7251   3.742   0.839  12.862  0.0745 -0.2233 -0.2119
  487TMC3    O2 7252   3.464   0.869  12.258 -0.2577  0.8414 -0.2019
  488MPD2     C 7253   3.519   2.720  16.197  0.1217  0.0076  0.0141
  488MPD2    C1 7254   3.592   2.802  16.286  0.0526 -0.4180  0.1163
  488MPD2    C2 7255   3.591   2.766  16.420 -0.4922  0.2821  1.0821
  488MPD2    C3 7256   3.513   2.659  16.469 -0.5564  0.1863  0.7274
  488MPD2    C4 7257   3.437   2.586  16.382 -0.6865 -0.3794 -0.2522
  488MPD2    C5 7258   3.447   2.617  16.249  0.3296  0.3502  0.6152
  488MPD2     H 7259   3.658   2.816  16.489  2.1399 -1.6136 -0.0887
  488MPD2    H1 7260   3.381   2.497  16.409 -0.3397 -0.5371 -0.0558
  488MPD2    H2 7261   3.521   2.730  16.089  0.1093 -2.3615 -0.2110
  488MPD2    H3 7262   3.386   2.548  16.191 -1.4790  1.9094  0.6772
  488MPD2     N 7263   3.505   2.641  16.612 -0.6952  0.0225  0.6206
  488MPD2    H5 7264   3.556   2.703  16.674 -2.2162  0.9221  0.9727
  488MPD2    N1 7265   3.676   2.907  16.248 -0.9303  0.5057 -0.3142
  488MPD2    H7 7266   3.719   2.967  16.318 -2.8872  0.0375  1.2963
  489TMC3    C1 7267   3.525   2.518  16.798  0.2597 -0.1754 -0.7150
  489TMC3    C2 7268   3.653   2.566  16.819 -0.5787 -1.3694 -0.1678
  489TMC3    C3 7269   3.683   2.612  16.940  0.0209  0.9673  0.1832
  489TMC3    C4 7270   3.448   2.489  16.908 -0.6617 -0.7844 -0.0641
  489TMC3    C5 7271   3.479   2.540  17.035 -0.3892 -0.3267 -0.1211
  489TMC3    C6 7272   3.603   2.604  17.055  0.4678 -0.1310  0.1463
  489TMC3     C 7273   3.445   2.538  16.674 -0.1056  0.3820  0.1575
  489TMC3     O 7274   3.389   2.441  16.631  0.6921 -0.1744  0.2120
  489TMC3     H 7275   3.728   2.570  16.741 -0.3643  0.5972  0.1287
  489TMC3    H1 7276   3.346   2.458  16.891 -1.0408  0.3685  0.1127
  489TMC3    H2 7277   3.651   2.596  17.152 -1.6468 -0.7828  1.1564
  489TMC3    C7 7278   3.398   2.496  17.147 -0.2656  0.7480  0.3666
  489TMC3    C8 7279   3.782   2.715  16.931 -0.4229  0.2955  0.6853
  489TMC3    O1 7280   3.298   2.434  17.124 -0.2877 -0.4738 -0.0423
  489TMC3    O2 7281   3.881   2.689  16.861 -0.1539  0.0944 -0.1979
  490MPD2     C 7282   4.620   2.719  17.352  0.0318 -0.4597  0.5223
  490MPD2    C1 7283   4.580   2.637  17.460  0.9611  0.2158 -1.0020
  490MPD2    C2 7284   4.666   2.626  17.564  0.2333 -0.0544  0.5425
  490MPD2    C3 7285   0.064   2.696  17.567 -0.2440 -0.2264 -0.4622
  490MPD2    C4 7286   0.102   2.780  17.467  0.2898 -0.0738  0.0481
  490MPD2    C5 7287   0.017   2.790  17.358  0.6522 -0.2334  0.1127
  490MPD2     H 7288   4.637   2.563  17.647  0.6802  0.9653  1.4714
  490MPD2    H1 7289   0.199   2.830  17.465  1.6134 -2.6861 -0.4979
  490MPD2    H2 7290   4.557   2.730  17.265  1.9291  0.3887 -0.7572
  490MPD2    H3 7291   0.041   2.861  17.279  1.4488 -2.2166 -1.4134
  490MPD2     N 7292   0.151   2.690  17.675 -0.3471 -0.4031 -0.0398
  490MPD2    H5 7293   0.237   2.743  17.670  0.9591 -2.6154 -1.0412
  490MPD2    N1 7294   4.456   2.564  17.461 -0.3280 -0.1006 -0.3274
  490MPD2    H7 7295   4.435   2.504  17.540 -1.1688 -1.6115 -1.6908
  491TMC3    C1 7296   4.247   2.503  17.436 -0.0316  0.6018  0.1040
  491TMC3    C2 7297   4.245   2.481  17.567 -0.5002 -0.2816 -0.2844
  491TMC3    C3 7298   4.188   2.363  17.609 -0.5374 -0.5940  0.3448
  491TMC3    C4 7299   4.194   2.418  17.343 -0.4413 -0.0646 -0.2658
  491TMC3    C5 7300   4.131   2.309  17.394  0.1055  0.1392  0.3499
  491TMC3    C6 7301   4.129   2.276  17.523  0.3057 -0.2487 -0.0585
  491TMC3     C 7302   4.354   2.578  17.380 -0.1777  0.0936 -0.7219
  491TMC3     O 7303   4.349   2.615  17.261  0.5584  0.0477  0.1268
  491TMC3     H 7304   4.258   2.562  17.638 -0.4596  1.0114 -1.7601
  491TMC3    H1 7305   4.208   2.432  17.237 -0.3303 -0.1558 -0.2645
  491TMC3    H2 7306   4.067   2.192  17.553  0.1259 -0.6616 -1.5860
  491TMC3    C7 7307   4.075   2.213  17.302  0.0326  0.4970 -0.1826
  491TMC3    C8 7308   4.137   2.359   0.057 -0.2407 -0.4493  1.0935
  491TMC3    O1 7309   4.091   2.090  17.312  0.5771 -0.5672 -0.2234
  491TMC3    O2 7310   4.128   2.465   0.124  0.3069 -0.5215  0.3346
  492MPD2     C 7311   0.279   1.497  11.493  0.2250 -0.7845  0.7857
  492MPD2    C1 7312   0.154   1.466  11.449  0.2736  0.9441 -0.7050
  492MPD2    C2 7313   0.049   1.456  11.538  0.4092  0.5189 -0.6360
  492MPD2    C3 7314   0.074   1.491  11.671 -0.1450  0.1890  0.9761
  492MPD2    C4 7315   0.203   1.523  11.718 -0.4067 -0.0515 -0.4508
  492MPD2    C5 7316   0.304   1.522  11.630  0.1764 -0.5518  0.1085
  492MPD2     H 7317   4.670   1.436  11.503  0.2299  0.3886 -0.0438
  492MPD2    H1 7318   0.219   1.544  11.823 -0.7291 -1.8403 -0.0316
  492MPD2    H2 7319   0.363   1.491  11.425 -0.4603 -1.9488  0.0320
  492MPD2    H3 7320   0.405   1.544  11.663 -0.2075 -0.8604  1.5021
  492MPD2     N 7321   4.689   1.492  11.766  0.1370  0.4847 -0.1429
  492MPD2    H5 7322   4.721   1.509  11.861  1.3931 -1.4251 -0.2233
  492MPD2    N1 7323   0.129   1.442  11.317 -0.2930 -0.4283  0.2928
  492MPD2    H7 7324   0.038   1.405  11.292 -0.8566  1.0332  0.1740
  493TMC3    C1 7325   0.155   1.431  11.087 -0.1577 -0.5541  0.1278
  493TMC3    C2 7326   0.171   1.515  10.988 -0.1005  0.1323 -0.5247
  493TMC3    C3 7327   0.087   1.507  10.880  0.1104 -0.2821 -0.1235
  493TMC3    C4 7328   0.069   1.323  11.081  0.7578 -0.2764  0.3406
  493TMC3    C5 7329   4.701   1.320  10.978  0.0409 -0.4072 -0.1270
  493TMC3    C6 7330   4.716   1.411  10.879  0.2928  0.0858 -0.1326
  493TMC3     C 7331   0.224   1.460  11.212 -0.2139 -0.3232 -0.4604
  493TMC3     O 7332   0.333   1.517  11.200 -0.2114 -0.2682  0.1855
  493TMC3     H 7333   0.236   1.601  11.001  2.6594 -1.9704 -0.4889
  493TMC3    H1 7334   0.053   1.271  11.175 -0.0064 -1.0484 -0.2148
  493TMC3    H2 7335   4.647   1.400  10.796 -1.7679  2.4258  1.3130
  493TMC3    C7 7336   4.599   1.211  10.977  0.2236 -0.2681 -0.7733
  493TMC3    C8 7337   0.075   1.623  10.786  0.2803  1.1907 -0.6434
  493TMC3    O1 7338   4.509   1.221  10.890  0.7151  0.1729  0.5991
  493TMC3    O2 7339   4.695   1.613  10.713 -0.4733 -0.6067  0.8181
  494TMC3    C1 7340   0.838   3.716   0.680 -0.3381  0.0994  0.2402
  494TMC3    C2 7341   0.896   3.598   0.726 -0.3749  0.4576  0.2496
  494TMC3    C3 7342   0.933   3.504   0.628 -0.1179  0.6581 -0.6226
  494TMC3    C4 7343   0.815   3.743   0.551 -0.0358  0.0011 -0.7007
  494TMC3    C5 7344   0.850   3.646   0.460 -0.2164  0.2470 -0.4472
  494TMC3    C6 7345   0.902   3.524   0.496 -0.6771  0.1886 -0.6290
  494TMC3     C 7346   0.774   3.802   0.783  0.4703 -0.2559  0.0972
  494TMC3     O 7347   0.681   3.864   0.739 -0.4632  0.2313  0.3245
  494TMC3     H 7348   0.909   3.567   0.829 -0.5831  1.8928  0.7011
  494TMC3    H1 7349   0.779   3.840   0.520 -0.0782 -0.4203 -1.9356
  494TMC3    H2 7350   0.918   3.449   0.419  0.4558  0.8000 -0.9804
  494TMC3    C7 7351   0.808   3.650   0.318  0.1141 -0.2586  0.0071
  494TMC3    C8 7352   0.914   3.365   0.675 -0.0898  0.1117 -0.1374
  494TMC3    O1 7353   0.884   3.596   0.236  0.9409 -0.3122 -0.5489
  494TMC3    O2 7354   0.836   3.344   0.768 -0.0705 -0.2450 -0.5697
  495TMC3    C1 7355   4.232   1.184  14.372 -0.1936 -0.4109 -0.0894
  495TMC3    C2 7356   4.133   1.214  14.280 -0.3265  0.0706 -0.3097
  495TMC3    C3 7357   4.010   1.273  14.315  0.7753 -0.0232  0.8565
  495TMC3    C4 7358   4.207   1.213  14.505 -0.9797  0.0824 -0.4311
  495TMC3    C5 7359   4.087   1.274  14.537  0.1978  0.2316  0.1824
  495TMC3    C6 7360   3.986   1.303  14.444  0.3758  1.0336  0.9016
  495TMC3     C 7361   4.256   1.042  14.366  0.0284  0.2407  0.4304
  495TMC3     O 7362   4.168   0.975  14.321 -0.5705  0.7742 -0.2465
  495TMC3     H 7363   4.153   1.190  14.177 -1.1531 -1.0599 -0.2034
  495TMC3    H1 7364   4.286   1.187  14.575 -0.3577  0.0297 -1.1519
  495TMC3    H2 7365   3.899   1.363  14.468  0.2219  0.4507  1.7831
  495TMC3    C7 7366   4.035   1.235  14.666 -0.1171  0.7061  0.5059
  495TMC3    C8 7367   3.904   1.310  14.221 -0.1903  0.0683  0.5300
  495TMC3    O1 7368   4.124   1.186  14.736 -0.2094  0.2839  0.0425
  495TMC3    O2 7369   3.810   1.375  14.266 -0.0081 -0.2172  0.2562
  496MPD2     C 7370   0.717   0.834  15.297 -0.3466  0.1305 -0.5744
  496MPD2    C1 7371   0.823   0.844  15.385  0.6839  0.0270 -0.3502
  496MPD2    C2 7372   0.827   0.943  15.483 -0.4117  0.1063  0.8802
  496MPD2    C3 7373   0.715   1.021  15.503 -0.4492 -0.1421 -0.2091
  496MPD2    C4 7374   0.608   1.008  15.419  0.2295  0.7881 -0.2890
  496MPD2    C5 7375   0.610   0.912  15.320  0.3872 -0.3354  0.4594
  496MPD2     H 7376   0.903   0.950  15.560  0.6544  0.5502 -0.2020
  496MPD2    H1 7377   0.523   1.075  15.416  1.3785  2.2498 -0.1486
  496MPD2    H2 7378   0.711   0.757  15.221  0.8620 -1.4269  0.8965
  496MPD2    H3 7379   0.526   0.903  15.252  1.2803  1.0998 -0.8486
  496MPD2     N 7380   0.698   1.095  15.617  0.6891 -0.1552  0.0520
  496MPD2    H5 7381   0.605   1.127  15.640  0.6092 -1.5011  1.6344
  496MPD2    N1 7382   0.925   0.753  15.360 -0.3078 -0.5873  0.1017
  496MPD2    H7 7383   0.912   0.699  15.275 -0.1251 -0.7733  0.1938
  497TMC3    C1 7384   0.733   1.203  15.831 -0.6824  0.7255  0.5335
  497TMC3    C2 7385   0.601   1.241  15.830  0.7939 -0.3072  0.7703
  497TMC3    C3 7386   0.552   1.296  15.945 -0.3100 -0.5104 -0.7106
  497TMC3    C4 7387   0.807   1.214  15.942  0.0664  0.6955 -0.4501
  497TMC3    C5 7388   0.755   1.263  16.056  0.1303  0.0090 -0.4044
  497TMC3    C6 7389   0.625   1.309  16.063  0.5201  0.5880 -0.0993
  497TMC3     C 7390   0.789   1.145  15.708  0.2127 -0.4845 -0.4173
  497TMC3     O 7391   0.910   1.146  15.702  0.1315 -0.2762 -0.0653
  497TMC3     H 7392   0.553   1.260  15.734  0.4379  0.2523  1.0636
  497TMC3    H1 7393   0.902   1.161  15.947  0.2572  1.3670  2.9494
  497TMC3    H2 7394   0.591   1.356  16.154 -0.4524 -1.8070  0.7870
  497TMC3    C7 7395   0.823   1.226  16.182 -0.2552  0.8675  0.2969
  497TMC3    C8 7396   0.406   1.310  15.959  0.0522  0.3303 -0.7478
  497TMC3    O1 7397   0.759   1.182  16.277 -0.3704  0.3632 -0.0307
  497TMC3    O2 7398   0.360   1.355  16.062  0.0418 -0.9230 -0.0388
  498MPD2     C 7399   1.721   1.111   9.182  0.4077 -0.6920 -0.2926
  498MPD2    C1 7400   1.816   1.060   9.270 -0.6060 -0.0812 -0.3103
  498MPD2    C2 7401   1.814   0.934   9.314 -0.0438 -0.2444 -0.0878
  498MPD2    C3 7402   1.725   0.847   9.262 -0.0218  0.1621 -0.1020
  498MPD2    C4 7403   1.640   0.890   9.160 -0.1545  0.4061 -0.6093
  498MPD2    C5 7404   1.628   1.026   9.128  0.4571 -0.1170 -0.1332
  498MPD2     H 7405   1.887   0.902   9.388 -2.0276 -1.9512  1.1243
  498MPD2    H1 7406   1.571   0.821   9.113 -0.7450  1.4450 -1.2540
  498MPD2    H2 7407   1.714   1.215   9.156  1.8170 -0.8379 -1.2215
  498MPD2    H3 7408   1.553   1.070   9.062 -0.5940 -0.8405  0.5933
  498MPD2     N 7409   1.725   0.712   9.304 -0.2600 -0.8484  0.6100
  498MPD2    H5 7410   1.762   0.681   9.393  0.8607 -0.6357  0.2247
  498MPD2    N1 7411   1.923   1.151   9.318 -0.8179 -0.3810 -0.2762
  498MPD2    H7 7412   1.994   1.101   9.370 -1.7800  0.3102  1.6706
  499TMC3    C1 7413   2.088   1.313   9.330 -0.0021 -0.0655 -0.1242
  499TMC3    C2 7414   2.133   1.260   9.444  0.2281  0.3503 -0.6997
  499TMC3    C3 7415   2.253   1.296   9.494 -0.6447 -1.0620 -0.0102
  499TMC3    C4 7416   2.163   1.404   9.262 -0.3279  0.1587 -0.3236
  499TMC3    C5 7417   2.281   1.440   9.311 -0.2520  0.5546 -0.2036
  499TMC3    C6 7418   2.330   1.381   9.425 -0.0757 -0.3616  0.1856
  499TMC3     C 7419   1.956   1.278   9.280 -0.2581 -0.0482 -0.4796
  499TMC3     O 7420   1.903   1.344   9.191  0.3458 -0.2612  0.7769
  499TMC3     H 7421   2.070   1.192   9.500  1.0351  0.2848  0.1190
  499TMC3    H1 7422   2.115   1.445   9.173  0.2708  0.8011 -0.3486
  499TMC3    H2 7423   2.435   1.400   9.442  0.0829 -0.3455 -0.8201
  499TMC3    C7 7424   2.379   1.515   9.229  0.3249 -0.2781  0.8108
  499TMC3    C8 7425   2.298   1.249   9.620  0.1207  0.5239  0.8166
  499TMC3    O1 7426   2.491   1.542   9.273  0.8044  0.1681 -0.4038
  499TMC3    O2 7427   2.214   1.197   9.685  0.3596 -0.0772  0.1950
  500MPD2     C 7428   4.417   2.263   9.863  0.1288  0.6761  0.7009
  500MPD2    C1 7429   4.344   2.366   9.919  0.1094  0.8226  0.5472
  500MPD2    C2 7430   4.217   2.388   9.881  0.4989 -0.2822  0.1090
  500MPD2    C3 7431   4.158   2.327   9.769  0.0045  0.3570 -0.1353
  500MPD2    C4 7432   4.227   2.220   9.717 -0.3013 -1.1172  0.3904
  500MPD2    C5 7433   4.350   2.193   9.766 -0.1020  0.2313 -0.3964
  500MPD2     H 7434   4.159   2.467   9.927  0.3739 -0.2001 -0.1934
  500MPD2    H1 7435   4.198   2.151   9.639 -1.3433  1.6352 -1.6415
  500MPD2    H2 7436   4.516   2.233   9.896  1.6301  1.3592 -3.0791
  500MPD2    H3 7437   4.398   2.102   9.733 -1.8029 -0.0710 -2.0337
  500MPD2     N 7438   4.030   2.348   9.718 -0.5353  0.5212 -0.6449
  500MPD2    H5 7439   4.009   2.290   9.637 -0.9323  0.2695 -0.3634
  500MPD2    N1 7440   4.400   2.450  10.021  0.2099  0.1024  0.3287
  500MPD2    H7 7441   4.335   2.508  10.074  0.6778 -0.6192  1.6963
  501TMC3    C1 7442   4.556   2.524  10.171 -0.0966  0.3073 -0.0476
  501TMC3    C2 7443   4.567   2.659  10.150  0.4749 -0.2142 -0.5271
  501TMC3    C3 7444   4.659   2.718  10.229  0.0554 -0.6471  0.4007
  501TMC3    C4 7445   4.633   2.452  10.251  0.5234 -0.1362 -0.0824
  501TMC3    C5 7446   0.007   2.517  10.327 -0.0539  0.0935  0.1889
  501TMC3    C6 7447   0.022   2.657  10.320 -0.0606 -0.7223  0.2867
  501TMC3     C 7448   4.534   2.449  10.050 -0.5006 -0.7064  0.4912
  501TMC3     O 7449   4.630   2.404   9.994  0.4799  0.4557 -0.4103
  501TMC3     H 7450   4.516   2.700  10.064  3.7475  1.3226 -1.7192
  501TMC3    H1 7451   4.610   2.346  10.251  0.8304 -0.2036  0.4587
  501TMC3    H2 7452   0.089   2.719  10.379  1.4621 -0.2891 -1.9197
  501TMC3    C7 7453   0.067   2.444  10.431  0.7122  0.0770 -0.0484
  501TMC3    C8 7454   4.649   2.863  10.250  0.4014 -0.1719 -0.1226
  501TMC3    O1 7455   0.019   2.337  10.472  0.1564 -0.7841  0.0074
  501TMC3    O2 7456   4.702   2.906  10.353 -0.0434 -0.5460 -0.1850
  502TMC3    C1 7457   3.485   1.854  15.066 -0.1170  0.2810  0.3518
  502TMC3    C2 7458   3.492   1.878  14.935  0.4498 -0.1269 -0.0522
  502TMC3    C3 7459   3.384   1.890  14.852 -0.0505  0.7294 -0.4594
  502TMC3    C4 7460   3.361   1.833  15.121  0.4535 -0.3016 -0.3748
  502TMC3    C5 7461   3.254   1.848  15.042  0.5435  0.5944  0.5015
  502TMC3    C6 7462   3.255   1.873  14.910 -0.3403  0.1257  0.2238
  502TMC3     C 7463   3.610   1.886  15.147  0.4226  0.0885  0.3041
  502TMC3     O 7464   3.698   1.954  15.090  0.1193  0.8320  0.4741
  502TMC3     H 7465   3.588   1.906  14.894 -0.0108  3.2175  1.1598
  502TMC3    H1 7466   3.352   1.846  15.229 -0.1509 -0.5775 -0.3891
  502TMC3    H2 7467   3.166   1.896  14.853 -1.2709 -1.6931  0.9470
  502TMC3    C7 7468   3.131   1.821  15.109  0.2433 -1.0513  0.0804
  502TMC3    C8 7469   3.390   1.985  14.744 -0.3703 -0.3306  0.5064
  502TMC3    O1 7470   3.143   1.765  15.218  0.1843  0.0467  0.1345
  502TMC3    O2 7471   3.293   2.059  14.723  0.4880  0.4758  0.7996
  503MPD2     C 7472   0.705   2.790  16.701 -0.8261 -0.0756  0.4391
  503MPD2    C1 7473   0.721   2.736  16.825 -0.8021  1.0166 -0.2544
  503MPD2    C2 7474   0.769   2.604  16.833 -0.2774  0.2109 -0.0280
  503MPD2    C3 7475   0.811   2.534  16.720  0.0185  0.2819  0.2629
  503MPD2    C4 7476   0.801   2.593  16.593  0.4448  0.4178 -0.3387
  503MPD2    C5 7477   0.744   2.717  16.587  0.2414  0.5291 -0.0792
  503MPD2     H 7478   0.777   2.555  16.929  1.4547 -0.1216 -0.3494
  503MPD2    H1 7479   0.836   2.544  16.503  0.2612 -1.0056  0.3645
  503MPD2    H2 7480   0.664   2.887  16.677 -2.3674 -1.4547 -2.3665
  503MPD2    H3 7481   0.731   2.775  16.497  0.7754 -0.0316 -0.5126
  503MPD2     N 7482   0.875   2.410  16.741 -0.2223 -0.4379 -0.0686
  503MPD2    H5 7483   0.873   2.364  16.832  1.5207  0.0599  0.2242
  503MPD2    N1 7484   0.703   2.806  16.941 -0.8656  0.1252 -0.3210
  503MPD2    H7 7485   0.705   2.747  17.024 -1.3013  1.4412  0.6357
  504TMC3    C1 7486   1.003   2.226  16.710 -0.1469 -0.9055 -0.6376
  504TMC3    C2 7487   0.940   2.171  16.818  0.1603 -0.2309 -0.2998
  504TMC3    C3 7488   1.010   2.138  16.931  0.0249 -0.8720 -0.8629
  504TMC3    C4 7489   1.135   2.243  16.712  0.4068  0.5440 -0.5119
  504TMC3    C5 7490   1.204   2.188  16.817 -0.3719  0.5011  0.6712
  504TMC3    C6 7491   1.147   2.142  16.933  0.1213 -0.0090  0.1552
  504TMC3     C 7492   0.943   2.342  16.647 -0.4768  0.3231  0.4384
  504TMC3     O 7493   1.008   2.399  16.560 -0.1293 -0.0360  0.3046
  504TMC3     H 7494   0.832   2.163  16.816  0.1710 -0.5579  0.6535
  504TMC3    H1 7495   1.191   2.264  16.621  0.2776  0.0278 -0.7109
  504TMC3    H2 7496   1.205   2.109  17.019 -2.2116  1.1552  2.1789
  504TMC3    C7 7497   1.326   2.125  16.772 -0.0346  0.3636  0.5943
  504TMC3    C8 7498   0.940   2.209  17.037 -0.3216  0.3779 -0.1091
  504TMC3    O1 7499   1.401   2.184  16.694  0.3336  0.0622  0.4218
  504TMC3    O2 7500   0.851   2.283  16.999  0.2318  0.7555  0.2253
  505MPD2     C 7501   0.797   4.664   9.721 -0.3124  0.4743 -0.2552
  505MPD2    C1 7502   0.849   4.585   9.824 -0.2488  0.0846 -0.0983
  505MPD2    C2 7503   0.864   4.636   9.946  0.0764  0.4247  0.2403
  505MPD2    C3 7504   0.841   0.045   9.980  0.7746  0.0745 -0.0096
  505MPD2    C4 7505   0.782   0.122   9.883  0.2499  0.5545  0.1755
  505MPD2    C5 7506   0.765   0.070   9.756 -0.6504 -0.3129  1.1533
  505MPD2     H 7507   0.911   4.576  10.023 -0.7853 -1.1026 -0.4085
  505MPD2    H1 7508   0.759   0.225   9.908 -0.0649  0.6040 -0.3161
  505MPD2    H2 7509   0.781   4.637   9.618  1.3685  0.3531 -0.4849
  505MPD2    H3 7510   0.725   0.137   9.681  0.1041 -0.4600  0.6257
  505MPD2     N 7511   0.871   0.112  10.103 -0.1571 -0.1727  0.2631
  505MPD2    H5 7512   0.856   0.212  10.103  0.8646 -0.0132  0.1884
  505MPD2    N1 7513   0.887   4.454   9.787  0.8649  0.3983 -0.5425
  505MPD2    H7 7514   0.886   4.438   9.686  0.4776  4.3063 -1.1413
  506TMC3    C1 7515   0.990   4.237   9.800  0.4464 -0.3599  0.3633
  506TMC3    C2 7516   1.062   4.264   9.693  0.3786  0.4740 -0.2960
  506TMC3    C3 7517   1.180   4.200   9.678 -0.8646 -0.5264  0.0854
  506TMC3    C4 7518   1.040   4.149   9.888 -0.5453  0.3835  0.1762
  506TMC3    C5 7519   1.161   4.083   9.868  0.1745 -0.5716 -0.2870
  506TMC3    C6 7520   1.229   4.104   9.757  0.6914  0.0590 -0.1045
  506TMC3     C 7521   0.932   4.356   9.870 -0.2236 -0.5155  0.8317
  506TMC3     O 7522   0.920   4.351   9.992 -0.1613 -0.2748  0.3196
  506TMC3     H 7523   1.033   4.338   9.619  1.2994  0.1696 -0.9644
  506TMC3    H1 7524   0.979   4.127   9.974  0.6109 -1.6753  0.4809
  506TMC3    H2 7525   1.335   4.081   9.757  0.9672  1.3124 -1.5230
  506TMC3    C7 7526   1.238   4.098   9.987  0.2175 -0.0980 -0.2984
  506TMC3    C8 7527   1.256   4.240   9.562 -0.2653 -0.3026  0.8733
  506TMC3    O1 7528   1.317   4.008  10.015  0.0153 -0.2943  0.4506
  506TMC3    O2 7529   1.328   4.157   9.511 -0.5500 -0.0646 -0.4052
  507TMC3    C1 7530   1.851   1.873  14.032 -0.0028 -0.1930 -0.7503
  507TMC3    C2 7531   1.868   1.808  13.912  0.1015 -0.2843 -0.4949
  507TMC3    C3 7532   1.966   1.856  13.831 -0.3997 -0.4915  0.4145
  507TMC3    C4 7533   1.912   1.988  14.072  0.4599  0.2096 -0.3683
  507TMC3    C5 7534   1.999   2.043  13.980  0.1197 -0.9534 -0.4157
  507TMC3    C6 7535   2.030   1.972  13.867  0.1154 -0.0330  0.6037
  507TMC3     C 7536   1.758   1.811  14.127 -0.0889  0.2120 -0.0365
  507TMC3     O 7537   1.784   1.829  14.247  0.2128 -0.0522  0.5604
  507TMC3     H 7538   1.836   1.706  13.893  1.6335 -1.0401  1.0329
  507TMC3    H1 7539   1.903   2.015  14.177  0.0858  1.9350 -0.8381
  507TMC3    H2 7540   2.103   2.019  13.803  0.7158  0.3198  1.5536
  507TMC3    C7 7541   1.973   2.181  13.948 -0.1628  0.3218  0.3308
  507TMC3    C8 7542   1.912   1.868  13.691 -0.5921  0.6084 -0.6605
  507TMC3    O1 7543   1.996   2.207  13.831  0.2917  0.4704  0.1185
  507TMC3    O2 7544   1.894   1.766  13.630 -0.4521 -0.0316 -0.2878
  508MPD2     C 7545   2.566   4.287  16.351 -0.1569 -0.9606 -0.1624
  508MPD2    C1 7546   2.657   4.386  16.353 -0.7799 -0.4846  0.5627
  508MPD2    C2 7547   2.663   4.463  16.238  0.8069  0.4134 -0.1478
  508MPD2    C3 7548   2.585   4.431  16.124  0.6467 -0.4750  0.3782
  508MPD2    C4 7549   2.490   4.329  16.136  0.6959 -0.2529  0.0333
  508MPD2    C5 7550   2.489   4.252  16.246 -0.1023  0.0239  0.2092
  508MPD2     H 7551   2.742   4.537  16.228 -0.7854  2.1148 -0.1718
  508MPD2    H1 7552   2.424   4.299  16.056  1.3802  1.2509 -1.0664
  508MPD2    H2 7553   2.547   4.234  16.443 -0.0635  1.8469  1.4950
  508MPD2    H3 7554   2.414   4.174  16.247  0.3941 -0.4609 -0.5028
  508MPD2     N 7555   2.598   4.515  16.013 -0.3123 -0.6273 -0.1153
  508MPD2    H5 7556   2.677   4.578  16.019 -1.5595  0.8996  0.2323
  508MPD2    N1 7557   2.733   4.407  16.466  0.3921  0.2482 -0.4079
  508MPD2    H7 7558   2.704   4.357  16.550 -1.0268  2.0413  0.1819
  509TMC3    C1 7559   2.439   0.100  15.698  0.2901 -0.2028 -0.0023
  509TMC3    C2 7560   2.548   0.180  15.728  0.1407 -0.6017  0.1443
  509TMC3    C3 7561   2.653   0.121  15.798 -0.3550 -0.4006  0.2317
  509TMC3    C4 7562   2.436   4.694  15.740  0.5783 -0.3195 -0.6473
  509TMC3    C5 7563   2.538   4.642  15.820 -0.4491  0.4261 -0.0572
  509TMC3    C6 7564   2.649   4.720  15.848  0.7284 -0.2434  0.2607
  509TMC3     C 7565   2.341   0.142  15.607  0.1524  0.2172  0.0148
  509TMC3     O 7566   2.240   0.069  15.592  0.2454 -0.0308 -0.7778
  509TMC3     H 7567   2.538   0.287  15.724  0.0233 -0.6308 -0.3089
  509TMC3    H1 7568   2.352   4.629  15.721 -0.1174  1.3883 -3.2501
  509TMC3    H2 7569   2.734   4.678  15.900  1.6139  0.8299 -0.3164
  509TMC3    C7 7570   2.518   4.525  15.904 -0.8326 -0.7115 -0.1817
  509TMC3    C8 7571   2.765   0.202  15.831  0.0707 -0.5176 -0.0867
  509TMC3    O1 7572   2.413   4.467  15.875 -0.2670  0.1738  0.3463
  509TMC3    O2 7573   2.820   0.180  15.940 -0.1698 -0.1532  0.4215
  510MPD2     C 7574   0.525   1.566  14.560 -0.1470 -0.2830 -0.6940
  510MPD2    C1 7575   0.603   1.533  14.667  0.2197  0.0655 -0.5124
  510MPD2    C2 7576   0.733   1.500  14.640  0.2978 -1.0201 -1.0874
  510MPD2    C3 7577   0.776   1.475  14.511  0.0451 -0.2718  0.0019
  510MPD2    C4 7578   0.698   1.512  14.397 -0.1363 -0.0956 -0.0202
  510MPD2    C5 7579   0.576   1.559  14.427  0.2378 -0.2966  0.7167
  510MPD2     H 7580   0.806   1.480  14.717 -2.0554 -0.8649  1.1658
  510MPD2    H1 7581   0.721   1.506  14.291  1.4059  0.8434  0.2727
  510MPD2    H2 7582   0.420   1.590  14.576 -0.0907 -2.2173  2.6814
  510MPD2    H3 7583   0.513   1.591  14.345  0.2354 -1.7623  0.1438
  510MPD2     N 7584   0.906   1.425  14.491  0.1590  0.1486 -0.0877
  510MPD2    H5 7585   0.967   1.407  14.570  0.3376  1.3083  0.0332
  510MPD2    N1 7586   0.539   1.525  14.794 -0.1428  0.2878 -0.5459
  510MPD2    H7 7587   0.438   1.534  14.803 -0.1445  1.1903 -1.5754
  511TMC3    C1 7588   0.512   1.417  15.002 -0.0228  0.5405 -0.6110
  511TMC3    C2 7589   0.529   1.428  15.133  0.0853 -0.4196  0.0209
  511TMC3    C3 7590   0.474   1.348  15.224  0.4821 -0.6020 -0.4753
  511TMC3    C4 7591   0.440   1.310  14.954 -0.3056  0.2969 -0.1505
  511TMC3    C5 7592   0.385   1.217  15.043  0.0436  0.4911  0.4069
  511TMC3    C6 7593   0.403   1.241  15.179 -0.2800  0.6149 -0.3850
  511TMC3     C 7594   0.602   1.491  14.914  0.2277  0.2807  0.3422
  511TMC3     O 7595   0.722   1.498  14.937 -0.3153 -0.2948  0.0298
  511TMC3     H 7596   0.582   1.513  15.173  0.3809  0.2357 -1.7995
  511TMC3    H1 7597   0.424   1.307  14.847 -0.7037  0.0697 -0.0875
  511TMC3    H2 7598   0.377   1.165  15.252  0.4167  0.1411 -0.6320
  511TMC3    C7 7599   0.396   1.083  14.983  0.0739  0.2893 -0.2745
  511TMC3    C8 7600   0.444   1.390  15.357  0.9104 -0.5803  0.5826
  511TMC3    O1 7601   0.470   1.073  14.884 -0.0236  0.3614  0.2091
  511TMC3    O2 7602   0.349   1.332  15.402  0.2187 -0.5114  0.5741
  512TMC3    C1 7603   4.129   0.747  13.011 -0.1483 -0.0391 -0.3290
  512TMC3    C2 7604   4.160   0.718  13.143 -0.6242  0.0984 -0.2469
  512TMC3    C3 7605   4.211   0.594  13.171  0.0618 -0.0750 -0.3329
  512TMC3    C4 7606   4.172   0.673  12.907  0.5545 -0.1699  0.1709
  512TMC3    C5 7607   4.232   0.553  12.944 -0.4891  0.3476 -0.2845
  512TMC3    C6 7608   4.251   0.511  13.073  1.1238 -0.0763 -0.1262
  512TMC3     C 7609   4.080   0.885  12.994 -0.3854  0.0486 -0.1684
  512TMC3     O 7610   4.067   0.957  13.091  0.5603  0.1412  0.4193
  512TMC3     H 7611   4.120   0.775  13.226  2.8264 -0.3384  1.6817
  512TMC3    H1 7612   4.144   0.679  12.802 -0.8174 -0.9360  0.5024
  512TMC3    H2 7613   4.298   0.418  13.101 -1.8076 -1.1941  1.0269
  512TMC3    C7 7614   4.268   0.463  12.830 -0.1491 -0.2602  0.4375
  512TMC3    C8 7615   4.270   0.563  13.300  0.2059  1.0135 -0.0029
  512TMC3    O1 7616   4.262   0.512  12.717 -0.1353 -0.2362 -0.4394
  512TMC3    O2 7617   4.274   0.448  13.341  0.0767 -0.1896  0.4664
  513MPD2     C 7618   1.343   0.732  13.276  1.0207  0.2604  0.1426
  513MPD2    C1 7619   1.434   0.773  13.174  0.5867  0.3404  0.1534
  513MPD2    C2 7620   1.546   0.836  13.216  0.3812  0.7571 -0.1999
  513MPD2    C3 7621   1.553   0.871  13.349  0.1041  0.0826 -0.3012
  513MPD2    C4 7622   1.461   0.852  13.448 -0.2147 -0.4821  0.4776
  513MPD2    C5 7623   1.359   0.771  13.412  0.5077  0.0304 -0.7543
  513MPD2     H 7624   1.622   0.871  13.147 -0.2932  1.8351 -0.4078
  513MPD2    H1 7625   1.467   0.890  13.550  0.6199 -0.4376  0.4072
  513MPD2    H2 7626   1.257   0.669  13.254 -0.4749  2.2750  0.1550
  513MPD2    H3 7627   1.277   0.743  13.477  0.2158 -4.1763 -2.9094
  513MPD2     N 7628   1.671   0.938  13.373 -0.1239 -0.8044  0.5674
  513MPD2    H5 7629   1.745   0.943  13.304 -0.5146 -1.2308  0.1238
  513MPD2    N1 7630   1.399   0.735  13.043  0.7668  0.3143 -0.2413
  513MPD2    H7 7631   1.326   0.666  13.028  1.2221  0.0906 -1.4862
  514TMC3    C1 7632   1.453   0.649  12.829  0.2362  0.0859  0.0788
  514TMC3    C2 7633   1.371   0.708  12.735  0.0160  0.6743  0.1341
  514TMC3    C3 7634   1.413   0.699  12.604  0.0467 -0.4849 -0.3124
  514TMC3    C4 7635   1.569   0.586  12.789  0.0778  1.0215  0.8821
  514TMC3    C5 7636   1.616   0.599  12.663  0.3595  0.9190  0.0166
  514TMC3    C6 7637   1.538   0.654  12.564  0.3096  0.3315 -0.4589
  514TMC3     C 7638   1.493   0.737  12.943  0.6333  0.6760 -0.5331
  514TMC3     O 7639   1.609   0.777  12.943 -0.1702 -0.0480  0.2795
  514TMC3     H 7640   1.285   0.766  12.766  1.2680  0.7181  3.5133
  514TMC3    H1 7641   1.637   0.557  12.868 -0.1197  1.6414  1.2804
  514TMC3    H2 7642   1.573   0.648  12.461 -1.2576  2.7118 -1.1270
  514TMC3    C7 7643   1.759   0.632  12.647  0.2193  0.5585  0.3625
  514TMC3    C8 7644   1.309   0.723  12.501  0.2464 -0.5740 -0.6410
  514TMC3    O1 7645   1.819   0.590  12.547 -0.9039 -0.2454 -0.6794
  514TMC3    O2 7646   1.191   0.719  12.532  0.2164  0.6849 -0.2827
  515MPD2     C 7647   0.082   2.311  14.645  0.5244  0.3075 -0.1297
  515MPD2    C1 7648   4.691   2.386  14.638 -0.1134 -0.3659  0.1409
  515MPD2    C2 7649   4.690   2.513  14.687  0.0866  0.0619  0.4475
  515MPD2    C3 7650   0.081   2.560  14.756 -0.0728 -0.1551 -0.1295
  515MPD2    C4 7651   0.186   2.474  14.783 -0.3892  0.8869  0.1215
  515MPD2    C5 7652   0.180   2.349  14.731  0.3868  0.1075  0.2429
  515MPD2     H 7653   4.603   2.573  14.663 -0.2811 -1.0433 -1.0115
  515MPD2    H1 7654   0.281   2.514  14.817  0.8687 -1.0066 -1.1940
  515MPD2    H2 7655   0.099   2.210  14.610 -0.1135  0.5244 -1.0637
  515MPD2    H3 7656   0.268   2.285  14.739 -0.7555 -1.1795  2.4456
  515MPD2     N 7657   0.094   2.695  14.804  0.0840  0.5227  0.3124
  515MPD2    H5 7658   0.186   2.716  14.841  1.0976 -3.6498  0.1966
  515MPD2    N1 7659   4.576   2.336  14.575 -0.2535  0.5095  0.0495
  515MPD2    H7 7660   4.502   2.404  14.558 -0.9361 -1.0293 -3.1625
  516TMC3    C1 7661   4.435   2.165  14.482  0.6528 -0.0617 -0.1154
  516TMC3    C2 7662   4.354   2.263  14.428 -0.1961  0.3940 -0.4246
  516TMC3    C3 7663   4.226   2.227  14.405  0.4254  0.3931 -0.4331
  516TMC3    C4 7664   4.390   2.037  14.504 -0.4300  0.0399 -0.2876
  516TMC3    C5 7665   4.253   2.013  14.490 -0.2819 -0.0462  0.0058
  516TMC3    C6 7666   4.167   2.104  14.429  0.4919  0.4857 -0.3537
  516TMC3     C 7667   4.556   2.203  14.560 -0.0735  0.1968 -0.2516
  516TMC3     O 7668   4.620   2.111  14.601  0.1911  0.5757 -0.3418
  516TMC3     H 7669   4.396   2.361  14.409  0.1823  0.6158  1.6262
  516TMC3    H1 7670   4.450   1.966  14.560  0.7789 -1.1230 -3.0812
  516TMC3    H2 7671   4.065   2.084  14.398  0.1794  2.3989 -0.5434
  516TMC3    C7 7672   4.187   1.897  14.530 -0.1772  0.8090 -0.2998
  516TMC3    C8 7673   4.136   2.325  14.337 -0.2127  0.1256 -0.1754
  516TMC3    O1 7674   4.073   1.903  14.569 -0.6643  0.1977  0.0450
  516TMC3    O2 7675   4.018   2.307  14.354  0.3989  0.3212 -0.3523
  517MPD2     C 7676   4.070   4.453   0.021 -0.1707 -0.0295 -0.5681
  517MPD2    C1 7677   4.134   4.379   0.119 -0.2678  0.0650  0.8648
  517MPD2    C2 7678   4.172   4.456   0.225 -0.2880  0.1201 -0.1348
  517MPD2    C3 7679   4.130   4.586   0.245 -0.3943 -0.1179  0.1077
  517MPD2    C4 7680   4.070   4.657   0.150  0.4323 -0.5184 -0.3213
  517MPD2    C5 7681   4.041   4.590   0.036 -0.0499 -0.1690  0.3458
  517MPD2     H 7682   4.226   4.402   0.302 -1.9191 -0.6778  0.4473
  517MPD2    H1 7683   4.031   0.036   0.162  0.1541 -0.7607  0.7834
  517MPD2    H2 7684   4.046   4.409  17.612  1.3437 -1.2883 -0.3700
  517MPD2    H3 7685   4.010   4.644  17.635  1.1479 -0.1197 -0.0456
  517MPD2     N 7686   4.156   4.656   0.368  0.0859  0.1802 -0.3712
  517MPD2    H5 7687   4.143   0.035   0.367 -1.9748 -0.0931 -0.7806
  517MPD2    N1 7688   4.173   4.243   0.115  0.3005  0.2832  0.3331
  517MPD2    H7 7689   4.236   4.201   0.182  0.3990 -0.3662 -0.1756
  518TMC3    C1 7690   4.192   4.037   0.015 -0.4692  0.3111 -0.0168
  518TMC3    C2 7691   4.128   3.934  17.638  0.3478 -0.2414 -0.2526
  518TMC3    C3 7692   4.201   3.830  17.585 -0.1074  0.0638  0.0515
  518TMC3    C4 7693   4.333   4.035   0.035  0.1377  0.0981  0.9696
  518TMC3    C5 7694   4.390   3.930  17.661 -0.7483  0.2602  1.0974
  518TMC3    C6 7695   4.336   3.832  17.593 -0.4867  0.0634 -1.0305
  518TMC3     C 7696   4.121   4.158   0.019  0.3572  0.2118 -1.1360
  518TMC3     O 7697   4.027   4.182  17.633 -0.1958 -0.1209 -0.0861
  518TMC3     H 7698   4.025   3.946  17.607  0.5301 -1.2055 -1.2342
  518TMC3    H1 7699   4.380   4.127   0.068  0.6641 -0.4249  1.6935
  518TMC3    H2 7700   4.389   3.749  17.548 -0.8198 -0.0844 -1.1454
  518TMC3    C7 7701   4.532   3.913  17.677  0.5136  0.8552 -0.4227
  518TMC3    C8 7702   4.140   3.712  17.545  0.7323 -0.8493 -0.5251
  518TMC3    O1 7703   4.581   3.957   0.094  0.5432 -0.7619  0.0754
  518TMC3    O2 7704   4.204   3.632  17.479 -0.1311 -0.1249 -0.1665
  519MPD2     C 7705   1.125   2.490  14.105  0.3538  1.1966  0.1168
  519MPD2    C1 7706   1.068   2.467  13.977  0.1504 -0.4546 -0.5406
  519MPD2    C2 7707   1.122   2.370  13.893 -0.1205  1.0306  0.7508
  519MPD2    C3 7708   1.238   2.299  13.933  0.5510 -0.2200 -0.1661
  519MPD2    C4 7709   1.294   2.320  14.055 -0.2533 -0.3750  0.8113
  519MPD2    C5 7710   1.244   2.426  14.133 -0.5329 -0.4182 -0.7180
  519MPD2     H 7711   1.077   2.357  13.795  1.8323  0.4265 -0.0534
  519MPD2    H1 7712   1.375   2.257  14.090 -0.8767 -0.0239  2.8385
  519MPD2    H2 7713   1.086   2.562  14.175 -0.3580  0.5386  0.4042
  519MPD2    H3 7714   1.275   2.430  14.237 -0.5246 -2.0790 -0.6472
  519MPD2     N 7715   1.298   2.204  13.849 -0.0662  0.0505 -0.3135
  519MPD2    H5 7716   1.394   2.178  13.870  0.1623 -0.9112 -2.6421
  519MPD2    N1 7717   0.945   2.533  13.953  0.0937 -0.1516  0.0553
  519MPD2    H7 7718   0.913   2.603  14.019 -2.0962 -1.3983  0.3015
  520TMC3    C1 7719   1.355   2.102  13.650  0.6051 -0.2293 -0.0932
  520TMC3    C2 7720   1.324   2.102  13.516  0.2316  0.0864  0.1766
  520TMC3    C3 7721   1.346   1.991  13.436 -0.6013  0.0012 -0.4958
  520TMC3    C4 7722   1.410   1.989  13.701 -0.3254  0.9663 -1.0169
  520TMC3    C5 7723   1.446   1.885  13.620 -0.7572 -0.3034 -0.3655
  520TMC3    C6 7724   1.417   1.880  13.485  0.2962  0.1564 -0.3069
  520TMC3     C 7725   1.245   2.160  13.729 -0.2726  0.8114  0.7222
  520TMC3     O 7726   1.139   2.170  13.669 -0.2646 -0.2981 -0.1149
  520TMC3     H 7727   1.280   2.194  13.477  0.9175  0.6315  0.6938
  520TMC3    H1 7728   1.434   1.990  13.807  0.1249 -4.0714 -1.0644
  520TMC3    H2 7729   1.458   1.800  13.424  0.2082 -1.9244  2.3482
  520TMC3    C7 7730   1.529   1.783  13.680 -0.4539  0.7941 -0.3165
  520TMC3    C8 7731   1.325   1.995  13.290  0.4385 -0.0215 -0.1520
  520TMC3    O1 7732   1.550   1.788  13.801 -0.5665 -0.1318 -0.3912
  520TMC3    O2 7733   1.391   1.918  13.224  0.2903 -0.0633 -0.0795
  521MPD2     C 7734   1.411   4.714  17.670 -0.3223  0.7686 -0.6397
  521MPD2    C1 7735   1.401   4.694  17.538 -0.5342  0.0341  0.0890
  521MPD2    C2 7736   1.514   4.681  17.463 -0.5161  0.0267 -0.4331
  521MPD2    C3 7737   1.640   4.690  17.528 -0.4640  0.5375 -0.8934
  521MPD2    C4 7738   1.653   4.716  17.661 -0.1482  0.5936 -0.1006
  521MPD2    C5 7739   1.539   0.004   0.043 -1.1174 -1.0550 -0.8171
  521MPD2     H 7740   1.509   4.663  17.356 -0.3572 -0.8349 -0.2929
  521MPD2    H1 7741   1.740   0.011   0.036  0.1048  1.4330 -0.6850
  521MPD2    H2 7742   1.326   0.022   0.043  0.1438 -2.0453  1.3797
  521MPD2    H3 7743   1.546   0.025   0.150 -1.3159 -0.7279 -0.8680
  521MPD2     N 7744   1.754   4.677  17.444  0.4607 -0.8034 -0.4857
  521MPD2    H5 7745   1.727   4.664  17.347 -0.1586  2.7068 -0.7820
  521MPD2    N1 7746   1.277   4.716  17.482 -0.0835  0.2755 -0.1875
  521MPD2    H7 7747   1.197   0.017  17.541 -0.1020  1.2344 -0.5738
  522TMC3    C1 7748   1.984   4.699  17.371 -0.3814  0.2675 -0.3550
  522TMC3    C2 7749   2.105   4.639  17.401 -0.1189 -0.7828  0.1935
  522TMC3    C3 7750   2.197   4.626  17.300  0.1042 -0.0183  0.2846
  522TMC3    C4 7751   1.950   0.010  17.244  0.1107 -0.1606 -0.2536
  522TMC3    C5 7752   2.049   0.006  17.147  0.0553  0.1131  0.0619
  522TMC3    C6 7753   2.171   4.675  17.176 -0.7057  0.6170 -0.7604
  522TMC3     C 7754   1.882   4.689  17.482  0.1466  0.1040 -0.6158
  522TMC3     O 7755   1.924   4.662  17.597 -0.2071  0.2145 -0.0391
  522TMC3     H 7756   2.117   4.592  17.497  0.8453 -0.0449  0.4401
  522TMC3    H1 7757   1.854   0.054  17.223 -0.2912 -1.1944 -0.6040
  522TMC3    H2 7758   2.239   4.663  17.093 -0.0695 -0.6531 -0.0466
  522TMC3    C7 7759   2.013   0.008  17.004 -0.6447 -0.4183 -0.1446
  522TMC3    C8 7760   2.330   4.580  17.338 -0.1620  0.0295  0.4360
  522TMC3    O1 7761   2.088   4.667  16.925  0.3280 -0.0607 -0.1551
  522TMC3    O2 7762   2.346   4.538  17.452  0.0472  0.3488  0.0725
  523MPD2     C 7763   4.350   4.149  10.235  0.7961 -0.4471 -0.0216
  523MPD2    C1 7764   4.329   4.068  10.126  0.0677 -1.1194  0.2317
  523MPD2    C2 7765   4.246   4.113  10.032  0.1187 -0.2568 -0.5160
  523MPD2    C3 7766   4.179   4.231  10.034 -0.1502 -0.7349 -0.6208
  523MPD2    C4 7767   4.193   4.307  10.145  0.2978 -0.1106  0.0739
  523MPD2    C5 7768   4.283   4.267  10.242  0.6186  0.2712 -0.1058
  523MPD2     H 7769   4.246   4.048   9.946 -2.4134 -0.2731 -0.4845
  523MPD2    H1 7770   4.155   4.408  10.143 -2.0681 -1.0088  0.1070
  523MPD2    H2 7771   4.409   4.126  10.323  0.2225  0.8028  0.6948
  523MPD2    H3 7772   4.300   4.333  10.327  0.9909 -0.4935  0.4184
  523MPD2     N 7773   4.103   4.286   9.925  0.0695 -0.4515  0.1502
  523MPD2    H5 7774   4.056   4.374   9.945  0.7187 -0.2977  0.9958
  523MPD2    N1 7775   4.415   3.950  10.123  0.1594 -1.0940 -0.5269
  523MPD2    H7 7776   4.472   3.925  10.203  3.0801 -0.0897 -2.2940
  524TMC3    C1 7777   3.988   4.302   9.722  0.5338 -0.1190  0.0155
  524TMC3    C2 7778   3.889   4.366   9.785  0.3094  1.3245 -0.1698
  524TMC3    C3 7779   3.818   4.466   9.725  0.2591 -0.3033  0.5798
  524TMC3    C4 7780   4.017   4.335   9.587 -0.5816 -0.2201  0.1982
  524TMC3    C5 7781   3.926   4.418   9.521 -0.1471 -0.3342  0.0290
  524TMC3    C6 7782   3.829   4.491   9.590  0.3198  0.0776  0.0354
  524TMC3     C 7783   4.086   4.229   9.795  0.0040  0.1050  0.3363
  524TMC3     O 7784   4.149   4.139   9.750  0.4828 -0.4276  0.5366
  524TMC3     H 7785   3.849   4.319   9.875 -0.3988 -0.0426 -1.1947
  524TMC3    H1 7786   4.087   4.275   9.530 -1.2396  0.0227 -0.8573
  524TMC3    H2 7787   3.764   4.560   9.538 -2.6282 -0.1553  3.3571
  524TMC3    C7 7788   3.955   4.430   9.375  0.6008 -0.5857 -0.1076
  524TMC3    C8 7789   3.743   4.549   9.809  0.5234 -0.6437 -0.2966
  524TMC3    O1 7790   4.068   4.463   9.349 -0.0520  0.2624 -0.3690
  524TMC3    O2 7791   3.730   4.499   9.917  0.1310  0.1713  0.1559
  525MPD2     C 7792   2.174   1.573  14.168 -0.0589 -0.2142 -0.7373
  525MPD2    C1 7793   2.267   1.648  14.239 -0.0883  0.2908 -0.2708
  525MPD2    C2 7794   2.340   1.748  14.185  0.9138  0.5243  0.0947
  525MPD2    C3 7795   2.306   1.790  14.057  0.1234  0.1857 -0.4306
  525MPD2    C4 7796   2.210   1.719  13.983  0.2144 -0.7223 -0.3520
  525MPD2    C5 7797   2.147   1.612  14.040  0.0785  1.1445  0.1516
  525MPD2     H 7798   2.413   1.800  14.245  0.8954  1.2858 -0.5271
  525MPD2    H1 7799   2.177   1.741  13.882  1.5086  0.2554 -0.5591
  525MPD2    H2 7800   2.134   1.482  14.211 -3.1054  0.1900 -2.7310
  525MPD2    H3 7801   2.085   1.545  13.981  2.4050 -1.6453  0.8488
  525MPD2     N 7802   2.368   1.904  13.998  0.4497  0.3535 -0.8749
  525MPD2    H5 7803   2.336   1.922  13.903  3.1904  2.5817 -1.3772
  525MPD2    N1 7804   2.291   1.611  14.376 -1.2147  0.2736  0.1812
  525MPD2    H7 7805   2.373   1.647  14.423  0.6282 -0.6712 -2.3198
  526TMC3    C1 7806   2.265   1.517  14.588  0.4740  1.0355 -0.0037
  526TMC3    C2 7807   2.180   1.529  14.693 -0.2642 -0.6133  0.1741
  526TMC3    C3 7808   2.235   1.529  14.821  0.0075  0.2387 -0.7895
  526TMC3    C4 7809   2.399   1.500  14.600  0.0826 -0.5548 -0.3925
  526TMC3    C5 7810   2.444   1.482  14.733  0.0861  0.0186  0.2264
  526TMC3    C6 7811   2.364   1.500  14.835  0.0094 -0.7758  0.3639
  526TMC3     C 7812   2.199   1.552  14.460  0.4443  0.1457 -0.0561
  526TMC3     O 7813   2.084   1.513  14.456 -0.6677 -0.2934  0.1942
  526TMC3     H 7814   2.078   1.564  14.683  0.9280  2.9412  0.3097
  526TMC3    H1 7815   2.455   1.461  14.516 -0.4406  0.0299 -1.0184
  526TMC3    H2 7816   2.404   1.486  14.935 -0.9771  0.1153  0.8936
  526TMC3    C7 7817   2.578   1.447  14.773  0.0931 -0.3540  0.3131
  526TMC3    C8 7818   2.154   1.557  14.937  0.0798 -0.3502 -0.3875
  526TMC3    O1 7819   2.611   1.449  14.890 -0.2354 -0.4875 -0.0754
  526TMC3    O2 7820   2.188   1.504  15.041  0.3639  0.0986 -0.1622
  527MPD2     C 7821   0.244   4.613   1.338  0.0242 -0.3840  0.0022
  527MPD2    C1 7822   0.260   4.510   1.422  0.1848 -0.7182 -0.2039
  527MPD2    C2 7823   0.389   4.451   1.418 -0.3054 -0.2855 -0.7276
  527MPD2    C3 7824   0.489   4.492   1.331 -0.3784 -0.1378  1.2212
  527MPD2    C4 7825   0.457   4.598   1.245  0.1607  0.7004 -0.4067
  527MPD2    C5 7826   0.339   4.657   1.246  0.3613  0.3310  0.8247
  527MPD2     H 7827   0.415   4.371   1.487  0.8270 -0.0454 -0.8766
  527MPD2    H1 7828   0.535   4.640   1.184  2.1384 -1.3722  0.6716
  527MPD2    H2 7829   0.156   4.676   1.345  0.5314  0.3521 -0.2728
  527MPD2    H3 7830   0.318   0.018   1.178  1.4589 -1.6873 -1.9691
  527MPD2     N 7831   0.614   4.415   1.323 -0.0059  0.3463 -0.4328
  527MPD2    H5 7832   0.621   4.335   1.384 -1.8019  1.8134  1.7365
  527MPD2    N1 7833   0.164   4.473   1.517  0.4588  0.1203  0.3512
  527MPD2    H7 7834   0.198   4.426   1.600 -0.1631 -0.2039  0.4242
  528TMC3    C1 7835   4.650   4.472   1.607 -0.5910 -0.0415 -0.1585
  528TMC3    C2 7836   4.698   4.422   1.724 -0.5952  0.0522  0.2883
  528TMC3    C3 7837   4.598   4.379   1.808  0.1686 -0.0285 -0.4383
  528TMC3    C4 7838   4.517   4.499   1.586 -0.2761  0.3591 -0.4462
  528TMC3    C5 7839   4.422   4.432   1.658  0.1139 -1.1315  0.5246
  528TMC3    C6 7840   4.458   4.370   1.775 -0.1129 -0.2654 -0.2067
  528TMC3     C 7841   0.028   4.520   1.509 -0.1601 -0.3776 -0.8023
  528TMC3     O 7842   4.693   4.560   1.410 -0.1180 -0.5714 -0.3520
  528TMC3     H 7843   0.080   4.425   1.755 -0.1882 -3.4672 -0.8323
  528TMC3    H1 7844   4.485   4.540   1.491 -0.1500  0.2520 -0.5348
  528TMC3    H2 7845   4.390   4.339   1.853 -0.7233  2.3787  0.3353
  528TMC3    C7 7846   4.284   4.425   1.604 -0.0401  0.1783  0.4056
  528TMC3    C8 7847   4.641   4.339   1.933  0.2098  0.7837  0.1985
  528TMC3    O1 7848   4.242   4.510   1.528 -0.4381 -0.0024  0.1780
  528TMC3    O2 7849   0.034   4.369   1.956 -0.1200 -0.6314 -0.4500
  529MPD2     C 7850   2.565   3.025   0.624  0.8949  0.3704  1.0983
  529MPD2    C1 7851   2.683   2.975   0.571  0.4192 -0.5658 -0.5333
  529MPD2    C2 7852   2.736   3.024   0.455  0.4347  0.1913 -0.0773
  529MPD2    C3 7853   2.673   3.134   0.398  0.1133  0.1417 -0.3403
  529MPD2    C4 7854   2.563   3.190   0.460  0.7437  0.2047 -0.7546
  529MPD2    C5 7855   2.495   3.120   0.560  0.5286 -0.1174  0.1095
  529MPD2     H 7856   2.824   2.978   0.412  1.4034 -0.1051  2.1940
  529MPD2    H1 7857   2.502   3.264   0.409 -0.6768 -0.9874 -0.7530
  529MPD2    H2 7858   2.519   2.988   0.715 -2.7385  0.0926 -0.8333
  529MPD2    H3 7859   2.396   3.147   0.595  1.3744  0.9797  1.6397
  529MPD2     N 7860   2.700   3.175   0.268 -0.0972 -0.1923 -0.7171
  529MPD2    H5 7861   2.629   3.230   0.219  0.8355  0.1732 -1.6549
  529MPD2    N1 7862   2.756   2.874   0.638 -0.5270 -0.1985 -0.8304
  529MPD2    H7 7863   2.840   2.843   0.589  0.9697 -0.2182  1.7898
  530TMC3    C1 7864   2.849   2.744   0.799  0.0162  0.3345  0.5523
  530TMC3    C2 7865   2.876   2.740   0.934 -0.2638 -0.6045  0.8915
  530TMC3    C3 7866   2.954   2.628   0.980 -0.0327  0.2371 -0.1093
  530TMC3    C4 7867   2.895   2.646   0.712 -0.0772  0.5416 -0.2813
  530TMC3    C5 7868   2.985   2.555   0.761 -0.0627 -0.6900 -0.1440
  530TMC3    C6 7869   3.011   2.537   0.892  0.3827 -0.1036  0.0706
  530TMC3     C 7870   2.741   2.825   0.764  0.7160 -0.7768  0.2652
  530TMC3     O 7871   2.650   2.852   0.844  0.0568 -0.2082 -0.0547
  530TMC3     H 7872   2.838   2.810   1.007 -0.0615  2.2380 -1.7072
  530TMC3    H1 7873   2.873   2.653   0.607 -0.6454 -1.8441 -0.3188
  530TMC3    H2 7874   3.046   2.439   0.923 -0.2215 -0.5212 -0.5607
  530TMC3    C7 7875   2.972   2.426   0.695 -0.1570 -0.8320  0.0125
  530TMC3    C8 7876   2.947   2.602   1.116 -0.7965 -0.2394  0.0853
  530TMC3    O1 7877   3.013   2.408   0.579 -0.4740  0.2022 -0.2697
  530TMC3    O2 7878   2.847   2.646   1.170 -0.4009  0.0227 -0.0807
  531MPD2     C 7879   2.173   0.793  12.912 -0.2013  1.1324 -0.5643
  531MPD2    C1 7880   2.054   0.850  12.960  0.2581 -0.2841 -0.7053
  531MPD2    C2 7881   1.937   0.821  12.900 -0.4199  0.0533  0.4127
  531MPD2    C3 7882   1.932   0.734  12.794 -0.4087 -0.2927 -0.3710
  531MPD2    C4 7883   2.046   0.681  12.735 -0.4102 -0.0787  0.3146
  531MPD2    C5 7884   2.164   0.713  12.799  0.0553 -0.5795  0.4208
  531MPD2     H 7885   1.849   0.871  12.938 -1.4978  0.4800 -2.6519
  531MPD2    H1 7886   2.043   0.620  12.645 -1.0897 -2.2518  1.8160
  531MPD2    H2 7887   2.266   0.803  12.966 -0.1124  0.4952 -0.6022
  531MPD2    H3 7888   2.257   0.672  12.762  0.3059  1.3368 -1.0186
  531MPD2     N 7889   1.802   0.710  12.754 -0.1342 -0.4632  0.2784
  531MPD2    H5 7890   1.732   0.740  12.822 -0.9573 -3.2705  0.6865
  531MPD2    N1 7891   2.056   0.938  13.070 -0.2809 -0.5731 -0.0907
  531MPD2    H7 7892   2.144   0.968  13.108 -0.7641 -1.2458  1.5633
  532TMC3    C1 7893   1.978   1.061  13.259 -0.4272  0.3230  0.0700
  532TMC3    C2 7894   1.866   1.080  13.336 -0.3399 -0.0837  0.1208
  532TMC3    C3 7895   1.848   1.036  13.461  0.2438  0.7138 -0.1122
  532TMC3    C4 7896   2.079   0.993  13.321  0.7580  0.0032  0.3052
  532TMC3    C5 7897   2.071   0.952  13.450  1.2635 -0.1797 -0.0131
  532TMC3    C6 7898   1.951   0.973  13.525  0.3212 -0.5061  0.4540
  532TMC3     C 7899   1.946   1.008  13.128  0.0999  0.3455 -0.4726
  532TMC3     O 7900   1.825   1.024  13.099 -0.2358  0.1660  0.1289
  532TMC3     H 7901   1.784   1.142  13.300 -0.4624  0.9552  2.1425
  532TMC3    H1 7902   2.165   0.966  13.261 -1.4448 -2.6754 -1.6275
  532TMC3    H2 7903   1.947   0.926  13.623 -1.3600 -2.2773 -0.4805
  532TMC3    C7 7904   2.159   0.855  13.504 -0.4473  0.0012  0.2266
  532TMC3    C8 7905   1.721   0.982  13.494  0.0558 -0.0617 -0.4430
  532TMC3    O1 7906   2.126   0.790  13.604  0.1128 -0.1534 -0.1504
  532TMC3    O2 7907   1.690   0.983  13.612 -0.7303 -0.5724  0.1805
  533TMC3    C1 7908   2.487   2.109  13.987 -0.2216  0.1646 -0.3751
  533TMC3    C2 7909   2.611   2.165  14.014  0.1997  0.2387 -0.5188
  533TMC3    C3 7910   2.619   2.302  14.010  0.1469 -0.6322  0.6202
  533TMC3    C4 7911   2.381   2.189  13.971 -0.3729  0.2625  0.3763
  533TMC3    C5 7912   2.386   2.323  14.005 -0.2004  0.6498 -0.6978
  533TMC3    C6 7913   2.510   2.384  14.010 -0.3375  0.1562 -0.2431
  533TMC3     C 7914   2.469   1.980  14.051 -0.5325 -0.4326  0.1117
  533TMC3     O 7915   2.535   1.956  14.151 -0.3914 -0.3579  0.1363
  533TMC3     H 7916   2.698   2.106  14.040  0.4793  0.1649 -1.6624
  533TMC3    H1 7917   2.285   2.138  13.963 -0.7810  0.8185  1.7602
  533TMC3    H2 7918   2.514   2.488  14.039 -0.2475  0.2399 -0.5575
  533TMC3    C7 7919   2.299   2.345  14.120  0.1389 -0.2174 -0.1286
  533TMC3    C8 7920   2.747   2.364  14.032  0.0341  0.0369  0.0123
  533TMC3    O1 7921   2.234   2.250  14.160 -0.1104  1.0530 -0.0369
  533TMC3    O2 7922   2.836   2.299  14.078 -0.0916  0.1406 -0.1309
  534MPD2     C 7923   4.424   3.692   2.361 -0.0329 -0.6090 -0.3111
  534MPD2    C1 7924   4.501   3.673   2.249  0.3671  0.7771 -0.0887
  534MPD2    C2 7925   4.484   3.560   2.169 -0.7734  0.1954  0.2922
  534MPD2    C3 7926   4.385   3.468   2.197  0.0147  0.2679 -0.7840
  534MPD2    C4 7927   4.300   3.495   2.312 -0.4094 -0.1573  0.2352
  534MPD2    C5 7928   4.317   3.606   2.384 -0.1955 -0.2659  0.3033
  534MPD2     H 7929   4.554   3.545   2.088 -0.3051  1.1901  0.5067
  534MPD2    H1 7930   4.222   3.428   2.346 -0.8636  0.7524  0.9591
  534MPD2    H2 7931   4.450   3.768   2.434  0.5457  0.0536 -1.2142
  534MPD2    H3 7932   4.256   3.617   2.473  1.7440  0.6036  1.5280
  534MPD2     N 7933   4.375   3.343   2.133  0.1262  0.1642  0.0368
  534MPD2    H5 7934   4.304   3.278   2.165  0.9862 -0.4551  0.7050
  534MPD2    N1 7935   4.606   3.763   2.209 -0.1869 -0.3632 -0.1604
  534MPD2    H7 7936   4.636   3.754   2.113  1.6175 -0.4717  0.4070
  535TMC3    C1 7937   4.369   3.211   1.943  0.4467 -0.3331 -0.8087
  535TMC3    C2 7938   4.234   3.227   1.929 -0.0726 -0.4358  0.6508
  535TMC3    C3 7939   4.177   3.160   1.825  0.1491 -0.0225 -0.4622
  535TMC3    C4 7940   4.440   3.126   1.863  0.0792 -0.3246 -0.5029
  535TMC3    C5 7941   4.377   3.060   1.764 -0.5962  0.3979 -0.2568
  535TMC3    C6 7942   4.245   3.072   1.744  0.6872  0.3932 -0.3728
  535TMC3     C 7943   4.441   3.303   2.021 -0.1000 -0.3575 -0.0825
  535TMC3     O 7944   4.530   3.366   1.957  0.1144  0.7663  0.9761
  535TMC3     H 7945   4.181   3.303   1.986  0.8869  1.2050 -0.6559
  535TMC3    H1 7946   4.545   3.101   1.875  0.5468  1.8199 -0.1353
  535TMC3    H2 7947   4.204   3.010   1.666  2.7016  0.0192 -1.1487
  535TMC3    C7 7948   4.452   2.945   1.710  1.2804 -0.5833 -0.5080
  535TMC3    C8 7949   4.030   3.134   1.838 -0.4630 -0.0849 -0.2825
  535TMC3    O1 7950   4.571   2.955   1.692  0.0823 -0.0635 -0.2159
  535TMC3    O2 7951   3.987   3.074   1.743 -0.1845 -0.0038  0.2342
  536MPD2     C 7952   3.777   1.246  16.415  0.0653  0.2138  0.0034
  536MPD2    C1 7953   3.743   1.370  16.471  0.6201  0.2727 -0.2815
  536MPD2    C2 7954   3.690   1.466  16.387 -0.5733  0.1289  0.5716
  536MPD2    C3 7955   3.657   1.437  16.255  0.1845  0.2313  0.2751
  536MPD2    C4 7956   3.680   1.313  16.204  0.2033 -0.2178  0.3439
  536MPD2    C5 7957   3.739   1.221  16.285 -0.2621 -0.0610 -0.7723
  536MPD2     H 7958   3.681   1.571  16.414 -0.2929  0.0067  1.1376
  536MPD2    H1 7959   3.643   1.290  16.104 -1.1458  0.9636  0.5726
  536MPD2    H2 7960   3.828   1.166  16.469  0.7235  2.7462  3.1191
  536MPD2    H3 7961   3.755   1.118  16.255 -0.6581 -0.3686  0.0819
  536MPD2     N 7962   3.589   1.525  16.175  0.3709  0.6722 -0.6612
  536MPD2    H5 7963   3.555   1.502  16.083  0.2775 -1.5864 -0.0525
  536MPD2    N1 7964   3.761   1.381  16.614  0.2579 -0.0083  0.4710
  536MPD2    H7 7965   3.812   1.311  16.667  0.5172 -0.8338 -0.8638
  537TMC3    C1 7966   3.769   1.514  16.813 -0.3286  0.4633 -0.3610
  537TMC3    C2 7967   3.773   1.639  16.875 -0.2499  0.3393 -0.1278
  537TMC3    C3 7968   3.838   1.658  16.996  0.2402  0.5547  0.0826
  537TMC3    C4 7969   3.835   1.399  16.868  0.6549 -0.0181  0.5562
  537TMC3    C5 7970   3.872   1.419  17.000 -0.0836  0.5721  0.6506
  537TMC3    C6 7971   3.882   1.546  17.058 -0.4134 -0.2445 -0.1665
  537TMC3     C 7972   3.737   1.504  16.678 -0.1119  0.3623  0.2605
  537TMC3     O 7973   3.690   1.609  16.639  0.2022  0.0197 -0.2755
  537TMC3     H 7974   3.718   1.718  16.825 -1.3937 -1.3181 -1.4777
  537TMC3    H1 7975   3.834   1.298  16.829 -0.1583  0.4051 -0.4982
  537TMC3    H2 7976   3.917   1.549  17.161 -0.5366  0.2100 -0.1409
  537TMC3    C7 7977   3.947   1.303  17.065 -0.1434 -0.0756 -0.0679
  537TMC3    C8 7978   3.855   1.786  17.059 -0.0470  0.5637 -0.0985
  537TMC3    O1 7979   4.029   1.326  17.152  0.1969  0.0174  0.8892
  537TMC3    O2 7980   3.875   1.800  17.179  0.2607  0.8053  0.2661
  538TMC3    C1 7981   0.073   4.306  11.248 -0.1040  0.1244  0.0030
  538TMC3    C2 7982   0.166   4.253  11.164 -0.2481  0.3782  0.3663
  538TMC3    C3 7983   0.137   4.256  11.032  0.4397 -0.2222 -0.3681
  538TMC3    C4 7984   4.677   4.359  11.203 -0.1077  0.3928  0.0602
  538TMC3    C5 7985   4.659   4.368  11.066  0.2354  0.0569  0.1577
  538TMC3    C6 7986   0.024   4.316  10.974 -0.5955  0.3593  0.3163
  538TMC3     C 7987   0.083   4.275  11.391 -0.4338 -0.4072  0.4126
  538TMC3     O 7988   0.007   4.336  11.461 -0.3392 -0.5501 -0.5587
  538TMC3     H 7989   0.253   4.195  11.192  0.0862  0.4182 -0.5811
  538TMC3    H1 7990   4.609   4.404  11.275 -1.3503 -2.3275  0.5933
  538TMC3    H2 7991   4.709   4.307  10.873 -0.1938  1.5976  0.0704
  538TMC3    C7 7992   4.533   4.414  11.016 -0.2112  0.1137 -0.2397
  538TMC3    C8 7993   0.223   4.180  10.942  0.1786  0.3525  0.2572
  538TMC3    O1 7994   4.487   4.363  10.917 -0.0404 -0.1950  0.7545
  538TMC3    O2 7995   0.301   4.097  10.986  0.4880 -0.8937 -0.0935
  539MPD2     C 7996   4.650   3.542  11.940 -0.0601  0.8076 -0.1569
  539MPD2    C1 7997   4.651   3.547  11.799  0.2027 -0.6792 -0.1285
  539MPD2    C2 7998   4.563   3.634  11.734  0.1552 -0.2680  0.2550
  539MPD2    C3 7999   4.466   3.705  11.805 -0.2392 -0.0700 -0.0274
  539MPD2    C4 8000   4.462   3.689  11.940 -0.3157 -0.3852 -0.0506
  539MPD2    C5 8001   4.561   3.618  12.005  0.0179 -0.5356 -0.2456
  539MPD2     H 8002   4.567   3.634  11.625  0.0769  0.5565  0.2534
  539MPD2    H1 8003   4.402   3.761  11.995 -0.2669 -0.5717  0.2503
  539MPD2    H2 8004   4.713   3.486  12.008 -0.4974 -0.9615 -1.2380
  539MPD2    H3 8005   4.558   3.605  12.112 -0.0223  0.6162 -0.1055
  539MPD2     N 8006   4.371   3.793  11.742 -0.1959  0.0071 -0.1681
  539MPD2    H5 8007   4.293   3.820  11.801 -1.8794 -1.7629 -1.6009
  539MPD2    N1 8008   0.020   3.466  11.718  0.2403 -0.1507 -0.4218
  539MPD2    H7 8009   0.042   3.485  11.621  1.7156  0.8063  0.1046
  540TMC3    C1 8010   4.254   3.910  11.574  0.2120  0.5473 -0.6750
  540TMC3    C2 8011   4.243   3.944  11.443 -0.4534  0.3717 -0.0020
  540TMC3    C3 8012   4.178   4.058  11.398  0.7118 -0.3134  0.2680
  540TMC3    C4 8013   4.199   3.991  11.665  0.5688  0.0833  0.4771
  540TMC3    C5 8014   4.133   4.108  11.621  1.5123  0.8854 -0.5128
  540TMC3    C6 8015   4.118   4.140  11.489  0.2184  0.2514  0.9276
  540TMC3     C 8016   4.361   3.819  11.609 -1.0126  0.2087 -0.0912
  540TMC3     O 8017   4.437   3.797  11.518  0.1732 -0.2824 -0.1854
  540TMC3     H 8018   4.281   3.876  11.367  0.2992  0.3874  0.3630
  540TMC3    H1 8019   4.217   3.967  11.769  1.1368  0.7407  0.5271
  540TMC3    H2 8020   4.072   4.234  11.458 -0.0629 -0.0951  0.2756
  540TMC3    C7 8021   4.068   4.179  11.727  0.0722 -0.0845  0.7975
  540TMC3    C8 8022   4.181   4.087  11.256  0.2412 -0.1462 -0.1297
  540TMC3    O1 8023   4.030   4.111  11.824 -0.2782 -0.2923  0.3410
  540TMC3    O2 8024   4.178   4.208  11.235  0.2501  0.1695  0.1248
  541MPD2     C 8025   3.166   1.205  12.971 -0.4057  0.5825 -0.3622
  541MPD2    C1 8026   3.215   1.089  12.915 -1.2329 -0.1071 -0.3056
  541MPD2    C2 8027   3.197   1.073  12.780  1.0678 -0.0283 -0.0629
  541MPD2    C3 8028   3.137   1.165  12.699  0.4286 -0.0902 -0.2999
  541MPD2    C4 8029   3.079   1.273  12.756  0.7069  0.0526 -0.2852
  541MPD2    C5 8030   3.097   1.292  12.892 -0.4399 -0.1039 -0.5471
  541MPD2     H 8031   3.260   0.996  12.738 -2.3432  0.0099 -5.2633
  541MPD2    H1 8032   3.046   1.366  12.710  0.7213  0.1071 -0.1852
  541MPD2    H2 8033   3.177   1.232  13.075  0.5044  1.6867 -0.7456
  541MPD2    H3 8034   3.059   1.383  12.935  0.8211  0.8835 -1.5023
  541MPD2     N 8035   3.132   1.145  12.558 -0.8872  0.1262  0.4413
  541MPD2    H5 8036   3.099   1.224  12.503  3.8136  1.2048 -0.8265
  541MPD2    N1 8037   3.284   0.991  12.992  0.1011  0.1883  0.2161
  541MPD2    H7 8038   3.298   1.013  13.090  1.4965  1.0762 -0.1892
  542TMC3    C1 8039   3.156   1.050  12.351  0.9841  0.3614 -0.0091
  542TMC3    C2 8040   3.170   0.937  12.278  0.2466 -0.5407 -0.3854
  542TMC3    C3 8041   3.136   0.939  12.143 -0.1768  0.2097  0.2536
  542TMC3    C4 8042   3.088   1.159  12.294  0.2938  0.8747  0.0422
  542TMC3    C5 8043   3.053   1.163  12.158 -0.1337 -0.0543  0.0405
  542TMC3    C6 8044   3.067   1.048  12.085 -0.6208 -0.0813 -0.3969
  542TMC3     C 8045   3.190   1.042  12.493  0.1968  0.3609 -0.3293
  542TMC3     O 8046   3.238   0.939  12.535 -0.6529 -0.3871 -0.6378
  542TMC3     H 8047   3.223   0.857  12.328  2.4384  1.3851  0.3566
  542TMC3    H1 8048   3.065   1.249  12.349  0.9349  0.2352  1.3540
  542TMC3    H2 8049   3.059   1.051  11.977  0.6781  2.3824 -0.4305
  542TMC3    C7 8050   3.025   1.297  12.095  0.2904  0.4259 -0.0731
  542TMC3    C8 8051   3.160   0.837  12.049 -0.1823 -0.0914 -0.6445
  542TMC3    O1 8052   3.047   1.403  12.158  0.0594 -0.2043 -0.0534
  542TMC3    O2 8053   3.171   0.859  11.929  0.1826  0.2019  0.1734
  543TMC3    C1 8054   1.822   1.581  17.035 -0.0667 -0.2416  0.3249
  543TMC3    C2 8055   1.867   1.451  17.034  0.3678 -0.5748 -0.6024
  543TMC3    C3 8056   1.795   1.362  17.107  0.4329  0.2450 -0.4559
  543TMC3    C4 8057   1.709   1.616  17.099  0.1566 -0.3868 -0.2562
  543TMC3    C5 8058   1.643   1.521  17.179  0.7581  0.0330 -0.3075
  543TMC3    C6 8059   1.685   1.390  17.183  0.1479  0.1598 -0.7192
  543TMC3     C 8060   1.899   1.662  16.947  0.1315 -0.3841 -0.1732
  543TMC3     O 8061   2.004   1.606  16.903  0.0310 -0.2920 -0.1918
  543TMC3     H 8062   1.942   1.409  16.967  0.4714 -3.2611  1.1820
  543TMC3    H1 8063   1.676   1.718  17.108 -1.3526 -0.7600 -1.5273
  543TMC3    H2 8064   1.621   1.323  17.239  0.9445  0.7260  0.8918
  543TMC3    C7 8065   1.513   1.549  17.222  0.4405  0.0843  0.4353
  543TMC3    C8 8066   1.861   1.230  17.116 -0.3075 -0.1906 -0.1628
  543TMC3    O1 8067   1.452   1.632  17.154 -0.1989  0.2038  0.6002
  543TMC3    O2 8068   1.962   1.211  17.049 -0.5691  0.4543 -0.5595
  544MPD2     C 8069   1.931   0.782  17.348 -0.0360  0.3522 -0.0651
  544MPD2    C1 8070   1.995   0.844  17.243  0.5099 -0.4025 -0.1177
  544MPD2    C2 8071   1.965   0.967  17.206  0.5281 -0.2791 -0.4337
  544MPD2    C3 8072   1.853   1.030  17.254  0.1730  0.4357 -0.8786
  544MPD2    C4 8073   1.782   0.972  17.358  0.6888  0.1140  0.3965
  544MPD2    C5 8074   1.827   0.848  17.401  0.1083  0.4080  0.4492
  544MPD2     H 8075   2.018   1.021  17.129 -0.4894 -0.2805 -1.1397
  544MPD2    H1 8076   1.696   1.016  17.405  0.8493  2.1619 -1.2064
  544MPD2    H2 8077   1.953   0.682  17.383 -0.3620  0.2146 -0.2522
  544MPD2    H3 8078   1.774   0.808  17.487  0.2138  1.4864  1.0097
  544MPD2     N 8079   1.794   1.148  17.206 -0.0004 -0.0196 -0.4219
  544MPD2    H5 8080   1.699   1.176  17.229 -0.8401 -1.1481 -2.5378
  544MPD2    N1 8081   2.091   0.766  17.177 -1.2198 -0.3697  0.4641
  544MPD2    H7 8082   2.139   0.690  17.224  0.0783  1.6009  2.3531
  545TMC3    C1 8083   2.246   0.714  17.016  0.2458 -0.7883  0.9966
  545TMC3    C2 8084   2.303   0.751  16.898 -0.7949  0.9344 -0.9074
  545TMC3    C3 8085   2.417   0.686  16.868 -0.4611 -0.3494  0.0278
  545TMC3    C4 8086   2.299   0.614  17.098 -0.4477 -0.5070 -0.1838
  545TMC3    C5 8087   2.408   0.540  17.049  0.5816  0.2610 -0.1127
  545TMC3    C6 8088   2.462   0.580  16.933 -0.2581 -0.6530  0.1621
  545TMC3     C 8089   2.139   0.803  17.058 -0.3480 -0.3829 -0.5601
  545TMC3     O 8090   2.087   0.876  16.972 -0.1739  0.3132  0.1224
  545TMC3     H 8091   2.253   0.827  16.840 -2.2488  0.9878  0.4271
  545TMC3    H1 8092   2.247   0.589  17.190 -1.1981 -1.3733 -0.8382
  545TMC3    H2 8093   2.561   0.540  16.912 -0.3974  0.2105 -2.0916
  545TMC3    C7 8094   2.499   0.469  17.139 -0.7164 -0.3056 -0.5246
  545TMC3    C8 8095   2.503   0.752  16.775  0.5658 -0.0564  0.4789
  545TMC3    O1 8096   2.547   0.368  17.097 -0.4913  0.2667  0.1493
  545TMC3    O2 8097   2.624   0.727  16.784 -0.5142 -0.0939 -0.0596
  546MPD2     C 8098   3.718   2.271  17.594  0.3827 -0.3344 -0.4963
  546MPD2    C1 8099   3.706   2.304  17.458 -0.5624  0.2620  0.0351
  546MPD2    C2 8100   3.778   2.411  17.405  0.0270  0.2555  0.0559
  546MPD2    C3 8101   3.837   2.500  17.496  0.1729 -0.4297 -0.6836
  546MPD2    C4 8102   3.837   2.475  17.627  0.3050  0.8035  0.1625
  546MPD2    C5 8103   3.778   2.360  17.677 -0.2417 -0.2616  0.3114
  546MPD2     H 8104   3.775   2.431  17.298  1.9928 -2.4547 -0.5238
  546MPD2    H1 8105   3.890   2.548   0.001  0.6278 -1.1183  2.2079
  546MPD2    H2 8106   3.656   2.194  17.636 -0.4832  0.8950  0.4809
  546MPD2    H3 8107   3.797   2.330   0.092  2.1829  1.3811  0.3420
  546MPD2     N 8108   3.913   2.617  17.455 -0.1276  0.4150 -0.4541
  546MPD2    H5 8109   3.936   2.683  17.529  1.4436  0.4659 -0.9777
  546MPD2    N1 8110   3.647   2.204  17.382  0.1983  0.7180  0.1000
  546MPD2    H7 8111   3.621   2.119  17.431 -0.4238  1.4398  1.0132
  547TMC3    C1 8112   3.548   2.094  17.201  0.0557 -0.5969  0.2077
  547TMC3    C2 8113   3.426   2.124  17.145 -0.2822  0.1928 -0.2312
  547TMC3    C3 8114   3.318   2.042  17.175  0.2080 -0.6051 -0.0688
  547TMC3    C4 8115   3.563   1.977  17.266  0.1500 -0.0316  0.4003
  547TMC3    C5 8116   3.462   1.889  17.275 -0.0635 -0.0221  0.3584
  547TMC3    C6 8117   3.341   1.920  17.231  1.0290  0.2194 -1.2342
  547TMC3     C 8118   3.629   2.210  17.244  0.0003 -0.3639  0.6661
  547TMC3     O 8119   3.629   2.305  17.167  0.2928  0.3629 -1.2246
  547TMC3     H 8120   3.413   2.213  17.084  2.2381  3.0213  3.3549
  547TMC3    H1 8121   3.664   1.946  17.290 -0.4899 -2.4018 -0.0055
  547TMC3    H2 8122   3.256   1.855  17.247  0.1561  1.3031 -1.4460
  547TMC3    C7 8123   3.477   1.756  17.326  0.2618 -0.5502  0.2696
  547TMC3    C8 8124   3.202   2.039  17.088 -0.4177 -0.1458 -0.2115
  547TMC3    O1 8125   3.375   1.703  17.364 -0.6723 -0.7329  0.1824
  547TMC3    O2 8126   3.146   1.926  17.069  0.2463  0.0724  0.2169
  548MPD2     C 8127   3.746   2.629  12.408  0.1847 -0.2203 -0.9538
  548MPD2    C1 8128   3.623   2.583  12.373  0.3396 -0.2907  0.0848
  548MPD2    C2 8129   3.618   2.465  12.302 -0.8129  0.5330 -0.1157
  548MPD2    C3 8130   3.736   2.387  12.267 -0.3554  0.1866  0.5351
  548MPD2    C4 8131   3.859   2.447  12.297 -1.1224  0.2250  0.6170
  548MPD2    C5 8132   3.861   2.567  12.362 -0.0588 -0.0341  0.0759
  548MPD2     H 8133   3.522   2.416  12.291 -0.9734  0.4624  1.6356
  548MPD2    H1 8134   3.956   2.402  12.280 -0.0692  3.0865 -1.0556
  548MPD2    H2 8135   3.757   2.719  12.467  2.5671  0.0892 -1.8916
  548MPD2    H3 8136   3.951   2.621  12.391  0.3603 -0.4384 -0.4795
  548MPD2     N 8137   3.724   2.254  12.215 -0.1790  0.1208  0.1062
  548MPD2    H5 8138   3.636   2.215  12.183 -1.0591  2.4135 -0.2289
  548MPD2    N1 8139   3.511   2.655  12.433  0.3049  0.6115 -0.5194
  548MPD2    H7 8140   3.521   2.725  12.506  1.4218 -0.5340  0.4231
  549TMC3    C1 8141   3.290   2.721  12.472  0.5245  0.1197  0.1578
  549TMC3    C2 8142   3.196   2.800  12.420  0.2392 -0.4439  0.3162
  549TMC3    C3 8143   3.126   2.889  12.497  0.1119  0.4218  0.5330
  549TMC3    C4 8144   3.308   2.717  12.609  0.2468 -0.2408  0.4794
  549TMC3    C5 8145   3.240   2.806  12.684 -0.0803  0.4260 -0.7769
  549TMC3    C6 8146   3.156   2.895  12.634 -0.0679 -0.0065 -0.5355
  549TMC3     C 8147   3.379   2.637  12.391 -0.2239  0.2408  0.0563
  549TMC3     O 8148   3.332   2.576  12.291 -0.1953 -0.0127 -0.2759
  549TMC3     H 8149   3.181   2.811  12.313  0.8617  0.8555  0.3482
  549TMC3    H1 8150   3.389   2.660  12.652  0.6209  1.7868  2.4623
  549TMC3    H2 8151   3.102   2.963  12.698  0.9227  0.2949 -0.0074
  549TMC3    C7 8152   3.211   2.767  12.819 -0.5389 -0.0839  0.5326
  549TMC3    C8 8153   3.029   2.978  12.441 -0.2708  0.5616  0.6618
  549TMC3    O1 8154   3.174   2.852  12.903 -0.1535 -0.3205 -0.1783
  549TMC3    O2 8155   2.959   2.941  12.353  0.2101  0.5231 -0.5552
  550TMC3    C1 8156   2.031   1.065  12.500  0.1638 -0.1368 -0.1295
  550TMC3    C2 8157   1.907   1.066  12.555  0.4439 -0.5204  0.3989
  550TMC3    C3 8158   1.818   1.153  12.507 -0.0028 -0.0966 -0.6062
  550TMC3    C4 8159   2.055   1.137  12.389  0.1293  1.2326 -0.6252
  550TMC3    C5 8160   1.961   1.217  12.331 -0.3757 -0.3360 -0.1628
  550TMC3    C6 8161   1.842   1.227  12.392  0.0501  0.4439 -0.5158
  550TMC3     C 8162   2.134   0.993  12.574  0.2794 -0.1605 -0.5658
  550TMC3     O 8163   2.200   1.046  12.662 -0.4606  0.2650  0.2883
  550TMC3     H 8164   1.896   0.991  12.633 -1.1113  1.9762  2.5622
  550TMC3    H1 8165   2.149   1.134  12.335  0.8647 -0.7170  0.7573
  550TMC3    H2 8166   1.774   1.308  12.364 -0.0740  0.6849  0.4631
  550TMC3    C7 8167   1.951   1.241  12.186 -0.5428  0.2670 -0.0905
  550TMC3    C8 8168   1.687   1.119  12.519  0.0803 -0.6478 -0.3688
  550TMC3    O1 8169   1.831   1.240  12.152 -1.1252 -0.2483  0.0602
  550TMC3    O2 8170   1.613   1.146  12.422  0.0386  0.0696  0.0312
  551TMC3    C1 8171   0.251   3.363  13.273 -0.0015  0.3343 -0.5574
  551TMC3    C2 8172   0.351   3.389  13.186  0.9701 -0.2952 -0.0734
  551TMC3    C3 8173   0.456   3.471  13.219  0.1012  0.1013 -0.1027
  551TMC3    C4 8174   0.271   3.398  13.404 -0.8651  0.0689  0.4453
  551TMC3    C5 8175   0.380   3.475  13.441  0.2768  0.0765 -0.4312
  551TMC3    C6 8176   0.474   3.518  13.346 -1.1815  0.7809  0.3608
  551TMC3     C 8177   0.167   3.245  13.240 -0.4061 -0.7427  0.3682
  551TMC3     O 8178   0.134   3.242  13.124  0.3785  0.6670 -0.4847
  551TMC3     H 8179   0.347   3.364  13.080 -1.1839  1.7205 -0.4779
  551TMC3    H1 8180   0.191   3.375  13.474 -2.1795 -0.1923 -1.1608
  551TMC3    H2 8181   0.562   3.576  13.373  0.7823 -1.3747 -1.4139
  551TMC3    C7 8182   0.393   3.531  13.573 -0.2782  0.2104  0.1878
  551TMC3    C8 8183   0.510   3.551  13.112 -0.4568 -0.0932  0.1856
  551TMC3    O1 8184   0.354   3.463  13.666 -0.7000  0.4221 -0.5155
  551TMC3    O2 8185   0.434   3.558  13.017 -0.0112 -0.2332  0.0721
  552MPD2     C 8186   1.767   0.345  13.775 -0.2388 -0.0939 -0.1350
  552MPD2    C1 8187   1.847   0.233  13.786  0.4136  0.9636 -0.2785
  552MPD2    C2 8188   1.926   0.220  13.896  0.2877 -0.0928  1.0534
  552MPD2    C3 8189   1.945   0.320  13.984  0.0251 -0.3069  0.5475
  552MPD2    C4 8190   1.857   0.432  13.974 -0.4046  0.2225 -0.0394
  552MPD2    C5 8191   1.773   0.442  13.868 -0.5833 -0.5331  1.4580
  552MPD2     H 8192   1.999   0.140  13.901  1.6634  1.0368 -0.7524
  552MPD2    H1 8193   1.848   0.514  14.045 -1.8366 -0.5106  0.6119
  552MPD2    H2 8194   1.696   0.354  13.694 -0.8262  0.6963  0.4655
  552MPD2    H3 8195   1.718   0.535  13.855 -0.9218 -1.0783 -1.0174
  552MPD2     N 8196   2.055   0.317  14.082  0.4315  0.4236 -0.3053
  552MPD2    H5 8197   2.104   0.229  14.077 -0.9964 -0.5953  3.8103
  552MPD2    N1 8198   1.849   0.128  13.687  0.3292  0.2870 -0.2698
  552MPD2    H7 8199   1.922   0.058  13.697 -0.7363 -0.8022 -0.1131
  553TMC3    C1 8200   1.818   0.020  13.471 -0.7840  0.1911 -0.6524
  553TMC3    C2 8201   1.771   0.026  13.341  0.0268  0.3107 -0.2979
  553TMC3    C3 8202   1.848   4.694  13.234 -0.6201  0.6149  0.1710
  553TMC3    C4 8203   1.942   4.682  13.502  0.8923  0.1106 -0.8613
  553TMC3    C5 8204   2.014   4.623  13.398 -0.1250 -0.4881 -0.3406
  553TMC3    C6 8205   1.970   4.627  13.266  0.1605 -0.3957  0.2917
  553TMC3     C 8206   1.784   0.124  13.568 -0.8465  0.7238 -0.1615
  553TMC3     O 8207   1.687   0.188  13.531  0.1390 -0.4923 -0.2719
  553TMC3     H 8208   1.679   0.081  13.326 -1.7776 -2.6031  0.1259
  553TMC3    H1 8209   1.975   4.662  13.603 -0.3495 -0.4634 -0.5620
  553TMC3    H2 8210   2.038   4.618  13.183  0.5447 -1.1335  0.6949
  553TMC3    C7 8211   2.155   4.587  13.417 -0.2749  0.3659 -0.9345
  553TMC3    C8 8212   1.830   0.038  13.108  0.5127  0.0286  0.1900
  553TMC3    O1 8213   2.199   4.507  13.338  0.5141 -0.0617  0.6027
  553TMC3    O2 8214   1.724   0.015  13.049  0.1887 -0.4795 -0.0960
  554TMC3    C1 8215   3.337   3.222  11.419 -0.1374  0.6023  0.2792
  554TMC3    C2 8216   3.238   3.212  11.325 -0.0241 -0.4518  0.4486
  554TMC3    C3 8217   3.182   3.320  11.264 -0.2838  0.4456  0.1694
  554TMC3    C4 8218   3.384   3.345  11.459  0.3301  0.1440 -0.0946
  554TMC3    C5 8219   3.335   3.453  11.390 -1.0325 -0.0181  0.1313
  554TMC3    C6 8220   3.224   3.446  11.303  0.6210 -0.2211  0.0249
  554TMC3     C 8221   3.367   3.098  11.490  0.0238 -0.0595  0.6228
  554TMC3     O 8222   3.280   3.014  11.479 -0.2528  0.5073 -0.2919
  554TMC3     H 8223   3.215   3.112  11.291  0.6184 -0.1892 -0.7602
  554TMC3    H1 8224   3.472   3.356  11.522  1.1472  0.8874 -1.3751
  554TMC3    H2 8225   3.182   3.539  11.267  1.9548 -0.4720 -2.1667
  554TMC3    C7 8226   3.434   3.555  11.352 -0.0086 -0.1370 -0.3182
  554TMC3    C8 8227   3.167   3.322  11.122 -0.2096  0.4229 -0.6401
  554TMC3    O1 8228   3.407   3.618  11.251  0.0002  0.0853  0.2403
  554TMC3    O2 8229   3.162   3.434  11.069 -0.1213 -0.4578  0.1804
  555TMC3    C1 8230   2.974   3.682  15.386 -0.1518  0.7731 -0.4268
  555TMC3    C2 8231   3.059   3.759  15.462 -0.6331  0.1450 -0.7862
  555TMC3    C3 8232   3.059   3.747  15.593 -0.5283 -0.3201  0.2127
  555TMC3    C4 8233   2.887   3.591  15.433 -0.3454  0.5058 -0.3963
  555TMC3    C5 8234   2.890   3.576  15.574 -0.2258 -0.3875  0.3164
  555TMC3    C6 8235   2.975   3.652  15.651  0.1697  0.7786  0.0519
  555TMC3     C 8236   3.021   3.682  15.251 -0.2386  0.4179  0.4768
  555TMC3     O 8237   3.143   3.690  15.234  0.2543  0.1264 -0.2781
  555TMC3     H 8238   3.121   3.830  15.410 -0.1912 -1.3344 -2.2857
  555TMC3    H1 8239   2.822   3.537  15.365  0.8586 -1.1247 -0.2336
  555TMC3    H2 8240   2.961   3.653  15.759 -0.4024  0.6847 -0.0179
  555TMC3    C7 8241   2.825   3.447  15.614 -0.8681 -0.0400 -0.6645
  555TMC3    C8 8242   3.111   3.870  15.662  0.4541  0.1562  0.0510
  555TMC3    O1 8243   2.754   3.391  15.530 -1.1061  0.4502  1.0490
  555TMC3    O2 8244   3.139   3.963  15.589  0.4180 -0.0315  0.2563
  556MPD2     C 8245   0.695   0.469  10.403  0.3889  0.0700 -0.5181
  556MPD2    C1 8246   0.694   0.358  10.488  0.4189 -0.7901  0.5474
  556MPD2    C2 8247   0.643   0.244  10.440 -0.4186 -0.3898 -0.7399
  556MPD2    C3 8248   0.604   0.232  10.306  0.4227 -0.5219 -0.2546
  556MPD2    C4 8249   0.616   0.333  10.218  0.3289  0.3001  0.0760
  556MPD2    C5 8250   0.656   0.452  10.270 -0.2334 -0.0595  0.6613
  556MPD2     H 8251   0.641   0.157  10.505 -0.1740  0.3844  0.3069
  556MPD2    H1 8252   0.586   0.331  10.114 -1.2992 -1.3675  0.5803
  556MPD2    H2 8253   0.709   0.572  10.436  0.1017 -0.7560  2.1165
  556MPD2    H3 8254   0.675   0.538  10.207 -0.8902 -0.0498  0.4834
  556MPD2     N 8255   0.547   0.102  10.260 -0.0598  0.3774 -0.0163
  556MPD2    H5 8256   0.530   0.030  10.329  1.3447  0.6396  0.5901
  556MPD2    N1 8257   0.746   0.354  10.618 -0.0530 -0.0701  0.0800
  556MPD2    H7 8258   0.729   0.272  10.675  1.5965 -1.7046 -1.7474
  557TMC3    C1 8259   0.452   4.666  10.105 -0.7765 -0.2707  0.2813
  557TMC3    C2 8260   0.496   4.599   9.996 -0.2735  0.6571 -0.1487
  557TMC3    C3 8261   0.488   4.462  10.002  0.5306  0.8216  0.9469
  557TMC3    C4 8262   0.401   4.609  10.218 -0.1145  0.6900 -0.5045
  557TMC3    C5 8263   0.384   4.473  10.215 -0.1394  0.2957 -0.0020
  557TMC3    C6 8264   0.422   4.393  10.104 -0.0863 -0.4515 -0.5233
  557TMC3     C 8265   0.504   0.076  10.130 -0.6209 -0.1636 -0.7324
  557TMC3     O 8266   0.521   0.147  10.030  0.6585  0.0136 -0.5609
  557TMC3     H 8267   0.552   4.656   9.923 -1.5801  2.9373  0.6082
  557TMC3    H1 8268   0.368   4.670  10.301  1.0753  0.6726 -0.0180
  557TMC3    H2 8269   0.409   4.286  10.100  1.6073 -0.7061  0.5847
  557TMC3    C7 8270   0.334   4.415  10.341  0.3813  0.0293  0.3286
  557TMC3    C8 8271   0.517   4.397   9.879 -0.3314 -0.3093 -0.7309
  557TMC3    O1 8272   0.274   4.488  10.416 -0.1345  0.4389  0.1550
  557TMC3    O2 8273   0.521   4.274   9.889 -0.4181 -0.1743  0.4150
  558TMC3    C1 8274   3.830   2.441   9.687  0.4401 -0.4645 -0.4838
  558TMC3    C2 8275   3.742   2.541   9.718  0.6688  0.3007  0.8646
  558TMC3    C3 8276   3.609   2.521   9.708 -1.1434  0.6204 -0.4033
  558TMC3    C4 8277   3.785   2.324   9.640 -0.7692  0.1639 -0.6745
  558TMC3    C5 8278   3.654   2.310   9.621 -0.6741 -0.3760  0.4986
  558TMC3    C6 8279   3.562   2.404   9.653 -0.3721 -0.3687  0.6845
  558TMC3     C 8280   3.947   2.445   9.762 -0.3200 -0.0827 -0.5124
  558TMC3     O 8281   3.960   2.524   9.853 -0.0283  0.0830 -0.1968
  558TMC3     H 8282   3.776   2.631   9.767 -0.6496 -0.1685  2.6414
  558TMC3    H1 8283   3.851   2.242   9.612  0.7954  0.8040  1.1431
  558TMC3    H2 8284   3.457   2.378   9.662 -0.3727 -0.9660 -0.9793
  558TMC3    C7 8285   3.618   2.186   9.552 -0.6138 -0.5989 -0.3147
  558TMC3    C8 8286   3.535   2.595   9.813 -0.2090  0.1284 -0.5250
  558TMC3    O1 8287   3.699   2.099   9.533 -0.6424  0.2131  0.0467
  558TMC3    O2 8288   3.559   2.714   9.828  0.8367  0.0728  0.2032
  559MPD2     C 8289   3.488   3.200  10.370  0.6819 -0.6206 -0.1533
  559MPD2    C1 8290   3.426   3.103  10.433  0.4054 -0.2604  0.0888
  559MPD2    C2 8291   3.474   3.065  10.558  1.0717 -0.6814 -0.5006
  559MPD2    C3 8292   3.589   3.112  10.610  0.0836 -0.3654  0.4095
  559MPD2    C4 8293   3.655   3.207  10.535  0.8337  0.0730  0.4151
  559MPD2    C5 8294   3.607   3.254  10.417  0.5696  0.9021  0.2031
  559MPD2     H 8295   3.419   3.004  10.629 -0.2179  1.9133  0.7350
  559MPD2    H1 8296   3.744   3.258  10.571  0.4520 -0.0065  1.4811
  559MPD2    H2 8297   3.449   3.240  10.277  4.4859 -0.1963 -1.5766
  559MPD2    H3 8298   3.663   3.333  10.367 -0.0089 -1.2444 -3.8311
  559MPD2     N 8299   3.631   3.056  10.728  0.3928  0.1528 -0.2935
  559MPD2    H5 8300   3.577   2.979  10.767 -0.3101  0.8549  0.1163
  559MPD2    N1 8301   3.305   3.056  10.384  0.4944  0.1407  0.4687
  559MPD2    H7 8302   3.265   3.099  10.301  1.1103 -0.4650 -0.1484
  560TMC3    C1 8303   3.776   3.011  10.902 -0.3274 -0.5337  0.8395
  560TMC3    C2 8304   3.750   2.872  10.900 -0.2013  0.1940 -0.3191
  560TMC3    C3 8305   3.819   2.781  10.982  0.7367 -0.2966 -0.5460
  560TMC3    C4 8306   3.882   3.045  10.973  0.9207  0.6820 -0.4057
  560TMC3    C5 8307   3.952   2.956  11.046  0.3639 -0.4456 -0.6663
  560TMC3    C6 8308   3.927   2.823  11.049  0.2847  0.3222  0.1062
  560TMC3     C 8309   3.737   3.093  10.790  0.2908  0.1497 -0.1678
  560TMC3     O 8310   3.800   3.197  10.776  0.3404 -0.8426  0.4763
  560TMC3     H 8311   3.669   2.834  10.838  0.6084  1.2877 -2.0431
  560TMC3    H1 8312   3.899   3.151  10.983  1.5934  0.5700 -0.4193
  560TMC3    H2 8313   3.985   2.760  11.115  1.0337 -0.2355 -1.0861
  560TMC3    C7 8314   4.053   3.009  11.140 -0.1333  0.0827  0.9737
  560TMC3    C8 8315   3.806   2.633  10.953  0.1434 -0.7152 -0.6587
  560TMC3    O1 8316   4.072   2.936  11.235 -0.6131  0.0373 -0.5391
  560TMC3    O2 8317   3.712   2.620  10.876  0.3514 -0.0254  0.0059
  561TMC3    C1 8318   1.286   1.952  11.126  0.5448  0.1830 -0.6108
  561TMC3    C2 8319   1.237   1.906  11.241  0.3820 -0.1820  0.1140
  561TMC3    C3 8320   1.236   1.986  11.351  0.1038 -0.3912  0.3989
  561TMC3    C4 8321   1.346   2.076  11.114 -0.4056  0.0030  0.0218
  561TMC3    C5 8322   1.350   2.151  11.234  0.0142  0.4249 -0.3187
  561TMC3    C6 8323   1.289   2.111  11.352 -0.3977  1.0296  0.0481
  561TMC3     C 8324   1.230   1.883  11.008  0.1041 -0.3778  0.4717
  561TMC3     O 8325   1.117   1.834  11.028  0.1922  0.0262  0.2277
  561TMC3     H 8326   1.204   1.803  11.243 -1.2065  0.2865 -2.2195
  561TMC3    H1 8327   1.381   2.107  11.016 -1.1171  2.4055  0.5371
  561TMC3    H2 8328   1.299   2.166  11.445  1.5854 -0.3564  0.6644
  561TMC3    C7 8329   1.396   2.286  11.233  0.3309 -0.3762 -0.0888
  561TMC3    C8 8330   1.187   1.935  11.479 -0.1839  0.4166 -0.2883
  561TMC3    O1 8331   1.353   2.363  11.320 -0.5520  0.0032 -0.0123
  561TMC3    O2 8332   1.162   1.815  11.486 -0.2349  0.2878  0.4090
  562TMC3    C1 8333   2.917   4.114  16.134  0.0976  0.3456 -0.1830
  562TMC3    C2 8334   2.933   4.200  16.025 -0.3864  0.7047 -0.5587
  562TMC3    C3 8335   2.877   4.169  15.906  0.5634  0.2462 -0.2438
  562TMC3    C4 8336   2.847   3.999  16.124  0.5408 -0.3848  0.1727
  562TMC3    C5 8337   2.799   3.959  15.999  0.5459  0.4325 -0.3305
  562TMC3    C6 8338   2.824   4.039  15.893 -0.5276 -0.2174 -0.1826
  562TMC3     C 8339   2.967   4.152  16.268 -0.1513 -0.3816 -0.4061
  562TMC3     O 8340   2.909   4.098  16.361  0.1999 -0.1371  0.2142
  562TMC3     H 8341   2.980   4.297  16.035  1.1492 -0.1964  0.8824
  562TMC3    H1 8342   2.814   3.949  16.214  0.3818 -0.4018  0.1038
  562TMC3    H2 8343   2.774   4.011  15.801 -0.6443 -0.9628  0.1073
  562TMC3    C7 8344   2.780   3.817  15.972  0.0136  0.4487 -0.5262
  562TMC3    C8 8345   2.922   4.238  15.790  0.3084 -0.3760  0.5159
  562TMC3    O1 8346   2.741   3.787  15.862 -0.4795  0.2509  0.4184
  562TMC3    O2 8347   3.020   4.314  15.806 -0.2272 -0.0803  0.2235
  563MPD2     C 8348   0.307   0.594  15.405 -0.1204 -0.1246  0.8439
  563MPD2    C1 8349   0.251   0.610  15.525 -0.5788 -0.1324 -0.1598
  563MPD2    C2 8350   0.334   0.633  15.632  0.3522 -1.1504  0.4935
  563MPD2    C3 8351   0.470   0.652  15.621  0.4310 -0.5066 -0.6469
  563MPD2    C4 8352   0.531   0.631  15.497 -0.8304 -0.0177  0.1482
  563MPD2    C5 8353   0.443   0.606  15.386  0.3310 -0.4311 -0.8441
  563MPD2     H 8354   0.286   0.652  15.728  0.6716 -0.8759  0.6004
  563MPD2    H1 8355   0.637   0.651  15.487 -0.7539  0.2171  1.3317
  563MPD2    H2 8356   0.245   0.575  15.318 -0.8806  0.5043  1.2459
  563MPD2    H3 8357   0.482   0.597  15.285  2.1803  2.5911 -0.4111
  563MPD2     N 8358   0.544   0.685  15.734  0.6185 -0.3018  0.7133
  563MPD2    H5 8359   0.482   0.687  15.814  1.7903 -0.4420  1.6178
  563MPD2    N1 8360   0.115   0.609  15.565  0.3560  0.2879 -0.6813
  563MPD2    H7 8361   0.095   0.635  15.661 -0.4097 -0.7314 -0.5712
  564TMC3    C1 8362   4.614   0.653  15.546 -0.2572  0.0611  0.1166
  564TMC3    C2 8363   4.533   0.548  15.573  0.4862  0.0146  0.2694
  564TMC3    C3 8364   4.473   0.540  15.694 -0.9724  0.2236  0.6737
  564TMC3    C4 8365   4.644   0.736  15.651 -0.3501  1.3410 -0.2175
  564TMC3    C5 8366   4.578   0.726  15.765  0.7393  0.0274 -0.9100
  564TMC3    C6 8367   4.491   0.627  15.794 -0.0236 -0.3966 -0.6070
  564TMC3     C 8368   0.013   0.617  15.471 -0.0174 -0.5582 -0.2938
  564TMC3     O 8369   0.001   0.602  15.353 -0.3979 -0.1995  0.2152
  564TMC3     H 8370   4.518   0.470  15.500 -3.0641 -0.7479  1.8232
  564TMC3    H1 8371   4.713   0.817  15.632 -2.6202  3.0745 -0.9246
  564TMC3    H2 8372   4.431   0.615  15.883  0.6090  0.1224 -0.1046
  564TMC3    C7 8373   4.675   0.736  15.869 -0.0618 -0.1092 -0.0726
  564TMC3    C8 8374   4.440   0.412  15.750  0.6446  0.3479 -0.3235
  564TMC3    O1 8375   0.066   0.755  15.828 -0.2717 -0.3324 -0.0533
  564TMC3    O2 8376   4.467   0.393  15.868 -0.3373  0.2210  0.5813
  565TMC3    C1 8377   0.482   1.686  10.106 -0.0511 -0.3718  0.2507
  565TMC3    C2 8378   0.454   1.558  10.139 -0.4161  0.3392  0.8187
  565TMC3    C3 8379   0.367   1.485  10.065 -0.4303 -0.0429  0.3060
  565TMC3    C4 8380   0.434   1.751   9.992  0.4632  0.1351 -0.4168
  565TMC3    C5 8381   0.353   1.668   9.917  0.9411 -0.4830  0.3970
  565TMC3    C6 8382   0.313   1.538   9.954  0.7924 -0.0678 -0.4674
  565TMC3     C 8383   0.577   1.769  10.170  0.6800  0.2148 -0.7713
  565TMC3     O 8384   0.595   1.884  10.129  0.1954 -0.2504 -0.5035
  565TMC3     H 8385   0.500   1.516  10.228  1.0520  0.6639  0.2106
  565TMC3    H1 8386   0.479   1.840   9.949  3.0918 -0.9286  0.0867
  565TMC3    H2 8387   0.274   1.473   9.876 -0.2312 -1.4191  1.1879
  565TMC3    C7 8388   0.341   1.714   9.776  0.0928  0.7644 -0.9967
  565TMC3    C8 8389   0.325   1.362  10.123 -1.0451  0.3649  0.2069
  565TMC3    O1 8390   0.379   1.823   9.743  0.1212 -0.0440  0.1717
  565TMC3    O2 8391   0.389   1.310  10.212 -0.1689  0.0859 -0.0017
  566MPD2     C 8392   2.498   3.172  14.301 -0.9468 -0.3730 -0.7813
  566MPD2    C1 8393   2.565   3.286  14.266  0.3591  0.6923  0.0243
  566MPD2    C2 8394   2.538   3.339  14.141  0.1652 -0.1123 -0.0831
  566MPD2    C3 8395   2.446   3.275  14.057  0.1422 -0.4546 -0.4765
  566MPD2    C4 8396   2.369   3.171  14.098  0.0867  0.0624 -0.3213
  566MPD2    C5 8397   2.390   3.127  14.228 -0.0693 -1.0967 -0.3411
  566MPD2     H 8398   2.597   3.414  14.090 -1.5323 -0.7339 -2.9682
  566MPD2    H1 8399   2.294   3.121  14.037 -0.2631  0.1949  0.0045
  566MPD2    H2 8400   2.528   3.127  14.395  0.7007 -0.9421 -1.5697
  566MPD2    H3 8401   2.329   3.039  14.243  0.4119 -1.4436 -0.4228
  566MPD2     N 8402   2.446   3.320  13.923 -0.1674  0.5963  0.3524
  566MPD2    H5 8403   2.507   3.398  13.904  1.6498 -1.1920 -1.1926
  566MPD2    N1 8404   2.671   3.326  14.353 -0.7457  0.6949  0.2244
  566MPD2    H7 8405   2.706   3.263  14.425  1.4187 -0.4969 -1.8671
  567TMC3    C1 8406   2.864   3.453  14.404  0.5889  0.8758 -0.4972
  567TMC3    C2 8407   2.973   3.500  14.335 -0.1045 -0.1607  0.0998
  567TMC3    C3 8408   3.090   3.513  14.406  0.1222  0.0204  0.0028
  567TMC3    C4 8409   2.866   3.401  14.532  0.0377  0.0030 -0.0902
  567TMC3    C5 8410   2.983   3.413  14.599 -0.6465 -0.1050 -0.2676
  567TMC3    C6 8411   3.092   3.469  14.539 -0.2784 -0.0326 -0.1234
  567TMC3     C 8412   2.737   3.444  14.330  1.0107 -1.1410  0.1938
  567TMC3     O 8413   2.736   3.523  14.237  0.4071 -0.8906 -0.1771
  567TMC3     H 8414   2.977   3.541  14.235  1.1135 -0.4612  0.0280
  567TMC3    H1 8415   2.772   3.379  14.581  1.0795  2.0272  2.7906
  567TMC3    H2 8416   3.177   3.473  14.606  2.1704 -2.1482 -3.1568
  567TMC3    C7 8417   2.994   3.345  14.726  0.8886  0.5488  0.3264
  567TMC3    C8 8418   3.215   3.529  14.335  0.5364 -0.1121 -0.2934
  567TMC3    O1 8419   3.105   3.305  14.761  0.1159  0.1852 -0.2800
  567TMC3    O2 8420   3.209   3.595  14.235 -0.1624  0.5812  0.1453
  568MPD2     C 8421   4.498   4.395  16.960 -0.0407  0.0884  0.1186
  568MPD2    C1 8422   4.579   4.319  16.882 -1.2250 -0.0399  0.3148
  568MPD2    C2 8423   4.585   4.327  16.748  0.6326 -0.8677 -0.0590
  568MPD2    C3 8424   4.497   4.400  16.677 -0.1382 -0.6457 -0.5649
  568MPD2    C4 8425   4.406   4.472  16.753 -0.2001 -0.3933 -0.0159
  568MPD2    C5 8426   4.404   4.467  16.886  0.7214  0.3739 -0.1090
  568MPD2     H 8427   4.659   4.265  16.697  2.9145  3.0373 -1.5635
  568MPD2    H1 8428   4.329   4.533  16.707 -0.1504 -0.0649  0.3429
  568MPD2    H2 8429   4.490   4.391  17.068  0.9624  0.7151  0.2169
  568MPD2    H3 8430   4.335   4.528  16.942 -0.3351 -2.1362  1.3214
  568MPD2     N 8431   4.497   4.390  16.537 -0.4784  0.2054 -0.2009
  568MPD2    H5 8432   4.576   4.347  16.489  2.8683  2.0479  3.6432
  568MPD2    N1 8433   4.661   4.241  16.966  0.2458  0.3754 -0.3239
  568MPD2    H7 8434   4.639   4.263  17.062 -0.5397 -2.3483  0.1074
  569TMC3    C1 8435   4.466   4.464  16.322  0.1621 -0.2155 -0.1514
  569TMC3    C2 8436   4.597   4.502  16.312 -0.7295 -0.5408  0.4770
  569TMC3    C3 8437   4.638   4.526  16.178  0.1770 -0.4539 -0.0508
  569TMC3    C4 8438   4.378   4.460  16.220 -0.4317 -0.3768 -0.0909
  569TMC3    C5 8439   4.424   4.506  16.100 -0.1158  0.1231 -0.3208
  569TMC3    C6 8440   4.554   4.530  16.074 -0.1218  0.2786  0.2443
  569TMC3     C 8441   4.407   4.447  16.452  0.6657 -0.0930  0.0654
  569TMC3     O 8442   4.288   4.481  16.475  0.3783 -0.2073 -0.4700
  569TMC3     H 8443   4.662   4.500  16.399 -0.2522 -2.5902  0.0650
  569TMC3    H1 8444   4.274   4.437  16.239  0.2769 -1.0835  2.7708
  569TMC3    H2 8445   4.597   4.533  15.974 -0.0276 -0.1514  0.2739
  569TMC3    C7 8446   4.318   4.554  16.013 -0.3482 -0.1522  0.5516
  569TMC3    C8 8447   0.044   4.591  16.163  0.0277 -0.2249  0.3393
  569TMC3    O1 8448   4.207   4.512  16.030 -0.3895 -0.4441  0.1109
  569TMC3    O2 8449   0.101   4.580  16.054  0.0038  0.2079  0.0437
  570TMC3    C1 8450   3.811   3.043  16.102  1.0908 -0.1811  0.2057
  570TMC3    C2 8451   3.846   3.077  15.973 -0.2715  0.3586 -0.3968
  570TMC3    C3 8452   3.906   3.198  15.960  0.5011 -0.0197 -0.5263
  570TMC3    C4 8453   3.860   3.108  16.214  0.0070 -0.2347 -0.2728
  570TMC3    C5 8454   3.929   3.224  16.195  0.1659 -0.5828  0.5176
  570TMC3    C6 8455   3.952   3.267  16.068  0.4510 -0.3602  0.5087
  570TMC3     C 8456   3.715   2.930  16.115  0.1419  0.1662 -0.7841
  570TMC3     O 8457   3.691   2.867  16.013 -0.0192 -0.0400 -0.1150
  570TMC3     H 8458   3.792   3.028  15.892 -0.8145 -0.4048  0.4300
  570TMC3    H1 8459   3.880   3.056  16.306  1.2371 -2.2430 -1.6846
  570TMC3    H2 8460   4.002   3.359  16.039 -1.2501  0.3225 -0.2389
  570TMC3    C7 8461   3.990   3.299  16.310 -0.2991  0.5118 -0.3804
  570TMC3    C8 8462   3.950   3.243  15.830 -0.1968  0.1403 -0.1369
  570TMC3    O1 8463   4.083   3.370  16.282  0.0062  0.1246  0.2623
  570TMC3    O2 8464   3.952   3.365  15.799  0.8582 -0.1616 -0.3728
  571MPD2     C 8465   1.559   4.211   0.082 -0.2152 -0.0137  0.6342
  571MPD2    C1 8466   1.619   4.102   0.145  0.4687 -0.3429  0.2337
  571MPD2    C2 8467   1.593   4.086   0.280 -0.7506 -0.8287 -0.6586
  571MPD2    C3 8468   1.530   4.185   0.354 -0.0945 -0.1097  0.5219
  571MPD2    C4 8469   1.486   4.293   0.292  0.4434  0.3087  0.2705
  571MPD2    C5 8470   1.498   4.308   0.158 -0.4678  0.1949  0.8630
  571MPD2     H 8471   1.636   4.001   0.333 -0.4215 -0.3405 -0.1428
  571MPD2    H1 8472   1.452   4.381   0.346  1.3759  0.8573 -0.0324
  571MPD2    H2 8473   1.561   4.218  17.661 -0.4918 -2.3101  0.4723
  571MPD2    H3 8474   1.455   4.394   0.108  0.7700  0.9802  1.1401
  571MPD2     N 8475   1.513   4.179   0.495  0.3988  0.6266  0.7012
  571MPD2    H5 8476   1.483   4.265   0.540 -1.2415  0.5012 -0.1470
  571MPD2    N1 8477   1.690   4.011   0.065  0.0272 -0.5438  0.4651
  571MPD2    H7 8478   1.693   4.029  17.653 -0.2673  2.0669  0.9152
  572TMC3    C1 8479   1.500   4.099   0.705  0.1836  0.5226  0.3760
  572TMC3    C2 8480   1.576   4.042   0.803  0.1861  0.5512  0.3151
  572TMC3    C3 8481   1.551   4.081   0.933  0.1611 -0.3559  0.4756
  572TMC3    C4 8482   1.419   4.204   0.738 -0.0449 -0.2564 -0.4656
  572TMC3    C5 8483   1.382   4.222   0.868 -0.0182 -0.4826  0.5159
  572TMC3    C6 8484   1.444   4.163   0.968 -0.4236  0.3926 -0.3554
  572TMC3     C 8485   1.544   4.070   0.570  0.0880  0.0862 -0.6554
  572TMC3     O 8486   1.598   3.962   0.542  0.0663  0.3698  0.0002
  572TMC3     H 8487   1.667   3.990   0.777 -0.4308 -0.3475 -0.0581
  572TMC3    H1 8488   1.363   4.256   0.661 -2.1827 -0.6544  0.8219
  572TMC3    H2 8489   1.426   4.212   1.064  0.6767  0.4490 -0.1753
  572TMC3    C7 8490   1.273   4.315   0.898 -0.9709  0.3393  0.3813
  572TMC3    C8 8491   1.627   4.012   1.029  0.1598  0.3846 -0.5356
  572TMC3    O1 8492   1.217   4.299   1.006  0.1416 -0.5420 -0.8449
  572TMC3    O2 8493   1.709   3.935   0.987  0.2279 -0.1978 -0.4759
  573MPD2     C 8494   2.362   1.501   0.366 -0.1257 -0.3947 -0.0370
  573MPD2    C1 8495   2.319   1.378   0.383 -0.3671  0.0311  0.0698
  573MPD2    C2 8496   2.403   1.271   0.366  0.4180 -0.2230  0.0720
  573MPD2    C3 8497   2.534   1.294   0.332  0.3509  0.5379 -0.5542
  573MPD2    C4 8498   2.583   1.425   0.339 -0.5302  0.0380 -0.5210
  573MPD2    C5 8499   2.498   1.530   0.366  0.0745 -0.1863 -0.2198
  573MPD2     H 8500   2.365   1.170   0.369 -2.4674  0.8893  0.5983
  573MPD2    H1 8501   2.683   1.455   0.308 -0.8484 -1.0829 -2.6500
  573MPD2    H2 8502   2.296   1.587   0.367  0.8221  0.3712 -2.6098
  573MPD2    H3 8503   2.525   1.635   0.365 -0.2045 -0.0747  2.4608
  573MPD2     N 8504   2.625   1.195   0.302  0.3298  0.0770  0.3655
  573MPD2    H5 8505   2.724   1.216   0.304  0.6150 -1.3694  2.0134
  573MPD2    N1 8506   2.181   1.365   0.414 -0.3230 -0.7912 -0.5860
  573MPD2    H7 8507   2.121   1.447   0.415  1.1727  0.3070 -0.8413
  574TMC3    C1 8508   2.707   0.989   0.237  0.8073  0.4076 -0.6041
  574TMC3    C2 8509   2.717   0.896   0.141 -0.4589  0.2946  0.1800
  574TMC3    C3 8510   2.828   0.809   0.143 -0.4277 -0.4588 -0.5767
  574TMC3    C4 8511   2.813   1.011   0.322  0.0544 -0.1202  0.0138
  574TMC3    C5 8512   2.926   0.934   0.315  0.6670  0.4186 -0.3483
  574TMC3    C6 8513   2.931   0.833   0.223 -0.0897  0.0016 -0.0349
  574TMC3     C 8514   2.591   1.076   0.239  0.5965 -0.5953  0.5497
  574TMC3     O 8515   2.487   1.042   0.182  0.4306 -0.3966 -0.1749
  574TMC3     H 8516   2.631   0.874   0.078 -1.2883  2.3735  0.6033
  574TMC3    H1 8517   2.796   1.070   0.411 -0.3978  0.2066 -0.2941
  574TMC3    H2 8518   3.023   0.778   0.206 -0.9335 -1.6001  0.5077
  574TMC3    C7 8519   3.036   0.940   0.406  0.3795  0.2176 -0.0121
  574TMC3    C8 8520   2.824   0.682   0.065 -0.3166 -0.4159  0.3129
  574TMC3    O1 8521   3.135   0.870   0.386 -0.2249 -0.1638  0.5843
  574TMC3    O2 8522   2.913   0.599   0.087  0.0863 -0.4387  0.1140
  575TMC3    C1 8523   0.423   0.604  10.577 -0.5589  0.3212 -0.0742
  575TMC3    C2 8524   0.362   0.488  10.541 -0.5559  0.0422  0.3532
  575TMC3    C3 8525   0.304   0.497  10.412 -0.6668  0.2358  0.2774
  575TMC3    C4 8526   0.406   0.721  10.507  0.2619 -0.7394  0.1201
  575TMC3    C5 8527   0.347   0.724  10.386  0.2328  0.6344 -0.8463
  575TMC3    C6 8528   0.290   0.612  10.337  0.2550 -0.6829 -0.4541
  575TMC3     C 8529   0.466   0.608  10.717  0.4244 -0.0329  0.4221
  575TMC3     O 8530   0.432   0.519  10.794 -0.4247 -0.4353 -0.4469
  575TMC3     H 8531   0.370   0.397  10.598 -1.2293 -0.7904 -0.8682
  575TMC3    H1 8532   0.442   0.818  10.536  2.3686 -2.1029  2.0699
  575TMC3    H2 8533   0.239   0.603  10.242 -0.7572 -0.7460  0.0978
  575TMC3    C7 8534   0.328   0.854  10.323 -0.1889 -0.7412 -0.5961
  575TMC3    C8 8535   0.268   0.366  10.358 -0.1209 -0.0248  0.3624
  575TMC3    O1 8536   0.407   0.939  10.360 -0.3508  0.3977 -0.0360
  575TMC3    O2 8537   0.235   0.283  10.443  0.2113 -0.4910 -0.0556
  576MPD2     C 8538   0.432   2.618  12.553  0.6732 -0.5114  0.4785
  576MPD2    C1 8539   0.534   2.696  12.505  0.8130  0.0759 -0.2700
  576MPD2    C2 8540   0.525   2.833  12.537 -0.4763 -0.3857 -0.1541
  576MPD2    C3 8541   0.420   2.887  12.605 -0.2730 -0.0601 -0.6394
  576MPD2    C4 8542   0.319   2.803  12.654 -0.0904  0.1878  0.2657
  576MPD2    C5 8543   0.330   2.668  12.625 -0.0819  0.6574 -0.5675
  576MPD2     H 8544   0.611   2.895  12.516  0.0577 -1.7121 -1.8599
  576MPD2    H1 8545   0.223   2.830  12.697 -0.0715  0.7727 -0.0527
  576MPD2    H2 8546   0.405   2.519  12.520 -0.6703 -0.3956  1.2404
  576MPD2    H3 8547   0.259   2.596  12.663  0.3371  0.9341  0.7360
  576MPD2     N 8548   0.435   3.019  12.633 -0.6193  0.0261  1.0641
  576MPD2    H5 8549   0.523   3.061  12.605 -2.0033  2.1352 -0.2156
  576MPD2    N1 8550   0.646   2.652  12.431  0.3142  0.6300  0.2671
  576MPD2    H7 8551   0.713   2.722  12.403  0.4105  0.8044  0.9330
  577TMC3    C1 8552   0.790   2.527  12.303 -0.1587  0.5624  0.2876
  577TMC3    C2 8553   0.834   2.407  12.253  0.2727 -0.0367  0.0817
  577TMC3    C3 8554   0.906   2.397  12.136  0.7433 -0.1340  0.5855
  577TMC3    C4 8555   0.829   2.640  12.243 -0.2036  0.6281 -0.3338
  577TMC3    C5 8556   0.909   2.637  12.138  0.3209 -0.9420 -0.6972
  577TMC3    C6 8557   0.943   2.516  12.075  0.1775 -0.1373  0.6053
  577TMC3     C 8558   0.678   2.523  12.401 -0.1166 -0.1819 -0.4435
  577TMC3     O 8559   0.630   2.415  12.434 -0.0253  0.2176 -0.1739
  577TMC3     H 8560   0.800   2.323  12.313  1.1087 -0.1704  0.3731
  577TMC3    H1 8561   0.809   2.733  12.294  1.7586  1.1423 -0.4996
  577TMC3    H2 8562   0.986   2.519  11.976  0.6249 -2.6253  0.7125
  577TMC3    C7 8563   0.949   2.762  12.073  0.6026  0.1280 -0.7964
  577TMC3    C8 8564   0.908   2.264  12.079  0.2632  0.2216  0.2943
  577TMC3    O1 8565   1.066   2.771  12.038 -0.1732 -0.6593  0.2603
  577TMC3    O2 8566   0.856   2.176  12.146 -0.0179 -0.0253  0.8392
  578MPD2     C 8567   2.829   3.084   1.177  0.1467 -0.4986 -0.0461
  578MPD2    C1 8568   2.943   3.034   1.115  0.3527  0.2766  0.8323
  578MPD2    C2 8569   3.032   2.958   1.196  0.5142  0.9039  0.2532
  578MPD2    C3 8570   3.010   2.923   1.329 -0.1032 -0.1768 -0.2232
  578MPD2    C4 8571   2.898   2.987   1.386 -0.8258  0.6050 -0.3458
  578MPD2    C5 8572   2.817   3.072   1.313 -0.7242 -0.3690  0.4473
  578MPD2     H 8573   3.119   2.909   1.154  0.5509 -0.1222  1.5318
  578MPD2    H1 8574   2.882   2.987   1.493  0.6099  0.8111 -0.1362
  578MPD2    H2 8575   2.763   3.149   1.121 -0.7249  0.6524  2.3352
  578MPD2    H3 8576   2.735   3.123   1.362 -0.8981 -0.3215  0.1083
  578MPD2     N 8577   3.112   2.859   1.403  0.3236 -0.0419  0.4947
  578MPD2    H5 8578   3.191   2.822   1.352  0.6141 -0.9647  1.5974
  578MPD2    N1 8579   2.954   3.067   0.979 -0.3737  0.4199 -0.1444
  578MPD2    H7 8580   2.881   3.127   0.943 -1.4456 -2.1915 -2.3819
  579TMC3    C1 8581   3.242   2.805   1.596 -0.4041 -0.5680 -0.0014
  579TMC3    C2 8582   3.276   2.841   1.724  0.2375 -0.2169 -0.0574
  579TMC3    C3 8583   3.399   2.795   1.770  1.0317  0.0419  0.0330
  579TMC3    C4 8584   3.324   2.725   1.523 -0.2824  0.1455  0.1125
  579TMC3    C5 8585   3.443   2.686   1.575  0.4117 -0.7188 -0.2194
  579TMC3    C6 8586   3.489   2.723   1.699 -0.2282  0.0020 -0.7568
  579TMC3     C 8587   3.116   2.855   1.542 -0.5180 -0.1011  0.1714
  579TMC3     O 8588   3.044   2.908   1.628  0.4494  0.3148 -0.1164
  579TMC3     H 8589   3.218   2.906   1.788 -2.6723 -2.2146 -0.6571
  579TMC3    H1 8590   3.281   2.673   1.438  1.8187  1.4919 -1.7646
  579TMC3    H2 8591   3.575   2.678   1.748 -0.1190 -0.3546 -1.2710
  579TMC3    C7 8592   3.542   2.622   1.483 -0.5031  0.1117 -0.3475
  579TMC3    C8 8593   3.454   2.867   1.883  0.1063 -0.5574 -0.1030
  579TMC3    O1 8594   3.650   2.593   1.536 -0.2424 -0.2150 -0.9183
  579TMC3    O2 8595   3.370   2.901   1.964 -0.3109 -0.1910 -0.6303
  580TMC3    C1 8596   3.051   2.366  11.845  0.0680  0.1255  0.6799
  580TMC3    C2 8597   3.178   2.371  11.797  0.5279 -0.3417 -0.0391
  580TMC3    C3 8598   3.279   2.368  11.887 -0.6029 -0.0963  0.6073
  580TMC3    C4 8599   3.023   2.327  11.971 -0.2237  0.2811 -0.1076
  580TMC3    C5 8600   3.130   2.328  12.056 -0.3203  0.3406 -0.3025
  580TMC3    C6 8601   3.256   2.352  12.019  0.1709 -0.1251  0.0066
  580TMC3     C 8602   2.949   2.349  11.753 -0.1557  0.3240  0.2327
  580TMC3     O 8603   2.864   2.268  11.787 -0.5019 -0.6625  0.3047
  580TMC3     H 8604   3.212   2.373  11.694  2.5460 -0.2770  0.6406
  580TMC3    H1 8605   2.920   2.325  12.006  0.2569  1.4050  1.3206
  580TMC3    H2 8606   3.335   2.334  12.090 -0.3576 -0.6014  0.4727
  580TMC3    C7 8607   3.111   2.239  12.166 -0.5730  0.0758  0.3165
  580TMC3    C8 8608   3.407   2.325  11.834 -0.1150  0.0269  0.0410
  580TMC3    O1 8609   3.199   2.228  12.250  0.5989 -0.0007 -0.5739
  580TMC3    O2 8610   3.405   2.268  11.722 -0.4895  0.2028 -0.4040
  581MPD2     C 8611   0.894   2.096  14.678 -0.4726  0.4074 -0.4554
  581MPD2    C1 8612   0.774   2.110  14.741  0.3254 -0.3390 -0.1046
  581MPD2    C2 8613   0.687   2.219  14.716 -0.0258 -0.3516 -0.0370
  581MPD2    C3 8614   0.717   2.300  14.613 -0.3403 -0.3581  0.3351
  581MPD2    C4 8615   0.833   2.272  14.542  0.1832 -0.4728  0.0762
  581MPD2    C5 8616   0.920   2.176  14.570 -0.1427 -0.5277  0.2400
  581MPD2     H 8617   0.590   2.228  14.765 -0.8972 -0.0675 -1.8064
  581MPD2    H1 8618   0.871   2.344  14.471  0.5742 -0.9559 -0.1999
  581MPD2    H2 8619   0.969   2.021  14.701  0.8621  1.6035 -0.8933
  581MPD2    H3 8620   1.019   2.168  14.525 -0.3104 -1.5641  0.0615
  581MPD2     N 8621   0.641   2.404  14.572 -0.6787 -0.6973 -0.7713
  581MPD2    H5 8622   0.666   2.440  14.480  1.4089  0.6441  0.3212
  581MPD2    N1 8623   0.752   2.009  14.833  1.0996  0.3729  0.0516
  581MPD2    H7 8624   0.815   1.929  14.824 -1.8043 -1.5424 -3.0710
  582TMC3    C1 8625   0.649   1.873  14.994 -0.7474 -0.1155  0.0603
  582TMC3    C2 8626   0.747   1.860  15.087  0.1611  0.1511  0.0959
  582TMC3    C3 8627   0.717   1.810  15.216  0.4153  0.8233 -0.9635
  582TMC3    C4 8628   0.525   1.827  15.036 -0.0260  0.1262 -0.3241
  582TMC3    C5 8629   0.498   1.774  15.156 -0.0025  0.4617  0.5449
  582TMC3    C6 8630   0.599   1.759  15.248 -0.0909  0.5587 -0.0591
  582TMC3     C 8631   0.645   1.996  14.917  0.6540  0.2426 -0.0578
  582TMC3     O 8632   0.541   2.058  14.920  0.0589 -0.4382 -0.0524
  582TMC3     H 8633   0.850   1.884  15.063 -0.0055  0.8236  0.0506
  582TMC3    H1 8634   0.441   1.822  14.968 -1.2880  1.7336  1.1268
  582TMC3    H2 8635   0.571   1.712  15.341  1.1936 -2.7240 -1.3211
  582TMC3    C7 8636   0.378   1.833  15.219 -0.7175 -0.0524  0.5101
  582TMC3    C8 8637   0.795   1.861  15.329 -0.6783 -0.0841 -0.0194
  582TMC3    O1 8638   0.326   1.775  15.311 -0.1791  0.4443  0.3057
  582TMC3    O2 8639   0.725   1.906  15.420 -0.2512 -0.1617 -0.3322
  583MPD2     C 8640   1.088   2.960  16.828  0.7547  0.2435 -0.4208
  583MPD2    C1 8641   1.084   3.080  16.761 -0.4131  0.6263 -0.0349
  583MPD2    C2 8642   1.053   3.195  16.822 -0.6147  1.0156 -0.0720
  583MPD2    C3 8643   1.029   3.195  16.958 -0.3753  0.5382  0.2044
  583MPD2    C4 8644   1.036   3.076  17.031  0.9185 -0.4030 -0.2276
  583MPD2    C5 8645   1.066   2.962  16.963  0.8399  0.0479 -0.9684
  583MPD2     H 8646   1.051   3.290  16.770 -1.1576  2.4355  2.5330
  583MPD2    H1 8647   1.016   3.056  17.136 -0.1806  0.4220 -0.2740
  583MPD2    H2 8648   1.109   2.865  16.780 -1.6115 -0.8229  0.6453
  583MPD2    H3 8649   1.073   2.871  17.022 -0.5095  0.5845  0.0240
  583MPD2     N 8650   0.997   3.317  17.015  0.4038  0.5541 -0.6226
  583MPD2    H5 8651   0.956   3.391  16.960  1.8988  1.8360 -0.0211
  583MPD2    N1 8652   1.117   3.086  16.626 -0.0016 -0.4346 -0.2220
  583MPD2    H7 8653   1.146   3.179  16.599  1.1140 -0.9674 -0.8563
  584TMC3    C1 8654   0.927   3.460  17.183 -0.4376 -0.5723 -0.4465
  584TMC3    C2 8655   0.919   3.562  17.091 -0.2664  0.1519 -0.0598
  584TMC3    C3 8656   0.875   3.684  17.129  0.0063  0.6990 -0.4350
  584TMC3    C4 8657   0.870   3.474  17.304 -0.1984  0.1124  0.8421
  584TMC3    C5 8658   0.803   3.592  17.334  0.0425  0.2349 -0.2970
  584TMC3    C6 8659   0.817   3.701  17.252 -0.1830 -0.0294  0.3509
  584TMC3     C 8660   0.993   3.338  17.154  0.3900  0.2205  0.9795
  584TMC3     O 8661   1.023   3.267  17.248  0.5636 -0.2914  0.0334
  584TMC3     H 8662   0.985   3.562  17.005 -1.6707  0.8859 -1.1463
  584TMC3    H1 8663   0.877   3.396  17.379 -0.1364  1.9060  2.7162
  584TMC3    H2 8664   0.778   3.799  17.277 -0.4044  0.3295 -1.3912
  584TMC3    C7 8665   0.765   3.605  17.474  0.5073 -0.5353 -0.3398
  584TMC3    C8 8666   0.876   3.786  17.030  0.9770 -0.4053  0.3552
  584TMC3    O1 8667   0.814   3.519  17.551  0.1415  0.4060  0.3719
  584TMC3    O2 8668   0.894   3.741  16.914 -0.4922 -0.6704  0.6191
  585MPD2     C 8669   0.157   2.127   0.821 -0.7663  0.7500  0.3375
  585MPD2    C1 8670   0.240   2.236   0.830 -0.2277 -1.2875  0.4353
  585MPD2    C2 8671   0.277   2.304   0.714 -0.0069 -0.0184  0.5617
  585MPD2    C3 8672   0.235   2.255   0.593  0.3406 -0.6200  0.6190
  585MPD2    C4 8673   0.170   2.129   0.585  0.5378  0.3590 -0.3450
  585MPD2    C5 8674   0.130   2.069   0.697 -0.0954  0.1863  0.6210
  585MPD2     H 8675   0.328   2.400   0.712 -0.4015  0.1479 -2.0156
  585MPD2    H1 8676   0.127   2.101   0.489  1.9603  1.0111 -1.1692
  585MPD2    H2 8677   0.134   2.077   0.913  1.0850  0.2184  0.5223
  585MPD2    H3 8678   0.084   1.971   0.694  0.7490 -0.1556 -1.2750
  585MPD2     N 8679   0.260   2.329   0.473  0.3045  0.2670 -0.4374
  585MPD2    H5 8680   0.212   2.303   0.388  0.7476 -1.0088 -0.2959
  585MPD2    N1 8681   0.278   2.284   0.955 -0.2656  0.2742 -0.4918
  585MPD2    H7 8682   0.239   2.239   1.038  0.6545  1.3084  0.4913
  586TMC3    C1 8683   0.369   2.465   0.319  0.1111  0.5057 -0.4291
  586TMC3    C2 8684   0.488   2.477   0.258 -0.4349  0.2777  0.4255
  586TMC3    C3 8685   0.502   2.545   0.138 -0.3900 -0.1487  0.7961
  586TMC3    C4 8686   0.256   2.523   0.269  0.3830 -0.2089 -0.0211
  586TMC3    C5 8687   0.272   2.610   0.169  0.1453 -0.4668  0.1806
  586TMC3    C6 8688   0.387   2.614   0.093 -0.1270  0.3098 -0.9851
  586TMC3     C 8689   0.368   2.407   0.452  0.0621 -0.5865 -0.4007
  586TMC3     O 8690   0.475   2.415   0.515  1.0740 -0.2984  0.3157
  586TMC3     H 8691   0.570   2.426   0.306  0.8950  0.8941 -1.2063
  586TMC3    H1 8692   0.169   2.513   0.332 -0.5396  0.9233 -1.1210
  586TMC3    H2 8693   0.389   2.682   0.009  0.8857  0.2443 -1.0094
  586TMC3    C7 8694   0.143   2.627   0.103  0.5049 -0.6368 -0.2279
  586TMC3    C8 8695   0.567   2.466   0.040  0.0495  0.4211  0.6465
  586TMC3    O1 8696   0.053   2.557   0.146 -0.0152  0.1181  0.3446
  586TMC3    O2 8697   0.634   2.371   0.080 -0.5978  0.5200  0.4944
  587TMC3    C1 8698   2.721   1.139  16.059 -0.1790 -0.6409 -0.1075
  587TMC3    C2 8699   2.684   1.258  16.010 -0.1144  0.0471 -0.3001
  587TMC3    C3 8700   2.778   1.350  15.972 -0.2932  0.2130 -0.3576
  587TMC3    C4 8701   2.853   1.100  16.045  0.6789  0.1794 -0.0073
  587TMC3    C5 8702   2.950   1.194  16.015 -0.0162  0.0930 -0.0715
  587TMC3    C6 8703   2.910   1.319  15.976  0.1515  0.0235  0.6168
  587TMC3     C 8704   2.633   1.035  16.109  0.0691  0.3269  0.4712
  587TMC3     O 8705   2.678   0.922  16.113  0.3771  0.1758 -0.0562
  587TMC3     H 8706   2.579   1.282  15.996 -0.4579 -0.4740  1.3506
  587TMC3    H1 8707   2.883   1.003  16.081 -1.1802  0.2348  1.6466
  587TMC3    H2 8708   2.971   1.406  15.953  0.6073 -0.8135 -1.3551
  587TMC3    C7 8709   3.089   1.157  16.031 -0.4671  0.4298 -0.4964
  587TMC3    C8 8710   2.740   1.481  15.928  0.1012 -0.5173 -0.0490
  587TMC3    O1 8711   3.168   1.229  15.975 -0.0420 -0.6833  0.3814
  587TMC3    O2 8712   2.803   1.530  15.833 -0.1090 -0.1376  0.1482
  588TMC3    C1 8713   0.383   3.038   9.820 -0.1916  0.3831 -0.6651
  588TMC3    C2 8714   0.405   2.903   9.785  0.1367  0.7822  0.1075
  588TMC3    C3 8715   0.508   2.837   9.844 -0.2858 -0.0195  0.4421
  588TMC3    C4 8716   0.457   3.102   9.906  0.1274  0.3052 -0.2242
  588TMC3    C5 8717   0.559   3.032   9.972 -0.2105 -0.4455  0.4152
  588TMC3    C6 8718   0.582   2.898   9.946 -0.3746  1.6305 -0.2486
  588TMC3     C 8719   0.300   3.120   9.731  0.3833 -0.8449 -0.3265
  588TMC3     O 8720   0.208   3.070   9.665 -0.0947 -0.0732  0.0920
  588TMC3     H 8721   0.331   2.844   9.732  1.9458 -1.9822  0.7247
  588TMC3    H1 8722   0.447   3.203   9.944  2.8723  1.2579 -2.0092
  588TMC3    H2 8723   0.678   2.866   9.984 -1.0973 -1.2662 -0.8526
  588TMC3    C7 8724   0.640   3.103  10.071  1.1479  0.4260 -0.1861
  588TMC3    C8 8725   0.508   2.691   9.832 -0.9020  0.2611 -1.0061
  588TMC3    O1 8726   0.690   3.047  10.170 -1.0147  0.6947  0.8066
  588TMC3    O2 8727   0.438   2.640   9.750  0.0739 -0.0791 -0.0542
  589TMC3    C1 8728   3.714   1.452   0.794 -0.2664 -0.1371 -0.0748
  589TMC3    C2 8729   3.745   1.389   0.911  0.3881  0.4200 -0.6665
  589TMC3    C3 8730   3.730   1.252   0.921 -0.6760  0.9642  0.0672
  589TMC3    C4 8731   3.682   1.368   0.686  0.2700 -0.3245 -0.8069
  589TMC3    C5 8732   3.674   1.237   0.693 -0.1967  0.1447  0.0590
  589TMC3    C6 8733   3.692   1.175   0.816 -0.1348 -0.6415  0.4264
  589TMC3     C 8734   3.683   1.591   0.794  0.6448  0.3033  0.5229
  589TMC3     O 8735   3.734   1.657   0.707 -0.1351  0.2688 -0.1822
  589TMC3     H 8736   3.780   1.451   0.993 -0.3908  2.3459 -1.8083
  589TMC3    H1 8737   3.671   1.419   0.591  0.3753  2.9890  0.9722
  589TMC3    H2 8738   3.671   1.070   0.833 -1.7542 -0.2520  0.8325
  589TMC3    C7 8739   3.688   1.156   0.577 -0.2684  0.1239 -0.3024
  589TMC3    C8 8740   3.753   1.200   1.056 -0.1116 -0.5327  0.1122
  589TMC3    O1 8741   3.661   1.037   0.591  0.4831 -0.3951  0.1180
  589TMC3    O2 8742   3.729   1.276   1.151 -0.2439 -0.5706 -0.4410
  590MPD2     C 8743   3.431   0.173  16.903 -0.2374 -0.7262 -0.0872
  590MPD2    C1 8744   3.379   0.127  16.786  0.1190  0.1921 -0.2437
  590MPD2    C2 8745   3.454   0.158  16.678  0.1147 -0.0942  0.0358
  590MPD2    C3 8746   3.580   0.219  16.681 -0.4332  0.5738  1.0236
  590MPD2    C4 8747   3.629   0.265  16.798  0.4236  0.1833 -0.4541
  590MPD2    C5 8748   3.551   0.244  16.905  0.2381 -0.7089  0.6551
  590MPD2     H 8749   3.423   0.134  16.576 -0.3511  1.4449 -0.1854
  590MPD2    H1 8750   3.723   0.316  16.817 -0.5537  1.9454 -0.3908
  590MPD2    H2 8751   3.381   0.152  16.996 -3.0787  2.4903 -0.9162
  590MPD2    H3 8752   3.585   0.282  17.001  3.6924  0.2322 -0.9596
  590MPD2     N 8753   3.651   0.218  16.563  0.0398  0.4062 -0.5089
  590MPD2    H5 8754   3.623   0.159  16.485  0.6965  1.1816 -1.3345
  590MPD2    N1 8755   3.266   0.045  16.790  0.5823 -0.1646  0.0697
  590MPD2    H7 8756   3.220   0.033  16.880  0.2803  1.8247  0.1804
  591TMC3    C1 8757   3.799   0.297  16.401  0.4580 -0.2296 -0.2257
  591TMC3    C2 8758   3.703   0.282  16.307 -0.6149 -0.6645 -0.1314
  591TMC3    C3 8759   3.734   0.294  16.173 -0.8231 -0.1400 -0.1738
  591TMC3    C4 8760   3.920   0.349  16.370 -0.4847 -1.0618  0.1772
  591TMC3    C5 8761   3.939   0.369  16.242  0.1332 -0.8280  0.3630
  591TMC3    C6 8762   3.857   0.337  16.135  0.0691 -0.1537  0.2779
  591TMC3     C 8763   3.766   0.289  16.537 -0.3484  0.1279  0.2800
  591TMC3     O 8764   3.842   0.348  16.615 -0.1808 -0.1169  1.0129
  591TMC3     H 8765   3.603   0.265  16.345 -1.0841  0.7836 -0.7352
  591TMC3    H1 8766   3.997   0.376  16.442  1.7228 -1.7098 -1.9463
  591TMC3    H2 8767   3.896   0.325  16.034 -0.5063  2.2528 -0.2233
  591TMC3    C7 8768   4.048   0.462  16.216  1.0371 -0.2008  0.4125
  591TMC3    C8 8769   3.646   0.258  16.076 -0.7593  0.3311 -0.4658
  591TMC3    O1 8770   4.132   0.476  16.304 -0.1741 -0.2553 -0.3680
  591TMC3    O2 8771   3.695   0.232  15.967  0.2055 -0.0358  0.5452
  592MPD2     C 8772   3.912   1.177  11.448 -0.0151  0.5546  0.5216
  592MPD2    C1 8773   3.877   1.291  11.520 -0.6203 -0.0487  0.4134
  592MPD2    C2 8774   3.749   1.333  11.527  0.3521 -0.5480 -0.7302
  592MPD2    C3 8775   3.644   1.254  11.488  1.1701  0.3017 -0.3993
  592MPD2    C4 8776   3.674   1.139  11.416 -1.0559 -0.1838 -0.4842
  592MPD2    C5 8777   3.812   1.100  11.401 -0.1770 -0.7905  0.2199
  592MPD2     H 8778   3.723   1.421  11.585  0.8426 -0.3592 -0.7943
  592MPD2    H1 8779   3.602   1.076  11.365  0.5510 -1.2363 -1.4473
  592MPD2    H2 8780   4.017   1.153  11.435 -0.5419 -1.5111  0.0982
  592MPD2    H3 8781   3.832   1.004  11.355 -1.0098 -0.7610 -0.2138
  592MPD2     N 8782   3.512   1.291  11.521  0.2812 -0.8070  0.3154
  592MPD2    H5 8783   3.504   1.360  11.594 -2.8602  0.6386 -1.3658
  592MPD2    N1 8784   3.983   1.376  11.567  0.3348  0.2820  0.0518
  592MPD2    H7 8785   4.077   1.351  11.538 -0.8721 -1.9191 -1.9849
  593TMC3    C1 8786   4.087   1.551  11.680  0.2063 -0.2924 -0.6456
  593TMC3    C2 8787   4.080   1.653  11.772  0.0217  0.3286 -0.4795
  593TMC3    C3 8788   4.183   1.748  11.768  0.8852  0.7598  0.1413
  593TMC3    C4 8789   4.183   1.556  11.578  0.6806 -0.5022  0.2504
  593TMC3    C5 8790   4.281   1.654  11.581 -0.1012  0.1768 -0.1355
  593TMC3    C6 8791   4.287   1.750  11.683 -0.4708 -0.1957  0.1806
  593TMC3     C 8792   3.961   1.479  11.658 -0.9877 -0.4449 -0.1745
  593TMC3     O 8793   3.863   1.512  11.725 -0.2627 -0.2451  0.0999
  593TMC3     H 8794   4.009   1.647  11.854 -2.1616 -0.6721 -2.4314
  593TMC3    H1 8795   4.195   1.474  11.509 -0.0375  0.5863 -1.1576
  593TMC3    H2 8796   4.349   1.838  11.676 -1.4810  0.5703  0.8522
  593TMC3    C7 8797   4.363   1.666  11.457  0.2221  0.1814 -0.1507
  593TMC3    C8 8798   4.190   1.826  11.889 -0.7311 -0.2658  0.5550
  593TMC3    O1 8799   4.446   1.757  11.474 -0.0862 -0.1347 -0.4950
  593TMC3    O2 8800   4.095   1.832  11.971  0.1517  0.3692 -0.6141
  594MPD2     C 8801   2.561   0.725  13.851  0.1338  0.5253  0.8183
  594MPD2    C1 8802   2.610   0.681  13.972 -0.3182  0.0159 -0.5067
  594MPD2    C2 8803   2.734   0.726  14.016 -0.8304 -0.1358 -0.2158
  594MPD2    C3 8804   2.811   0.807  13.929  0.6213  0.0113 -0.9370
  594MPD2    C4 8805   2.767   0.832  13.800 -0.2465 -0.2754 -0.2571
  594MPD2    C5 8806   2.647   0.786  13.762 -0.6167  0.4420  0.0102
  594MPD2     H 8807   2.775   0.694  14.111 -0.3052  0.6514 -0.1768
  594MPD2    H1 8808   2.824   0.879  13.721 -0.8056 -0.2549 -0.6467
  594MPD2    H2 8809   2.474   0.675  13.811  0.6325 -0.5078  1.0284
  594MPD2    H3 8810   2.620   0.775  13.658 -1.6824 -1.3920  0.4850
  594MPD2     N 8811   2.925   0.867  13.990 -0.4489  0.2807  0.5077
  594MPD2    H5 8812   2.940   0.835  14.085 -0.1635  0.4073  0.5040
  594MPD2    N1 8813   2.526   0.603  14.052  0.1838  0.1209  0.4720
  594MPD2    H7 8814   2.433   0.587  14.013  0.7374 -0.0152 -0.7983
  595TMC3    C1 8815   3.266   1.162  14.086 -0.2879  0.2008  0.3727
  595TMC3    C2 8816   3.207   1.083  13.993  0.6410 -0.7939  0.2634
  595TMC3    C3 8817   3.088   1.030  14.029  0.1909 -0.0897 -0.5982
  595TMC3    C4 8818   3.214   1.184  14.206 -0.4304 -0.5429  0.6299
  595TMC3    C5 8819   3.093   1.133  14.244  0.1840  0.8070  0.5860
  595TMC3    C6 8820   3.030   1.056  14.152  0.5100  0.1049  0.1858
  595TMC3     C 8821   3.406   1.187  14.076 -0.3615  0.2364  0.3697
  595TMC3     O 8822   3.464   1.182  14.182  0.2966 -0.0207 -0.3751
  595TMC3     H 8823   3.246   1.054  13.896 -1.0902  1.6322 -1.1493
  595TMC3    H1 8824   3.254   1.266  14.264 -1.9062 -0.4244  1.4902
  595TMC3    H2 8825   2.927   1.025  14.162  0.2673  0.6929 -0.5624
  595TMC3    C7 8826   3.001   1.213  14.324  0.3609  0.9151  0.4743
  595TMC3    C8 8827   3.009   0.964  13.933  0.1064  0.4172  0.0469
  595TMC3    O1 8828   2.885   1.211  14.289 -0.1299 -0.1742 -0.2704
  595TMC3    O2 8829   3.005   1.016  13.821  0.2263  0.3671  0.5689
  596MPD2     C 8830   1.865   3.117  16.568  0.5434  0.1428 -0.0488
  596MPD2    C1 8831   1.820   3.249  16.549  0.0840  0.8440  0.2862
  596MPD2    C2 8832   1.807   3.284  16.415  0.1307  0.1376 -0.6998
  596MPD2    C3 8833   1.816   3.188  16.314 -0.2994 -0.3543 -0.8022
  596MPD2    C4 8834   1.848   3.051  16.335  0.0814  0.6377 -0.4556
  596MPD2    C5 8835   1.883   3.026  16.463 -0.7307 -0.8745 -0.1649
  596MPD2     H 8836   1.777   3.387  16.398 -0.7192 -0.2189 -1.3501
  596MPD2    H1 8837   1.863   2.981  16.254 -0.7715  0.5612 -0.5523
  596MPD2    H2 8838   1.878   3.081  16.670  2.5069  0.7586 -0.0845
  596MPD2    H3 8839   1.915   2.927  16.490  0.4454 -0.2151  0.8689
  596MPD2     N 8840   1.783   3.213  16.179  0.1297 -0.6776 -0.0527
  596MPD2    H5 8841   1.786   3.136  16.113 -1.1697 -0.3629 -0.4710
  596MPD2    N1 8842   1.807   3.349  16.645 -0.8274 -0.3630 -0.1283
  596MPD2    H7 8843   1.772   3.438  16.613 -0.8885  0.0079  0.9867
  597TMC3    C1 8844   1.832   3.463  16.858  0.9547 -0.0609  0.2135
  597TMC3    C2 8845   1.863   3.567  16.781 -0.4594 -1.0274 -0.4776
  597TMC3    C3 8846   1.821   3.692  16.814 -0.1491 -0.1414 -0.2471
  597TMC3    C4 8847   1.762   3.482  16.980 -0.0106  0.2774 -0.0590
  597TMC3    C5 8848   1.738   3.609  17.020  0.2985 -0.7247 -0.4085
  597TMC3    C6 8849   1.764   3.719  16.936  0.4307 -0.0608 -0.3710
  597TMC3     C 8850   1.826   3.336  16.781  0.0220 -0.0080 -0.5417
  597TMC3     O 8851   1.842   3.243  16.850 -0.0664  0.0751 -0.0259
  597TMC3     H 8852   1.910   3.555  16.684  2.8523  1.4838  0.8331
  597TMC3    H1 8853   1.722   3.399  17.037 -0.7258  1.1650  0.7099
  597TMC3    H2 8854   1.760   3.824  16.965 -2.4688 -0.2510 -0.0368
  597TMC3    C7 8855   1.669   3.627  17.145  0.1368 -0.0878  0.2066
  597TMC3    C8 8856   1.839   3.799  16.721  0.7155  0.5762 -0.3335
  597TMC3    O1 8857   1.660   3.530  17.220  0.2299 -0.1194  0.6387
  597TMC3    O2 8858   1.765   3.898  16.735 -0.2317  0.7674  0.1687
  598TMC3    C1 8859   4.682   0.213  15.261 -0.6309 -0.6257 -1.0495
  598TMC3    C2 8860   4.625   0.114  15.186  0.3129  0.7056 -0.3912
  598TMC3    C3 8861   4.626   0.129  15.046  0.0559 -0.4670  0.3384
  598TMC3    C4 8862   0.028   0.317  15.200  0.5160  0.2774  0.2151
  598TMC3    C5 8863   0.045   0.312  15.065 -0.0271 -0.7265 -0.1326
  598TMC3    C6 8864   4.708   0.217  14.985  0.1366 -0.3356 -0.7719
  598TMC3     C 8865   4.648   0.208  15.403  0.5375 -0.1775 -0.0868
  598TMC3     O 8866   4.555   0.138  15.444 -0.3443  0.4955  0.2009
  598TMC3     H 8867   4.570   0.038  15.240 -0.3186  0.8220 -0.8632
  598TMC3    H1 8868   0.084   0.393  15.252 -0.1963  1.2773 -0.4817
  598TMC3    H2 8869   4.718   0.218  14.877 -0.6563 -1.1317 -0.8497
  598TMC3    C7 8870   0.125   0.414  14.993  0.0147  0.5259  0.1797
  598TMC3    C8 8871   4.566   0.024  14.965  0.1754  0.6471 -0.4510
  598TMC3    O1 8872   0.137   0.398  14.874 -0.6378  0.2169 -0.0609
  598TMC3    O2 8873   4.625   0.015  14.859  0.2288 -0.6168 -0.3749
  599MPD2     C 8874   0.078   1.850  15.590 -0.0107  0.6226  0.8186
  599MPD2    C1 8875   0.115   1.934  15.687 -0.2229  0.1909 -0.9286
  599MPD2    C2 8876   0.028   2.013  15.756 -0.0608  0.4430  0.4893
  599MPD2    C3 8877   4.607   2.004  15.728 -0.5661  0.4228 -0.4089
  599MPD2    C4 8878   4.570   1.929  15.620  0.5523 -0.6580 -0.2289
  599MPD2    C5 8879   4.663   1.854  15.555 -0.5523 -0.1327  0.8373
  599MPD2     H 8880   0.062   2.080  15.835 -0.4695  1.5540 -0.2879
  599MPD2    H1 8881   4.468   1.931  15.584  0.1928  1.8568  0.8898
  599MPD2    H2 8882   0.151   1.810  15.521  0.2334 -0.5174  1.7330
  599MPD2    H3 8883   4.630   1.801  15.467  0.4641 -1.6031  1.3481
  599MPD2     N 8884   4.515   2.078  15.810  0.2411  0.4306 -0.2507
  599MPD2    H5 8885   4.415   2.067  15.792  0.4282 -0.0793 -1.0018
  599MPD2    N1 8886   0.251   1.967  15.700 -0.3523  0.0018 -0.0577
  599MPD2    H7 8887   0.312   1.935  15.626 -0.1448  1.3957 -0.4931
  600TMC3    C1 8888   4.429   2.241  15.959 -0.9328  0.0708 -0.2630
  600TMC3    C2 8889   4.343   2.148  16.015 -0.5148 -0.5223 -0.1161
  600TMC3    C3 8890   4.247   2.198  16.103 -0.1780  0.2936  0.4963
  600TMC3    C4 8891   4.418   2.376  15.987  0.3368 -0.2862 -0.2070
  600TMC3    C5 8892   4.330   2.425  16.073  0.7735  0.0158 -0.1398
  600TMC3    C6 8893   4.245   2.336  16.133  0.3022  0.0471 -0.5151
  600TMC3     C 8894   4.543   2.193  15.887 -0.2339  0.3497  0.5642
  600TMC3     O 8895   4.644   2.256  15.890 -0.2174 -0.3882 -0.2507
  600TMC3     H 8896   4.353   2.041  16.002 -2.2400 -1.0544  3.0311
  600TMC3    H1 8897   4.497   2.441  15.949  2.1872 -0.9671  2.5096
  600TMC3    H2 8898   4.170   2.376  16.200 -0.8607 -1.5131 -0.8744
  600TMC3    C7 8899   4.329   2.565  16.119  0.2537 -0.0615 -0.3746
  600TMC3    C8 8900   4.132   2.113  16.131  0.3931 -0.7701 -0.3772
  600TMC3    O1 8901   4.266   2.587  16.219 -0.1063  0.3311 -0.5854
  600TMC3    O2 8902   4.140   1.992  16.120 -0.1843 -0.5956  0.4299
  601MPD2     C 8903   0.946   4.693   0.768  0.3332  0.0672  0.0871
  601MPD2    C1 8904   1.056   4.699   0.686 -0.5408  0.4775  0.8119
  601MPD2    C2 8905   1.157   4.607   0.692 -0.9327 -0.4528  0.4656
  601MPD2    C3 8906   1.158   4.509   0.794  0.9636 -0.6478 -0.3616
  601MPD2    C4 8907   1.057   4.510   0.885 -0.4257  0.1380 -1.0573
  601MPD2    C5 8908   0.951   4.595   0.870  0.2527  0.1622  0.2480
  601MPD2     H 8909   1.236   4.610   0.617 -0.9974  1.5893  0.4886
  601MPD2    H1 8910   1.044   4.440   0.967  0.2979  2.2392  0.8797
  601MPD2    H2 8911   0.863   0.042   0.769  0.5629  0.3451 -0.8527
  601MPD2    H3 8912   0.870   4.601   0.941 -0.2320  1.4202 -0.4202
  601MPD2     N 8913   1.260   4.411   0.801  0.1195 -0.5420 -0.5827
  601MPD2    H5 8914   1.328   4.424   0.726  0.4065  2.8520  0.2176
  601MPD2    N1 8915   1.059   0.073   0.576 -0.0159  0.5187  0.3887
  601MPD2    H7 8916   1.136   0.061   0.511 -0.7488  1.2329 -0.6045
  602TMC3    C1 8917   1.009   0.256   0.450  0.3224  0.3837 -0.0163
  602TMC3    C2 8918   0.914   0.354   0.417 -0.4036  0.3450 -0.7539
  602TMC3    C3 8919   0.940   0.419   0.294 -0.2256  0.0244  0.0066
  602TMC3    C4 8920   1.142   0.251   0.401  0.1328 -0.6384 -0.8272
  602TMC3    C5 8921   1.162   0.331   0.295  0.3006 -0.2990  0.1510
  602TMC3    C6 8922   1.064   0.401   0.235  0.3665  0.0009 -0.3117
  602TMC3     C 8923   0.964   0.167   0.557 -0.1700 -0.3565  0.6320
  602TMC3     O 8924   0.855   0.185   0.614  0.3021  0.1590  0.1886
  602TMC3     H 8925   0.821   0.372   0.470  1.1330 -0.9741  2.4072
  602TMC3    H1 8926   1.229   0.195   0.432  1.3274  0.2074 -2.6543
  602TMC3    H2 8927   1.074   0.438   0.133  0.2728  0.2425 -0.2329
  602TMC3    C7 8928   1.294   0.336   0.233  0.7505 -0.0544  0.2006
  602TMC3    C8 8929   0.859   0.540   0.261  0.3839  0.2269 -0.8029
  602TMC3    O1 8930   1.361   0.238   0.254 -0.4530 -0.0319 -0.4592
  602TMC3    O2 8931   0.741   0.547   0.299 -0.2892 -0.5342 -0.0928
  603TMC3    C1 8932   0.219   0.915  10.815  0.3217  0.2347 -0.2309
  603TMC3    C2 8933   0.264   0.917  10.947  0.6158  0.1047 -0.2615
  603TMC3    C3 8934   0.302   1.037  11.001  0.8588  0.4752  0.1042
  603TMC3    C4 8935   0.243   1.024  10.737  0.3132  0.3037  0.6305
  603TMC3    C5 8936   0.291   1.135  10.797 -0.3426 -0.2508 -0.7244
  603TMC3    C6 8937   0.334   1.145  10.927 -0.4993  0.4115 -0.0587
  603TMC3     C 8938   0.159   0.794  10.756 -0.3423 -0.7271 -0.4322
  603TMC3     O 8939   0.098   0.814  10.648  0.0577 -0.1108  0.3900
  603TMC3     H 8940   0.261   0.835  11.018  1.8805  1.8450  1.8110
  603TMC3    H1 8941   0.235   1.010  10.629 -0.8093 -1.6258  0.9726
  603TMC3    H2 8942   0.343   1.236  10.985  0.5379  0.4540 -0.2754
  603TMC3    C7 8943   0.285   1.256  10.725 -0.0177 -0.0974  0.5450
  603TMC3    C8 8944   0.320   1.024  11.148  0.3858  0.2554 -0.8667
  603TMC3    O1 8945   0.355   1.346  10.768  0.0684  0.0237  0.5256
  603TMC3    O2 8946   0.238   0.949  11.205 -0.6629 -0.2376 -0.3020
  604MPD2     C 8947   0.886   4.715  16.281 -1.0082  0.4332 -0.3066
  604MPD2    C1 8948   0.866   0.078  16.176  0.8296  0.2807 -0.0227
  604MPD2    C2 8949   0.933   0.046  16.061 -0.2710 -0.5170  0.4335
  604MPD2    C3 8950   1.006   4.655  16.045 -0.2102  0.2974 -0.0205
  604MPD2    C4 8951   1.017   4.571  16.153  0.3560 -0.0003 -0.2280
  604MPD2    C5 8952   0.966   4.605  16.276  0.0702  0.5880 -0.2855
  604MPD2     H 8953   0.924   0.108  15.972 -0.3354  0.6583  1.2551
  604MPD2    H1 8954   1.068   4.475  16.145 -1.2202 -0.8344 -0.2931
  604MPD2    H2 8955   0.843   0.016  16.378 -2.3745 -2.5152 -0.2348
  604MPD2    H3 8956   0.993   4.549  16.365  0.5487  1.3207  0.0264
  604MPD2     N 8957   1.059   4.625  15.917 -0.2465  0.3540  0.3680
  604MPD2    H5 8958   1.033   4.696  15.849 -2.2702 -0.8284 -0.1173
  604MPD2    N1 8959   0.791   0.200  16.190 -0.5944 -0.1067 -0.5157
  604MPD2    H7 8960   0.755   0.214  16.283  0.2401 -0.1887 -0.1745
  605TMC3    C1 8961   0.720   0.421  16.164  0.0109  0.0703  0.4396
  605TMC3    C2 8962   0.778   0.464  16.281 -0.1737  0.0328 -0.5789
  605TMC3    C3 8963   0.718   0.572  16.339  0.4898 -0.1469 -0.6224
  605TMC3    C4 8964   0.606   0.481  16.109  0.3606  0.3136  0.1905
  605TMC3    C5 8965   0.565   0.597  16.159  0.3782  0.3657  0.0383
  605TMC3    C6 8966   0.615   0.642  16.280 -0.8640 -0.1395 -0.3163
  605TMC3     C 8967   0.766   0.298  16.100 -0.3105  0.0892  0.5329
  605TMC3     O 8968   0.750   0.279  15.981  0.1009 -0.3131  0.2468
  605TMC3     H 8969   0.837   0.393  16.338 -2.2580 -1.2907 -0.0496
  605TMC3    H1 8970   0.564   0.440  16.017  1.0829 -0.7899  0.3420
  605TMC3    H2 8971   0.577   0.735  16.322  2.4040  0.1158  2.0605
  605TMC3    C7 8972   0.428   0.636  16.119 -0.4697  0.9747 -0.2708
  605TMC3    C8 8973   0.769   0.606  16.469  0.7669  0.1413  0.2824
  605TMC3    O1 8974   0.409   0.627  15.998 -0.3718  0.1649 -0.1322
  605TMC3    O2 8975   0.870   0.537  16.494 -0.2902  0.0007 -0.4939
  606TMC3    C1 8976   2.179   2.874  16.760 -0.2200 -0.3039 -0.0054
  606TMC3    C2 8977   2.251   2.913  16.874 -0.5676  0.7638 -0.7672
  606TMC3    C3 8978   2.185   2.927  16.990  0.3498  0.2447 -0.4687
  606TMC3    C4 8979   2.046   2.853  16.772 -0.5364 -0.2834  0.1591
  606TMC3    C5 8980   1.987   2.850  16.899 -0.3932  0.2898  0.3458
  606TMC3    C6 8981   2.053   2.887  17.009 -0.4968  0.3882 -0.1896
  606TMC3     C 8982   2.240   2.822  16.642  0.4224 -0.2838 -0.0409
  606TMC3     O 8983   2.180   2.839  16.536  0.1598 -0.1693  0.1592
  606TMC3     H 8984   2.354   2.942  16.860 -0.0516  0.2106  1.9008
  606TMC3    H1 8985   1.995   2.804  16.690  2.3650 -1.4934 -0.9150
  606TMC3    H2 8986   1.995   2.914  17.096 -0.8544 -0.8392 -0.0423
  606TMC3    C7 8987   1.850   2.804  16.903  0.0590 -0.1456  0.3178
  606TMC3    C8 8988   2.247   3.023  17.085 -0.6916  0.0221 -0.4815
  606TMC3    O1 8989   1.778   2.795  16.803 -0.1524 -0.1678  0.3167
  606TMC3    O2 8990   2.359   3.061  17.063 -0.1869 -0.0530 -0.1921
  607MPD2     C 8991   4.060   1.128  12.175 -1.0068 -0.5021  0.4467
  607MPD2    C1 8992   4.172   1.196  12.225  0.2448 -0.0285  0.1519
  607MPD2    C2 8993   4.242   1.140  12.330  0.0465  0.3683  0.3568
  607MPD2    C3 8994   4.210   1.012  12.378 -0.5996  0.0052 -0.1442
  607MPD2    C4 8995   4.102   0.942  12.323 -0.3291 -0.1983 -0.4044
  607MPD2    C5 8996   4.034   1.003  12.222 -0.3693 -0.0297  0.5222
  607MPD2     H 8997   4.330   1.185  12.376  0.3750 -1.8218  1.8670
  607MPD2    H1 8998   4.084   0.838  12.349 -2.0851  0.1789 -0.1644
  607MPD2    H2 8999   4.006   1.167  12.089 -0.8779 -0.6833  0.2820
  607MPD2    H3 9000   3.951   0.949  12.176  0.4079 -1.5122  0.8588
  607MPD2     N 9001   4.283   0.963  12.486 -0.1507 -0.2689  0.7703
  607MPD2    H5 9002   4.361   1.026  12.501 -0.1172 -0.8725  3.1561
  607MPD2    N1 9003   4.226   1.322  12.172 -0.2376 -0.7933 -0.1621
  607MPD2    H7 9004   4.322   1.336  12.201 -0.5366  1.3982 -0.2237
  608TMC3    C1 9005   4.301   1.475  12.014  0.4033 -0.2225 -0.5602
  608TMC3    C2 9006   4.370   1.535  12.117 -0.2306  0.3901  0.0272
  608TMC3    C3 9007   4.488   1.596  12.080 -0.2072  0.1839  0.0475
  608TMC3    C4 9008   4.352   1.464  11.885 -0.4751  0.2067  0.6160
  608TMC3    C5 9009   4.476   1.515  11.863  0.2160  0.8749  0.8671
  608TMC3    C6 9010   4.539   1.596  11.955  0.2338  0.1571 -0.4921
  608TMC3     C 9011   4.189   1.382  12.055  0.3066 -0.4788 -0.2597
  608TMC3     O 9012   4.098   1.366  11.976 -0.6382  0.0837  0.4501
  608TMC3     H 9013   4.315   1.543  12.209 -1.1243 -1.3670 -0.3465
  608TMC3    H1 9014   4.296   1.410  11.809 -0.9862  0.2159  0.9813
  608TMC3    H2 9015   4.635   1.644  11.937  0.4535  0.0011  0.2586
  608TMC3    C7 9016   4.554   1.469  11.746 -0.0227 -0.4320  0.0174
  608TMC3    C8 9017   4.597   1.597  12.180  0.1435  0.0447 -0.2557
  608TMC3    O1 9018   4.496   1.434  11.644 -0.1701  0.2546  0.6098
  608TMC3    O2 9019   4.704   1.649  12.148 -0.0253 -0.3054  0.5392
  609TMC3    C1 9020   2.452   3.954   8.904 -0.0334  0.2293 -0.6871
  609TMC3    C2 9021   2.349   3.891   8.855  0.2230 -0.3169 -0.0704
  609TMC3    C3 9022   2.356   3.756   8.840 -0.0789 -0.4576 -0.5214
  609TMC3    C4 9023   2.570   3.893   8.931  0.6114 -0.5939  0.3935
  609TMC3    C5 9024   2.576   3.752   8.926 -0.1305  0.1240 -0.3647
  609TMC3    C6 9025   2.467   3.688   8.868 -0.9043  0.5961 -0.1754
  609TMC3     C 9026   2.434   4.099   8.925 -0.5569  1.5018 -0.2036
  609TMC3     O 9027   2.351   4.161   8.855  0.7009  0.3965  0.1170
  609TMC3     H 9028   2.263   3.952   8.828  1.1608  1.4007  0.8109
  609TMC3    H1 9029   2.659   3.942   8.970 -0.2232  0.0679  1.4686
  609TMC3    H2 9030   2.476   3.582   8.848  2.5911  0.7676  0.4314
  609TMC3    C7 9031   2.705   3.691   8.918 -0.0227 -0.9518 -0.2735
  609TMC3    C8 9032   2.242   3.675   8.813  0.1139 -0.4485 -0.1746
  609TMC3    O1 9033   2.804   3.750   8.957 -0.4186 -0.2399 -0.0055
  609TMC3    O2 9034   2.264   3.554   8.842 -0.1940 -0.1721  0.3954
  610TMC3    C1 9035   0.290   1.002  12.769  0.8378  0.2062  0.4854
  610TMC3    C2 9036   0.297   1.076  12.651  0.5183  0.0273 -0.0271
  610TMC3    C3 9037   0.375   1.037  12.543  0.8547  0.1410  0.0742
  610TMC3    C4 9038   0.361   0.888  12.789  0.6227 -0.4579 -0.3359
  610TMC3    C5 9039   0.432   0.842  12.678  0.1491 -0.4939  0.2716
  610TMC3    C6 9040   0.438   0.916  12.553 -0.3049 -0.3825  0.0807
  610TMC3     C 9041   0.194   1.052  12.868  0.3696  0.4525  0.3694
  610TMC3     O 9042   0.134   1.156  12.844 -0.0285 -0.1166 -0.0582
  610TMC3     H 9043   0.235   1.163  12.631  0.1183 -0.0585  0.8610
  610TMC3    H1 9044   0.381   0.840  12.884 -0.6554  0.2164  0.2726
  610TMC3    H2 9045   0.505   0.881  12.475  0.5903 -0.3670  0.8403
  610TMC3    C7 9046   0.543   0.749  12.686 -0.8511  0.6675  0.0195
  610TMC3    C8 9047   0.374   1.099  12.415  1.1582  1.0031  0.1821
  610TMC3    O1 9048   0.635   0.750  12.608 -0.1408 -0.0471  0.1702
  610TMC3    O2 9049   0.399   1.020  12.322 -0.4743  0.2283 -0.2013
  611MPD2     C 9050   4.240   0.656  10.213 -0.2849  0.8574 -0.3572
  611MPD2    C1 9051   4.156   0.728  10.136  0.5253  0.5329  0.0214
  611MPD2    C2 9052   4.187   0.853  10.098  0.5536  0.1632  0.5187
  611MPD2    C3 9053   4.300   0.919  10.148  0.3247 -0.5018 -0.0484
  611MPD2    C4 9054   4.385   0.846  10.227  0.0323 -0.2422  0.0434
  611MPD2    C5 9055   4.354   0.719  10.264 -0.0056 -0.3353  0.8710
  611MPD2     H 9056   4.130   0.918  10.034 -0.1482 -1.8945 -0.9562
  611MPD2    H1 9057   4.482   0.877  10.264  0.3981 -1.1995 -0.1301
  611MPD2    H2 9058   4.223   0.552  10.236 -2.3290  1.2199 -0.2567
  611MPD2    H3 9059   4.422   0.662  10.325  0.0650 -0.1429  0.9731
  611MPD2     N 9060   4.338   1.052  10.119  0.0273 -0.3178 -0.0182
  611MPD2    H5 9061   4.412   1.078  10.183 -1.8420  1.0769  1.5586
  611MPD2    N1 9062   4.043   0.659  10.083  0.8394  0.5887  0.1150
  611MPD2    H7 9063   4.020   0.566  10.118 -0.5764  0.1933 -1.8624
  612TMC3    C1 9064   4.325   1.266  10.013 -0.3370  0.5059  0.4495
  612TMC3    C2 9065   4.436   1.307  10.089  0.0803 -0.7831 -0.5283
  612TMC3    C3 9066   4.448   1.440  10.101 -0.7332 -0.5257 -0.6035
  612TMC3    C4 9067   4.241   1.350   9.948 -0.1220  0.3060  0.5552
  612TMC3    C5 9068   4.263   1.487   9.969 -0.0565 -0.6598 -0.5704
  612TMC3    C6 9069   4.365   1.530  10.047  0.3689 -0.1468  0.7080
  612TMC3     C 9070   4.283   1.130  10.015  0.2351  0.1211 -1.3253
  612TMC3     O 9071   4.201   1.097   9.931 -0.3051 -0.4443  0.5388
  612TMC3     H 9072   4.512   1.236  10.118 -0.1505 -1.1423 -0.7953
  612TMC3    H1 9073   4.157   1.312   9.892  0.4636  0.6981 -0.5756
  612TMC3    H2 9074   4.375   1.636  10.066 -0.4605 -0.0020  0.3623
  612TMC3    C7 9075   4.155   1.576   9.929 -0.3493 -0.8434  0.4304
  612TMC3    C8 9076   4.562   1.487  10.176 -0.0228 -0.0107 -0.2432
  612TMC3    O1 9077   4.070   1.537   9.848  0.4927 -0.2762 -0.5948
  612TMC3    O2 9078   4.593   1.606  10.156  0.4419 -0.0718  0.2236
  613MPD2     C 9079   3.372   3.668  17.061  0.2950 -0.6382 -0.3256
  613MPD2    C1 9080   3.336   3.690  16.934  0.2148  0.1402  0.8923
  613MPD2    C2 9081   3.246   3.603  16.876 -0.2036 -0.2170 -0.9007
  613MPD2    C3 9082   3.209   3.490  16.943  0.4628  0.1091 -0.6968
  613MPD2    C4 9083   3.248   3.474  17.077  0.2343  0.8101  0.9002
  613MPD2    C5 9084   3.322   3.569  17.139 -0.0767  0.1900  0.4419
  613MPD2     H 9085   3.211   3.624  16.776  0.0833 -0.1730 -0.9915
  613MPD2    H1 9086   3.227   3.389  17.141 -1.3146  0.3690 -0.2146
  613MPD2    H2 9087   3.420   3.754  17.106  0.2634 -1.2823  0.9285
  613MPD2    H3 9088   3.357   3.571  17.242 -0.0229  0.0420  0.4266
  613MPD2     N 9089   3.140   3.377  16.896  0.4378 -0.4156  0.1229
  613MPD2    H5 9090   3.131   3.297  16.957 -0.1998  0.8397  1.6799
  613MPD2    N1 9091   3.404   3.795  16.860  0.2858  0.0068 -0.5464
  613MPD2    H7 9092   3.495   3.822  16.896  0.2709  1.1353 -1.3402
  614TMC3    C1 9093   3.474   3.873  16.653 -0.0463  0.3443 -0.0824
  614TMC3    C2 9094   3.570   3.775  16.655  0.3034  0.2760  0.7469
  614TMC3    C3 9095   3.609   3.718  16.537 -0.1638 -0.4451 -0.1824
  614TMC3    C4 9096   3.431   3.925  16.532  0.5827 -0.0808  0.1494
  614TMC3    C5 9097   3.481   3.882  16.415 -0.1993 -0.8194 -0.4363
  614TMC3    C6 9098   3.573   3.779  16.411  0.3743  0.3129  0.2258
  614TMC3     C 9099   3.361   3.841  16.734  0.3385  0.0703 -0.1963
  614TMC3     O 9100   3.250   3.870  16.700  0.4719 -0.5357  0.1867
  614TMC3     H 9101   3.602   3.745  16.753  0.4970  1.1847  0.9644
  614TMC3    H1 9102   3.363   4.010  16.533 -0.3898 -0.8491 -1.2166
  614TMC3    H2 9103   3.610   3.753  16.313 -1.5362 -2.0919  0.1348
  614TMC3    C7 9104   3.450   3.965  16.300  0.3531  0.4362 -0.3121
  614TMC3    C8 9105   3.605   3.573  16.533 -0.1060  0.2551  0.5875
  614TMC3    O1 9106   3.460   4.085  16.321  0.3957 -0.8475  0.1927
  614TMC3    O2 9107   3.548   3.526  16.635 -0.0454 -0.2204  0.2541
  615MPD2     C 9108   2.418   0.282  16.031 -0.0161  0.1764  0.0309
  615MPD2    C1 9109   2.332   0.317  15.926 -0.3264 -0.1946  0.0303
  615MPD2    C2 9110   2.235   0.226  15.891 -1.3545  0.6496  0.2661
  615MPD2    C3 9111   2.238   0.106  15.947 -0.3336 -0.3583  0.4872
  615MPD2    C4 9112   2.323   0.072  16.052  0.3205 -0.2013 -0.0927
  615MPD2    C5 9113   2.410   0.162  16.093 -0.0569 -0.2039 -0.3011
  615MPD2     H 9114   2.165   0.252  15.812 -0.2617  1.1079 -0.5505
  615MPD2    H1 9115   2.327   4.692  16.091  0.7182  0.2380  1.0083
  615MPD2    H2 9116   2.494   0.355  16.056  1.4827 -1.2000 -0.4911
  615MPD2    H3 9117   2.474   0.141  16.178  0.1982  0.4126 -0.3418
  615MPD2     N 9118   2.144   0.021  15.898 -0.3766  0.1303  0.1061
  615MPD2    H5 9119   2.095   0.044  15.813 -0.8527  2.3270  0.9617
  615MPD2    N1 9120   2.329   0.445  15.865 -0.1477 -0.4387 -0.5895
  615MPD2    H7 9121   2.267   0.460  15.786  0.0767  1.9564 -0.2902
  616TMC3    C1 9122   2.394   0.673  15.822  0.4917  0.6309  0.2784
  616TMC3    C2 9123   2.496   0.759  15.801  0.1437  0.3982 -0.4962
  616TMC3    C3 9124   2.465   0.895  15.809 -0.3661  0.0632  1.1573
  616TMC3    C4 9125   2.268   0.712  15.850  0.3586 -0.0317  0.1760
  616TMC3    C5 9126   2.238   0.845  15.854  0.2457  0.0942 -0.8348
  616TMC3    C6 9127   2.341   0.936  15.834  0.0340 -0.5607  0.7079
  616TMC3     C 9128   2.430   0.539  15.878 -0.3511  0.3614 -0.6370
  616TMC3     O 9129   2.530   0.543  15.949  0.4507  0.1950 -1.1080
  616TMC3     H 9130   2.597   0.721  15.806 -0.1740 -0.2838  0.5888
  616TMC3    H1 9131   2.185   0.647  15.876 -0.4084  1.7330  2.0712
  616TMC3    H2 9132   2.329   1.043  15.848  1.4293 -0.2781 -0.2244
  616TMC3    C7 9133   2.098   0.881  15.865  0.1736 -0.0121 -0.2446
  616TMC3    C8 9134   2.576   0.983  15.791  0.5134 -1.0492 -0.7453
  616TMC3    O1 9135   2.020   0.792  15.890 -0.2445 -0.1964  0.6220
  616TMC3    O2 9136   2.540   1.099  15.778 -0.3699  0.4202  0.0426
  617MPD2     C 9137   1.116   3.229  14.150 -0.5103  0.5734  0.1531
  617MPD2    C1 9138   1.122   3.214  14.014 -0.5544  0.0677 -0.2338
  617MPD2    C2 9139   1.001   3.231  13.935  0.3067  0.0618  0.6601
  617MPD2    C3 9140   0.877   3.251  13.990 -0.1446 -0.0234  0.0542
  617MPD2    C4 9141   0.876   3.268  14.125  0.5258 -0.5122 -0.4154
  617MPD2    C5 9142   0.990   3.260  14.201  0.5080 -0.7102 -0.1905
  617MPD2     H 9143   0.996   3.186  13.837 -1.0885  0.0113  0.7586
  617MPD2    H1 9144   0.789   3.299  14.182 -0.2415 -3.8754  0.2663
  617MPD2    H2 9145   1.204   3.229  14.213 -0.2206  2.4665 -0.2372
  617MPD2    H3 9146   0.984   3.266  14.309 -1.8891  0.7616 -0.4163
  617MPD2     N 9147   0.757   3.255  13.920 -0.7724  0.1858  0.1441
  617MPD2    H5 9148   0.672   3.231  13.970 -1.3582  0.8662 -0.5304
  617MPD2    N1 9149   1.248   3.176  13.952  0.1365  0.1957  0.0695
  617MPD2    H7 9150   1.325   3.153  14.013  2.1699  3.3095 -1.3386
  618TMC3    C1 9151   1.409   3.131  13.794  0.1639  0.5316  0.1610
  618TMC3    C2 9152   1.435   3.093  13.664  0.2724 -0.1099 -0.1509
  618TMC3    C3 9153   1.563   3.077  13.619 -0.5301 -0.5590 -0.4573
  618TMC3    C4 9154   1.503   3.144  13.887  0.0764  0.8337  0.1133
  618TMC3    C5 9155   1.624   3.119  13.851 -0.5780  0.2399 -0.3438
  618TMC3    C6 9156   1.659   3.088  13.719  0.0022 -0.6027 -0.6521
  618TMC3     C 9157   1.271   3.166  13.820  0.1381 -0.0089 -0.2832
  618TMC3     O 9158   1.192   3.189  13.724 -0.6740  0.0571  0.2061
  618TMC3     H 9159   1.353   3.093  13.593 -1.1017  1.2221  1.4250
  618TMC3    H1 9160   1.477   3.190  13.981  0.2412  2.2016 -0.5024
  618TMC3    H2 9161   1.763   3.059  13.706  0.0208  0.4579 -2.8974
  618TMC3    C7 9162   1.723   3.148  13.948 -0.0925 -0.1537  0.5699
  618TMC3    C8 9163   1.580   2.998  13.506  0.1786 -0.2271  0.1124
  618TMC3    O1 9164   1.705   3.112  14.061  0.2204  0.2121  0.5195
  618TMC3    O2 9165   1.478   2.939  13.472 -0.4690  0.9734  0.7099
  619MPD2     C 9166   2.560   4.605  13.028  0.1417  0.6909  0.1880
  619MPD2    C1 9167   2.480   4.690  12.948  0.0776 -0.7655 -0.5932
  619MPD2    C2 9168   2.349   4.653  12.904  0.5192  0.4075  0.0881
  619MPD2    C3 9169   2.296   4.536  12.945 -0.8911  0.0784  0.4691
  619MPD2    C4 9170   2.380   4.453  13.023 -0.4935  0.4853  0.4188
  619MPD2    C5 9171   2.505   4.489  13.068 -0.3280 -0.6830  0.0997
  619MPD2     H 9172   2.296   0.008  12.849 -1.4650 -1.5446 -0.6800
  619MPD2    H1 9173   2.346   4.356  13.056 -0.6769  0.5119  0.3077
  619MPD2    H2 9174   2.661   4.628  13.060  0.0992  1.2373 -0.0770
  619MPD2    H3 9175   2.562   4.420  13.128  0.1755  0.7243  1.2395
  619MPD2     N 9176   2.169   4.485  12.911 -0.0128  0.9610 -0.0312
  619MPD2    H5 9177   2.143   4.402  12.963 -0.3688  0.2704 -1.3076
  619MPD2    N1 9178   2.520   0.101  12.909 -0.2554  0.3034 -0.0923
  619MPD2    H7 9179   2.451   0.154  12.856 -0.8701 -1.4202 -1.0234
  620TMC3    C1 9180   2.648   0.296  12.894  0.3476  0.3653  0.2442
  620TMC3    C2 9181   2.566   0.318  12.786  0.2013 -0.0435  0.1140
  620TMC3    C3 9182   2.486   0.425  12.782  0.5079 -0.2088  0.6511
  620TMC3    C4 9183   2.665   0.381  12.993 -0.5190  0.0822  0.2576
  620TMC3    C5 9184   2.590   0.492  12.980  0.2516 -0.2727  0.7813
  620TMC3    C6 9185   2.496   0.515  12.877  0.2376 -0.1654 -0.1862
  620TMC3     C 9186   2.645   0.155  12.940  0.4376 -0.1039 -0.6346
  620TMC3     O 9187   2.745   0.114  12.996 -0.3650  0.4935 -0.6145
  620TMC3     H 9188   2.533   0.246  12.711  1.0208  0.9763 -1.2378
  620TMC3    H1 9189   2.711   0.356  13.088  0.0312 -0.9521 -0.2869
  620TMC3    H2 9190   2.430   0.601  12.876  0.8780  0.3407  1.4526
  620TMC3    C7 9191   2.568   0.586  13.087 -0.0293 -0.4398 -0.0087
  620TMC3    C8 9192   2.349   0.392  12.745  0.0451  0.5088  0.2088
  620TMC3    O1 9193   2.511   0.688  13.055 -0.1807  0.3116 -0.5790
  620TMC3    O2 9194   2.346   0.369  12.623  0.7372 -0.6411 -0.1502
  621MPD2     C 9195   2.565   3.837   9.786 -0.6517  0.1313  0.6346
  621MPD2    C1 9196   2.553   3.942   9.874 -0.2968 -0.3442 -0.5002
  621MPD2    C2 9197   2.595   4.068   9.842  0.5528  0.1950  0.6525
  621MPD2    C3 9198   2.641   4.094   9.714 -0.4613 -0.0741  0.1423
  621MPD2    C4 9199   2.644   3.987   9.618 -0.4149  0.1387 -0.2260
  621MPD2    C5 9200   2.604   3.861   9.656 -0.6485 -0.4001  0.2541
  621MPD2     H 9201   2.578   4.142   9.919  2.2559 -0.6154  1.7951
  621MPD2    H1 9202   2.695   4.010   9.525 -0.3221  0.6787 -0.0426
  621MPD2    H2 9203   2.550   3.733   9.813 -0.7173 -0.1572 -0.5168
  621MPD2    H3 9204   2.614   3.778   9.587 -0.7759 -1.1734  1.1741
  621MPD2     N 9205   2.691   4.223   9.685  0.3429  0.2388  0.5869
  621MPD2    H5 9206   2.693   4.290   9.761  1.7609  1.1794 -0.2874
  621MPD2    N1 9207   2.503   3.911  10.000 -0.1894  0.0496  0.0472
  621MPD2    H7 9208   2.484   3.814  10.023 -0.8265  0.2266  0.2876
  622TMC3    C1 9209   2.416   3.940  10.214  0.0088  0.7801 -0.8108
  622TMC3    C2 9210   2.335   4.007  10.307  0.6665 -0.8368  0.7048
  622TMC3    C3 9211   2.314   3.963  10.431  0.7090 -0.3810 -0.0812
  622TMC3    C4 9212   2.482   3.826  10.254  0.2387  0.3769 -1.0038
  622TMC3    C5 9213   2.458   3.785  10.382 -0.0976 -0.0841 -0.0011
  622TMC3    C6 9214   2.372   3.846  10.465 -0.1833 -0.2940 -0.2519
  622TMC3     C 9215   2.453   4.007  10.091 -0.7599 -0.1280  0.1785
  622TMC3     O 9216   2.438   4.126  10.081  0.4256 -0.2980 -0.3201
  622TMC3     H 9217   2.304   4.108  10.284  0.9876 -0.7874  0.4879
  622TMC3    H1 9218   2.565   3.781  10.202  0.6336  1.2367 -1.1168
  622TMC3    H2 9219   2.354   3.794  10.558 -0.6864  1.5521  0.6967
  622TMC3    C7 9220   2.513   3.659  10.428 -0.1107  0.4598 -0.6963
  622TMC3    C8 9221   2.205   4.008  10.509 -0.5295 -0.3915  0.2818
  622TMC3    O1 9222   2.540   3.651  10.550 -0.8353  0.2451 -0.5197
  622TMC3    O2 9223   2.187   3.967  10.626  0.1693  0.0855  0.4184
  623MPD2     C 9224   1.292   0.897  16.037  0.4858 -0.8947  0.4658
  623MPD2    C1 9225   1.195   0.837  16.117 -0.3525  0.4149 -0.2219
  623MPD2    C2 9226   1.229   0.809  16.247  0.3910  0.6414 -0.0721
  623MPD2    C3 9227   1.358   0.807  16.286  0.0012  0.0130 -0.1590
  623MPD2    C4 9228   1.448   0.881  16.212 -0.2897 -0.0022  0.5673
  623MPD2    C5 9229   1.413   0.924  16.091 -0.3629  0.4691  0.6877
  623MPD2     H 9230   1.157   0.773  16.319 -0.2392  0.6528 -0.6945
  623MPD2    H1 9231   1.550   0.903  16.242 -0.6527  1.5175  0.6551
  623MPD2    H2 9232   1.272   0.934  15.938 -2.3339 -2.0372  0.6190
  623MPD2    H3 9233   1.485   0.981  16.032 -1.4379  0.3450 -0.7411
  623MPD2     N 9234   1.385   0.757  16.413 -0.8214 -0.3139 -0.7693
  623MPD2    H5 9235   1.312   0.701  16.456 -0.7310 -0.9535 -1.4430
  623MPD2    N1 9236   1.064   0.831  16.063 -0.6117  0.0302 -0.7904
  623MPD2    H7 9237   1.052   0.839  15.962  0.6610  1.3926 -0.8324
  624TMC3    C1 9238   1.474   0.527  16.738 -0.3066 -0.4056 -0.1011
  624TMC3    C2 9239   1.370   0.577  16.809 -0.3463  0.1380  0.1402
  624TMC3    C3 9240   1.317   0.705  16.783  0.0550  0.9596 -0.7393
  624TMC3    C4 9241   1.537   0.611  16.646 -0.2461 -0.1324 -0.7175
  624TMC3    C5 9242   1.473   0.727  16.616  0.6798 -0.0441  0.3983
  624TMC3    C6 9243   1.366   0.780  16.681 -0.0951 -0.1076 -0.4575
  624TMC3     C 9244   1.540   0.402  16.787  0.4097  0.2351  0.3814
  624TMC3     O 9245   1.517   0.369  16.903  0.2670  0.0711  0.0880
  624TMC3     H 9246   1.319   0.513  16.880  0.4703 -0.4670  0.1811
  624TMC3    H1 9247   1.607   0.573  16.572  2.4658  0.3369  1.6227
  624TMC3    H2 9248   1.326   0.878  16.659 -0.9641 -0.7411 -1.7263
  624TMC3    C7 9249   1.495   0.781  16.490 -0.6474  0.6728  0.1874
  624TMC3    C8 9250   1.174   0.701  16.800 -0.4391  0.7200 -0.4386
  624TMC3    O1 9251   1.605   0.823  16.464  0.9091  0.2455  0.3171
  624TMC3    O2 9252   1.122   0.594  16.778  0.4323 -0.1525  0.7649
  625MPD2     C 9253   1.680   2.465   0.361 -0.3961  0.0121 -0.0088
  625MPD2    C1 9254   1.691   2.369   0.262  1.3713  0.4965 -0.2769
  625MPD2    C2 9255   1.803   2.368   0.179  0.0766 -0.5024  0.9655
  625MPD2    C3 9256   1.899   2.464   0.185 -0.5592 -0.7377 -0.1247
  625MPD2    C4 9257   1.891   2.563   0.279 -0.3537 -0.3689  0.0604
  625MPD2    C5 9258   1.780   2.564   0.358 -0.1022  0.6298  0.0058
  625MPD2     H 9259   1.831   2.280   0.121 -0.2549  0.4478 -0.6487
  625MPD2    H1 9260   1.963   2.643   0.283  0.8359 -1.4549  0.5231
  625MPD2    H2 9261   1.600   2.491   0.430 -0.8326  1.5105 -1.0669
  625MPD2    H3 9262   1.774   2.648   0.426 -1.3345 -0.7196  1.6033
  625MPD2     N 9263   2.016   2.450   0.095 -0.0870 -0.1715 -0.3191
  625MPD2    H5 9264   2.004   2.389   0.014 -1.3330 -2.6221  1.7069
  625MPD2    N1 9265   1.585   2.277   0.240  0.5340  0.3398  0.1504
  625MPD2    H7 9266   1.600   2.202   0.174  0.3426 -0.5080  1.0661
  626TMC3    C1 9267   1.372   2.180   0.268  0.8156 -0.0827 -0.6891
  626TMC3    C2 9268   1.350   2.172   0.135  0.0005 -0.1266 -0.0538
  626TMC3    C3 9269   1.230   2.125   0.096 -0.7796  0.6738  0.0658
  626TMC3    C4 9270   1.274   2.149   0.363 -0.3142  0.2903 -0.2177
  626TMC3    C5 9271   1.163   2.085   0.316  0.1124  0.4152 -0.5502
  626TMC3    C6 9272   1.140   2.076   0.183 -0.3392 -0.3783 -0.3162
  626TMC3     C 9273   1.462   2.286   0.305 -0.6663  0.0801 -0.0523
  626TMC3     O 9274   1.426   2.370   0.384 -0.2023 -0.5339  0.1135
  626TMC3     H 9275   1.426   2.205   0.065  0.1169  1.4727  0.8439
  626TMC3    H1 9276   1.299   2.166   0.467  1.6441  2.0932 -0.9826
  626TMC3    H2 9277   1.049   2.026   0.151 -1.2871  0.7563  0.5986
  626TMC3    C7 9278   1.065   2.045   0.417 -0.5243 -0.2867 -0.1126
  626TMC3    C8 9279   1.186   2.141  17.649  0.6791 -0.1557  0.3729
  626TMC3    O1 9280   0.969   1.974   0.382 -0.6093 -0.6540 -0.1567
  626TMC3    O2 9281   1.267   2.109  17.558  0.1552 -0.9586 -0.3678
  627MPD2     C 9282   4.709   2.216  14.229 -0.0960  0.1466 -0.6062
  627MPD2    C1 9283   0.118   2.192  14.262  0.3525 -0.0506  0.2163
  627MPD2    C2 9284   0.161   2.061  14.253  0.1209  0.3722  1.1024
  627MPD2    C3 9285   0.082   1.962  14.202  0.1473  0.7512  0.4594
  627MPD2    C4 9286   4.669   1.987  14.176 -0.0250 -0.4831  0.0956
  627MPD2    C5 9287   4.622   2.115  14.196 -0.2081 -0.1190  0.1016
  627MPD2     H 9288   0.262   2.037  14.286  1.2119  1.6953 -1.1874
  627MPD2    H1 9289   4.597   1.908  14.159 -0.6178  0.3710 -1.4084
  627MPD2    H2 9290   4.665   2.315  14.230 -0.7834 -0.1798  0.6236
  627MPD2    H3 9291   4.521   2.142  14.169 -1.2109 -2.2772  1.6834
  627MPD2     N 9292   0.140   1.833  14.205 -0.2803 -0.2775  0.0381
  627MPD2    H5 9293   0.241   1.830  14.210 -0.0623 -0.5633 -4.0154
  627MPD2    N1 9294   0.211   2.289  14.305 -0.0684  0.2565 -0.0039
  627MPD2    H7 9295   0.304   2.260  14.333 -1.1488 -2.4577  0.7747
  628TMC3    C1 9296   0.263   2.505  14.404 -0.3907 -0.3701  0.5399
  628TMC3    C2 9297   0.368   2.443  14.463 -0.7448 -0.8688 -0.0428
  628TMC3    C3 9298   0.448   2.521  14.548 -0.5369 -0.7945  0.2674
  628TMC3    C4 9299   0.236   2.639  14.418  0.1160 -0.5286  0.0946
  628TMC3    C5 9300   0.329   2.715  14.485 -0.3699 -0.0763 -0.2556
  628TMC3    C6 9301   0.430   2.656  14.557  0.3010  0.2931 -0.9334
  628TMC3     C 9302   0.175   2.421  14.322 -0.2930 -0.2330  0.3315
  628TMC3     O 9303   0.087   2.485  14.272  0.4256 -0.2800 -0.5631
  628TMC3     H 9304   0.393   2.338  14.458  0.8405 -0.3173 -3.7661
  628TMC3    H1 9305   0.155   2.681  14.359  0.3252  1.2040  1.0551
  628TMC3    H2 9306   0.499   2.718  14.613  0.5243  0.3271 -1.2427
  628TMC3    C7 9307   0.339   2.857  14.467  0.1861  0.8410 -0.1338
  628TMC3    C8 9308   0.543   2.462  14.638 -0.2865  0.3409  0.4823
  628TMC3    O1 9309   0.386   2.916  14.561  0.0844 -0.1225 -0.1748
  628TMC3    O2 9310   0.530   2.466  14.758 -0.1394 -0.5612  0.3963
  629MPD2     C 9311   3.055   1.137  15.659 -0.0435  0.1564 -0.2431
  629MPD2    C1 9312   3.068   1.014  15.717  0.4140  0.0212 -0.3637
  629MPD2    C2 9313   2.952   0.952  15.769 -0.2406 -0.3431  0.2751
  629MPD2    C3 9314   2.824   1.003  15.748 -0.8603 -0.8644 -0.4906
  629MPD2    C4 9315   2.814   1.125  15.684  0.0398  0.5843  0.8916
  629MPD2    C5 9316   2.930   1.197  15.656  0.1597  0.2118  0.2535
  629MPD2     H 9317   2.959   0.860  15.826  0.2710 -2.4073 -3.1229
  629MPD2    H1 9318   2.720   1.170  15.653 -0.3945 -0.0808  1.2269
  629MPD2    H2 9319   3.137   1.191  15.613  0.4176 -0.9347 -0.6859
  629MPD2    H3 9320   2.916   1.282  15.590 -0.4094 -0.0413  0.0364
  629MPD2     N 9321   2.710   0.934  15.791 -0.3408  0.5395  0.3640
  629MPD2    H5 9322   2.722   0.834  15.804  0.0999  0.5752  0.2571
  629MPD2    N1 9323   3.200   0.971  15.744 -0.1501  0.2281 -0.0537
  629MPD2    H7 9324   3.279   1.006  15.690  0.0306 -0.3429 -0.1612
  630TMC3    C1 9325   3.375   0.856  15.833  0.9248  0.1793 -0.1811
  630TMC3    C2 9326   3.445   0.959  15.802  0.4740 -0.1962  0.6335
  630TMC3    C3 9327   3.581   0.937  15.789  0.4177  0.1298  0.4254
  630TMC3    C4 9328   3.427   0.731  15.857  0.1933  0.2650  0.3220
  630TMC3    C5 9329   3.560   0.726  15.864 -0.0359 -0.1559  0.4936
  630TMC3    C6 9330   3.643   0.818  15.807 -0.0843  0.2272  0.9358
  630TMC3     C 9331   3.234   0.866  15.823  0.1716  0.3195  0.3166
  630TMC3     O 9332   3.169   0.794  15.898  0.0270  0.2824  0.0528
  630TMC3     H 9333   3.399   1.056  15.814  0.9763  0.2131 -0.7558
  630TMC3    H1 9334   3.365   0.664  15.916  1.1975 -1.5071 -0.6420
  630TMC3    H2 9335   3.749   0.799  15.798 -0.6084 -2.8225  0.9942
  630TMC3    C7 9336   3.605   0.678  16.000 -0.5536 -0.5187  0.5719
  630TMC3    C8 9337   3.669   1.048  15.811  0.0143  0.8927 -0.5638
  630TMC3    O1 9338   3.523   0.616  16.068  0.0994  0.2438  0.4260
  630TMC3    O2 9339   3.773   1.026  15.865  0.1712  0.1746  0.2246
  631MPD2     C 9340   1.270   0.232  15.865  0.0800 -0.1894 -0.5015
  631MPD2    C1 9341   1.343   0.268  15.760 -1.1979 -0.9508  0.5311
  631MPD2    C2 9342   1.460   0.189  15.742 -0.2710 -0.7191 -0.5318
  631MPD2    C3 9343   1.490   0.079  15.817  0.1898  0.3059  0.0900
  631MPD2    C4 9344   1.407   0.047  15.922 -0.0027 -0.5592 -0.1084
  631MPD2    C5 9345   1.312   0.142  15.949  0.7442 -0.9117 -0.2210
  631MPD2     H 9346   1.540   0.206  15.671  0.4730  0.3942  0.5889
  631MPD2    H1 9347   1.415   4.684  15.990  0.7600 -0.8508 -0.5637
  631MPD2    H2 9348   1.186   0.298  15.883  1.5928  1.4039  0.6733
  631MPD2    H3 9349   1.260   0.118  16.041  1.3396 -0.0137  0.3539
  631MPD2     N 9350   1.604   4.720  15.781 -0.9687  0.5005  0.5599
  631MPD2    H5 9351   1.652   0.029  15.697  1.8040 -0.1010  1.9270
  631MPD2    N1 9352   1.289   0.372  15.679 -0.4665 -0.1057  0.6631
  631MPD2    H7 9353   1.197   0.406  15.705 -1.4882 -1.4027 -1.2916
  632TMC3    C1 9354   1.312   0.508  15.489  0.0745  0.4036  0.3755
  632TMC3    C2 9355   1.185   0.558  15.502  0.3719  0.9526  0.1300
  632TMC3    C3 9356   1.124   0.624  15.397 -0.1318  0.2054 -0.0892
  632TMC3    C4 9357   1.381   0.535  15.376 -0.2167 -0.2182 -0.2424
  632TMC3    C5 9358   1.313   0.593  15.275 -0.6240  0.4198  0.2746
  632TMC3    C6 9359   1.184   0.634  15.274  0.0764 -0.7318  0.0348
  632TMC3     C 9360   1.374   0.425  15.585  1.0373 -0.3327 -0.3530
  632TMC3     O 9361   1.495   0.393  15.564 -0.4621 -0.2838  0.4046
  632TMC3     H 9362   1.135   0.550  15.598 -0.7488 -1.2574 -0.6354
  632TMC3    H1 9363   1.488   0.516  15.380 -0.1976  0.0297  0.4386
  632TMC3    H2 9364   1.138   0.676  15.185 -1.9113 -2.3743  0.2893
  632TMC3    C7 9365   1.387   0.605  15.151 -0.4876 -0.0047  0.1782
  632TMC3    C8 9366   1.035   0.730  15.441  0.3196  0.3957 -0.3358
  632TMC3    O1 9367   1.322   0.646  15.054 -0.4263 -0.4908  0.4494
  632TMC3    O2 9368   1.066   0.793  15.539  0.2894 -0.0916  0.1542
  633MPD2     C 9369   1.427   3.224  17.685 -0.1731 -0.5075  0.1509
  633MPD2    C1 9370   1.383   3.165  17.570 -0.2297  1.1524 -0.2170
  633MPD2    C2 9371   1.344   3.031  17.576  0.1305  0.3106 -0.2030
  633MPD2    C3 9372   1.345   2.973   0.017  0.4180 -0.4131  0.3277
  633MPD2    C4 9373   1.385   3.038   0.132  0.4550 -0.1156 -0.0801
  633MPD2    C5 9374   1.430   3.165   0.121  0.0293 -0.4942  0.1522
  633MPD2     H 9375   1.297   2.984  17.490 -1.2515 -1.1471  1.3661
  633MPD2    H1 9376   1.396   2.989   0.228 -1.5126 -2.2839 -0.9569
  633MPD2    H2 9377   1.472   3.321  17.672  0.7146 -1.2657 -2.4108
  633MPD2    H3 9378   1.457   3.234   0.201 -1.1349 -1.6566  1.5596
  633MPD2     N 9379   1.316   2.838   0.034 -0.0733  0.2601  0.0908
  633MPD2    H5 9380   1.317   2.804   0.130 -2.3885 -1.1905 -0.3872
  633MPD2    N1 9381   1.365   3.235  17.444 -0.3730  0.3348  0.1492
  633MPD2    H7 9382   1.335   3.182  17.362 -1.3778 -2.1358  2.1081
  634TMC3    C1 9383   1.346   3.404  17.289  0.4075  0.0693 -0.2853
  634TMC3    C2 9384   1.366   3.311  17.192 -0.4890 -0.3319 -0.4934
  634TMC3    C3 9385   1.356   3.349  17.060 -0.2642 -0.0681  0.4837
  634TMC3    C4 9386   1.309   3.533  17.258 -0.5258 -0.6658 -0.0456
  634TMC3    C5 9387   1.298   3.568  17.125  0.3437  0.1114 -0.0745
  634TMC3    C6 9388   1.326   3.478  17.025  0.1112 -0.5037  0.2937
  634TMC3     C 9389   1.375   3.369  17.426 -0.0754 -1.0264  0.6077
  634TMC3     O 9390   1.387   3.462  17.506 -0.7363  0.3658  0.8102
  634TMC3     H 9391   1.400   3.211  17.216  1.0601 -0.0285 -1.4375
  634TMC3    H1 9392   1.299   3.606  17.338 -0.8503  1.0686 -1.6788
  634TMC3    H2 9393   1.300   3.509  16.925  2.2136  0.0507 -0.0700
  634TMC3    C7 9394   1.305   3.708  17.084  0.2242  0.2996 -0.1631
  634TMC3    C8 9395   1.406   3.249  16.966  0.0557 -0.1520  0.3843
  634TMC3    O1 9396   1.359   3.727  16.975 -0.1411 -0.5613  0.0325
  634TMC3    O2 9397   1.463   3.155  17.018  0.1655  0.4975 -0.0749
  635TMC3    C1 9398   1.799   3.814  17.678 -0.3263 -0.3739  0.0698
  635TMC3    C2 9399   1.823   3.868  17.557  1.2522  0.6500  0.4468
  635TMC3    C3 9400   1.854   3.794  17.441 -0.3424 -0.0879 -0.1044
  635TMC3    C4 9401   1.803   3.677   0.003 -0.4779 -0.2139  0.1435
  635TMC3    C5 9402   1.825   3.601  17.576 -0.0238 -0.2753 -0.0671
  635TMC3    C6 9403   1.852   3.657  17.449  0.0209 -0.0990  0.3879
  635TMC3     C 9404   1.748   3.889   0.107  0.7557  0.5593  0.7341
  635TMC3     O 9405   1.738   3.830   0.213 -0.4722 -0.1321  0.5394
  635TMC3     H 9406   1.814   3.975  17.545  0.6714  0.1771 -3.3872
  635TMC3    H1 9407   1.793   3.639   0.104  0.4100 -1.5172 -0.2550
  635TMC3    H2 9408   1.862   3.601  17.356 -0.2035  3.1519 -1.5670
  635TMC3    C7 9409   1.809   3.459  17.599  0.3306  0.0192 -0.1516
  635TMC3    C8 9410   1.900   3.861  17.314 -0.6395  0.2682  0.1307
  635TMC3    O1 9411   1.808   3.411   0.023 -0.2082  0.1339 -0.4538
  635TMC3    O2 9412   1.934   3.796  17.220  0.4699 -0.5744  0.0499
  636MPD2     C 9413   2.720   3.530  16.029 -0.3644 -0.0040 -0.6667
  636MPD2    C1 9414   2.802   3.607  16.109 -0.3752  0.1807 -0.8638
  636MPD2    C2 9415   2.859   3.545  16.218  0.4773 -0.1069 -0.2411
  636MPD2    C3 9416   2.827   3.414  16.256 -0.2959  0.4407  0.0744
  636MPD2    C4 9417   2.750   3.339  16.172  0.7733 -0.3213  0.1291
  636MPD2    C5 9418   2.702   3.398  16.058 -0.0525 -0.0797  0.1175
  636MPD2     H 9419   2.911   3.612  16.286  0.4848  0.0677 -0.4209
  636MPD2    H1 9420   2.734   3.233  16.188  0.3457 -0.2396  0.2421
  636MPD2    H2 9421   2.679   3.564  15.935  0.7427  1.5907 -0.5677
  636MPD2    H3 9422   2.659   3.334  15.982 -2.0914 -2.2082  3.0206
  636MPD2     N 9423   2.891   3.355  16.367  0.5630 -0.2022 -0.0546
  636MPD2    H5 9424   2.928   3.407  16.446 -2.1278 -1.6998  2.1827
  636MPD2    N1 9425   2.811   3.742  16.089  0.7219 -0.0673  0.4226
  636MPD2    H7 9426   2.863   3.785  16.165  0.3009 -1.9479  1.7731
  637TMC3    C1 9427   2.972   3.184  16.507 -0.0588 -0.9030 -0.1740
  637TMC3    C2 9428   2.946   3.252  16.623 -0.6516 -0.5180 -0.4865
  637TMC3    C3 9429   3.035   3.234  16.730 -0.7163  0.0327 -0.0073
  637TMC3    C4 9430   3.088   3.112  16.484  0.6002  0.0527 -0.0100
  637TMC3    C5 9431   3.179   3.108  16.592 -0.3845  0.4400  0.3394
  637TMC3    C6 9432   3.147   3.157  16.718  0.3243  0.2500  0.6958
  637TMC3     C 9433   2.903   3.219  16.385  0.5038 -0.0089 -0.0147
  637TMC3     O 9434   2.892   3.128  16.304  0.4030 -0.4204 -0.2417
  637TMC3     H 9435   2.859   3.313  16.641  0.7418  1.3529 -0.0404
  637TMC3    H1 9436   3.107   3.053  16.396 -0.6504 -2.0754  1.1372
  637TMC3    H2 9437   3.224   3.172  16.793  2.1425  2.7391 -1.6752
  637TMC3    C7 9438   3.313   3.139  16.559  0.4125  0.1944 -0.2759
  637TMC3    C8 9439   3.077   3.371  16.773  0.2919  0.5906 -0.3554
  637TMC3    O1 9440   3.374   3.188  16.652  0.2652 -0.3287  0.5373
  637TMC3    O2 9441   3.082   3.447  16.679  0.5966 -0.0476  0.2153
  638MPD2     C 9442   2.333   2.626  14.356 -0.5356  0.3659  0.1468
  638MPD2    C1 9443   2.296   2.497  14.310 -0.7174  0.3435 -0.0927
  638MPD2    C2 9444   2.256   2.405  14.398  0.0181 -0.3751 -0.4966
  638MPD2    C3 9445   2.271   2.426  14.533 -0.4899 -0.4105  0.2430
  638MPD2    C4 9446   2.315   2.549  14.574 -0.1591 -0.1940 -0.3682
  638MPD2    C5 9447   2.340   2.648  14.491 -0.2441  0.1074  0.5814
  638MPD2     H 9448   2.212   2.312  14.364  0.0951 -0.8035  0.5967
  638MPD2    H1 9449   2.328   2.576  14.679 -2.1913 -1.0833  0.1081
  638MPD2    H2 9450   2.363   2.708  14.292 -3.5584  0.3728 -1.2657
  638MPD2    H3 9451   2.381   2.740  14.528  0.9242 -0.8729  1.7033
  638MPD2     N 9452   2.232   2.320  14.623 -0.0158  0.1666 -0.1460
  638MPD2    H5 9453   2.159   2.254  14.599  0.4750 -0.1056 -0.9106
  638MPD2    N1 9454   2.312   2.471  14.172 -0.2931  0.5634  0.2741
  638MPD2    H7 9455   2.367   2.541  14.122  1.9263 -0.2502  1.5906
  639TMC3    C1 9456   2.233   2.193  14.825 -0.4201  0.5136  0.0808
  639TMC3    C2 9457   2.120   2.119  14.790  0.0509  0.3063 -0.0065
  639TMC3    C3 9458   2.103   1.996  14.838  0.0195  0.6150  0.4624
  639TMC3    C4 9459   2.323   2.130  14.908 -0.2741 -1.0051  0.5072
  639TMC3    C5 9460   2.304   2.002  14.948  0.8351 -0.0597  0.2839
  639TMC3    C6 9461   2.192   1.927  14.921 -0.9387  0.1849 -0.4767
  639TMC3     C 9462   2.290   2.300  14.746  0.0516  0.1964 -0.6151
  639TMC3     O 9463   2.387   2.361  14.784 -0.2493 -0.8208  0.5919
  639TMC3     H 9464   2.038   2.159  14.730 -0.9994 -0.8174  0.6819
  639TMC3    H1 9465   2.419   2.177  14.927  0.7484 -2.1526 -1.9082
  639TMC3    H2 9466   2.172   1.825  14.951  1.4906  0.4748  2.1234
  639TMC3    C7 9467   2.408   1.935  15.029  0.2109  0.5436 -0.0699
  639TMC3    C8 9468   2.039   1.911  14.746  0.0036  0.1269  0.8954
  639TMC3    O1 9469   2.366   1.848  15.104  0.0826  0.0856 -0.8200
  639TMC3    O2 9470   2.109   1.815  14.708 -0.5602  0.8434  0.4591
  640MPD2     C 9471   2.408   0.164   8.853  0.5968 -0.0696 -0.2007
  640MPD2    C1 9472   2.525   0.106   8.897 -0.2315  0.2603 -0.3400
  640MPD2    C2 9473   2.613   0.200   8.959 -0.1839  0.5148  0.0797
  640MPD2    C3 9474   2.562   0.314   9.015 -0.2335  0.3195 -0.3054
  640MPD2    C4 9475   2.434   0.353   8.993 -0.2878  0.1430 -0.1987
  640MPD2    C5 9476   2.359   0.281   8.906  0.2293  0.2981  0.7561
  640MPD2     H 9477   2.716   0.169   8.976 -0.6354 -1.0960 -0.1277
  640MPD2    H1 9478   2.399   0.446   9.037 -1.0765 -0.2261 -0.0371
  640MPD2    H2 9479   2.340   0.105   8.793 -0.7188  0.2575  0.9824
  640MPD2    H3 9480   2.260   0.320   8.886  0.5066  0.6175  0.0118
  640MPD2     N 9481   2.644   0.402   9.092  0.9355 -0.3383 -0.0391
  640MPD2    H5 9482   2.599   0.481   9.137  0.4511 -0.7693  0.2155
  640MPD2    N1 9483   2.566   4.697   8.851  0.1543  0.6082  0.0015
  640MPD2    H7 9484   2.504   4.647   8.787  0.0189  1.2812 -0.3921
  641TMC3    C1 9485   2.717   4.515   8.820 -0.0530  0.1779 -0.2234
  641TMC3    C2 9486   2.816   4.442   8.878 -0.3745 -0.0674 -0.2189
  641TMC3    C3 9487   2.831   4.316   8.830  0.6041  0.4399 -0.0088
  641TMC3    C4 9488   2.637   4.464   8.716 -0.1390 -0.4203  0.7574
  641TMC3    C5 9489   2.659   4.338   8.666  0.5418 -0.1281 -0.1562
  641TMC3    C6 9490   2.753   4.261   8.726 -0.3096  0.4825 -0.2758
  641TMC3     C 9491   2.686   4.640   8.886 -0.3805 -0.1783  0.5849
  641TMC3     O 9492   2.762   4.675   8.975 -0.0383  0.1561  0.8104
  641TMC3     H 9493   2.851   4.459   8.979 -1.3714  0.1057  0.0981
  641TMC3    H1 9494   2.578   4.530   8.653  0.8598 -2.7593 -2.6497
  641TMC3    H2 9495   2.766   4.157   8.700 -2.8826 -0.0899  0.6876
  641TMC3    C7 9496   2.549   4.272   8.605 -0.1563 -0.3476  0.4397
  641TMC3    C8 9497   2.953   4.236   8.861  0.4701  0.6897  0.5374
  641TMC3    O1 9498   2.449   4.334   8.576 -0.5192 -0.4296 -0.0641
  641TMC3    O2 9499   2.952   4.115   8.841 -0.0196 -0.1370  0.3773
  642TMC3    C1 9500   3.834   2.046  12.160  0.1293  0.2779 -0.0840
  642TMC3    C2 9501   3.921   1.947  12.202  0.0289 -1.0954 -0.0306
  642TMC3    C3 9502   3.882   1.818  12.190 -0.0790  0.3186 -0.2818
  642TMC3    C4 9503   3.717   2.015  12.093 -0.4264 -0.5455  0.0561
  642TMC3    C5 9504   3.675   1.880  12.102 -0.2983 -0.5480 -0.0046
  642TMC3    C6 9505   3.760   1.778  12.140 -0.1775 -0.2389  0.1588
  642TMC3     C 9506   3.836   2.174  12.227  0.6020  0.8033 -0.0929
  642TMC3     O 9507   3.940   2.187  12.294  0.6306 -0.0181  0.0322
  642TMC3     H 9508   4.005   1.970  12.266  0.0823 -2.8301  0.5182
  642TMC3    H1 9509   3.658   2.091  12.044  1.5294 -0.4425 -2.1685
  642TMC3    H2 9510   3.723   1.677  12.124 -0.3805 -0.4050  1.6155
  642TMC3    C7 9511   3.575   1.833  12.007 -0.1054 -0.5605  0.0244
  642TMC3    C8 9512   3.957   1.712  12.263  0.5897  0.9979  0.1677
  642TMC3    O1 9513   3.593   1.732  11.939  0.3643  0.4858  0.0073
  642TMC3    O2 9514   3.884   1.623  12.310 -0.2575  0.3628  0.0293
  643TMC3    C1 9515   3.398   1.537   0.053 -0.1341  0.1263 -0.4674
  643TMC3    C2 9516   3.296   1.610   0.006  0.3759 -0.3996 -0.4598
  643TMC3    C3 9517   3.214   1.553  17.595 -0.0554 -0.5600  0.2000
  643TMC3    C4 9518   3.433   1.415   0.011 -0.5277  0.0187  0.0828
  643TMC3    C5 9519   3.357   1.363  17.597 -0.0645  0.2471 -0.6498
  643TMC3    C6 9520   3.247   1.431  17.550 -0.1231  0.6744 -0.0395
  643TMC3     C 9521   3.517   1.620   0.049  0.0730 -0.7747 -0.2085
  643TMC3     O 9522   3.517   1.720  17.663 -0.3600 -0.1356  0.0833
  643TMC3     H 9523   3.286   1.715   0.028 -2.2858 -0.2795 -2.3535
  643TMC3    H1 9524   3.526   1.371   0.042 -0.2399 -1.6958 -3.2466
  643TMC3    H2 9525   3.191   1.369  17.481 -1.6907  1.7257  0.2766
  643TMC3    C7 9526   3.403   1.242  17.525 -0.0527  0.5346  0.4664
  643TMC3    C8 9527   3.105   1.626  17.526 -1.0263  0.1268  0.5976
  643TMC3    O1 9528   3.315   1.159  17.495  0.1700 -0.2835  0.1297
  643TMC3    O2 9529   3.023   1.559  17.464 -0.1500  0.5802  0.4433
  644MPD2     C 9530   2.912   4.395   8.349  0.1287  0.1825  0.0070
  644MPD2    C1 9531   2.965   4.461   8.462  0.6850 -0.2757  0.5811
  644MPD2    C2 9532   2.918   4.587   8.497 -0.4143  0.2187 -0.3547
  644MPD2    C3 9533   2.799   4.640   8.449 -0.0928  0.7679 -0.2986
  644MPD2    C4 9534   2.741   4.563   8.346  1.0706 -0.0668 -0.7236
  644MPD2    C5 9535   2.803   4.451   8.295  0.1618 -0.1501  0.8360
  644MPD2     H 9536   2.972   4.640   8.575 -1.1346  0.1211  0.2107
  644MPD2    H1 9537   2.661   4.599   8.282  1.2846  0.3371 -0.7672
  644MPD2    H2 9538   2.954   4.304   8.308 -0.2443  0.1638 -0.3445
  644MPD2    H3 9539   2.768   4.392   8.211  0.6515  1.2500 -0.3487
  644MPD2     N 9540   2.750   0.040   8.505  0.3734  0.2378 -0.2387
  644MPD2    H5 9541   2.813   0.068   8.579  0.1441 -2.9438  1.1575
  644MPD2    N1 9542   3.074   4.405   8.533  0.6859 -0.0706 -0.2115
  644MPD2    H7 9543   3.116   4.469   8.600  1.0698  0.5444 -1.0436
  645TMC3    C1 9544   2.606   0.212   8.558 -0.5493 -1.0535 -0.1796
  645TMC3    C2 9545   2.503   0.293   8.513  0.8148 -0.3148 -0.0459
  645TMC3    C3 9546   2.501   0.425   8.566  0.2580 -0.4027 -0.1718
  645TMC3    C4 9547   2.707   0.256   8.642  0.0172 -0.5727  0.8604
  645TMC3    C5 9548   2.690   0.377   8.699  0.1305 -0.8705 -0.2485
  645TMC3    C6 9549   2.589   0.461   8.662  0.2126 -0.3065 -0.6825
  645TMC3     C 9550   2.633   0.099   8.473  0.3766 -0.2433  0.2878
  645TMC3     O 9551   2.563   0.077   8.375 -0.1279  0.3765  0.4236
  645TMC3     H 9552   2.416   0.260   8.458 -0.7714  1.5902  1.3324
  645TMC3    H1 9553   2.772   0.184   8.690  1.6010  0.1505 -0.2188
  645TMC3    H2 9554   2.568   0.554   8.714  0.9568 -0.9015  0.6715
  645TMC3    C7 9555   2.799   0.452   8.753 -0.4650 -0.0523 -0.3007
  645TMC3    C8 9556   2.384   0.513   8.565 -0.1484  0.4768 -0.5956
  645TMC3    O1 9557   2.781   0.568   8.782 -0.0198  0.1048  0.2993
  645TMC3    O2 9558   2.358   0.579   8.667 -0.0636 -0.2205 -0.5799
  646MPD2     C 9559   2.566   1.131  14.558  0.4917  0.1231 -0.0051
  646MPD2    C1 9560   2.466   1.095  14.643  0.1299 -0.2124  0.6429
  646MPD2    C2 9561   2.333   1.127  14.621  0.0479  0.5681 -0.4301
  646MPD2    C3 9562   2.305   1.175  14.493  0.5980  0.2859  0.0033
  646MPD2    C4 9563   2.404   1.205  14.403  0.6854 -0.1160  0.2297
  646MPD2    C5 9564   2.535   1.195  14.437  0.6363  0.0781  0.4107
  646MPD2     H 9565   2.256   1.096  14.690 -0.1600  1.1155 -0.4106
  646MPD2    H1 9566   2.385   1.235  14.300 -1.1066  0.4748  0.7438
  646MPD2    H2 9567   2.663   1.104  14.598 -0.3723 -0.9930  1.3001
  646MPD2    H3 9568   2.612   1.228  14.368 -0.4785  2.2765  0.2334
  646MPD2     N 9569   2.171   1.185  14.453 -0.9355 -0.1953 -0.6956
  646MPD2    H5 9570   2.102   1.182  14.527  0.4834  2.7443  0.7307
  646MPD2    N1 9571   2.523   1.020  14.753 -0.3100  0.0764  0.6123
  646MPD2    H7 9572   2.624   1.008  14.753 -0.3024  0.1321 -0.7770
  647TMC3    C1 9573   2.539   0.878  14.932 -0.1446 -0.5341  0.1015
  647TMC3    C2 9574   2.489   0.775  15.009 -0.4301 -0.6751  0.0953
  647TMC3    C3 9575   2.578   0.689  15.071 -0.1153  0.3426 -0.0142
  647TMC3    C4 9576   2.677   0.898  14.930 -0.1491  0.3398 -0.0701
  647TMC3    C5 9577   2.755   0.817  15.008  0.1482  0.1784 -0.9636
  647TMC3    C6 9578   2.710   0.700  15.060 -0.7811  0.0040 -0.0212
  647TMC3     C 9579   2.452   0.959  14.854 -0.4280 -0.1473  0.4547
  647TMC3     O 9580   2.332   0.947  14.884 -0.2213  0.0984 -0.0252
  647TMC3     H 9581   2.383   0.752  15.018 -0.4556 -0.1109  1.2537
  647TMC3    H1 9582   2.724   0.994  14.913 -2.4818  1.2009 -1.6663
  647TMC3    H2 9583   2.778   0.634  15.113 -3.3502 -0.3685  2.8307
  647TMC3    C7 9584   2.900   0.842  15.027 -0.5070 -0.2729 -0.5347
  647TMC3    C8 9585   2.537   0.581  15.165 -0.2277  1.0519 -0.4935
  647TMC3    O1 9586   2.946   0.780  15.122 -0.8142 -0.2431 -0.7620
  647TMC3    O2 9587   2.626   0.534  15.235  0.1981 -0.1651 -0.1997
  648TMC3    C1 9588   1.692   3.342  15.990  0.2760  0.5210 -0.0701
  648TMC3    C2 9589   1.690   3.234  15.903  0.2523  0.2737  0.0580
  648TMC3    C3 9590   1.611   3.226  15.789 -0.1562 -0.3114 -0.4574
  648TMC3    C4 9591   1.604   3.446  15.959 -0.5011 -0.3951  0.2060
  648TMC3    C5 9592   1.511   3.424  15.856 -0.1755  0.7883 -0.5058
  648TMC3    C6 9593   1.519   3.321  15.764 -0.3871  0.3522 -0.4483
  648TMC3     C 9594   1.744   3.335  16.133 -0.0737  0.0368  0.2109
  648TMC3     O 9595   1.756   3.445  16.191  0.1416  0.4294  0.2934
  648TMC3     H 9596   1.752   3.148  15.925  0.9135  0.3183 -1.5840
  648TMC3    H1 9597   1.600   3.536  16.019 -1.1596 -0.4399  0.2227
  648TMC3    H2 9598   1.446   3.301  15.685 -0.4726 -2.0247  0.2144
  648TMC3    C7 9599   1.409   3.518  15.829  0.0643 -0.3443 -0.4810
  648TMC3    C8 9600   1.639   3.150  15.672  1.3399  0.2093 -1.1199
  648TMC3    O1 9601   1.338   3.504  15.727 -0.8651 -0.0162  0.6438
  648TMC3    O2 9602   1.542   3.126  15.598 -0.0241  0.1517  0.0810
  649TMC3    C1 9603   1.094   4.465  11.934 -0.7790  0.7432  0.0644
  649TMC3    C2 9604   1.208   4.535  11.917 -0.5998 -0.5996 -0.5358
  649TMC3    C3 9605   1.299   4.531  12.019  0.4192 -0.0580  0.2464
  649TMC3    C4 9606   1.062   4.407  12.057  0.2525  0.2724 -0.7360
  649TMC3    C5 9607   1.153   4.417  12.161  0.7119  0.4237 -0.1347
  649TMC3    C6 9608   1.266   4.486  12.145  0.6473 -0.1248 -0.3222
  649TMC3     C 9609   0.994   4.467  11.835 -0.2176  0.0047  0.8386
  649TMC3     O 9610   0.880   4.488  11.883  0.1758  0.2116  0.3487
  649TMC3     H 9611   1.227   4.584  11.822  0.6266  0.8051  0.4418
  649TMC3    H1 9612   0.970   4.352  12.063 -0.7821  1.9006 -1.6104
  649TMC3    H2 9613   1.337   4.492  12.227 -1.4359 -3.3955  1.7039
  649TMC3    C7 9614   1.110   4.355  12.281  0.2025 -0.7007  0.5694
  649TMC3    C8 9615   1.422   4.603  11.992  0.0318  0.2512 -0.1797
  649TMC3    O1 9616   0.987   4.360  12.302 -0.0306  0.1693  0.7231
  649TMC3    O2 9617   1.437   4.658  11.884  0.8366  0.4509  0.4353
  650TMC3    C1 9618   3.201   1.775  12.921  0.0137  0.2436 -0.9131
  650TMC3    C2 9619   3.198   1.901  12.976  0.4401  0.4293 -0.1282
  650TMC3    C3 9620   3.094   1.983  12.928 -0.2767  0.0067 -0.7043
  650TMC3    C4 9621   3.114   1.728  12.825 -0.5697 -0.4353  0.2835
  650TMC3    C5 9622   3.030   1.814  12.775  0.3574  0.1908 -0.7863
  650TMC3    C6 9623   3.024   1.940  12.821 -0.8268 -0.2274  0.1253
  650TMC3     C 9624   3.290   1.680  12.988 -0.0365  0.4254 -0.1773
  650TMC3     O 9625   3.333   1.717  13.098  0.5934  0.4912 -0.1027
  650TMC3     H 9626   3.282   1.931  13.038  1.2332 -0.9038 -0.5382
  650TMC3    H1 9627   3.112   1.625  12.792  0.8948 -0.1864 -0.6028
  650TMC3    H2 9628   2.935   1.995  12.793 -0.4833  0.0625 -0.3853
  650TMC3    C7 9629   2.975   1.790  12.641  0.5965 -0.1363  0.5874
  650TMC3    C8 9630   3.126   2.128  12.906  0.1087  0.4031 -0.4167
  650TMC3    O1 9631   2.969   1.675  12.606  0.3478 -0.2520  0.5194
  650TMC3    O2 9632   3.125   2.167  12.790  0.4878  0.2438  0.2087
  651MPD2     C 9633   2.438   2.382  10.363 -0.0291  0.1632 -0.3019
  651MPD2    C1 9634   2.420   2.515  10.399 -0.7637 -0.3610 -0.1984
  651MPD2    C2 9635   2.526   2.604  10.384 -0.2048  0.0790  0.0917
  651MPD2    C3 9636   2.645   2.566  10.331 -0.0346 -0.7207 -0.8155
  651MPD2    C4 9637   2.669   2.433  10.325 -0.3957 -0.5374  0.2898
  651MPD2    C5 9638   2.564   2.339  10.333  0.3448 -0.3482  0.2268
  651MPD2     H 9639   2.505   2.709  10.403 -0.6342  0.1807 -0.9785
  651MPD2    H1 9640   2.765   2.391  10.298  0.3677 -0.6464  3.1462
  651MPD2    H2 9641   2.356   2.312  10.353  0.6788 -1.1617  3.3719
  651MPD2    H3 9642   2.574   2.237  10.297  1.2577  0.8308 -2.7915
  651MPD2     N 9643   2.750   2.668  10.321  0.0488  0.7023  0.1782
  651MPD2    H5 9644   2.722   2.765  10.329  2.8785  1.5637 -0.2435
  651MPD2    N1 9645   2.293   2.565  10.434  0.3804  0.2758 -0.1738
  651MPD2    H7 9646   2.283   2.666  10.439 -1.5362  0.1123 -0.3950
  652TMC3    C1 9647   3.129   2.913  10.355 -0.0270 -0.2089  0.3525
  652TMC3    C2 9648   3.076   2.789  10.365  0.3183 -0.1893  0.5949
  652TMC3    C3 9649   2.951   2.772  10.311 -0.0526  0.1835 -0.1962
  652TMC3    C4 9650   3.065   3.016  10.284 -0.2643  0.5410  0.3941
  652TMC3    C5 9651   2.940   2.994  10.233  0.4587  0.0405  0.1500
  652TMC3    C6 9652   2.890   2.871  10.239 -0.0184 -1.1743  0.2206
  652TMC3     C 9653   3.257   2.939  10.426  1.1364 -0.0459  0.3078
  652TMC3     O 9654   3.293   2.857  10.506  0.4458  0.3597  0.3840
  652TMC3     H 9655   3.132   2.713  10.419 -1.6966 -1.8011  0.3865
  652TMC3    H1 9656   3.104   3.118  10.285  0.3823  0.2963 -0.6693
  652TMC3    H2 9657   2.794   2.862  10.190 -0.1237  0.9821  0.0239
  652TMC3    C7 9658   2.863   3.093  10.158  0.5585  1.3249 -0.6593
  652TMC3    C8 9659   2.887   2.645  10.307 -1.0646 -0.0218 -0.1289
  652TMC3    O1 9660   2.804   3.048  10.059  0.1662  0.1203 -0.0252
  652TMC3    O2 9661   2.943   2.534  10.304 -0.2149  0.3252  0.7826
  653MPD2     C 9662   1.055   3.114   0.165 -0.6191  0.2611  0.4227
  653MPD2    C1 9663   1.080   3.219   0.078  0.5245 -0.1207 -0.6379
  653MPD2    C2 9664   1.044   3.215  17.632  0.7980  0.0291  0.1937
  653MPD2    C3 9665   0.978   3.099  17.584 -0.7765 -0.2046  0.1160
  653MPD2    C4 9666   0.954   3.001  17.674 -0.4353 -0.3664  0.2498
  653MPD2    C5 9667   0.992   3.004   0.118  0.8745 -0.6874  0.4626
  653MPD2     H 9668   1.058   3.296  17.561  0.6694 -1.1643 -1.1814
  653MPD2    H1 9669   0.907   2.911  17.637 -1.9230 -0.3876  2.1630
  653MPD2    H2 9670   1.092   3.111   0.267 -0.6098  0.4329  0.4253
  653MPD2    H3 9671   0.970   2.918   0.181  0.9272 -0.6062  0.5923
  653MPD2     N 9672   0.916   3.106  17.455 -0.5822 -0.7185 -0.7473
  653MPD2    H5 9673   0.937   3.184  17.393 -2.9026 -1.3955 -2.3790
  653MPD2    N1 9674   1.139   3.348   0.111 -0.9641  0.4459  0.9270
  653MPD2    H7 9675   1.150   3.412   0.034 -0.7571  0.1996  0.7555
  654TMC3    C1 9676   0.771   3.052  17.280  0.0299  0.2181  0.6596
  654TMC3    C2 9677   0.679   3.155  17.301 -0.0925 -0.3063  0.1867
  654TMC3    C3 9678   0.585   3.176  17.208  0.6628  0.1003 -0.1260
  654TMC3    C4 9679   0.751   2.960  17.190  0.0444  1.2427 -0.1561
  654TMC3    C5 9680   0.660   2.982  17.093  0.0737 -0.7497  0.0496
  654TMC3    C6 9681   0.576   3.094  17.100 -0.1445 -0.7141  0.5504
  654TMC3     C 9682   0.842   3.007  17.394 -0.2264  0.4060  0.4261
  654TMC3     O 9683   0.832   2.890  17.416 -0.2781  0.2974  0.8715
  654TMC3     H 9684   0.693   3.228  17.379 -4.2091 -0.4313  1.0451
  654TMC3    H1 9685   0.824   2.879  17.182 -1.8160 -0.4833  0.3037
  654TMC3    H2 9686   0.500   3.099  17.024 -0.5168 -2.5673  0.8100
  654TMC3    C7 9687   0.665   2.935  16.957 -0.2036 -0.6536 -0.7280
  654TMC3    C8 9688   0.560   3.313  17.170  0.4683 -0.2626  0.1215
  654TMC3    O1 9689   0.650   3.026  16.873  0.5072  0.8461  0.2018
  654TMC3    O2 9690   0.532   3.396  17.255 -0.5594 -0.5524 -0.3276
  655MPD2     C 9691   2.322   3.450  15.999  0.4783  0.5510 -0.0974
  655MPD2    C1 9692   2.275   3.571  15.956  0.0969 -0.9070  0.4413
  655MPD2    C2 9693   2.291   3.608  15.822  0.5790 -0.4489 -0.6869
  655MPD2    C3 9694   2.378   3.538  15.741  0.1744  0.0326 -0.0670
  655MPD2    C4 9695   2.442   3.426  15.785  0.4161 -0.2660  0.1469
  655MPD2    C5 9696   2.407   3.383  15.908  0.3567  0.1953  0.2594
  655MPD2     H 9697   2.236   3.695  15.788  0.3280 -0.2984  0.1125
  655MPD2    H1 9698   2.507   3.369  15.720 -0.9746 -1.4970 -0.1648
  655MPD2    H2 9699   2.304   3.404  16.096  0.7705  1.0430  0.1850
  655MPD2    H3 9700   2.447   3.285  15.932  2.3397  0.4715 -1.9404
  655MPD2     N 9701   2.389   3.564  15.600 -0.2566 -0.5908  0.4619
  655MPD2    H5 9702   2.432   3.489  15.547  0.5271 -1.0303  1.7218
  655MPD2    N1 9703   2.195   3.657  16.036  0.9084  0.1957 -0.1136
  655MPD2    H7 9704   2.165   3.746  15.997 -1.5796 -0.6761 -0.2062
  656TMC3    C1 9705   2.056   3.742  16.204  0.7390 -0.4385  0.2771
  656TMC3    C2 9706   1.938   3.710  16.268  0.2367 -0.6570  0.1086
  656TMC3    C3 9707   1.843   3.814  16.253 -0.2549  0.5498  0.6300
  656TMC3    C4 9708   2.080   3.863  16.138 -0.3035 -0.1521  0.0706
  656TMC3    C5 9709   1.984   3.952  16.120  0.6951 -1.1083 -0.4204
  656TMC3    C6 9710   1.858   3.934  16.175  0.9218  0.5644 -0.1930
  656TMC3     C 9711   2.132   3.626  16.150  0.5949  0.1098 -0.1964
  656TMC3     O 9712   2.125   3.518  16.211  0.4975  0.5862  0.4510
  656TMC3     H 9713   1.919   3.610  16.305  2.5519 -0.5505  1.5607
  656TMC3    H1 9714   2.178   3.887  16.100 -0.9960  1.3417 -0.7717
  656TMC3    H2 9715   1.775   4.004  16.168  0.0319 -0.4805 -0.1479
  656TMC3    C7 9716   1.984   4.007  15.982 -0.1616  0.3118  0.3881
  656TMC3    C8 9717   1.714   3.799  16.308 -0.5011 -0.4583  0.5715
  656TMC3    O1 9718   2.079   3.969  15.915  0.1108 -0.5782  0.2907
  656TMC3    O2 9719   1.665   3.909  16.339  0.8312 -0.2329 -0.2195
  657TMC3    C1 9720   1.293   3.284  14.620  1.1163  0.2308  0.3396
  657TMC3    C2 9721   1.301   3.308  14.755  0.3930 -0.3875  0.7239
  657TMC3    C3 9722   1.235   3.417  14.808 -0.0958 -0.4144  0.0341
  657TMC3    C4 9723   1.237   3.375  14.534  0.3184 -0.0306 -0.0250
  657TMC3    C5 9724   1.181   3.490  14.590  0.1398  0.1668 -0.0185
  657TMC3    C6 9725   1.173   3.505  14.725  0.9268 -0.4759  0.1168
  657TMC3     C 9726   1.389   3.192  14.554  0.0466  0.0055  0.0384
  657TMC3     O 9727   1.370   3.160  14.434  0.0822  0.4588 -0.0047
  657TMC3     H 9728   1.336   3.228  14.820  2.1984  0.4316  0.7731
  657TMC3    H1 9729   1.251   3.363  14.427 -0.2098 -1.8381  0.1001
  657TMC3    H2 9730   1.112   3.583  14.768  1.3497  0.9176 -1.8433
  657TMC3    C7 9731   1.095   3.574  14.497 -0.0900  1.2783  0.6319
  657TMC3    C8 9732   1.246   3.445  14.950  0.0308  0.4326  0.6223
  657TMC3    O1 9733   1.111   3.552  14.378 -0.4775 -0.2402 -0.0304
  657TMC3    O2 9734   1.234   3.565  14.974 -0.5526 -0.0164 -0.3210
  658MPD2     C 9735   2.809   3.279  15.211  0.0335  0.1382  0.4796
  658MPD2    C1 9736   2.713   3.344  15.133  0.1581 -0.5044  0.8977
  658MPD2    C2 9737   2.734   3.367  15.000 -0.0445  0.0584 -0.0649
  658MPD2    C3 9738   2.857   3.331  14.935  0.1729  0.1221  0.1946
  658MPD2    C4 9739   2.942   3.254  15.013 -0.2469 -0.5249  0.2014
  658MPD2    C5 9740   2.924   3.241  15.152  0.4436  0.5914  0.1128
  658MPD2     H 9741   2.659   3.420  14.942  0.8413  0.4995 -0.8170
  658MPD2    H1 9742   3.041   3.228  14.975 -0.1095 -0.2680  0.3858
  658MPD2    H2 9743   2.787   3.259  15.316  1.5651  1.6926  1.0984
  658MPD2    H3 9744   3.002   3.202  15.216  0.9628  1.5978  0.0860
  658MPD2     N 9745   2.876   3.348  14.797 -0.1049 -0.1687 -0.4450
  658MPD2    H5 9746   2.797   3.385  14.746  1.5339  2.2021 -1.2683
  658MPD2    N1 9747   2.586   3.382  15.198  0.0494 -0.8591  0.3228
  658MPD2    H7 9748   2.579   3.367  15.298  0.3993  0.8758  0.6038
  659TMC3    C1 9749   2.365   3.484  15.222 -0.0686  0.7585  0.5197
  659TMC3    C2 9750   2.396   3.549  15.337  0.4273 -0.3161  0.1230
  659TMC3    C3 9751   2.315   3.637  15.390  0.3186 -0.0403  0.0690
  659TMC3    C4 9752   2.241   3.509  15.161 -1.1548 -0.0940 -0.0798
  659TMC3    C5 9753   2.161   3.605  15.215  0.3740  0.0594  0.5624
  659TMC3    C6 9754   2.198   3.672  15.333 -0.1577 -0.6471  0.3272
  659TMC3     C 9755   2.473   3.432  15.134  0.8013  0.5246 -0.4957
  659TMC3     O 9756   2.439   3.423  15.014  0.3479 -0.2628  0.2689
  659TMC3     H 9757   2.496   3.547  15.379  0.3383  2.5402  0.4749
  659TMC3    H1 9758   2.216   3.453  15.072 -0.0275  0.1236 -0.5428
  659TMC3    H2 9759   2.129   3.735  15.387 -1.2515 -1.3689 -0.2491
  659TMC3    C7 9760   2.026   3.625  15.165  0.0456  0.0552  0.3270
  659TMC3    C8 9761   2.332   3.669  15.533 -0.2704 -0.3278  0.2659
  659TMC3    O1 9762   1.966   3.723  15.198  0.2630  0.0352  0.8609
  659TMC3    O2 9763   2.273   3.771  15.567  0.8466  0.1814  0.8422
  660MPD2     C 9764   0.701   2.090  12.640 -0.0943 -0.7657 -0.4390
  660MPD2    C1 9765   0.568   2.097  12.645 -0.0075  0.7597  1.0095
  660MPD2    C2 9766   0.507   2.077  12.768  0.0866 -0.2005  0.5011
  660MPD2    C3 9767   0.574   2.035  12.882  0.7574  0.1817  0.5531
  660MPD2    C4 9768   0.710   2.022  12.868  1.0365 -0.0407  1.1309
  660MPD2    C5 9769   0.768   2.054  12.754 -0.0462 -0.1413  0.3610
  660MPD2     H 9770   0.399   2.090  12.771 -0.1169 -2.1826  1.9881
  660MPD2    H1 9771   0.768   1.988  12.953  1.9566 -1.3989 -0.0231
  660MPD2    H2 9772   0.751   2.102  12.545 -0.2015 -0.1585 -0.4239
  660MPD2    H3 9773   0.875   2.038  12.750 -0.1505 -0.4972 -1.0895
  660MPD2     N 9774   0.536   2.017  13.015  0.1518 -0.1750 -0.2287
  660MPD2    H5 9775   0.609   1.999  13.083  1.3269  0.1086 -1.4148
  660MPD2    N1 9776   0.491   2.128  12.528 -0.0884 -0.2641  0.0472
  660MPD2    H7 9777   0.536   2.121  12.437  0.8424 -1.2080  0.5699
  661TMC3    C1 9778   0.320   2.216  12.384  0.3637  0.0156 -0.2574
  661TMC3    C2 9779   0.413   2.201  12.282  0.3334 -0.0302  0.1697
  661TMC3    C3 9780   0.362   2.180  12.159 -0.8938  0.1728 -0.1417
  661TMC3    C4 9781   0.183   2.203  12.368 -0.4504 -0.0353 -0.1479
  661TMC3    C5 9782   0.142   2.160  12.244  0.1710  0.1696 -0.7714
  661TMC3    C6 9783   0.229   2.144  12.138 -0.8819 -0.3253 -0.1207
  661TMC3     C 9784   0.361   2.175  12.522 -0.4794  0.0800  1.0627
  661TMC3     O 9785   0.290   2.214  12.612  0.6552  0.1777  0.0865
  661TMC3     H 9786   0.516   2.230  12.296  0.4462 -0.1316 -0.4912
  661TMC3    H1 9787   0.111   2.216  12.448  1.6130 -0.7827  1.8381
  661TMC3    H2 9788   0.202   2.105  12.041  0.9148  1.4877 -1.3348
  661TMC3    C7 9789   0.006   2.187  12.216 -0.5441  0.1621  0.7956
  661TMC3    C8 9790   0.457   2.179  12.047 -0.6331  0.5609  0.2331
  661TMC3    O1 9791   4.680   2.284  12.272 -0.2909  0.1989  0.1982
  661TMC3    O2 9792   0.454   2.078  11.977  0.3712 -0.0611  0.2597
  662MPD2     C 9793   0.540   2.271  17.252  0.4064  0.1248  0.3638
  662MPD2    C1 9794   0.596   2.213  17.364  0.1784 -0.1195  0.1208
  662MPD2    C2 9795   0.597   2.286  17.482 -0.0689  0.1364 -0.1774
  662MPD2    C3 9796   0.529   2.407  17.492 -0.2223  0.2482 -0.3170
  662MPD2    C4 9797   0.471   2.450  17.375  0.4237 -0.2489  0.2882
  662MPD2    C5 9798   0.473   2.383  17.257  0.3177 -0.3122  0.5545
  662MPD2     H 9799   0.631   2.234  17.571 -0.5383 -0.7738 -0.5361
  662MPD2    H1 9800   0.409   2.539  17.374  0.0743 -0.4895  0.8182
  662MPD2    H2 9801   0.533   2.211  17.162  0.3237  1.3202 -0.4186
  662MPD2    H3 9802   0.413   2.411  17.171  1.5760 -1.6620 -0.7454
  662MPD2     N 9803   0.513   2.487  17.602 -0.4342  0.1567 -0.3099
  662MPD2    H5 9804   0.445   2.562  17.597 -0.8088 -0.2398 -1.1767
  662MPD2    N1 9805   0.651   2.085  17.368 -0.1571  0.0429 -0.5707
  662MPD2    H7 9806   0.683   2.053  17.459 -0.4816 -0.7205 -0.7261
  663TMC3    C1 9807   0.694   1.866  17.315  0.0803  0.1337 -0.7309
  663TMC3    C2 9808   0.755   1.859  17.437  0.8167 -0.4852  0.7499
  663TMC3    C3 9809   0.778   1.729  17.486  0.3140  0.0628 -0.4942
  663TMC3    C4 9810   0.642   1.758  17.250  0.4246  0.2653 -0.2160
  663TMC3    C5 9811   0.645   1.640  17.313 -0.1863  0.7364 -0.0305
  663TMC3    C6 9812   0.703   1.623  17.442 -0.6846 -0.1998  0.4296
  663TMC3     C 9813   0.657   1.991  17.267 -0.1156  0.4033 -0.5770
  663TMC3     O 9814   0.616   1.995  17.153  0.0670  0.0976  0.3502
  663TMC3     H 9815   0.804   1.939  17.491  0.2741 -1.1307  2.2012
  663TMC3    H1 9816   0.583   1.759  17.159 -1.1589 -0.7069  0.7955
  663TMC3    H2 9817   0.731   1.522  17.471  0.5102  0.0847  0.2666
  663TMC3    C7 9818   0.620   1.517  17.235  0.0089  0.2726 -0.7760
  663TMC3    C8 9819   0.806   1.710  17.629 -0.4007  0.2415 -0.0448
  663TMC3    O1 9820   0.632   1.531  17.116 -1.2142 -0.3717 -0.0181
  663TMC3    O2 9821   0.902   1.772  17.676 -0.4365 -0.1426  0.1239
  664MPD2     C 9822   3.005   0.401  16.875  0.4161 -0.1442  0.6278
  664MPD2    C1 9823   3.107   0.402  16.959 -0.1154  0.0496  0.3091
  664MPD2    C2 9824   3.106   0.320  17.066  0.2620 -0.9937 -0.7239
  664MPD2    C3 9825   2.998   0.240  17.089 -0.6307  0.7259 -0.5529
  664MPD2    C4 9826   2.888   0.240  17.003  0.8038  0.3394 -0.3281
  664MPD2    C5 9827   2.893   0.325  16.895  0.4595 -0.1921 -0.4271
  664MPD2     H 9828   3.185   0.332  17.139 -1.8009 -3.7971  1.9377
  664MPD2    H1 9829   2.799   0.179  17.018  0.1522  1.4838  0.4759
  664MPD2    H2 9830   3.001   0.477  16.798  1.7005 -0.8949 -0.1792
  664MPD2    H3 9831   2.807   0.344  16.832  1.1219 -0.2272 -1.3517
  664MPD2     N 9832   3.002   0.160  17.207 -0.0390  0.3354 -0.2408
  664MPD2    H5 9833   3.087   0.146  17.260  0.2391  0.5744 -0.6260
  664MPD2    N1 9834   3.230   0.476  16.936  0.2340 -0.2244  0.2825
  664MPD2    H7 9835   3.301   0.457  17.005  1.0137 -1.4397 -0.8505
  665TMC3    C1 9836   2.940   0.023  17.390  0.1158  0.0516  0.1960
  665TMC3    C2 9837   2.849   0.019  17.492  0.4030 -0.9384  0.0587
  665TMC3    C3 9838   2.894   4.696  17.612  0.0702 -0.5108 -0.2114
  665TMC3    C4 9839   3.072   4.704  17.413  0.4463  0.3253 -0.5621
  665TMC3    C5 9840   3.107   4.664  17.537 -0.1981 -0.0726 -0.0135
  665TMC3    C6 9841   3.020   4.655  17.641 -0.0395  0.1679  0.7170
  665TMC3     C 9842   2.899   0.099  17.268 -0.0500 -0.9733 -0.5583
  665TMC3     O 9843   2.778   0.112  17.258  0.3365  0.2010 -0.5347
  665TMC3     H 9844   2.747   0.050  17.471 -0.3461 -4.3151 -1.2836
  665TMC3    H1 9845   3.148   4.713  17.336  1.6498  1.4553  0.7672
  665TMC3    H2 9846   3.042   4.602   0.046 -1.1643  1.6968  1.8642
  665TMC3    C7 9847   3.226   0.007  17.580  0.5977  0.3126  0.4912
  665TMC3    C8 9848   2.840   0.038   0.041  0.6966  0.7316 -0.6583
  665TMC3    O1 9849   3.319   0.012  17.501 -0.0810 -0.3529 -0.5995
  665TMC3    O2 9850   2.910   0.061   0.141  0.2023  0.3893 -0.2309
  666TMC3    C1 9851   2.775   4.408   9.562 -0.5615  0.0856  0.3580
  666TMC3    C2 9852   2.877   4.405   9.660  0.1136 -0.3933  0.2527
  666TMC3    C3 9853   2.891   4.515   9.737 -0.7929  0.6860  0.2372
  666TMC3    C4 9854   2.703   4.519   9.530 -1.2260  0.6386  0.3356
  666TMC3    C5 9855   2.731   4.631   9.607  0.2088 -0.2604  0.7886
  666TMC3    C6 9856   2.822   4.634   9.710  0.6756  0.0187  0.3437
  666TMC3     C 9857   2.713   4.278   9.555  0.0801  0.7622  0.1034
  666TMC3     O 9858   2.674   4.234   9.445  0.3807  0.1616 -0.7401
  666TMC3     H 9859   2.933   4.317   9.687  0.7399 -0.4354 -1.1823
  666TMC3    H1 9860   2.624   4.515   9.457 -0.1634 -0.8620 -0.7190
  666TMC3    H2 9861   2.835   0.008   9.759  3.5074  1.5260 -3.3562
  666TMC3    C7 9862   2.630   0.010   9.629  1.4871  0.7638  0.3675
  666TMC3    C8 9863   2.908   4.478   9.878  0.2309 -0.3298  0.0589
  666TMC3    O1 9864   2.603   0.023   9.745  0.5535 -0.7318  0.5577
  666TMC3    O2 9865   2.887   4.365   9.914  0.1573 -0.6098 -0.2530
  667MPD2     C 9866   4.341   0.124  14.612  0.3950 -0.0571  0.0056
  667MPD2    C1 9867   4.249   0.210  14.667 -0.1742 -0.6151  0.7604
  667MPD2    C2 9868   4.115   0.170  14.662 -0.4123  0.0221 -1.2071
  667MPD2    C3 9869   4.070   0.065  14.581 -0.0104 -0.7498 -0.4593
  667MPD2    C4 9870   4.169   4.717  14.518 -0.5912  0.3996 -0.2655
  667MPD2    C5 9871   4.303   0.019  14.537  0.3138 -0.0041 -0.7322
  667MPD2     H 9872   4.037   0.229  14.708  0.4293 -1.6179  2.3046
  667MPD2    H1 9873   4.139   4.637  14.452 -1.3846  1.3497 -1.0614
  667MPD2    H2 9874   4.446   0.131  14.638  0.9605 -1.5043 -1.8386
  667MPD2    H3 9875   4.380   4.687  14.483  0.1238 -2.2926  1.2600
  667MPD2     N 9876   3.939   0.021  14.555 -0.4619 -0.5209  0.3545
  667MPD2    H5 9877   3.931   4.667  14.487  1.9756  1.2485 -1.9010
  667MPD2    N1 9878   4.286   0.323  14.743 -0.1461 -0.2504  0.4535
  667MPD2    H7 9879   4.214   0.374  14.793  1.4841  0.9399  1.6155
  668TMC3    C1 9880   4.437   0.458  14.869 -0.1676  0.4141  0.1624
  668TMC3    C2 9881   4.514   0.571  14.856 -0.3292  0.4217  0.3276
  668TMC3    C3 9882   4.537   0.638  14.975 -0.0976  0.2060 -0.4507
  668TMC3    C4 9883   4.392   0.410  14.987 -0.4460 -0.6028 -0.0495
  668TMC3    C5 9884   4.420   0.482  15.099  0.6457 -0.3117 -0.2434
  668TMC3    C6 9885   4.491   0.596  15.095  0.6535 -0.1475 -1.2369
  668TMC3     C 9886   4.418   0.377  14.752 -0.1048 -0.1860 -0.2561
  668TMC3     O 9887   4.508   0.375  14.666 -0.4065 -0.4851 -0.5427
  668TMC3     H 9888   4.553   0.607  14.762  1.2213  0.9286  1.1673
  668TMC3    H1 9889   4.349   0.310  14.995 -0.9468 -0.4057 -0.2610
  668TMC3    H2 9890   4.518   0.644  15.189 -2.1755  0.3866 -0.6920
  668TMC3    C7 9891   4.331   0.462  15.202  0.5145 -0.3869  0.6140
  668TMC3    C8 9892   4.615   0.765  14.980 -0.2727  0.4073  0.4224
  668TMC3    O1 9893   4.366   0.500  15.310 -0.1672  0.3264  0.4564
  668TMC3    O2 9894   4.623   0.815  15.090  0.4952 -0.1320  0.0941
  669TMC3    C1 9895   2.366   0.286  14.355 -0.7094 -0.4613 -0.3891
  669TMC3    C2 9896   2.238   0.300  14.303 -0.1581 -0.1372  0.3165
  669TMC3    C3 9897   2.217   0.414  14.225 -0.0235 -0.6478  0.7073
  669TMC3    C4 9898   2.465   0.380  14.322 -0.0205  0.5957 -0.0549
  669TMC3    C5 9899   2.437   0.490  14.244  0.7380  0.1194 -0.3414
  669TMC3    C6 9900   2.311   0.510  14.188 -0.0767  0.0682 -0.3620
  669TMC3     C 9901   2.389   0.195  14.469 -0.1784 -0.0881 -0.5661
  669TMC3     O 9902   2.294   0.132  14.509  0.3759  0.4283 -0.6504
  669TMC3     H 9903   2.151   0.248  14.340 -1.0281  0.9372 -0.2281
  669TMC3    H1 9904   2.563   0.379  14.369 -0.0048  1.2201 -0.0814
  669TMC3    H2 9905   2.287   0.590  14.120 -0.1928 -0.1005 -0.5176
  669TMC3    C7 9906   2.550   0.563  14.184 -0.3386 -0.3421 -0.2684
  669TMC3    C8 9907   2.091   0.428  14.149  0.0231 -0.7170  1.0289
  669TMC3    O1 9908   2.651   0.575  14.251  0.3323 -0.2742 -0.0485
  669TMC3    O2 9909   2.052   0.541  14.144 -0.5097  0.3490  0.1406
  670MPD2     C 9910   0.986   3.120  13.292  0.4226 -0.4051  0.0738
  670MPD2    C1 9911   1.004   3.171  13.421  0.5027  0.3773  0.4884
  670MPD2    C2 9912   0.937   3.109  13.528  0.1080  0.0535 -0.2763
  670MPD2    C3 9913   0.857   3.006  13.507  0.3548 -0.6220 -0.4437
  670MPD2    C4 9914   0.837   2.959  13.377  1.1535  0.4505 -0.3832
  670MPD2    C5 9915   0.902   3.015  13.271  0.6091 -0.1329  0.9612
  670MPD2     H 9916   0.950   3.139  13.631  1.9720  0.0266 -0.5080
  670MPD2    H1 9917   0.792   2.863  13.352 -0.0875  0.7712  0.6463
  670MPD2    H2 9918   1.043   3.157  13.208 -1.2796  3.4604  0.5789
  670MPD2    H3 9919   0.894   2.977  13.170  3.4521 -1.4117  1.2108
  670MPD2     N 9920   0.799   2.945  13.617  0.3193  0.0814 -0.2782
  670MPD2    H5 9921   0.826   2.971  13.712  1.8813 -3.2447  0.1698
  670MPD2    N1 9922   1.088   3.287  13.448  0.0581 -0.0168 -0.3510
  670MPD2    H7 9923   1.083   3.311  13.546 -0.1005  1.2230 -0.6595
  671TMC3    C1 9924   0.686   2.777  13.748  1.0424  0.3065 -0.0061
  671TMC3    C2 9925   0.789   2.703  13.795  0.1264 -0.3834 -0.4635
  671TMC3    C3 9926   0.758   2.578  13.828 -1.0796  0.2267  0.6350
  671TMC3    C4 9927   0.556   2.726  13.739  0.0175  0.7017  0.0786
  671TMC3    C5 9928   0.533   2.592  13.753  0.5016 -0.4331  0.5073
  671TMC3    C6 9929   0.637   2.518  13.808  1.7189 -0.7771 -0.2872
  671TMC3     C 9930   0.706   2.842  13.613 -0.2303 -0.0025 -0.3771
  671TMC3     O 9931   0.655   2.788  13.515 -0.1603  0.5175  0.1200
  671TMC3     H 9932   0.890   2.730  13.764  0.7644 -0.3506  1.6336
  671TMC3    H1 9933   0.482   2.780  13.682 -3.8843  0.4543  4.8712
  671TMC3    H2 9934   0.619   2.413  13.826  2.2122 -0.5306  1.7139
  671TMC3    C7 9935   0.482   2.529  13.630 -0.0743  0.2063  0.0198
  671TMC3    C8 9936   0.868   2.492  13.843 -0.2622 -0.3078  0.6982
  671TMC3    O1 9937   0.539   2.428  13.589 -0.0895 -0.2866 -1.0884
  671TMC3    O2 9938   0.859   2.384  13.785 -0.2119  0.4363 -0.3156
  672MPD2     C 9939   0.623   3.006   1.536  0.3312  0.7723  0.5394
  672MPD2    C1 9940   0.752   2.992   1.476 -0.3634  0.4172  0.0669
  672MPD2    C2 9941   0.859   3.067   1.519 -0.1938 -0.2062 -0.0420
  672MPD2    C3 9942   0.847   3.141   1.637 -0.1000 -0.2429  0.9440
  672MPD2    C4 9943   0.718   3.170   1.683 -0.9212  0.4686  0.1429
  672MPD2    C5 9944   0.609   3.099   1.636 -0.1035 -0.0813  0.4312
  672MPD2     H 9945   0.952   3.054   1.466 -0.6507  2.1145 -1.4314
  672MPD2    H1 9946   0.703   3.242   1.762  2.3294  0.3406  0.8826
  672MPD2    H2 9947   0.532   2.949   1.515  1.2756 -0.4323 -0.2838
  672MPD2    H3 9948   0.511   3.114   1.680  0.2271  0.0575  1.1267
  672MPD2     N 9949   0.964   3.206   1.690  0.4635 -0.0570 -0.8141
  672MPD2    H5 9950   0.942   3.278   1.759 -2.1040  1.6442 -3.3974
  672MPD2    N1 9951   0.773   2.904   1.367  0.3809 -0.0218 -0.2999
  672MPD2    H7 9952   0.865   2.908   1.324  1.2536 -0.5975  1.4921
  673TMC3    C1 9953   0.739   2.734   1.219  1.0398  0.1616  0.1126
  673TMC3    C2 9954   0.726   2.598   1.224 -0.2985  0.4296 -0.1464
  673TMC3    C3 9955   0.797   2.531   1.128 -0.0587 -0.4673 -0.4126
  673TMC3    C4 9956   0.807   2.801   1.120  0.1388 -0.0499  0.7787
  673TMC3    C5 9957   0.872   2.719   1.027  0.0461  0.3563  0.6041
  673TMC3    C6 9958   0.867   2.586   1.029 -0.1274 -0.5794 -0.3381
  673TMC3     C 9959   0.689   2.803   1.328  1.1091  0.1121 -0.3022
  673TMC3     O 9960   0.580   2.767   1.369  0.4843 -0.1640 -0.3307
  673TMC3     H 9961   0.671   2.546   1.301  0.5651  2.3936  1.8029
  673TMC3    H1 9962   0.811   2.909   1.116 -2.8928  0.0355  0.2344
  673TMC3    H2 9963   0.916   2.523   0.956  0.9872  0.4114 -0.4308
  673TMC3    C7 9964   0.974   2.770   0.940  0.7307 -0.0581  0.0030
  673TMC3    C8 9965   0.835   2.400   1.161 -1.1607  0.1922 -0.0612
  673TMC3    O1 9966   1.037   2.686   0.873  0.1924  0.1999  0.3848
  673TMC3    O2 9967   0.749   2.315   1.166 -0.1222 -0.4869 -0.0497
  674MPD2     C 9968   0.669   3.037   0.724 -0.1339  0.7211 -0.0077
  674MPD2    C1 9969   0.677   2.906   0.709 -0.3664  0.0827  0.0032
  674MPD2    C2 9970   0.601   2.820   0.792  0.8943  0.0207 -0.3194
  674MPD2    C3 9971   0.529   2.872   0.895 -0.4287 -0.3685 -0.1493
  674MPD2    C4 9972   0.536   3.010   0.920 -0.0869  0.3732 -0.2835
  674MPD2    C5 9973   0.601   3.092   0.828  0.1445 -0.5012  0.3499
  674MPD2     H 9974   0.605   2.712   0.778  0.6885  0.1434 -1.2937
  674MPD2    H1 9975   0.470   3.053   0.994 -0.6029 -0.5681 -0.1960
  674MPD2    H2 9976   0.725   3.101   0.656  1.3040 -1.2469 -0.6564
  674MPD2    H3 9977   0.593   3.199   0.843 -0.3977 -0.4969  0.0147
  674MPD2     N 9978   0.448   2.777   0.972 -0.8064  0.9202 -0.5937
  674MPD2    H5 9979   0.458   2.680   0.945 -1.9249  0.3421  1.0732
  674MPD2    N1 9980   0.774   2.866   0.607  0.7593 -0.1321  0.1865
  674MPD2    H7 9981   0.808   2.941   0.547 -2.2614  1.6486  0.7346
  675TMC3    C1 9982   0.875   2.708   0.462  0.2715 -0.0051  0.3690
  675TMC3    C2 9983   0.841   2.591   0.395  0.5040 -0.0592 -0.1384
  675TMC3    C3 9984   0.942   2.537   0.314 -0.0832 -0.1619  1.1809
  675TMC3    C4 9985   1.003   2.757   0.459 -0.3809  0.3472 -0.1828
  675TMC3    C5 9986   1.098   2.690   0.384 -0.6876 -0.1258 -0.3584
  675TMC3    C6 9987   1.071   2.587   0.300 -0.8466 -0.0605 -0.5626
  675TMC3     C 9988   0.803   2.730   0.585 -0.2686 -0.1243  0.1132
  675TMC3     O 9989   0.743   2.631   0.625 -0.1011 -0.1513 -0.3824
  675TMC3     H 9990   0.737   2.560   0.396 -0.1856  2.2554 -2.4235
  675TMC3    H1 9991   1.036   2.826   0.537  2.1160 -2.0240  0.8631
  675TMC3    H2 9992   1.150   2.537   0.245 -1.6593 -1.5061 -0.4046
  675TMC3    C7 9993   1.240   2.722   0.404  0.0813  0.8426 -0.6950
  675TMC3    C8 9994   0.918   2.397   0.264  0.0140 -0.7203  0.5706
  675TMC3    O1 9995   1.292   2.776   0.306 -0.1615  0.5326 -0.2077
  675TMC3    O2 9996   0.995   2.353   0.176 -0.1683 -0.2100 -0.0528
  676MPD2     C 9997   3.762   0.743  10.991  0.2328 -0.1233 -0.3798
  676MPD2    C1 9998   3.627   0.733  11.020 -0.0098 -0.1277  0.5071
  676MPD2    C2 9999   3.563   0.609  11.003  0.0608 -0.1785  0.4000
  676MPD2    C310000   3.634   0.491  10.967  0.2488 -0.7641  0.1985
  676MPD2    C410001   3.768   0.509  10.944 -0.1749 -0.1579  0.1838
  676MPD2    C510002   3.834   0.629  10.953  0.7295 -0.1648  0.2213
  676MPD2     H10003   3.455   0.619  11.011  0.0633  1.1776 -1.2223
  676MPD2    H110004   3.820   0.423  10.903  2.0163  1.6398 -0.8124
  676MPD2    H210005   3.820   0.835  10.986  1.9766 -1.1456  1.0201
  676MPD2    H310006   3.934   0.647  10.916 -0.7982  2.0142 -2.7815
  676MPD2     N10007   3.581   0.366  10.936 -0.3168  0.3223  0.1241
  676MPD2    H510008   3.649   0.297  10.907 -0.9613 -0.7971  1.2765
  676MPD2    N110009   3.543   0.828  11.062  0.3073 -0.2562  0.0957
  676MPD2    H710010   3.446   0.803  11.083  0.6159 -0.2725  1.5133
  677TMC3    C110011   3.451   1.046  11.050 -0.1215  0.1542 -0.3621
  677TMC3    C210012   3.343   0.994  10.977 -0.9465 -0.1914  0.1110
  677TMC3    C310013   3.237   1.084  10.950 -0.9375  0.5159 -0.7062
  677TMC3    C410014   3.456   1.174  11.101 -0.6666  0.0501 -0.1104
  677TMC3    C510015   3.356   1.259  11.065 -0.4759 -0.4765  0.1427
  677TMC3    C610016   3.251   1.224  10.985 -1.5792 -0.6673  0.3241
  677TMC3     C10017   3.569   0.961  11.066  0.1908 -0.2982 -0.5632
  677TMC3     O10018   3.683   1.013  11.066  0.2558 -0.3172 -0.1686
  677TMC3     H10019   3.338   0.895  10.935 -0.5594 -0.5179  0.8302
  677TMC3    H110020   3.537   1.204  11.167 -0.4023 -0.0143 -0.4081
  677TMC3    H210021   3.179   1.300  10.957 -2.5105 -1.0208  1.7729
  677TMC3    C710022   3.334   1.390  11.134 -1.0158 -0.1008  0.1645
  677TMC3    C810023   3.127   1.047  10.856 -0.2772 -0.5232  0.0552
  677TMC3    O110024   3.217   1.433  11.134  0.3962 -0.1294  0.3352
  677TMC3    O210025   3.152   0.950  10.782  0.1179 -0.3181  0.4428
  678MPD2     C10026   4.067   0.938   1.351  1.1885 -0.1451  0.9348
  678MPD2    C110027   4.115   0.929   1.223 -0.0550  0.0734  0.3343
  678MPD2    C210028   4.032   0.986   1.125  0.0302 -0.4186  0.1037
  678MPD2    C310029   3.922   1.056   1.149 -0.3776  0.2889  0.2954
  678MPD2    C410030   3.876   1.071   1.280  0.3878 -0.6475  0.1771
  678MPD2    C510031   3.953   1.008   1.377 -0.1943 -0.7632  0.0473
  678MPD2     H10032   4.056   0.974   1.020  0.0461 -1.2172  0.2001
  678MPD2    H110033   3.791   1.130   1.312  1.4418  0.9359  0.0345
  678MPD2    H210034   4.127   0.887   1.425  1.0052 -1.6769  0.0406
  678MPD2    H310035   3.934   1.029   1.482  2.8297  1.5346  0.1562
  678MPD2     N10036   3.850   1.101   1.037  0.4894  0.5082  0.1407
  678MPD2    H510037   3.886   1.086   0.944 -0.3299  2.4862 -0.4923
  678MPD2    N110038   4.226   0.858   1.177  0.2248  0.0844  0.1839
  678MPD2    H710039   4.257   0.879   1.082  1.5949 -0.3277  0.5444
  679TMC3    C110040   4.601   0.588   1.237 -0.2294  0.2133  0.6324
  679TMC3    C210041   4.475   0.612   1.261 -0.8143  0.4318 -0.1487
  679TMC3    C310042   4.410   0.715   1.194 -0.5592  0.1132  0.3527
  679TMC3    C410043   4.670   0.649   1.139  0.0797 -0.1922  0.5882
  679TMC3    C510044   4.608   0.759   1.074 -0.2933 -0.2212 -0.3276
  679TMC3    C610045   4.474   0.784   1.091  0.0787  0.5717 -0.7066
  679TMC3     C10046   4.672   0.494   1.318  0.4087  0.4186  0.2096
  679TMC3     O10047   0.072   0.512   1.320 -0.4533 -0.1063  0.0772
  679TMC3     H10048   4.420   0.583   1.350  1.3986  1.0015  1.3926
  679TMC3    H110049   0.052   0.620   1.117 -0.7650  0.0313 -3.5999
  679TMC3    H210050   4.420   0.865   1.042 -1.0841  0.6966  0.7842
  679TMC3    C710051   4.666   0.828   0.963 -0.4379 -0.1224 -0.1464
  679TMC3    C810052   4.292   0.766   1.250 -0.4962 -0.0751  0.1131
  679TMC3    O110053   4.612   0.933   0.932 -0.2164  0.2835  0.2826
  679TMC3    O210054   4.254   0.721   1.356  0.1408 -0.0199  0.5719
  680MPD2     C10055   0.624   0.276  13.291  0.0083 -0.1658  0.0107
  680MPD2    C110056   0.736   0.200  13.262  0.1017  0.6477 -0.3532
  680MPD2    C210057   0.854   0.229  13.326  0.3297 -0.1503  0.3646
  680MPD2    C310058   0.866   0.338  13.405  0.2637 -0.8182 -0.6716
  680MPD2    C410059   0.761   0.431  13.408  0.6836 -0.7001  0.0057
  680MPD2    C510060   0.638   0.394  13.362  0.6459  0.5279 -0.0482
  680MPD2     H10061   0.930   0.152  13.325  1.6159  1.1460 -1.5696
  680MPD2    H110062   0.772   0.529  13.453 -1.4978 -0.5600  0.2394
  680MPD2    H210063   0.531   0.261  13.237 -0.1111 -0.7099  0.3770
  680MPD2    H310064   0.558   0.467  13.365 -0.8503 -0.9960 -2.2392
  680MPD2     N10065   0.993   0.362  13.466 -0.5916 -0.0566 -0.3103
  680MPD2    H510066   1.064   0.297  13.436 -1.2241 -0.1239 -1.6409
  680MPD2    N110067   0.726   0.098  13.168 -0.1269  0.1184  0.0673
  680MPD2    H710068   0.632   0.066  13.146  0.5631 -1.2576 -0.8470
  681TMC3    C110069   0.798   4.623  13.068 -0.1000  0.6656  0.2959
  681TMC3    C210070   0.716   4.548  13.144 -0.1083  0.2296 -0.2896
  681TMC3    C310071   0.710   4.415  13.128  0.0599  0.2679  0.0165
  681TMC3    C410072   0.877   4.560  12.972  0.2565  0.0632 -0.0628
  681TMC3    C510073   0.880   4.426  12.962 -0.7147 -0.0860 -0.6634
  681TMC3    C610074   0.792   4.347  13.041 -0.2615  0.0431 -0.3550
  681TMC3     C10075   0.834   0.021  13.130 -0.5663  0.0318 -0.9456
  681TMC3     O10076   0.949   0.059  13.119 -0.3012  0.0121 -0.1418
  681TMC3     H10077   0.658   4.597  13.222 -0.9266  1.3184 -1.5825
  681TMC3    H110078   0.948   4.613  12.910 -0.3472  1.6573  0.5955
  681TMC3    H210079   0.804   4.240  13.053  0.0396 -0.1260 -2.1899
  681TMC3    C710080   1.001   4.369  12.918 -0.2992 -0.1273 -0.0260
  681TMC3    C810081   0.631   4.333  13.218  0.0148  0.0698 -0.1125
  681TMC3    O110082   1.094   4.384  12.999 -0.3755 -0.0374  0.0151
  681TMC3    O210083   0.607   4.218  13.178  0.3587  0.0621  0.3343
  682MPD2     C10084   1.960   0.843  10.362 -0.4168  0.1071  0.0119
  682MPD2    C110085   2.032   0.723  10.369 -0.1763  0.2288  0.1185
  682MPD2    C210086   2.104   0.698  10.478 -0.0970  0.8498  0.1845
  682MPD2    C310087   2.116   0.783  10.590 -0.3991  0.2159  0.1902
  682MPD2    C410088   2.053   0.902  10.586 -0.1265 -0.4608 -0.2575
  682MPD2    C510089   1.969   0.922  10.475 -0.5346 -0.0397 -0.1014
  682MPD2     H10090   2.157   0.604  10.485 -1.5237 -0.1077 -1.7069
  682MPD2    H110091   2.041   0.965  10.673  1.1624 -1.1714  0.4270
  682MPD2    H210092   1.891   0.866  10.282  0.1137 -0.5376 -0.6337
  682MPD2    H310093   1.922   1.019  10.487 -0.3244 -0.0886  1.0812
  682MPD2     N10094   2.207   0.762  10.701  0.5410 -0.3181 -0.5867
  682MPD2    H510095   2.193   0.826  10.778  1.8257  1.1132 -1.5423
  682MPD2    N110096   2.030   0.636  10.253  0.3657  0.3541 -0.4000
  682MPD2    H710097   2.080   0.548  10.257  0.6164  0.5535  0.7574
  683TMC3    C110098   2.453   0.834  11.006 -0.9231  0.3883  0.6194
  683TMC3    C210099   2.487   0.725  11.076 -0.3028 -0.7477  0.7899
  683TMC3    C310100   2.467   0.603  11.027 -0.2510  0.0415 -0.4166
  683TMC3    C410101   2.392   0.823  10.886 -0.3748  0.0575  0.7525
  683TMC3    C510102   2.389   0.701  10.827  0.6951  0.1353  0.0217
  683TMC3    C610103   2.419   0.585  10.898  0.1501 -0.1214  0.0968
  683TMC3     C10104   2.449   0.963  11.072  0.7025 -0.7100 -0.9395
  683TMC3     O10105   2.424   0.970  11.189 -0.6353 -0.0667  0.2007
  683TMC3     H10106   2.536   0.753  11.168  0.1674  1.6945 -0.1979
  683TMC3    H110107   2.356   0.910  10.832 -1.4886  0.9610  2.9453
  683TMC3    H210108   2.408   0.488  10.851  0.3861 -0.1292  0.0582
  683TMC3    C710109   2.316   0.676  10.707  0.7209 -0.6200  0.3088
  683TMC3    C810110   2.525   0.494  11.102 -0.1777 -0.5283 -0.2365
  683TMC3    O110111   2.336   0.575  10.641  0.0511  0.5907 -0.0044
  683TMC3    O210112   2.552   0.401  11.035 -0.3150  0.3429  0.1831
  684MPD2     C10113   0.282   1.118  16.272  0.4844  0.0430  1.0018
  684MPD2    C110114   0.411   1.110  16.306 -0.1628 -0.3087  0.5111
  684MPD2    C210115   0.449   1.176  16.416 -0.3358 -0.0114  0.2999
  684MPD2    C310116   0.368   1.262  16.487 -0.3187 -0.5333  0.2664
  684MPD2    C410117   0.236   1.274  16.454 -0.2679 -0.4909 -0.2998
  684MPD2    C510118   0.197   1.204  16.342 -0.0699  0.3714 -0.2456
  684MPD2     H10119   0.553   1.184  16.444 -0.9004  2.1399  1.7766
  684MPD2    H110120   0.166   1.339  16.506  3.2553  1.8117  1.5570
  684MPD2    H210121   0.240   1.060  16.191  1.3768  0.1725  0.4517
  684MPD2    H310122   0.089   1.203  16.326 -0.1589  1.0775  0.2887
  684MPD2     N10123   0.414   1.342  16.591 -0.1259 -0.5935 -0.2595
  684MPD2    H510124   0.362   1.420  16.629  1.8034 -0.5491  2.2981
  684MPD2    N110125   0.512   1.055  16.225 -0.2826  0.5377 -0.2443
  684MPD2    H710126   0.606   1.054  16.263  0.4705 -0.9092 -2.1211
  685TMC3    C110127   0.620   0.933  16.037 -0.2638  0.1874 -0.3963
  685TMC3    C210128   0.605   0.866  15.918  0.6100  0.3343  0.0121
  685TMC3    C310129   0.702   0.782  15.870  0.8985 -0.1561  0.0180
  685TMC3    C410130   0.733   0.912  16.109 -0.0288  0.0754 -0.3217
  685TMC3    C510131   0.829   0.831  16.056  0.3074  0.7889  0.3598
  685TMC3    C610132   0.819   0.764  15.938  0.0116 -0.6330 -0.0726
  685TMC3     C10133   0.496   0.993  16.102 -0.1959 -0.1907 -0.4380
  685TMC3     O10134   0.390   0.992  16.043 -0.3282 -0.3361  0.2283
  685TMC3     H10135   0.513   0.883  15.864  0.7123  1.4375  0.1937
  685TMC3    H110136   0.752   0.956  16.206 -1.4962 -0.2180  0.1088
  685TMC3    H210137   0.902   0.702  15.905  0.6260 -0.3975  1.0447
  685TMC3    C710138   0.948   0.818  16.142 -1.1774 -0.7922  0.0040
  685TMC3    C810139   0.674   0.717  15.739  0.5639 -0.3713 -0.1115
  685TMC3    O110140   0.928   0.811  16.262 -0.7684  0.0867  0.0354
  685TMC3    O210141   0.768   0.688  15.663  0.0742  0.1064  0.1918
  686MPD2     C10142   1.732   0.271  15.424  0.1201  0.3997 -0.0814
  686MPD2    C110143   1.793   0.222  15.537  0.0219 -0.5471  0.1490
  686MPD2    C210144   1.866   0.107  15.546  0.3328  0.2010 -0.3170
  686MPD2    C310145   1.865   0.029  15.430  0.1598 -0.8539  0.8669
  686MPD2    C410146   1.804   0.074  15.310  0.1176  0.2155 -0.2233
  686MPD2    C510147   1.733   0.188  15.309  0.4677 -1.0337 -0.4106
  686MPD2     H10148   1.921   0.084  15.637  1.1652 -0.5426 -1.0183
  686MPD2    H110149   1.802   0.017  15.218 -0.4543 -1.4148  0.7984
  686MPD2    H210150   1.674   0.363  15.419  0.3420  0.4430 -1.7941
  686MPD2    H310151   1.669   0.207  15.223  1.9149  2.6578 -0.6841
  686MPD2     N10152   1.915   4.618  15.418 -0.9474 -0.2944 -0.1782
  686MPD2    H510153   1.931   4.595  15.321 -0.8005 -0.0201 -0.2160
  686MPD2    N110154   1.759   0.294  15.655 -0.5555 -0.4503 -0.0057
  686MPD2    H710155   1.692   0.371  15.648 -1.6745 -1.3273  1.0496
  687TMC3    C110156   1.939   4.566  15.644 -0.4308  0.5701  0.0868
  687TMC3    C210157   1.810   4.558  15.682 -0.8779  0.4862  0.0513
  687TMC3    C310158   1.781   4.558  15.819 -0.0272  0.2959 -0.2690
  687TMC3    C410159   2.044   4.565  15.736 -0.3872  0.3257 -0.3172
  687TMC3    C510160   2.012   4.563  15.865 -0.2100 -1.2852  0.1375
  687TMC3    C610161   1.881   4.562  15.909  0.7466  0.4111 -0.2373
  687TMC3     C10162   1.991   4.557  15.512  0.2840 -0.1637  0.4477
  687TMC3     O10163   2.074   4.471  15.492  0.3698  0.9074  0.1290
  687TMC3     H10164   1.735   4.558  15.604  0.1545  0.1217 -0.9418
  687TMC3    H110165   2.149   4.561  15.711 -0.1470 -1.1945  0.9728
  687TMC3    H210166   1.866   4.574  16.016 -2.0631  2.0395 -0.8176
  687TMC3    C710167   2.096   4.630  15.962 -0.1399 -0.3169 -0.8220
  687TMC3    C810168   1.666   4.633  15.866  0.2494  1.1669  0.1721
  687TMC3    O110169   2.085   4.610  16.083 -0.0304 -0.0767 -0.7426
  687TMC3    O210170   1.647   4.616  15.989  0.1043  0.0226  0.0068
  688MPD2     C10171   1.447   3.953  17.496  0.3483 -0.0721  0.7622
  688MPD2    C110172   1.464   3.814  17.502 -0.0305 -0.6189  0.5264
  688MPD2    C210173   1.526   3.751  17.394  0.4401  0.3509  0.2248
  688MPD2    C310174   1.562   3.815  17.277 -0.2386 -0.7181 -0.6326
  688MPD2    C410175   1.548   3.954  17.277  0.2692  0.2056 -0.7884
  688MPD2    C510176   1.493   4.017  17.384 -0.0466 -0.4689  0.6687
  688MPD2     H10177   1.549   3.646  17.409  0.6436  0.0760 -1.9655
  688MPD2    H110178   1.581   4.005  17.187  1.5732  0.9221  0.0978
  688MPD2    H210179   1.404   4.015  17.575 -1.0097 -0.3896  0.2769
  688MPD2    H310180   1.473   4.124  17.381  1.2641 -0.3225 -1.8512
  688MPD2     N10181   1.628   3.758  17.164 -0.5900 -0.2910  0.2401
  688MPD2    H510182   1.646   3.825  17.090 -2.7492 -1.1454 -1.0541
  688MPD2    N110183   1.423   3.743  17.619 -0.5305 -0.2829  0.4721
  688MPD2    H710184   1.424   3.642  17.605  2.0843 -0.2453  0.4074
  689TMC3    C110185   1.368   3.700   0.159  0.1281  0.5593 -0.4643
  689TMC3    C210186   1.370   3.756   0.286  0.5714  0.0342 -0.6232
  689TMC3    C310187   1.317   3.685   0.391  0.3558 -0.0828  0.6786
  689TMC3    C410188   1.312   3.574   0.140 -0.1951  0.2375  0.3557
  689TMC3    C510189   1.247   3.519   0.248  0.0915  0.3584  0.0967
  689TMC3    C610190   1.250   3.567   0.373  0.5972 -0.0586 -0.2346
  689TMC3     C10191   1.386   3.798   0.050 -0.1131 -0.0147 -0.3366
  689TMC3     O10192   1.337   3.910   0.072 -0.4168 -0.0157 -0.0882
  689TMC3     H10193   1.430   3.846   0.294  2.4594 -1.2834  0.2961
  689TMC3    H110194   1.295   3.537   0.040  0.9913 -0.8376  0.5557
  689TMC3    H210195   1.196   3.527   0.458  0.6004 -0.5437 -0.4592
  689TMC3    C710196   1.162   3.398   0.244 -0.6788  0.2887 -0.0455
  689TMC3    C810197   1.255   3.765   0.499  0.1596  0.1970  0.1110
  689TMC3    O110198   1.131   3.343   0.350 -0.0792 -0.2485 -0.1070
  689TMC3    O210199   1.205   3.711   0.593 -0.3477  0.1931  0.6850
  690MPD2     C10200   3.117   1.394  15.091  0.3645 -0.2753 -0.1546
  690MPD2    C110201   3.178   1.295  15.169  0.7990 -0.1428  0.4519
  690MPD2    C210202   3.317   1.292  15.182 -0.5741 -0.1702 -0.5123
  690MPD2    C310203   3.395   1.387  15.122 -0.2726  0.9806  0.4965
  690MPD2    C410204   3.330   1.482  15.038 -0.8139 -0.5602 -0.5422
  690MPD2    C510205   3.195   1.487  15.019  0.5839 -0.5131 -0.6255
  690MPD2     H10206   3.363   1.224  15.252 -1.8579  1.5720  2.0434
  690MPD2    H110207   3.393   1.555  14.989 -1.5100  0.1436 -0.4007
  690MPD2    H210208   3.010   1.399  15.080  0.2624 -0.4503  0.8209
  690MPD2    H310209   3.153   1.559  14.950 -0.3684 -0.1957  0.2832
  690MPD2     N10210   3.530   1.395  15.153 -0.3956  0.1088  0.2881
  690MPD2    H510211   3.560   1.347  15.237 -1.5369 -2.4924 -0.7830
  690MPD2    N110212   3.107   1.199  15.240 -0.0293  0.3335 -0.4691
  690MPD2    H710213   3.156   1.137  15.304 -1.4394  0.0171  0.3106
  691TMC3    C110214   2.916   1.071  15.307  0.2699  0.0806 -0.0947
  691TMC3    C210215   2.781   1.082  15.330  0.3130 -0.1691  0.3391
  691TMC3    C310216   2.733   0.979  15.406 -0.3435  0.5743 -0.4786
  691TMC3    C410217   3.002   0.968  15.340 -0.1912 -0.0318  0.2912
  691TMC3    C510218   2.944   0.869  15.410  0.2596  0.1638  0.5255
  691TMC3    C610219   2.810   0.878  15.448 -0.3696  0.0022  0.2849
  691TMC3     C10220   2.972   1.190  15.241  0.7862  0.3729 -0.2806
  691TMC3     O10221   2.890   1.247  15.172 -0.4581 -0.0823 -0.1441
  691TMC3     H10222   2.731   1.176  15.309 -0.7843 -0.9894 -0.6879
  691TMC3    H110223   3.104   0.953  15.304 -0.5887 -1.4332 -0.2452
  691TMC3    H210224   2.762   0.819  15.525 -0.8674  0.3593  0.2519
  691TMC3    C710225   3.025   0.766  15.470 -0.1262  0.4369  0.0406
  691TMC3    C810226   2.588   0.965  15.427  0.4356  0.1496 -0.1476
  691TMC3    O110227   3.146   0.789  15.468  0.5853  0.2460  0.5291
  691TMC3    O210228   2.548   0.846  15.431  0.1045  0.0536  0.2049
  692TMC3    C110229   0.446   2.042  15.798 -0.0367  0.0173 -0.2645
  692TMC3    C210230   0.477   2.135  15.704  0.2904  0.1763 -0.2984
  692TMC3    C310231   0.607   2.161  15.672  0.1647  0.3507  0.2810
  692TMC3    C410232   0.534   1.986  15.884 -0.2419 -0.5177  0.2387
  692TMC3    C510233   0.663   2.015  15.841 -0.3184 -0.3718 -0.2892
  692TMC3    C610234   0.702   2.100  15.742 -0.6056 -0.3769  0.3508
  692TMC3     C10235   0.302   2.027  15.814  0.5429 -0.1369  0.6425
  692TMC3     O10236   0.268   2.000  15.928 -0.6422  0.0049 -0.0352
  692TMC3     H10237   0.399   2.176  15.640 -0.5405  1.1813  1.3640
  692TMC3    H110238   0.503   1.929  15.971 -0.1300 -0.7955  0.0995
  692TMC3    H210239   0.805   2.101  15.707 -1.0590  1.7549 -0.9079
  692TMC3    C710240   0.756   1.916  15.877  0.9912 -0.1228  0.3309
  692TMC3    C810241   0.648   2.297  15.671  0.2105  0.5167 -0.0575
  692TMC3    O110242   0.863   1.919  15.813  0.9210 -0.1137 -0.2076
  692TMC3    O210243   0.754   2.323  15.618 -0.4565 -0.0626  0.9239
  693MPD2     C10244   4.102   4.668  11.099  0.0302 -0.4579  0.8665
  693MPD2    C110245   4.130   4.545  11.035  0.4840  0.4325  0.5767
  693MPD2    C210246   4.255   4.495  11.023  0.8587 -0.4508 -0.7350
  693MPD2    C310247   4.354   4.563  11.087  0.0018  0.5379 -0.1152
  693MPD2    C410248   4.333   4.677  11.160  0.5537  0.1563  0.1831
  693MPD2    C510249   4.207   0.009  11.156 -0.7888  0.0060  0.9340
  693MPD2     H10250   4.268   4.393  10.986  2.2904 -0.1637 -1.0239
  693MPD2    H110251   4.408   0.020  11.205  0.7357  0.4159 -0.4882
  693MPD2    H210252   4.007   4.720  11.107  0.0612 -0.0479 -1.5086
  693MPD2    H310253   4.178   0.101  11.206 -1.9801  1.3283 -2.2079
  693MPD2     N10254   4.486   4.514  11.098  0.2156 -0.1185  0.3745
  693MPD2    H510255   4.554   4.568  11.150 -0.6253  0.1566  1.1871
  693MPD2    N110256   4.018   4.478  10.986  0.3104  0.5214  0.4584
  693MPD2    H710257   3.926   4.498  11.024 -0.9740  0.9143 -2.8601
  694TMC3    C110258   3.917   4.275  10.918  0.2031  0.0609  0.1954
  694TMC3    C210259   3.877   4.205  10.804  0.9240  0.6390 -0.0670
  694TMC3    C310260   3.785   4.102  10.830  0.1432  0.1347  0.0449
  694TMC3    C410261   3.870   4.240  11.041  0.5636  0.2445  0.0097
  694TMC3    C510262   3.791   4.131  11.064 -0.0730  0.6750 -0.4316
  694TMC3    C610263   3.747   4.062  10.955 -0.4514  0.1769  0.3226
  694TMC3     C10264   4.021   4.365  10.900  0.0733  0.0903  0.0577
  694TMC3     O10265   4.098   4.343  10.809 -0.1029 -0.2892  0.2399
  694TMC3     H10266   3.893   4.247  10.706  0.1690 -0.6624 -0.7478
  694TMC3    H110267   3.903   4.299  11.126  1.0355  0.1343 -0.1013
  694TMC3    H210268   3.704   3.964  10.969 -0.0585 -0.5414 -3.5367
  694TMC3    C710269   3.784   4.082  11.199 -0.0213  0.0937 -0.0354
  694TMC3    C810270   3.702   4.039  10.726  0.0962  0.3523  0.4464
  694TMC3    O110271   3.858   4.133  11.282 -0.3060 -0.3457  0.1953
  694TMC3    O210272   3.669   3.922  10.745 -0.1519 -0.8401 -0.2881
  695MPD2     C10273   1.284   2.102  13.020 -0.2029 -0.0014 -0.6344
  695MPD2    C110274   1.194   2.127  13.123 -0.1834  0.7935  0.2049
  695MPD2    C210275   1.073   2.191  13.095  0.3722  0.0713  0.3997
  695MPD2    C310276   1.043   2.245  12.976  0.1149  0.2433 -0.0332
  695MPD2    C410277   1.139   2.236  12.872  0.2466 -0.3010 -0.2698
  695MPD2    C510278   1.255   2.160  12.898 -0.8463  0.0412  0.0979
  695MPD2     H10279   1.012   2.212  13.182  0.9109 -2.4172  1.3800
  695MPD2    H110280   1.126   2.277  12.773  2.1066 -0.8827 -0.7418
  695MPD2    H210281   1.388   2.073  13.033 -0.1926  0.4894  0.4438
  695MPD2    H310282   1.334   2.146  12.825 -0.6753 -1.6231  0.5992
  695MPD2     N10283   0.918   2.319  12.963  0.3346  0.5403 -0.5462
  695MPD2    H510284   0.851   2.306  13.039  0.3877  0.5946 -0.4902
  695MPD2    N110285   1.224   2.085  13.258  0.0739 -0.6782 -0.0789
  695MPD2    H710286   1.166   2.118  13.334  1.7112  0.0947  0.8212
  696TMC3    C110287   0.735   2.425  12.852  0.2910 -0.2269 -0.5170
  696TMC3    C210288   0.647   2.368  12.941  0.2113 -0.6638  0.0389
  696TMC3    C310289   0.532   2.436  12.972 -0.8707  0.7118 -0.1063
  696TMC3    C410290   0.715   2.554  12.810  0.9463  0.1180  0.2330
  696TMC3    C510291   0.617   2.626  12.871  0.9645 -0.1636  0.4713
  696TMC3    C610292   0.509   2.566  12.930  0.0411  0.1262  0.4139
  696TMC3     C10293   0.877   2.391  12.848 -0.5088  0.8076  0.1722
  696TMC3     O10294   0.944   2.449  12.767 -0.1333 -0.2837 -0.4706
  696TMC3     H10295   0.667   2.269  12.979  1.8895 -0.7755 -1.0932
  696TMC3    H110296   0.790   2.597  12.743 -0.9736  2.0635 -0.6773
  696TMC3    H210297   0.420   2.624  12.952  0.3777  0.0462  1.9996
  696TMC3    C710298   0.623   2.769  12.870  0.1836 -0.2190 -0.0910
  696TMC3    C810299   0.479   2.401  13.107  0.0845  0.4058 -0.0457
  696TMC3    O110300   0.706   2.824  12.794 -0.0930  0.1113  0.3515
  696TMC3    O210301   0.554   2.350  13.190  0.4795  0.5870 -0.3860
  697MPD2     C10302   4.249   4.199  15.305  0.3400  0.1468 -0.1807
  697MPD2    C110303   4.329   4.114  15.225  0.1614  0.4992  0.0315
  697MPD2    C210304   4.451   4.163  15.169 -0.1224  0.1537  0.5570
  697MPD2    C310305   4.497   4.284  15.209  0.5021  0.0776 -0.2788
  697MPD2    C410306   4.423   4.353  15.304 -0.3382  0.0280  0.8722
  697MPD2    C510307   4.298   4.310  15.353  0.8509  0.6572  0.2171
  697MPD2     H10308   4.505   4.096  15.103 -1.3361 -0.3511  0.0728
  697MPD2    H110309   4.461   4.447  15.342 -1.2852  0.3473  1.0122
  697MPD2    H210310   4.162   4.157  15.355 -0.0413  0.1328 -0.8616
  697MPD2    H310311   4.249   4.357  15.437 -1.0116  0.9725 -1.0337
  697MPD2     N10312   4.622   4.328  15.161  0.2170  1.1152 -0.3418
  697MPD2    H510313   4.663   4.271  15.088 -0.9666  0.6738 -0.6708
  697MPD2    N110314   4.294   3.983  15.192  0.4434  0.2327 -0.2975
  697MPD2    H710315   4.360   3.927  15.138 -0.1720  1.3627 -2.1971
  698TMC3    C110316   0.085   4.459  15.111 -0.4971  0.6028  0.4518
  698TMC3    C210317   0.164   4.567  15.141  0.5347 -0.2982  0.4293
  698TMC3    C310318   0.271   4.600  15.066  0.4248  0.2389 -0.9870
  698TMC3    C410319   0.079   4.405  14.986 -0.3016  0.6020  0.4568
  698TMC3    C510320   0.176   4.451  14.900 -0.3560 -0.3461  0.2309
  698TMC3    C610321   0.278   4.541  14.940 -0.1680 -0.2652 -0.6209
  698TMC3     C10322   4.695   4.436  15.202  0.0387 -0.3229 -0.3807
  698TMC3     O10323   4.665   4.512  15.292  0.0294  0.1934  0.4640
  698TMC3     H10324   0.140   4.618  15.234 -2.2852  1.3087 -1.1689
  698TMC3    H110325   0.011   4.333  14.942 -0.1520  0.3711  0.6083
  698TMC3    H210326   0.358   4.580  14.878 -0.7183  1.4750 -0.2203
  698TMC3    C710327   0.197   4.379  14.776  0.3053 -0.1809 -0.1323
  698TMC3    C810328   0.344   0.005  15.096 -0.3532  0.3962  0.1798
  698TMC3    O110329   0.096   4.327  14.732 -0.1161  0.0207 -0.0679
  698TMC3    O210330   0.306   0.068  15.189  0.5827 -0.2395 -0.2119
  699TMC3    C110331   0.402   2.053  13.204 -0.1448  0.6925  0.5825
  699TMC3    C210332   0.434   1.950  13.286  0.0406 -0.0863  0.5063
  699TMC3    C310333   0.372   1.954  13.412 -0.1814 -0.5736 -0.2744
  699TMC3    C410334   0.301   2.141  13.236  0.1429 -0.4791 -0.2515
  699TMC3    C510335   0.252   2.151  13.361  0.6145 -0.0209 -0.1625
  699TMC3    C610336   0.278   2.050  13.453  0.4512 -0.3131 -0.0188
  699TMC3     C10337   0.408   2.038  13.056 -0.0794  0.1029  0.2965
  699TMC3     O10338   0.313   2.075  12.990  0.9652 -0.9458 -0.0272
  699TMC3     H10339   0.505   1.875  13.255 -0.3095 -0.5836  0.9143
  699TMC3    H110340   0.289   2.228  13.172 -0.0625 -1.5074 -1.5994
  699TMC3    H210341   0.230   2.042  13.550  2.1346  2.4533  1.0374
  699TMC3    C710342   0.124   2.213  13.378 -0.6776  0.2763 -0.3697
  699TMC3    C810343   0.382   1.845  13.512  0.0581 -0.0562 -0.1297
  699TMC3    O110344   0.073   2.187  13.485 -0.3444 -0.5514 -0.9922
  699TMC3    O210345   0.311   1.850  13.612 -0.0956  0.5517 -0.3874
  700TMC3    C110346   4.141   4.715  17.315 -0.0966  0.8600  0.0289
  700TMC3    C210347   4.183   4.596  17.367 -0.4020  0.3781 -0.3024
  700TMC3    C310348   4.244   4.600  17.485 -0.2888 -0.3134  0.3675
  700TMC3    C410349   4.158   0.113  17.376 -0.3743 -0.6074 -0.1193
  700TMC3    C510350   4.222   0.111  17.499  0.2315  0.4558  0.0326
  700TMC3    C610351   4.265   4.716  17.555  0.3010  0.6365  0.2490
  700TMC3     C10352   4.137   4.703  17.168  0.3650  0.3874  0.2387
  700TMC3     O10353   4.144   4.592  17.124 -0.1785  0.2858 -0.0619
  700TMC3     H10354   4.158   4.504  17.316 -2.8651 -0.0971  1.7576
  700TMC3    H110355   4.098   0.196  17.338  0.8541 -0.5092 -1.8275
  700TMC3    H210356   4.309   4.717  17.654 -2.3497 -1.4353  1.4357
  700TMC3    C710357   4.193   0.220  17.594  0.4444  0.0307  0.4220
  700TMC3    C810358   4.323   4.484  17.510  0.1891 -0.2040 -0.7168
  700TMC3    O110359   4.211   0.204   0.026 -0.0483  0.4402 -0.8012
  700TMC3    O210360   4.303   4.384  17.440 -0.3477  0.3671 -0.2000
  701TMC3    C110361   3.707   3.325  15.314 -0.9464 -0.3820 -0.4867
  701TMC3    C210362   3.735   3.306  15.181 -0.0689 -0.1646  0.1411
  701TMC3    C310363   3.763   3.416  15.110 -0.4946 -0.0167 -0.2706
  701TMC3    C410364   3.709   3.448  15.373 -0.0201 -0.6352  0.8199
  701TMC3    C510365   3.728   3.550  15.294 -0.1404 -1.0075 -0.0024
  701TMC3    C610366   3.750   3.540  15.164 -0.0630  0.6850  0.2104
  701TMC3     C10367   3.654   3.218  15.390 -1.0542  0.1421  0.7359
  701TMC3     O10368   3.617   3.247  15.503  0.0861 -0.1230  0.5940
  701TMC3     H10369   3.747   3.206  15.141 -0.3013 -0.4552  0.7917
  701TMC3    H110370   3.718   3.458  15.481  0.2706  1.4576  0.5885
  701TMC3    H210371   3.775   3.627  15.103 -1.2713 -0.7532 -2.3543
  701TMC3    C710372   3.731   3.690  15.341  0.1402  0.4941 -0.3070
  701TMC3    C810373   3.783   3.403  14.965 -0.3592 -0.6125  0.3006
  701TMC3    O110374   3.699   3.771  15.259  0.5663 -0.3946  0.5009
  701TMC3    O210375   3.852   3.491  14.909 -0.1032 -0.3220  0.0401
  702MPD2     C10376   3.663   4.621  10.393 -0.4405  0.2255 -0.5228
  702MPD2    C110377   3.628   0.019  10.459  0.4634  0.1432 -0.2559
  702MPD2    C210378   3.672   0.133  10.400  0.2235 -0.7048  0.2775
  702MPD2    C310379   3.725   0.143  10.277 -0.5321 -0.2188 -0.7516
  702MPD2    C410380   3.744   0.025  10.211 -0.2098  0.0089 -0.3159
  702MPD2    C510381   3.713   4.624  10.271  0.3609 -0.5097 -0.2780
  702MPD2     H10382   3.659   0.223  10.460 -0.4381 -0.7125  0.1378
  702MPD2    H110383   3.763   0.014  10.105 -0.9016 -0.6199 -0.3721
  702MPD2    H210384   3.629   4.533  10.447 -2.6057  1.9302  0.9393
  702MPD2    H310385   3.725   4.533  10.214  3.5000 -0.8344  0.8842
  702MPD2     N10386   3.743   0.263  10.202 -0.2882 -0.2942  0.1714
  702MPD2    H510387   3.699   0.344  10.246 -0.9338  0.3162 -1.5812
  702MPD2    N110388   3.563   0.036  10.581  0.2279  0.0765 -0.0067
  702MPD2    H710389   3.539   0.129  10.613 -0.6876 -0.1077 -0.1360
  703TMC3    C110390   3.780   0.414  10.035  0.3885 -0.5254  0.3225
  703TMC3    C210391   3.656   0.468  10.048  0.9660  0.9927  0.0796
  703TMC3    C310392   3.639   0.593   9.999  0.3380  0.3683  0.6920
  703TMC3    C410393   3.888   0.485   9.990 -0.4168  0.2186  0.0069
  703TMC3    C510394   3.861   0.614   9.949  0.2236  0.3383 -0.4980
  703TMC3    C610395   3.738   0.666   9.945  0.2052 -0.0312 -0.2931
  703TMC3     C10396   3.804   0.280  10.079 -0.6984  0.7223 -0.3027
  703TMC3     O10397   3.886   0.213  10.017  0.1994  0.2960 -0.3124
  703TMC3     H10398   3.576   0.410  10.093  0.9129  1.6183  0.7742
  703TMC3    H110399   3.986   0.438   9.986  0.4809  2.1103 -0.5861
  703TMC3    H210400   3.721   0.768   9.911  0.4645  0.6083  1.4426
  703TMC3    C710401   3.959   0.708   9.987 -0.3320  0.4360  0.2268
  703TMC3    C810402   3.506   0.619   9.949 -0.5707 -0.6666 -0.5923
  703TMC3    O110403   3.954   0.815   9.927 -0.1056  0.2219 -0.2337
  703TMC3    O210404   3.495   0.616   9.829 -0.2422 -0.1841 -0.1277
  704TMC3    C110405   1.294   3.767  11.924  0.9153 -0.0693  0.5465
  704TMC3    C210406   1.402   3.821  11.864 -0.7230 -0.0687  0.3173
  704TMC3    C310407   1.515   3.830  11.934  0.6826 -0.3106 -0.2828
  704TMC3    C410408   1.291   3.748  12.058  0.1401 -0.4934  0.2990
  704TMC3    C510409   1.399   3.786  12.129  0.1709  0.3200  0.1439
  704TMC3    C610410   1.518   3.828  12.070 -0.9195 -0.1979 -0.1587
  704TMC3     C10411   1.205   3.681  11.843  0.0464  0.2272  0.3682
  704TMC3     O10412   1.100   3.638  11.889  0.3463  0.0391  0.1116
  704TMC3     H10413   1.408   3.833  11.756 -0.2266  0.7294  0.4314
  704TMC3    H110414   1.215   3.687  12.105  1.0320 -1.4519  0.5275
  704TMC3    H210415   1.600   3.846  12.138  0.8465 -0.5435 -2.2011
  704TMC3    C710416   1.428   3.701  12.240  0.2471 -0.5623  0.1573
  704TMC3    C810417   1.608   3.733  11.884 -0.4552 -0.3764  0.1990
  704TMC3    O110418   1.533   3.643  12.227  0.1507  0.3926 -0.7113
  704TMC3    O210419   1.590   3.689  11.775  0.3854  0.3476 -0.5313
  705MPD2     C10420   0.791   2.119  16.360  0.0649 -0.6015  0.2514
  705MPD2    C110421   0.731   2.241  16.324 -0.2066 -0.1484 -0.1982
  705MPD2    C210422   0.660   2.305  16.422 -0.5494  0.2978 -0.3087
  705MPD2    C310423   0.632   2.244  16.548  0.5176 -0.2180  0.1921
  705MPD2    C410424   0.680   2.121  16.577  0.2341 -0.0827 -0.0533
  705MPD2    C510425   0.760   2.059  16.481  0.0591  0.2857 -0.3647
  705MPD2     H10426   0.623   2.406  16.407 -0.6724  0.4439  1.0148
  705MPD2    H110427   0.657   2.076  16.673 -1.5816  0.2769 -0.3170
  705MPD2    H210428   0.857   2.065  16.293 -0.2282 -0.2667 -0.3092
  705MPD2    H310429   0.805   1.965  16.513 -1.3326 -0.3538 -0.2774
  705MPD2     N10430   0.558   2.301  16.659 -0.6021 -0.6018  0.3617
  705MPD2    H510431   0.540   2.242  16.740 -1.8660 -1.1540 -0.3230
  705MPD2    N110432   0.762   2.311  16.206 -1.1176  0.1426 -0.5053
  705MPD2    H710433   0.718   2.401  16.191  2.1342  1.7025 -0.5539
  706TMC3    C110434   1.000   2.380  15.809 -0.4296 -0.3550 -0.2875
  706TMC3    C210435   1.025   2.507  15.850 -0.2765  0.4252  1.0134
  706TMC3    C310436   0.986   2.554  15.971 -0.3295 -0.2044 -0.4023
  706TMC3    C410437   0.931   2.293  15.887  0.1357 -0.7240  0.7441
  706TMC3    C510438   0.877   2.349  16.004  0.0243  0.4879 -0.2105
  706TMC3    C610439   0.895   2.479  16.049  0.6049 -0.1351  0.6671
  706TMC3     C10440   1.078   2.329  15.699  0.5148 -0.3288 -0.3069
  706TMC3     O10441   1.188   2.370  15.686  0.5490  0.5189 -0.7852
  706TMC3     H10442   1.089   2.563  15.782  0.1691  1.2517  2.1059
  706TMC3    H110443   0.918   2.186  15.872  0.2714 -1.1194  3.4213
  706TMC3    H210444   0.841   2.520  16.134 -0.3471 -0.1839  0.0856
  706TMC3    C710445   0.832   2.253  16.106  0.2139  0.0058 -0.1430
  706TMC3    C810446   0.993   2.700  15.990  0.8655 -0.8272 -0.4656
  706TMC3    O110447   0.846   2.136  16.077  0.2149 -0.0789  0.5312
  706TMC3    O210448   1.013   2.771  15.891 -0.8183 -0.6831  0.1188
  707TMC3    C110449   1.666   0.495   0.941 -0.2543 -0.3891  0.1430
  707TMC3    C210450   1.796   0.448   0.953  0.3328 -0.1271 -0.3584
  707TMC3    C310451   1.821   0.342   1.040 -0.2612 -0.4853 -0.3778
  707TMC3    C410452   1.568   0.435   1.024  0.0559  0.0415  0.1121
  707TMC3    C510453   1.596   0.330   1.109 -0.4130 -0.3819 -0.6058
  707TMC3    C610454   1.722   0.281   1.120  0.2681 -0.1392  0.0358
  707TMC3     C10455   1.626   0.580   0.837 -0.3723 -0.3868  0.5253
  707TMC3     O10456   1.713   0.614   0.761  0.4191 -0.1917  0.3419
  707TMC3     H10457   1.877   0.486   0.892 -0.5973 -0.9129 -2.0927
  707TMC3    H110458   1.462   0.449   1.010 -0.0902 -1.2669 -0.1046
  707TMC3    H210459   1.744   0.211   1.200  0.2905 -0.8244 -0.5678
  707TMC3    C710460   1.506   0.276   1.208 -0.4409 -0.4615 -0.3208
  707TMC3    C810461   1.956   0.295   1.035 -0.6023  0.0599  0.0709
  707TMC3    O110462   1.537   0.171   1.270  0.3216 -0.4961  0.1678
  707TMC3    O210463   2.024   0.359   0.957 -0.0380 -0.5858  0.0110
  708MPD2     C10464   4.290   0.303  13.710 -0.2479  0.6912 -0.5501
  708MPD2    C110465   4.181   0.380  13.739 -0.2686 -0.5171 -0.1447
  708MPD2    C210466   4.146   0.394  13.871 -0.6255  0.7010 -0.4396
  708MPD2    C310467   4.213   0.321  13.971 -0.4433 -0.2617 -0.2064
  708MPD2    C410468   4.327   0.253  13.939 -0.0105 -0.4410  0.1088
  708MPD2    C510469   4.377   0.257  13.809 -0.1943  0.5036  0.0607
  708MPD2     H10470   4.056   0.446  13.904 -1.1405  1.6171 -3.2846
  708MPD2    H110471   4.369   0.190  14.016 -2.0445  1.2044  2.5247
  708MPD2    H210472   4.323   0.286  13.608  0.9565 -0.8908  0.0963
  708MPD2    H310473   4.462   0.194  13.785 -0.4961  0.2903 -0.4414
  708MPD2     N10474   4.165   0.308  14.102  0.3479  0.5797  0.0142
  708MPD2    H510475   4.221   0.271  14.179  1.4637 -2.8785 -2.4583
  708MPD2    N110476   4.118   0.455  13.639  0.6336  0.3662 -0.4613
  708MPD2    H710477   4.151   0.454  13.543 -0.3310 -0.0461 -0.7909
  709TMC3    C110478   3.984   0.629  13.559  0.1381 -0.0552  0.6798
  709TMC3    C210479   3.935   0.572  13.452  0.4187 -0.6212 -0.3612
  709TMC3    C310480   3.828   0.627  13.395  0.4350 -0.1901 -0.3771
  709TMC3    C410481   3.936   0.747  13.609  0.1833 -0.2140 -1.2231
  709TMC3    C510482   3.824   0.798  13.562  0.0138  0.1514  0.2913
  709TMC3    C610483   3.769   0.742  13.446 -0.5209 -0.3207 -0.6052
  709TMC3     C10484   4.023   0.552  13.669 -0.1938  0.2930  0.1170
  709TMC3     O10485   3.968   0.587  13.775 -0.5030  0.0586 -0.1176
  709TMC3     H10486   3.960   0.468  13.435  1.0939 -0.3394 -1.0619
  709TMC3    H110487   3.984   0.800  13.691 -0.2166 -0.1010 -1.0613
  709TMC3    H210488   3.672   0.768  13.404 -0.8568 -2.4498 -1.1297
  709TMC3    C710489   3.724   0.830  13.659 -0.7858 -0.0243  0.3050
  709TMC3    C810490   3.789   0.616  13.255  0.4070  0.8147 -0.0157
  709TMC3    O110491   3.614   0.869  13.616  0.7230 -0.1896 -0.2530
  709TMC3    O210492   3.728   0.705  13.200  0.7145  0.0993 -0.0699
  710TMC3    C110493   4.695   1.527   0.442 -0.2921  0.1861 -0.9770
  710TMC3    C210494   0.070   1.529   0.349  0.8242 -0.1274 -0.1624
  710TMC3    C310495   0.182   1.461   0.366 -0.4196  0.2302  0.2799
  710TMC3    C410496   4.690   1.445   0.549 -0.6105  0.3695 -0.3049
  710TMC3    C510497   0.078   1.357   0.551 -0.4868  0.0532 -0.0962
  710TMC3    C610498   0.198   1.370   0.472 -0.1469 -0.5756 -0.3015
  710TMC3     C10499   4.623   1.655   0.458 -0.1784 -0.3264 -0.2946
  710TMC3     O10500   4.635   1.734   0.365  0.9715 -0.2177 -0.0395
  710TMC3     H10501   0.061   1.591   0.260  0.8366  0.6895  0.4104
  710TMC3    H110502   4.591   1.430   0.590 -0.3927  2.4689  0.9924
  710TMC3    H210503   0.288   1.310   0.472 -0.6364 -1.3202 -2.6975
  710TMC3    C710504   0.058   1.222   0.612 -0.2272 -0.1460 -0.5257
  710TMC3    C810505   0.300   1.500   0.287  0.4596 -0.4046 -0.4459
  710TMC3    O110506   4.684   1.221   0.693  0.7261 -0.4146 -0.5626
  710TMC3    O210507   0.275   1.550   0.177 -0.1556  0.4229  0.3766
  711TMC3    C110508   0.031   2.910  14.868  0.5091 -0.1016  0.2282
  711TMC3    C210509   4.658   2.975  14.941 -0.9159  0.3446 -0.1299
  711TMC3    C310510   4.702   3.086  15.004  0.1431  0.0861  0.1238
  711TMC3    C410511   0.163   2.950  14.833  0.1766  0.6710  0.4262
  711TMC3    C510512   0.193   3.067  14.897  0.0663 -0.0492  0.1492
  711TMC3    C610513   0.111   3.132  14.986  0.0381  0.8458 -0.4298
  711TMC3     C10514   4.713   2.788  14.807  0.6149 -0.9132  0.1751
  711TMC3     O10515   4.592   2.772  14.790  0.0935  0.1934  0.2456
  711TMC3     H10516   4.562   2.937  14.975 -1.6223  1.5436 -0.7681
  711TMC3    H110517   0.230   2.901  14.763 -1.0515  1.3564 -1.2216
  711TMC3    H210518   0.135   3.227  15.033 -2.3647  1.2787 -0.0394
  711TMC3    C710519   0.333   3.090  14.927 -0.7630  0.0512  0.1058
  711TMC3    C810520   4.645   3.097  15.131  0.2997 -0.5633 -0.3949
  711TMC3    O110521   0.363   3.172  15.013  0.1805  0.4515 -0.0324
  711TMC3    O210522   4.529   3.065  15.146 -0.1639  0.9545  0.5308
  712MPD2     C10523   1.623   4.140  13.480  0.3584 -0.5594  0.0133
  712MPD2    C110524   1.529   4.146  13.371  0.3051  0.1867  0.3114
  712MPD2    C210525   1.567   4.209  13.256  0.2843 -0.4240 -0.0085
  712MPD2    C310526   1.696   4.269  13.245 -0.4195 -0.8857 -0.1918
  712MPD2    C410527   1.778   4.269  13.353 -0.5119 -0.1598 -0.3343
  712MPD2    C510528   1.739   4.206  13.467  0.8227  0.2805  0.4403
  712MPD2     H10529   1.495   4.209  13.176 -0.2068 -0.5957  0.4309
  712MPD2    H110530   1.877   4.312  13.351  0.5316 -2.4534  2.1994
  712MPD2    H210531   1.596   4.099  13.577  0.1913  1.8714  1.0197
  712MPD2    H310532   1.808   4.217  13.550  2.4278  3.1944 -1.2801
  712MPD2     N10533   1.745   4.327  13.127 -0.6566  0.2207 -0.7051
  712MPD2    H510534   1.834   4.376  13.132 -1.1682  0.7504  3.4067
  712MPD2    N110535   1.402   4.089  13.367  0.2557 -0.9077  0.1036
  712MPD2    H710536   1.339   4.094  13.287 -3.3307 -3.1033  2.8025
  713TMC3    C110537   1.756   4.387  12.890 -0.5941  0.0627  0.1568
  713TMC3    C210538   1.890   4.415  12.889  0.5411  0.0707  0.3644
  713TMC3    C310539   1.947   4.511  12.810  0.2794  0.2000  0.7614
  713TMC3    C410540   1.678   4.452  12.800  0.0972  0.3046 -0.1504
  713TMC3    C510541   1.728   4.564  12.737 -0.6631 -0.4547 -0.5337
  713TMC3    C610542   1.862   4.596  12.737 -0.9648  0.1828 -0.2972
  713TMC3     C10543   1.690   4.313  13.003  0.2688 -0.0871  0.5203
  713TMC3     O10544   1.594   4.242  12.974  0.3716 -0.4615  0.3039
  713TMC3     H10545   1.950   4.372  12.969  0.3927  2.4173  1.7380
  713TMC3    H110546   1.572   4.429  12.804 -0.2406  1.7664 -0.5397
  713TMC3    H210547   1.909   4.680  12.688 -2.3988  1.8676  1.1962
  713TMC3    C710548   1.647   4.645  12.655 -0.1527 -0.4702  0.5683
  713TMC3    C810549   2.084   4.554  12.819  1.2243 -0.0625  0.6909
  713TMC3    O110550   1.712   4.718  12.582 -0.7663 -0.0671 -0.2097
  713TMC3    O210551   2.118   4.651  12.752 -0.1491  0.0903 -0.0722
  714MPD2     C10552   3.125   2.433   1.555  0.5240 -0.7032  0.0109
  714MPD2    C110553   3.206   2.376   1.457 -0.2962 -0.7240 -0.6104
  714MPD2    C210554   3.179   2.403   1.327  0.2218 -0.5084  0.2478
  714MPD2    C310555   3.080   2.488   1.294 -0.0152  0.5228 -0.4220
  714MPD2    C410556   3.000   2.544   1.397  0.0574  0.1538 -0.0615
  714MPD2    C510557   3.023   2.524   1.527 -0.4054 -0.0649 -0.0329
  714MPD2     H10558   3.243   2.370   1.246  0.9970 -1.0031  1.0586
  714MPD2    H110559   2.913   2.604   1.370 -0.1972  0.0378  0.5087
  714MPD2    H210560   3.130   2.387   1.653 -1.5445 -0.2510  0.3228
  714MPD2    H310561   2.945   2.550   1.598 -0.0632 -0.8620  0.6404
  714MPD2     N10562   3.050   2.515   1.160 -0.2379  0.4347 -0.1796
  714MPD2    H510563   3.114   2.471   1.093  0.3992  1.3895 -0.1974
  714MPD2    N110564   3.314   2.296   1.500  0.7226 -0.0983  0.3928
  714MPD2    H710565   3.339   2.296   1.598  1.5754 -0.8772  0.1756
  715TMC3    C110566   3.519   2.172   1.478  0.6097  0.5523 -0.3015
  715TMC3    C210567   3.592   2.080   1.409 -0.3557  0.3495  0.2611
  715TMC3    C310568   3.732   2.082   1.427  0.3763  0.0888 -0.1882
  715TMC3    C410569   3.584   2.263   1.558 -0.1827  0.2199 -0.9929
  715TMC3    C510570   3.721   2.246   1.588 -0.1282  0.4484 -0.0606
  715TMC3    C610571   3.796   2.159   1.519 -0.5528  0.0367  0.3876
  715TMC3     C10572   3.395   2.221   1.415  0.8426  0.0983 -0.4009
  715TMC3     O10573   3.372   2.180   1.299  0.1732  0.2010  0.4594
  715TMC3     H10574   3.555   2.000   1.346  1.0257  0.1129 -0.2537
  715TMC3    H110575   3.534   2.341   1.614  0.2525 -1.6546  1.9882
  715TMC3    H210576   3.894   2.123   1.548 -0.9455 -1.7193 -0.4706
  715TMC3    C710577   3.789   2.338   1.679  0.0122 -0.2352 -0.0147
  715TMC3    C810578   3.808   2.023   1.321 -0.2056  1.0179 -0.0203
  715TMC3    O110579   3.911   2.338   1.668  0.2432  0.1147  0.0269
  715TMC3    O210580   3.766   1.922   1.264  0.6915  0.0985 -0.2778
  716MPD2     C10581   3.228   4.352   9.072  0.0358  0.1757 -0.6461
  716MPD2    C110582   3.151   4.258   9.009  0.0082 -0.3535 -0.7278
  716MPD2    C210583   3.181   4.123   9.022 -0.6460 -0.5015 -1.1030
  716MPD2    C310584   3.292   4.085   9.088 -0.3396  0.1894  0.2040
  716MPD2    C410585   3.366   4.175   9.157 -0.3168  0.0916  0.2199
  716MPD2    C510586   3.335   4.304   9.147 -0.0763 -0.6079  0.2040
  716MPD2     H10587   3.108   4.057   8.978 -0.1870 -1.1924 -0.8252
  716MPD2    H110588   3.453   4.149   9.217 -0.9480 -0.1909  1.0207
  716MPD2    H210589   3.199   4.454   9.049 -1.1491 -0.0221 -0.0790
  716MPD2    H310590   3.398   4.372   9.203 -1.6771  2.4742 -1.7272
  716MPD2     N10591   3.328   3.946   9.086 -0.5664 -0.1779 -0.3136
  716MPD2    H510592   3.261   3.883   9.042  0.2974 -2.0437  1.0633
  716MPD2    N110593   3.038   4.309   8.935  0.2839 -0.5386  0.2075
  716MPD2    H710594   3.025   4.409   8.942  0.4329 -0.5573  0.7890
  717TMC3    C110595   3.447   3.746   9.147  0.2038 -0.0751 -1.0295
  717TMC3    C210596   3.328   3.690   9.172 -0.3069  1.0675  0.0474
  717TMC3    C310597   3.310   3.555   9.163  1.1037 -1.0518 -0.2135
  717TMC3    C410598   3.551   3.672   9.096  0.6625 -0.2780 -0.1100
  717TMC3    C510599   3.524   3.539   9.075  0.1739  0.5190 -0.3476
  717TMC3    C610600   3.406   3.479   9.106  0.3014  0.4033  0.0611
  717TMC3     C10601   3.446   3.895   9.132 -0.5003  0.8975 -0.2338
  717TMC3     O10602   3.551   3.958   9.161 -0.1207 -0.2335 -0.6222
  717TMC3     H10603   3.250   3.753   9.211  0.0114  1.3880  0.1668
  717TMC3    H110604   3.648   3.719   9.079  1.3623 -2.3792 -1.8049
  717TMC3    H210605   3.386   3.373   9.097 -1.0420  0.9109 -2.9299
  717TMC3    C710606   3.630   3.457   9.022 -0.1274 -0.0874  0.5065
  717TMC3    C810607   3.172   3.526   9.123  0.3285 -0.0706  0.3508
  717TMC3    O110608   3.606   3.337   9.004  0.2961  0.1778 -0.0271
  717TMC3    O210609   3.104   3.616   9.160  0.3966 -0.1056  0.6883
  718MPD2     C10610   3.209   3.515  13.265  0.1981 -0.3393  1.0762
  718MPD2    C110611   3.151   3.638  13.251 -0.9454  0.3915 -0.5627
  718MPD2    C210612   3.015   3.640  13.215 -0.3814  0.5144 -0.2043
  718MPD2    C310613   2.938   3.527  13.221 -0.0959 -0.6486  0.6176
  718MPD2    C410614   2.997   3.406  13.234 -0.3817 -0.4588 -0.1080
  718MPD2    C510615   3.133   3.400  13.251 -0.4482 -0.6012 -0.8122
  718MPD2     H10616   2.969   3.734  13.188  0.4645  0.6199 -1.2541
  718MPD2    H110617   2.939   3.314  13.230  1.6081 -1.6191 -2.0846
  718MPD2    H210618   3.317   3.506  13.278  0.8071  0.9163 -3.0403
  718MPD2    H310619   3.178   3.301  13.247 -0.5293 -0.6927  0.5194
  718MPD2     N10620   2.802   3.540  13.198 -0.1319  0.0782  0.3798
  718MPD2    H510621   2.779   3.635  13.170  1.3642  0.8583  1.8132
  718MPD2    N110622   3.226   3.758  13.269  0.1782 -0.2630 -0.5720
  718MPD2    H710623   3.319   3.747  13.309 -0.0270  2.1840  0.5396
  719TMC3    C110624   3.264   3.987  13.302 -0.3806 -1.0697  0.1658
  719TMC3    C210625   3.193   4.074  13.380 -0.0812 -0.0379  0.8163
  719TMC3    C310626   3.182   4.206  13.354  0.0077 -0.0089 -0.0042
  719TMC3    C410627   3.331   4.037  13.194  0.0959  0.5553 -0.1479
  719TMC3    C510628   3.314   4.174  13.170 -0.5353  0.3164 -0.0098
  719TMC3    C610629   3.237   4.263  13.239 -0.4494  0.3800 -0.1761
  719TMC3     C10630   3.175   3.883  13.262 -0.4232  0.2663  0.2149
  719TMC3     O10631   3.066   3.919  13.223 -0.0124 -0.0755  0.2466
  719TMC3     H10632   3.146   4.054  13.476 -0.6721  0.2307  0.5811
  719TMC3    H110633   3.362   3.960  13.124 -0.5412  0.3963 -0.2610
  719TMC3    H210634   3.248   4.370  13.228  0.5550  0.4202  1.2032
  719TMC3    C710635   3.310   4.205  13.026 -0.4830  0.0709  0.4076
  719TMC3    C810636   3.045   4.250  13.358  0.7230 -0.1019 -0.6200
  719TMC3    O110637   3.366   4.128  12.946  0.1381  0.3261 -0.6647
  719TMC3    O210638   3.017   4.368  13.358 -0.3499  0.3644 -0.0122
  720MPD2     C10639   1.036   1.073  14.179  0.5134  0.3386  0.6609
  720MPD2    C110640   1.127   1.044  14.074 -0.1682  0.0840 -0.2596
  720MPD2    C210641   1.240   0.973  14.099 -0.0047  0.1074 -0.1435
  720MPD2    C310642   1.275   0.948  14.228 -0.8695 -0.2506  0.3049
  720MPD2    C410643   1.181   0.963  14.333  0.5245 -1.1855 -0.2843
  720MPD2    C510644   1.060   1.029  14.301 -0.6540  0.0544  0.2545
  720MPD2     H10645   1.311   0.952  14.020 -2.0978 -1.6112 -1.5759
  720MPD2    H110646   1.188   0.921  14.433  1.1504 -2.9718 -1.0858
  720MPD2    H210647   0.941   1.124  14.161  1.3927  1.6780 -0.2499
  720MPD2    H310648   0.993   1.042  14.384 -1.0548  0.2991 -0.1082
  720MPD2     N10649   1.402   0.898  14.255 -0.7631 -0.1719  0.3470
  720MPD2    H510650   1.463   0.884  14.175 -0.2500 -1.4788  0.9629
  720MPD2    N110651   1.086   1.077  13.943  0.4581  0.1725  0.0581
  720MPD2    H710652   1.138   1.049  13.860 -1.8931  2.0003 -2.0112
  721TMC3    C110653   1.585   0.823  14.381  0.0462  0.2538  0.0490
  721TMC3    C210654   1.595   0.725  14.477  0.1328  0.1799 -0.3406
  721TMC3    C310655   1.706   0.647  14.459  0.6093  0.1997  0.3214
  721TMC3    C410656   1.688   0.857  14.292  0.4120 -0.3887 -0.1910
  721TMC3    C510657   1.794   0.775  14.280  0.0454  0.3875 -0.2730
  721TMC3    C610658   1.806   0.665  14.365  0.2385 -0.4077 -0.0025
  721TMC3     C10659   1.457   0.888  14.385 -0.9879  0.4019  0.2609
  721TMC3     O10660   1.413   0.901  14.496  0.4886 -0.0983 -0.5230
  721TMC3     H10661   1.510   0.698  14.539 -0.1859  2.5137  0.2467
  721TMC3    H110662   1.677   0.947  14.233 -0.5174 -1.0350 -0.9981
  721TMC3    H210663   1.874   0.585  14.337  1.3122  0.5059 -0.0312
  721TMC3    C710664   1.916   0.831  14.226  0.2288  0.2549  0.2466
  721TMC3    C810665   1.757   0.591  14.590  0.6017 -0.8612  0.6823
  721TMC3    O110666   1.918   0.909  14.129  0.1768 -0.2442 -0.2219
  721TMC3    O210667   1.874   0.551  14.579  0.4952 -0.1809  0.1394
  722MPD2     C10668   0.513   4.182  12.813 -0.3151 -0.5147 -0.0351
  722MPD2    C110669   0.445   4.271  12.727  0.4881 -0.4669 -0.1728
  722MPD2    C210670   0.311   4.296  12.742  0.3464 -0.2180  1.1960
  722MPD2    C310671   0.238   4.227  12.835 -0.2859 -0.4478  0.4936
  722MPD2    C410672   0.308   4.139  12.923  0.8664 -0.0104  0.8214
  722MPD2    C510673   0.446   4.119  12.919 -0.6457 -0.0909 -0.5147
  722MPD2     H10674   0.260   4.358  12.669  2.3254 -1.7210 -1.4869
  722MPD2    H110675   0.249   4.085  12.996 -0.4091  0.6968  0.3240
  722MPD2    H210676   0.620   4.168  12.806 -0.0863 -0.0271  2.2751
  722MPD2    H310677   0.509   4.061  12.985 -1.0456  0.5499  0.4466
  722MPD2     N10678   0.100   4.249  12.830  0.0643  0.5052 -0.0658
  722MPD2    H510679   0.070   4.312  12.757  0.3280  0.2188 -0.4176
  722MPD2    N110680   0.509   4.343  12.622 -0.2914  0.5201  0.1689
  722MPD2    H710681   0.445   4.393  12.562  1.8187  4.3069  1.0470
  723TMC3    C110682   4.595   4.232  12.869  0.9628 -0.5020 -0.0062
  723TMC3    C210683   4.494   4.141  12.900 -0.0389 -0.1623  0.6869
  723TMC3    C310684   4.359   4.187  12.906  0.0663 -0.6309 -0.3877
  723TMC3    C410685   4.575   4.371  12.860 -0.4728  0.2933 -0.3529
  723TMC3    C510686   4.441   4.406  12.865  0.5880 -0.5478 -1.2944
  723TMC3    C610687   4.337   4.321  12.891 -0.0644  0.4274 -0.2896
  723TMC3     C10688   4.721   4.191  12.909 -1.1006  0.1683 -0.4958
  723TMC3     O10689   0.012   4.103  12.994  0.3167  0.7418 -0.4372
  723TMC3     H10690   4.519   4.041  12.934 -2.4093 -1.0334 -0.1217
  723TMC3    H110691   4.654   4.442  12.836  0.5793 -0.1440  1.8179
  723TMC3    H210692   4.240   4.368  12.901  0.1746  0.6904  0.7628
  723TMC3    C710693   4.396   4.547  12.836 -0.1013 -0.5388 -0.1749
  723TMC3    C810694   4.248   4.101  12.925  0.1052  0.6931  0.2893
  723TMC3    O110695   4.293   4.584  12.895 -0.1572  0.0319 -0.0709
  723TMC3    O210696   4.139   4.153  12.962 -0.2085 -0.0757 -0.4379
  724TMC3    C110697   0.556   2.522   9.156  1.1096 -0.1208  0.9739
  724TMC3    C210698   0.567   2.397   9.211  0.5671  0.0206 -0.9291
  724TMC3    C310699   0.691   2.340   9.229 -0.6613 -0.5926  0.3790
  724TMC3    C410700   0.662   2.582   9.094 -0.2623 -0.7206  0.2072
  724TMC3    C510701   0.782   2.512   9.100 -0.3891  0.3248  0.4979
  724TMC3    C610702   0.800   2.400   9.179 -0.5817  0.5749  1.3962
  724TMC3     C10703   0.421   2.580   9.149 -0.2161 -1.1334 -0.9294
  724TMC3     O10704   0.325   2.506   9.169 -0.0953 -0.4199 -0.1872
  724TMC3     H10705   0.485   2.363   9.274  0.3112 -0.4424 -1.5118
  724TMC3    H110706   0.655   2.673   9.034 -2.8323 -0.5831  0.6960
  724TMC3    H210707   0.897   2.353   9.187 -1.2585 -0.9904  0.3717
  724TMC3    C710708   0.900   2.575   9.054 -0.5326 -0.5678  0.1483
  724TMC3    C810709   0.706   2.288   9.365 -0.6443 -0.0426 -0.0650
  724TMC3    O110710   0.980   2.496   9.014 -0.7184 -0.6318  0.5059
  724TMC3    O210711   0.636   2.195   9.397 -0.8950  0.3611 -0.7327
  725TMC3    C110712   1.359   1.347  12.344  0.0911  0.1634  0.0383
  725TMC3    C210713   1.382   1.341  12.212 -0.4960 -0.3367  0.4099
  725TMC3    C310714   1.317   1.243  12.147  0.5408 -0.0050 -0.6694
  725TMC3    C410715   1.294   1.250  12.411  0.3807 -0.3740 -0.1286
  725TMC3    C510716   1.250   1.139  12.349  0.2152  0.3838  0.0052
  725TMC3    C610717   1.250   1.139  12.210 -0.5858 -0.2895  0.1522
  725TMC3     C10718   1.460   1.423  12.414 -0.3533  0.2076 -0.1565
  725TMC3     O10719   1.539   1.485  12.342  0.6043  0.1468  0.0292
  725TMC3     H10720   1.420   1.431  12.165 -2.1898  1.7861  3.1062
  725TMC3    H110721   1.264   1.267  12.514  0.6631  0.2587 -0.1517
  725TMC3    H210722   1.209   1.057  12.152  1.2330 -0.9630 -0.1868
  725TMC3    C710723   1.156   1.064  12.422  0.2148 -0.4106 -0.5841
  725TMC3    C810724   1.326   1.229  12.002 -0.5293  1.0080 -0.7209
  725TMC3    O110725   1.056   1.035  12.354 -0.1912 -0.1606  0.3031
  725TMC3    O210726   1.240   1.160  11.953 -0.0270  0.1777  0.1040
  726MPD2     C10727   0.280   2.131  10.139  0.5562  0.7220 -0.8044
  726MPD2    C110728   0.160   2.196  10.111  0.2824 -0.8135 -0.1913
  726MPD2    C210729   0.038   2.135  10.134  0.3964 -0.2455  0.0196
  726MPD2    C310730   0.037   2.006  10.190  0.3910  0.2280 -0.1612
  726MPD2    C410731   0.162   1.932  10.198  0.4883  0.2097  0.0456
  726MPD2    C510732   0.282   1.998  10.172  0.4217  0.8907 -0.7090
  726MPD2     H10733   4.671   2.191  10.106  2.1202  2.9123  0.9457
  726MPD2    H110734   0.166   1.827  10.228 -2.1052  0.7839  2.3958
  726MPD2    H210735   0.380   2.171  10.125  1.3817 -1.3600 -0.8563
  726MPD2    H310736   0.381   1.957  10.187  1.2960  2.8237 -1.0689
  726MPD2     N10737   4.641   1.953  10.245  0.5836 -0.3773  0.1611
  726MPD2    H510738   4.643   1.857  10.275 -1.4901 -0.2158  0.8500
  726MPD2    N110739   0.170   2.327  10.062 -0.5634  0.0747  0.4100
  726MPD2    H710740   0.087   2.367  10.020 -0.6758 -1.6250 -0.9632
  727TMC3    C110741   0.263   2.539  10.025 -0.4462  0.5830 -0.1995
  727TMC3    C210742   0.299   2.639  10.114 -0.3855 -0.3795 -0.5068
  727TMC3    C310743   0.254   2.769  10.101  0.0228 -0.0964  0.0040
  727TMC3    C410744   0.177   2.563   9.920 -0.3751  0.9048 -1.1792
  727TMC3    C510745   0.135   2.697   9.913 -0.0476  0.4692  0.0227
  727TMC3    C610746   0.182   2.800   9.992  0.0583  0.3406  0.5616
  727TMC3     C10747   0.282   2.410  10.075  0.6381 -0.1656  0.8072
  727TMC3     O10748   0.374   2.389  10.149  1.1326  0.3799  0.2633
  727TMC3     H10749   0.368   2.621  10.196 -1.0677  1.2898  0.4366
  727TMC3    H110750   0.146   2.484   9.853 -1.6628  0.5721 -0.2079
  727TMC3    H210751   0.121   2.889   9.998 -1.3008 -0.7828  3.0547
  727TMC3    C710752   0.025   2.731   9.818 -0.5893 -0.1709 -0.2078
  727TMC3    C810753   0.274   2.852  10.219 -0.7827 -0.9435 -0.5279
  727TMC3    O110754   0.004   2.846   9.781 -0.1677  0.0273 -0.3461
  727TMC3    O210755   0.303   2.802  10.328  0.1223 -0.3504  0.3439
  728TMC3    C110756   3.749   1.478  15.148 -0.5616 -0.4758 -0.5606
  728TMC3    C210757   3.772   1.457  15.281 -0.3204 -0.6602 -0.8597
  728TMC3    C310758   3.895   1.448  15.335 -0.0631  1.2487 -0.5765
  728TMC3    C410759   3.854   1.495  15.063 -0.6932  0.3171 -0.0136
  728TMC3    C510760   3.978   1.491  15.120 -0.2344 -0.3961 -0.5680
  728TMC3    C610761   4.002   1.455  15.250 -0.1630  0.4265  0.5927
  728TMC3     C10762   3.625   1.470  15.083 -0.7540 -0.9223 -0.7794
  728TMC3     O10763   3.623   1.524  14.973  0.0876  0.3908  0.0929
  728TMC3     H10764   3.694   1.469  15.354 -1.6679  0.5435 -2.4904
  728TMC3    H110765   3.849   1.514  14.956  1.5801  0.8895 -0.0087
  728TMC3    H210766   4.099   1.444  15.297 -0.1241  0.2018  0.4583
  728TMC3    C710767   4.089   1.478  15.032 -0.3359  0.8004  0.0156
  728TMC3    C810768   3.911   1.383  15.462  0.0842  0.2611  0.2441
  728TMC3    O110769   4.185   1.407  15.072  0.1277  0.6590  0.2012
  728TMC3    O210770   3.824   1.306  15.497  0.2546 -0.3902  0.1435
  729MPD2     C10771   1.124   2.576  16.964 -0.1261 -0.0477  0.6582
  729MPD2    C110772   1.247   2.512  16.980 -0.2927 -0.4623  0.0626
  729MPD2    C210773   1.287   2.478  17.110 -0.1624 -0.6093 -0.5665
  729MPD2    C310774   1.202   2.510  17.216  0.6515  0.0089  0.3987
  729MPD2    C410775   1.086   2.582  17.195  0.1904 -0.2079  0.4843
  729MPD2    C510776   1.046   2.612  17.070 -0.4007  0.1610 -0.8521
  729MPD2     H10777   1.388   2.444  17.127 -0.4837 -0.5089  1.4464
  729MPD2    H110778   1.020   2.600  17.279  3.5731  1.5574  2.7633
  729MPD2    H210779   1.102   2.591  16.859 -1.2434 -0.7481  0.7927
  729MPD2    H310780   0.954   2.668  17.058  0.1690  1.6832  1.8564
  729MPD2     N10781   1.224   2.481  17.353  0.6041 -0.2103  0.0626
  729MPD2    H510782   1.164   2.534  17.415 -2.3172 -1.6828 -1.5156
  729MPD2    N110783   1.328   2.511  16.873 -0.2275  0.1918 -0.0312
  729MPD2    H710784   1.294   2.570  16.797  1.6938 -0.1773 -1.1795
  730TMC3    C110785   1.360   2.411  17.534 -0.5675 -0.6364 -0.5923
  730TMC3    C210786   1.495   2.421  17.545 -0.3469 -0.0753 -0.0262
  730TMC3    C310787   1.554   2.534  17.592  0.4226  0.1335  0.3903
  730TMC3    C410788   1.286   2.506  17.597  0.2722 -0.4720  0.2521
  730TMC3    C510789   1.340   2.612  17.667 -0.0017  0.6561 -0.2676
  730TMC3    C610790   1.478   2.620  17.666  0.3582 -0.0703 -0.1924
  730TMC3     C10791   1.321   2.395  17.399 -0.0641 -0.7398 -0.0976
  730TMC3     O10792   1.406   2.334  17.332  0.0784 -0.3588  0.2116
  730TMC3     H10793   1.561   2.378  17.471  0.9982  1.4815  0.2502
  730TMC3    H110794   1.179   2.497  17.581  0.3979  1.0181 -1.4719
  730TMC3    H210795   1.522   2.708   0.023  1.0837  0.3490 -1.7898
  730TMC3    C710796   1.292   2.743  17.623  0.6974  0.0630  0.3282
  730TMC3    C810797   1.617   2.598  17.481  0.1412  0.0425 -0.3035
  730TMC3    O110798   1.265   2.743  17.502 -0.1783  0.8441 -0.1202
  730TMC3    O210799   1.733   2.556  17.459  0.8048  0.4684 -0.5031
  731MPD2     C10800   1.175   0.779  12.016  0.6065 -0.1071 -0.3866
  731MPD2    C110801   1.315   0.780  12.021  0.2012 -0.5093 -0.6908
  731MPD2    C210802   1.379   0.748  12.140  0.0022  0.0934  0.4885
  731MPD2    C310803   1.305   0.745  12.258  0.7777  0.0843  0.8371
  731MPD2    C410804   1.165   0.753  12.249  0.2454 -0.2562  0.3269
  731MPD2    C510805   1.099   0.764  12.128 -0.1435 -0.1775 -0.2292
  731MPD2     H10806   1.487   0.733  12.148 -0.1173  0.5772  2.9933
  731MPD2    H110807   1.093   0.747  12.331  0.2466  1.7499  0.4563
  731MPD2    H210808   1.116   0.784  11.925 -0.8901 -1.0148  0.5287
  731MPD2    H310809   0.991   0.767  12.129 -0.0339  2.0383  3.0996
  731MPD2     N10810   1.371   0.743  12.383 -0.6949  0.1354 -0.4362
  731MPD2    H510811   1.472   0.746  12.382 -0.7164  1.5742  1.3416
  731MPD2    N110812   1.383   0.796  11.904 -0.2897  0.0434  0.6721
  731MPD2    H710813   1.335   0.836  11.824 -1.0383  1.5282  1.8720
  732TMC3    C110814   1.553   0.799  11.738 -0.4712  0.4200  0.0394
  732TMC3    C210815   1.488   0.762  11.624 -0.6275  0.5296  0.3534
  732TMC3    C310816   1.536   0.804  11.502  0.2310 -0.0255  0.6704
  732TMC3    C410817   1.675   0.872  11.732  0.3552  0.7769 -0.3211
  732TMC3    C510818   1.726   0.907  11.607 -0.0715  0.0214  0.5789
  732TMC3    C610819   1.647   0.880  11.496 -0.1923 -0.4397 -0.9579
  732TMC3     C10820   1.512   0.757  11.872 -0.6732 -0.6114  0.1187
  732TMC3     O10821   1.593   0.686  11.938 -0.0730 -0.2776 -0.4438
  732TMC3     H10822   1.395   0.707  11.630  0.1304 -0.8318 -0.6084
  732TMC3    H110823   1.722   0.893  11.828  1.1062 -0.8793 -0.3266
  732TMC3    H210824   1.675   0.927  11.402  0.4296  0.5949 -0.2691
  732TMC3    C710825   1.840   0.994  11.595 -0.2946  0.6310 -0.4926
  732TMC3    C810826   1.470   0.769  11.377 -1.2871 -0.7809 -0.4984
  732TMC3    O110827   1.918   0.996  11.499 -1.0688  0.2237  0.0307
  732TMC3    O210828   1.541   0.751  11.276 -0.4649 -0.1750 -0.6880
  733TMC3    C110829   2.352   3.566  13.096  0.6307  0.9343 -0.0912
  733TMC3    C210830   2.463   3.492  13.106  0.3586  0.1718  0.3215
  733TMC3    C310831   2.572   3.529  13.181 -0.1537 -0.0244  0.0615
  733TMC3    C410832   2.344   3.677  13.174  0.1906  0.6440 -0.4332
  733TMC3    C510833   2.439   3.706  13.265 -0.2795  0.0524 -0.1938
  733TMC3    C610834   2.558   3.635  13.267  0.0996 -0.0687 -0.2018
  733TMC3     C10835   2.272   3.572  12.973  0.3053 -0.1152 -0.1529
  733TMC3     O10836   2.205   3.673  12.970  0.4759 -0.1397  0.1668
  733TMC3     H10837   2.472   3.400  13.049 -1.7369 -1.0714  1.9726
  733TMC3    H110838   2.263   3.749  13.170  1.1896  1.8006  0.2011
  733TMC3    H210839   2.637   3.657  13.338 -1.3528  1.9544  0.7976
  733TMC3    C710840   2.441   3.842  13.322  0.0977  0.6936 -0.0486
  733TMC3    C810841   2.699   3.453  13.185  0.7399  0.3198 -0.2183
  733TMC3    O110842   2.340   3.910  13.338  0.2799 -0.1382  0.2080
  733TMC3    O210843   2.700   3.328  13.192  0.1681 -0.0291  0.7498
  734MPD2     C10844   0.041   1.415  12.634  0.0948  0.5282  0.0717
  734MPD2    C110845   4.647   1.352  12.600 -0.0973  0.0767 -0.3426
  734MPD2    C210846   4.581   1.394  12.487 -0.7601 -0.1929 -0.1279
  734MPD2    C310847   4.629   1.492  12.411 -1.5577 -0.3123 -0.6985
  734MPD2    C410848   0.030   1.550  12.433 -0.2831 -0.1880 -0.4159
  734MPD2    C510849   0.086   1.520  12.555  0.7250 -0.8542  0.1672
  734MPD2     H10850   4.485   1.353  12.460  0.3215 -2.9398  0.2098
  734MPD2    H110851   0.069   1.633  12.375  0.3010 -1.0706 -1.2718
  734MPD2    H210852   0.086   1.387  12.729 -0.5327 -1.0126 -0.0720
  734MPD2    H310853   0.174   1.580  12.573  0.0888 -0.0722  0.6078
  734MPD2     N10854   4.553   1.529  12.291  0.6438 -0.0896  0.2865
  734MPD2    H510855   4.455   1.504  12.291  0.6951 -0.2941 -0.1861
  734MPD2    N110856   4.604   1.246  12.685 -0.8820  0.4579 -0.1268
  734MPD2    H710857   4.666   1.212  12.757 -2.6133 -1.2103  0.5783
  735TMC3    C110858   4.480   1.053  12.749  0.0466 -0.4179  0.6272
  735TMC3    C210859   4.365   0.995  12.727 -0.5859  0.3043  0.1785
  735TMC3    C310860   4.355   0.867  12.682  0.1238  0.5633 -0.4272
  735TMC3    C410861   4.599   0.990  12.727  0.8159  0.3783 -0.1570
  735TMC3    C510862   4.592   0.857  12.686 -0.3404  0.2212  0.2163
  735TMC3    C610863   4.474   0.790  12.666 -0.2122 -0.5528 -0.2929
  735TMC3     C10864   4.483   1.178  12.680 -0.3743 -0.1338  0.0423
  735TMC3     O10865   4.383   1.205  12.615  0.6167  0.5868  0.1979
  735TMC3     H10866   4.274   1.052  12.735 -1.6229 -1.3160 -0.1420
  735TMC3    H110867   4.695   1.038  12.711  2.3892 -2.5822  0.3358
  735TMC3    H210868   4.471   0.684  12.644 -0.1950 -1.2105  2.8020
  735TMC3    C710869   4.688   0.816  12.581 -0.2010 -0.0604  0.3810
  735TMC3    C810870   4.256   0.860  12.574  0.0666  0.6111  0.3031
  735TMC3    O110871   0.030   0.913  12.531 -0.3841 -0.3256 -0.2925
  735TMC3    O210872   4.172   0.772  12.570 -0.7189 -0.3769 -0.5504
  736MPD2     C10873   0.199   0.532  12.616 -0.0710 -0.0837 -0.4262
  736MPD2    C110874   0.136   0.635  12.550 -0.6672 -0.4138 -0.4667
  736MPD2    C210875   0.207   0.695  12.446  0.0425 -0.2350  0.3022
  736MPD2    C310876   0.322   0.635  12.396 -0.3299  0.1234 -0.2058
  736MPD2    C410877   0.379   0.529  12.464 -0.1981  0.8123 -0.2516
  736MPD2    C510878   0.319   0.480  12.576 -0.4629  0.6120  0.6039
  736MPD2     H10879   0.172   0.785  12.396  1.4514 -0.0710 -0.3828
  736MPD2    H110880   0.466   0.473  12.431  0.3654  1.8356 -0.4975
  736MPD2    H210881   0.148   0.482  12.697  0.1167  0.7674  0.2213
  736MPD2    H310882   0.366   0.394  12.624 -0.8948  2.3123  4.0957
  736MPD2     N10883   0.383   0.669  12.279 -0.3024  0.8622  0.6019
  736MPD2    H510884   0.469   0.623  12.250 -0.3291 -0.8380  3.2783
  736MPD2    N110885   0.013   0.685  12.603 -0.4704  0.2841  0.2781
  736MPD2    H710886   4.696   0.634  12.681  1.8899 -2.6813 -0.4959
  737TMC3    C110887   0.424   0.755  12.067 -0.4150 -0.8876  0.3309
  737TMC3    C210888   0.402   0.873  11.998 -0.3245 -0.0970  0.9399
  737TMC3    C310889   0.402   0.872  11.861 -0.3797 -0.2771 -0.7161
  737TMC3    C410890   0.427   0.637  11.994 -0.5693  0.0132  0.4127
  737TMC3    C510891   0.417   0.645  11.862  0.3203 -0.1165  0.2120
  737TMC3    C610892   0.391   0.759  11.793 -1.2011 -0.0696  0.3925
  737TMC3     C10893   0.336   0.754  12.179 -0.3510 -0.2975 -0.1030
  737TMC3     O10894   0.228   0.816  12.178  0.4029  0.8168 -0.1709
  737TMC3     H10895   0.395   0.962  12.059  1.2388 -0.3947  1.5384
  737TMC3    H110896   0.430   0.537  12.037  2.5274 -0.2040 -0.2613
  737TMC3    H210897   0.384   0.744  11.686  1.0509 -1.0696  0.3946
  737TMC3    C710898   0.430   0.515  11.791  0.0021 -0.2830 -0.1757
  737TMC3    C810899   0.426   1.003  11.795  0.0983  0.1765 -0.2821
  737TMC3    O110900   0.414   0.409  11.850 -0.3696 -0.2232 -0.7032
  737TMC3    O210901   0.445   1.093  11.874 -0.8116 -0.0466 -0.2718
  738MPD2     C10902   0.514   0.249  15.079 -0.2030  0.3406  0.1229
  738MPD2    C110903   0.519   0.155  14.986 -0.2485  0.3951 -0.1077
  738MPD2    C210904   0.624   0.143  14.897  1.2987  0.2926 -0.7378
  738MPD2    C310905   0.724   0.239  14.903 -0.5702  0.2417  0.5098
  738MPD2    C410906   0.715   0.346  14.993 -0.7791 -0.0951 -0.1820
  738MPD2    C510907   0.612   0.348  15.087  0.2502 -0.2797 -0.4290
  738MPD2     H10908   0.630   0.055  14.835 -0.2821 -0.5988  0.3537
  738MPD2    H110909   0.790   0.425  14.991  0.4607 -1.2140  1.7811
  738MPD2    H210910   0.429   0.254  15.146 -0.2732 -0.3224  0.0860
  738MPD2    H310911   0.603   0.428  15.160  1.2603  0.7868 -1.4738
  738MPD2     N10912   0.837   0.245  14.823  0.3472 -0.0572 -0.0202
  738MPD2    H510913   0.911   0.310  14.849 -3.3245  4.2782 -0.4567
  738MPD2    N110914   0.435   0.038  14.993 -0.1362  0.9924 -0.1477
  738MPD2    H710915   0.458   4.681  14.933  0.9716  1.1597  0.0646
  739TMC3    C110916   0.996   0.167  14.676  0.3955 -0.7161  0.0632
  739TMC3    C210917   1.030   0.160  14.542 -0.9320 -0.2721 -0.4038
  739TMC3    C310918   1.152   0.107  14.512 -0.0491 -1.1442 -0.7471
  739TMC3    C410919   1.077   0.125  14.773 -0.5995 -0.5490  0.2674
  739TMC3    C510920   1.207   0.086  14.740  0.3128  0.3358  0.5342
  739TMC3    C610921   1.252   0.090  14.611  0.3475  0.2499 -0.0447
  739TMC3     C10922   0.853   0.177  14.706 -0.2304  0.5409  0.2860
  739TMC3     O10923   0.769   0.120  14.639  0.1486 -0.3792  0.4886
  739TMC3     H10924   0.955   0.178  14.466 -0.3874  1.3036 -0.5630
  739TMC3    H110925   1.039   0.118  14.874 -1.7849  3.3196  0.0669
  739TMC3    H210926   1.349   0.052  14.582 -0.8995 -0.6401 -2.9925
  739TMC3    C710927   1.296   0.024  14.845  0.2309  0.1350  0.2348
  739TMC3    C810928   1.196   0.113  14.371 -0.1510  0.2338  0.5363
  739TMC3    O110929   1.374   4.664  14.802 -0.3932 -0.0094 -0.1380
  739TMC3    O210930   1.118   0.181  14.303  0.5658 -0.0504  0.1416
  740TMC3    C110931   1.093   1.346  14.375  0.6626  0.3056 -0.3816
  740TMC3    C210932   1.152   1.309  14.495 -0.1109  0.0197  0.7042
  740TMC3    C310933   1.277   1.273  14.493 -0.2666 -0.0096  0.0544
  740TMC3    C410934   1.159   1.341  14.254  0.2291  0.1637  0.0357
  740TMC3    C510935   1.288   1.304  14.260 -0.1586  0.5097 -1.0045
  740TMC3    C610936   1.350   1.279  14.377  0.6238  0.2123  0.1228
  740TMC3     C10937   0.958   1.391  14.372  0.1095  0.0734 -0.4764
  740TMC3     O10938   0.895   1.390  14.267 -0.4501  0.2737 -0.2102
  740TMC3     H10939   1.100   1.300  14.590 -1.0235 -2.9234 -0.0657
  740TMC3    H110940   1.105   1.355  14.161  1.5307  0.2231 -0.7161
  740TMC3    H210941   1.448   1.234  14.384  0.9792  0.7793 -1.1992
  740TMC3    C710942   1.372   1.293  14.146 -0.0804  0.0950  0.4599
  740TMC3    C810943   1.337   1.251  14.622 -0.3196 -0.3175  1.0299
  740TMC3    O110944   1.478   1.231  14.157 -1.3592  0.0799  0.3982
  740TMC3    O210945   1.261   1.233  14.717 -0.0963  0.3547 -0.0385
  741TMC3    C110946   0.991   0.683  14.211 -0.2632 -0.1533  0.0921
  741TMC3    C210947   0.881   0.651  14.287  0.4292 -0.3953  0.6484
  741TMC3    C310948   0.914   0.583  14.403  0.1029  0.0389 -0.4999
  741TMC3    C410949   1.116   0.640  14.233  0.3365  0.0112  0.5457
  741TMC3    C510950   1.142   0.580  14.351 -0.0302  0.3916  0.1849
  741TMC3    C610951   1.044   0.550  14.436 -0.3685  0.5257 -0.5354
  741TMC3     C10952   0.963   0.732  14.075 -1.2156  0.1920 -0.4421
  741TMC3     O10953   1.036   0.700  13.984 -0.0553  0.5942  0.0947
  741TMC3     H10954   0.777   0.671  14.263  0.8524  1.0179 -0.0379
  741TMC3    H110955   1.195   0.649  14.159  0.3742 -1.7192  0.3822
  741TMC3    H210956   1.061   0.476  14.513  2.0045  1.8533  0.2347
  741TMC3    C710957   1.279   0.554  14.387 -0.6478  0.6320 -0.5316
  741TMC3    C810958   0.810   0.521  14.487  0.9630 -0.0938 -0.1169
  741TMC3    O110959   1.359   0.530  14.296 -0.0141  0.6073  0.4219
  741TMC3    O210960   0.839   0.519  14.605  0.1874 -0.0970  0.1222
  742TMC3    C110961   0.688   4.284  15.317  0.0475 -0.9561 -0.1532
  742TMC3    C210962   0.626   4.186  15.235 -0.2955  0.4070 -0.3346
  742TMC3    C310963   0.690   4.074  15.202 -0.4179  0.2956  0.1720
  742TMC3    C410964   0.822   4.270  15.351  0.0147 -0.0689 -1.1020
  742TMC3    C510965   0.888   4.160  15.302 -0.5784 -0.1214 -0.2351
  742TMC3    C610966   0.826   4.057  15.234 -0.2437 -0.1982 -0.1242
  742TMC3     C10967   0.615   4.405  15.338 -0.3462  0.1664  1.0037
  742TMC3     O10968   0.669   4.513  15.355  0.9275 -0.1718  0.3200
  742TMC3     H10969   0.549   4.224  15.169 -1.1088 -1.8472 -0.6972
  742TMC3    H110970   0.874   4.345  15.410 -1.3048  0.1165 -0.1734
  742TMC3    H210971   0.867   3.958  15.217  0.7452  0.0246  1.0180
  742TMC3    C710972   1.021   4.122  15.345  0.0859  0.7655  0.7669
  742TMC3    C810973   0.644   4.002  15.079  0.3340 -0.0462  0.7016
  742TMC3    O110974   1.089   4.054  15.264 -0.3291 -0.0058 -0.2088
  742TMC3    O210975   0.721   3.930  15.015 -1.2029 -0.2808  0.3017
  743MPD2     C10976   3.017   0.079   1.256  0.0884  0.4679  0.6069
  743MPD2    C110977   3.056   0.136   1.140  0.0120 -0.4932  0.7922
  743MPD2    C210978   3.187   0.141   1.098  0.6133  0.0138 -0.0655
  743MPD2    C310979   3.283   0.092   1.190 -0.3381  0.7427 -1.1735
  743MPD2    C410980   3.249   0.048   1.310 -0.4165 -0.1735  0.0129
  743MPD2    C510981   3.118   0.040   1.343 -1.0809 -0.2102 -0.0810
  743MPD2     H10982   3.211   0.182   1.001 -0.2701 -0.1958 -0.3713
  743MPD2    H110983   3.316   4.717   1.378  0.7118 -0.3760 -1.2644
  743MPD2    H210984   2.912   0.070   1.282  0.1373 -1.0575  0.2325
  743MPD2    H310985   3.097   4.713   1.437  0.1302  0.2976  0.4475
  743MPD2     N10986   3.416   0.108   1.148  0.0640  1.0102  0.5713
  743MPD2    H510987   3.427   0.171   1.068 -0.6108 -0.4274 -0.6490
  743MPD2    N110988   2.952   0.183   1.050  0.7054 -0.4258  0.4752
  743MPD2    H710989   2.861   0.148   1.077  0.4380 -0.3814 -0.3589
  744TMC3    C110990   2.836   0.286   0.870 -0.6340 -0.3408  0.8532
  744TMC3    C210991   2.719   0.268   0.936  0.0865  0.6566  0.2808
  744TMC3    C310992   2.605   0.265   0.870 -0.8849  0.2518  0.0041
  744TMC3    C410993   2.838   0.311   0.735  0.0400 -0.1375 -0.1088
  744TMC3    C510994   2.714   0.320   0.675  0.1222  0.1431 -0.2437
  744TMC3    C610995   2.595   0.298   0.739 -0.2721  0.1971  0.2862
  744TMC3     C10996   2.967   0.253   0.930 -0.7768 -0.4136 -0.3052
  744TMC3     O10997   3.066   0.312   0.885 -0.1187  0.6135  0.7338
  744TMC3     H10998   2.718   0.273   1.044 -0.6375 -0.2282  0.3115
  744TMC3    H110999   2.927   0.342   0.682 -0.4041  2.5896  0.7289
  744TMC3    H211000   2.501   0.305   0.687 -1.2445 -1.7981  1.7715
  744TMC3    C711001   2.719   0.284   0.534 -0.5742 -0.9985  0.3432
  744TMC3    C811002   2.478   0.256   0.934 -0.2611 -0.0654  0.3668
  744TMC3    O111003   2.826   0.236   0.496 -0.1118  0.0574  0.1573
  744TMC3    O211004   2.391   0.319   0.870 -0.4628 -0.0944  0.3327
  745TMC3    C111005   1.213   3.967  13.436 -0.2867  0.4425 -0.1027
  745TMC3    C211006   1.122   3.952  13.539 -0.0934 -0.4951  0.3594
  745TMC3    C311007   0.997   3.908  13.513  0.4775  0.6605 -0.0019
  745TMC3    C411008   1.179   3.939  13.308 -0.2554 -0.0142  0.5499
  745TMC3    C511009   1.058   3.882  13.286 -0.7605  0.0052 -0.4535
  745TMC3    C611010   0.968   3.871  13.385  0.9143  0.0761  0.3829
  745TMC3     C11011   1.343   4.014  13.469 -0.4754  0.7875 -0.7402
  745TMC3     O11012   1.376   3.998  13.586 -0.2600  0.9624 -0.3214
  745TMC3     H11013   1.143   3.994  13.637 -1.4542 -0.3396  0.5840
  745TMC3    H111014   1.251   3.937  13.227  1.7066  0.2188  2.2942
  745TMC3    H211015   0.881   3.814  13.353 -0.0654  0.8436  1.6892
  745TMC3    C711016   1.014   3.898  13.152  0.2113  0.8891 -0.2191
  745TMC3    C811017   0.930   3.839  13.612 -0.2260  0.6683  0.6860
  745TMC3    O111018   0.897   3.933  13.133  0.1509  0.5482  0.3445
  745TMC3    O211019   0.836   3.776  13.566 -0.5601  0.6238 -0.3607
  746TMC3    C111020   3.410   0.197  10.912  0.9180 -0.4110 -0.0944
  746TMC3    C211021   3.485   0.133  10.817 -0.8011 -0.4002  0.4528
  746TMC3    C311022   3.429   0.011  10.765  0.3701 -0.3584 -0.7416
  746TMC3    C411023   3.281   0.162  10.938  0.2081  0.4106 -0.2493
  746TMC3    C511024   3.226   0.050  10.877 -0.0164 -0.0324 -0.4887
  746TMC3    C611025   3.304   4.693  10.789 -0.1825  0.1236 -0.4715
  746TMC3     C11026   3.455   0.330  10.955  0.8712 -0.5440 -0.1086
  746TMC3     O11027   3.364   0.397  11.008 -0.0219  0.4894  0.4247
  746TMC3     H11028   3.589   0.150  10.791 -0.2666 -2.4234  1.2496
  746TMC3    H111029   3.224   0.224  11.007 -1.4743 -0.8548 -0.5001
  746TMC3    H211030   3.257   4.609  10.739  0.0926  0.8157 -1.8908
  746TMC3    C711031   3.087   0.015  10.883 -0.0145  0.5124 -0.6438
  746TMC3    C811032   3.505   4.662  10.665  0.2323  0.2952 -0.2902
  746TMC3    O111033   3.028   4.701  10.783 -0.3411  0.3894  0.2088
  746TMC3    O211034   3.487   4.547  10.639 -0.0922  0.3246  0.1947
  747TMC3    C111035   0.829   0.466  10.809 -0.3235 -0.0279  0.4491
  747TMC3    C211036   0.747   0.388  10.893 -0.8955  0.8057 -0.2685
  747TMC3    C311037   0.730   0.425  11.024  0.5543 -0.2805 -0.5296
  747TMC3    C411038   0.903   0.561  10.866  0.3609  0.1603  0.0182
  747TMC3    C511039   0.888   0.592  11.004  0.4044 -0.1887  0.9430
  747TMC3    C611040   0.796   0.531  11.085 -0.4089 -0.4778 -0.6249
  747TMC3     C11041   0.820   0.458  10.667 -0.0391 -0.9620 -0.5140
  747TMC3     O11042   0.878   0.550  10.605  0.3670  0.1858 -0.4217
  747TMC3     H11043   0.706   0.296  10.851  1.0932  0.0945 -0.6283
  747TMC3    H111044   0.982   0.608  10.807  0.9611 -0.6476  0.1761
  747TMC3    H211045   0.809   0.541  11.192 -2.5036 -0.9409 -0.3302
  747TMC3    C711046   0.958   0.703  11.070 -0.5085 -0.8635 -0.0295
  747TMC3    C811047   0.657   0.340  11.111  0.0856  0.0125  0.6371
  747TMC3    O111048   0.925   0.743  11.178  0.0061 -0.8969  0.0598
  747TMC3    O211049   0.638   0.221  11.076  0.1618 -0.1505  0.3607
  748MPD2     C11050   1.854   1.472   0.750  0.1231  0.1493 -0.3436
  748MPD2    C111051   1.872   1.346   0.807 -0.1789 -0.0940 -0.4708
  748MPD2    C211052   2.008   1.307   0.814 -0.2799 -0.2667  0.3319
  748MPD2    C311053   2.112   1.385   0.762 -0.2810  0.1791 -0.6411
  748MPD2    C411054   2.084   1.505   0.706 -0.1806 -0.3434  0.4074
  748MPD2    C511055   1.956   1.550   0.695 -0.0633  0.4627  0.1325
  748MPD2     H11056   2.026   1.212   0.861  2.0190  1.4631  2.9359
  748MPD2    H111057   2.156   1.576   0.668 -2.4574  1.9709  0.4454
  748MPD2    H211058   1.752   1.508   0.752  0.5970  1.5582 -2.1512
  748MPD2    H311059   1.943   1.649   0.653  2.3251  1.0000  0.6720
  748MPD2     N11060   2.237   1.322   0.766  0.1251  0.0701 -0.0247
  748MPD2    H511061   2.237   1.222   0.786  0.2965  0.0443 -0.1575
  748MPD2    N111062   1.764   1.265   0.855 -0.6058  0.4878 -0.5644
  748MPD2    H711063   1.676   1.315   0.845 -0.5974  0.4627 -0.7622
  749TMC3    C111064   2.470   1.307   0.769 -0.9692 -0.2016  0.0452
  749TMC3    C211065   2.481   1.188   0.708 -0.3398  0.2887 -0.5177
  749TMC3    C311066   2.598   1.115   0.714  0.2068 -0.8192  0.2116
  749TMC3    C411067   2.575   1.349   0.851  0.9526 -0.1252 -0.2046
  749TMC3    C511068   2.689   1.276   0.847 -0.1847 -0.6437  0.0058
  749TMC3    C611069   2.716   1.167   0.764 -0.6990  0.0596  0.2191
  749TMC3     C11070   2.355   1.394   0.762 -0.0762  0.3641  0.8774
  749TMC3     O11071   2.387   1.512   0.750 -0.8683 -0.5816 -0.1807
  749TMC3     H11072   2.403   1.144   0.647 -0.3219 -1.8144  0.9433
  749TMC3    H111073   2.570   1.447   0.897  1.3529  0.3242 -1.1275
  749TMC3    H211074   2.812   1.116   0.768 -0.1063  1.3016  2.4135
  749TMC3    C711075   2.791   1.360   0.906  0.5654  1.1826  0.5493
  749TMC3    C811076   2.589   0.990   0.643  0.1918 -0.1784  0.3916
  749TMC3    O111077   2.890   1.373   0.829  0.0102 -0.6961  0.2150
  749TMC3    O211078   2.498   0.962   0.565  0.7000 -0.3242  0.7476
  750MPD2     C11079   3.608   1.949  11.042  0.2714  0.3296 -0.2662
  750MPD2    C111080   3.509   1.961  10.954  0.4565  0.1466 -0.3321
  750MPD2    C211081   3.467   1.856  10.874 -0.1765  0.0736 -0.0170
  750MPD2    C311082   3.530   1.732  10.895 -0.4820  0.2969 -0.1248
  750MPD2    C411083   3.637   1.726  10.986 -0.1424 -0.0089 -0.1838
  750MPD2    C511084   3.677   1.833  11.060  0.5674 -0.4993 -0.6776
  750MPD2     H11085   3.383   1.867  10.807 -1.2240  2.0350  1.6467
  750MPD2    H111086   3.687   1.631  10.997  1.6880  0.9258 -0.5063
  750MPD2    H211087   3.637   2.024  11.114  1.0247 -1.7484  1.6155
  750MPD2    H311088   3.758   1.814  11.130 -0.7030 -3.9749 -0.1470
  750MPD2     N11089   3.491   1.611  10.819 -0.0423 -0.1327  0.4530
  750MPD2    H511090   3.528   1.524  10.856  1.8912  1.0173  1.2710
  750MPD2    N111091   3.449   2.082  10.962 -0.0393  0.4368 -0.2030
  750MPD2    H711092   3.486   2.143  11.034 -1.3213 -0.1686  0.9629
  751TMC3    C111093   3.358   1.467  10.682  0.1843 -0.3476  0.0139
  751TMC3    C211094   3.242   1.450  10.606 -0.3953  0.9423  0.7582
  751TMC3    C311095   3.210   1.318  10.557  0.1326 -0.3844 -0.1123
  751TMC3    C411096   3.439   1.361  10.713 -0.2239 -0.0977  1.1451
  751TMC3    C511097   3.409   1.241  10.654  1.0421  0.8189 -0.2437
  751TMC3    C611098   3.299   1.215  10.574 -0.1155  0.5391  0.5008
  751TMC3     C11099   3.384   1.599  10.736  0.5528  0.0301 -0.1417
  751TMC3     O11100   3.311   1.685  10.695 -0.6184  0.3512  0.2902
  751TMC3     H11101   3.206   1.539  10.555 -1.8866  0.0245  0.2000
  751TMC3    H111102   3.528   1.361  10.774  1.0576 -1.1899 -0.7094
  751TMC3    H211103   3.273   1.119  10.532  4.1016 -0.7219  0.7815
  751TMC3    C711104   3.492   1.125  10.690 -0.3736  0.1029  0.7369
  751TMC3    C811105   3.093   1.298  10.478  0.6969  0.4818 -0.7031
  751TMC3    O111106   3.599   1.142  10.739 -0.0670 -0.1857  0.1960
  751TMC3    O211107   3.102   1.193  10.413  0.1494  0.7073  0.2712
  752TMC3    C111108   2.433   2.739  17.231 -0.0210  0.1771 -0.5407
  752TMC3    C211109   2.344   2.710  17.329  0.7104  0.5301  0.4566
  752TMC3    C311110   2.355   2.764  17.452  0.2025  0.8160 -0.3262
  752TMC3    C411111   2.546   2.816  17.251 -0.2100  0.6769 -0.7920
  752TMC3    C511112   2.554   2.867  17.375  0.1182  1.0643  0.2928
  752TMC3    C611113   2.457   2.847  17.475  0.1384 -0.5880 -0.0466
  752TMC3     C11114   2.406   2.684  17.098  0.2472 -0.1931  0.3598
  752TMC3     O11115   2.494   2.695  17.013 -0.2574  0.4721 -0.1682
  752TMC3     H11116   2.270   2.634  17.308  1.6513 -0.6121  1.3537
  752TMC3    H111117   2.621   2.827  17.174  0.8048  0.2456  0.1290
  752TMC3    H211118   2.470   2.890  17.574 -0.3646 -2.8096  0.9889
  752TMC3    C711119   2.673   2.933  17.416  0.9619  0.6547  0.3623
  752TMC3    C811120   2.228   2.793  17.529 -0.5372  0.6657 -0.0046
  752TMC3    O111121   2.685   2.930  17.538 -0.0897 -0.4031  0.3699
  752TMC3    O211122   2.134   2.741  17.475 -0.3199 -0.4402 -0.0008
  753TMC3    C111123   4.452   3.639  13.195 -0.0899  0.2288  0.2924
  753TMC3    C211124   4.548   3.598  13.285  0.4198 -0.2765 -0.4891
  753TMC3    C311125   4.563   3.463  13.310  0.0766 -0.0380  0.2952
  753TMC3    C411126   4.372   3.550  13.126  0.9354  0.3969  0.3031
  753TMC3    C511127   4.390   3.418  13.146  0.4982  0.5221 -0.3725
  753TMC3    C611128   4.478   3.377  13.243 -1.0834 -0.0787 -0.6023
  753TMC3     C11129   4.419   3.782  13.197  0.0146 -0.4161 -0.1402
  753TMC3     O11130   4.506   3.859  13.240 -0.6889  0.2351 -0.3273
  753TMC3     H11131   4.608   3.677  13.329 -0.7759  0.5644 -0.3333
  753TMC3    H111132   4.317   3.589  13.041  1.5948  0.1047 -0.2568
  753TMC3    H211133   4.484   3.274  13.278  1.3980 -0.1463 -1.2170
  753TMC3    C711134   4.339   3.319  13.049 -0.0543  0.2053 -0.5584
  753TMC3    C811135   4.607   3.429  13.444  0.0305 -0.0068  0.0817
  753TMC3    O111136   4.227   3.327  13.010 -0.7970  0.3907  0.1267
  753TMC3    O211137   4.566   3.324  13.494 -0.0827 -0.0129 -0.0744
  754MPD2     C11138   2.461   1.729  12.336  0.0666 -0.1384 -0.8015
  754MPD2    C111139   2.391   1.771  12.443  0.6179 -0.0156  0.8546
  754MPD2    C211140   2.307   1.880  12.427  0.7334 -0.1834 -0.5892
  754MPD2    C311141   2.284   1.936  12.301  0.1418  0.7932  0.2366
  754MPD2    C411142   2.364   1.890  12.195  0.1902 -0.0652  0.9756
  754MPD2    C511143   2.459   1.793  12.217 -0.5082 -0.7503  0.2568
  754MPD2     H11144   2.261   1.912  12.519  0.6221  1.8978 -1.3896
  754MPD2    H111145   2.361   1.926  12.093  0.4122  2.6892  1.9645
  754MPD2    H211146   2.538   1.654  12.352 -0.4212 -0.4287  0.1737
  754MPD2    H311147   2.524   1.759  12.137  1.5620  0.1745  1.5693
  754MPD2     N11148   2.180   2.029  12.255  0.2857  0.2029  0.2164
  754MPD2    H511149   2.204   2.062  12.162 -2.7822  0.3203 -0.5305
  754MPD2    N111150   2.412   1.697  12.561  0.5977 -1.0757  0.2018
  754MPD2    H711151   2.483   1.624  12.558  1.8699  0.1200  0.9014
  755MPD2     C11152   2.401   2.070  13.217  0.4825 -0.7115  0.2607
  755MPD2    C111153   2.324   2.177  13.167  0.7010 -0.4162  0.0885
  755MPD2    C211154   2.245   2.159  13.054  0.3762  0.9374  0.6497
  755MPD2    C311155   2.245   2.034  12.990 -0.5881 -0.0061 -0.3646
  755MPD2    C411156   2.312   1.935  13.044 -0.5190  0.0637 -0.4408
  755MPD2    C511157   2.392   1.952  13.153  0.0139 -0.0757 -0.1385
  755MPD2     H11158   2.183   2.240  13.018 -1.0486  0.0489  1.0466
  755MPD2    H111159   2.311   1.834  13.005  2.1074  0.8933 -2.6556
  755MPD2    H211160   2.474   2.079  13.297 -2.0558  0.8335  2.4117
  755MPD2    H311161   2.467   1.876  13.171 -0.6407 -1.1289 -1.8519
  755MPD2     N11162   2.159   2.013  12.878  0.2647 -0.1733 -0.0468
  755MPD2    H511163   2.153   1.917  12.846 -0.7125 -0.2465  0.3794
  755MPD2    N111164   2.322   2.308  13.235 -0.7039  0.3661  0.3952
  755MPD2    H711165   2.246   2.364  13.198 -0.9722  0.8801  1.7149
  756MPD2     C11166   3.475   1.959   9.417 -0.0092 -0.4277 -0.4508
  756MPD2    C111167   3.423   2.085   9.439  1.1611 -0.1438 -0.4865
  756MPD2    C211168   3.300   2.115   9.386 -0.3570  0.0153  0.0818
  756MPD2    C311169   3.218   2.023   9.317 -0.0222  0.3540 -0.0421
  756MPD2    C411170   3.283   1.905   9.278 -0.3401 -0.1238 -0.2839
  756MPD2    C511171   3.406   1.875   9.329 -0.3334  0.5617  0.2523
  756MPD2     H11172   3.260   2.213   9.407  0.9337  0.5093  0.2206
  756MPD2    H111173   3.244   1.839   9.202 -3.0858 -0.2933  1.2612
  756MPD2    H211174   3.569   1.927   9.460 -0.0657  1.4692  1.0855
  756MPD2    H311175   3.444   1.774   9.322 -1.6710  0.3356 -3.2028
  756MPD2     N11176   3.098   2.069   9.258 -0.3938 -0.4358  0.3210
  756MPD2    H511177   3.074   2.164   9.286 -2.4987 -1.2737  1.4284
  756MPD2    N111178   3.488   2.187   9.516  0.1366 -0.2049 -0.7105
  756MPD2    H711179   3.452   2.282   9.526  1.1743  0.2760 -1.5880
  757MPD2     C11180   2.254   1.683   8.935  0.0965  0.4277  0.1729
  757MPD2    C111181   2.342   1.667   9.033 -0.0019 -1.0700  0.1188
  757MPD2    C211182   2.462   1.745   9.035 -0.2017  0.3690  0.2031
  757MPD2    C311183   2.470   1.855   8.949  0.0940 -0.2521  0.2212
  757MPD2    C411184   2.369   1.886   8.859 -0.0522  0.3735 -0.1493
  757MPD2    C511185   2.269   1.786   8.848 -0.3320  0.3701  0.5163
  757MPD2     H11186   2.540   1.718   9.104 -0.0173  0.4301  0.0197
  757MPD2    H111187   2.364   1.973   8.795 -0.4039  0.4316 -0.0415
  757MPD2    H211188   2.159   1.630   8.941  0.7087 -0.7040 -0.1447
  757MPD2    H311189   2.184   1.809   8.785  0.4768 -0.0442 -0.7347
  757MPD2     N11190   2.572   1.938   8.982  0.0287  0.1296 -0.2167
  757MPD2    H511191   2.632   1.909   9.058  0.2866 -0.1011 -0.5070
  757MPD2    N111192   2.308   1.568   9.122  0.6864 -0.3303  0.3940
  757MPD2    H711193   2.218   1.521   9.113  1.0640 -0.9090 -0.3301
  758MPD2     C11194   2.901   2.120  15.944  0.1140 -0.0447  0.0685
  758MPD2    C111195   2.956   2.038  16.040 -0.4470  0.6487  0.1186
  758MPD2    C211196   2.880   2.006  16.144 -0.4599  0.5592  0.2267
  758MPD2    C311197   2.752   2.053  16.171 -0.4853 -0.5941 -0.2019
  758MPD2    C411198   2.701   2.147  16.081 -1.5330  0.0617  0.1349
  758MPD2    C511199   2.772   2.173  15.969 -0.5482 -0.3324 -0.6209
  758MPD2     H11200   2.920   1.933  16.214 -2.0347  1.4106  2.0324
  758MPD2    H111201   2.601   2.189  16.087 -1.4494 -0.0868  2.2267
  758MPD2    H211202   2.957   2.151  15.857  1.6959  2.0097  1.7913
  758MPD2    H311203   2.726   2.235  15.893  2.5037  0.0265 -2.1978
  758MPD2     N11204   2.669   2.000  16.275 -0.0743  0.0984 -1.1444
  758MPD2    H511205   2.591   2.062  16.292 -0.9026 -2.0263  3.0336
  758MPD2    N111206   3.093   1.995  16.031  0.0706 -0.3630  0.1284
  758MPD2    H711207   3.147   2.048  15.963  2.4443  0.1157  2.3963
  759MPD2     C11208   1.765   0.254   9.770  0.1526  0.5262 -0.5025
  759MPD2    C111209   1.799   0.124   9.727 -0.0194 -0.3841 -0.3174
  759MPD2    C211210   1.856   0.106   9.604  0.1438  0.1466  0.0564
  759MPD2    C311211   1.874   0.212   9.518  0.2249  0.4548  0.1135
  759MPD2    C411212   1.856   0.337   9.572 -0.3296  0.2180  0.4770
  759MPD2    C511213   1.796   0.356   9.692 -0.0650  0.0792  1.0752
  759MPD2     H11214   1.887   0.004   9.589  0.1904  0.1076  0.4320
  759MPD2    H111215   1.884   0.430   9.524 -0.2302  0.8303  1.7077
  759MPD2    H211216   1.719   0.272   9.866  0.5015 -0.8447 -0.0865
  759MPD2    H311217   1.771   0.458   9.722 -0.7924  0.1194  0.3276
  759MPD2     N11218   1.935   0.187   9.391  0.3321  0.0090  0.1052
  759MPD2    H511219   1.941   0.089   9.364 -1.6868  0.0426 -0.4507
  759MPD2    N111220   1.776   0.006   9.799  0.0039  0.2325  0.8584
  759MPD2    H711221   1.797   4.641   9.750  1.2777  0.9372  0.1403
  760MPD2     C11222   1.524   2.199  11.672 -0.1808 -0.0643 -0.0161
  760MPD2    C111223   1.600   2.216  11.555 -0.0472  0.0235 -0.1879
  760MPD2    C211224   1.651   2.105  11.487  0.4258 -0.2215  0.2387
  760MPD2    C311225   1.629   1.976  11.538  0.3347 -0.9248  0.3009
  760MPD2    C411226   1.550   1.958  11.652  0.2977  0.1678  0.3268
  760MPD2    C511227   1.493   2.073  11.710 -0.2056 -0.3092 -0.9007
  760MPD2     H11228   1.709   2.118  11.397 -3.5256 -1.1651 -2.4097
  760MPD2    H111229   1.536   1.863  11.702 -4.5481  2.1213  2.6123
  760MPD2    H211230   1.489   2.278  11.739  1.4938 -0.0083  0.7904
  760MPD2    H311231   1.439   2.064  11.803  0.9056  0.9301 -0.1478
  760MPD2     N11232   1.692   1.862  11.491  0.1821  0.3769 -0.2291
  760MPD2    H511233   1.673   1.776  11.542  0.0946  1.3850  1.4237
  760MPD2    N111234   1.630   2.345  11.506 -0.3545  0.1644  0.0950
  760MPD2    H711235   1.688   2.348  11.423  0.1947 -0.1033  0.4684
  761MPD2     C11236   2.586   1.300  10.457  0.0713  0.4659  0.6374
  761MPD2    C111237   2.673   1.198  10.430  0.0640 -0.1074  0.1812
  761MPD2    C211238   2.812   1.213  10.442 -0.2670 -0.5483 -0.1947
  761MPD2    C311239   2.856   1.346  10.475  0.6131 -0.4999 -0.0863
  761MPD2    C411240   2.772   1.448  10.496  0.2449  0.4226  0.0910
  761MPD2    C511241   2.633   1.425  10.485 -0.1896 -0.0041 -0.4126
  761MPD2     H11242   2.877   1.127  10.440  0.9465  0.3515  1.3580
  761MPD2    H111243   2.801   1.550  10.522  0.3481  0.8867 -1.8136
  761MPD2    H211244   2.479   1.281  10.465 -0.1637  2.2047  1.6319
  761MPD2    H311245   2.571   1.509  10.516 -0.9028 -0.2326 -1.2193
  761MPD2     N11246   2.987   1.381  10.509 -0.1250  0.1465  0.2314
  761MPD2    H511247   2.998   1.472  10.553  0.2719  0.9277 -1.4784
  761MPD2    N111248   2.621   1.075  10.397 -0.2110  0.1321  0.0962
  761MPD2    H711249   2.522   1.062  10.418  0.1847 -2.1344  0.5288
  762MPD2     C11250   2.998   0.570   9.960 -0.0495 -0.4880  0.6787
  762MPD2    C111251   3.039   0.599  10.084 -0.2491  0.1202 -0.2004
  762MPD2    C211252   3.174   0.607  10.114 -0.7465  0.5400 -0.0908
  762MPD2    C311253   3.270   0.590  10.019 -0.7055  0.1999 -0.9780
  762MPD2    C411254   3.227   0.545   9.899  0.4888 -0.5849 -0.6708
  762MPD2    C511255   3.096   0.527   9.873 -0.1577  0.2730  0.5837
  762MPD2     H11256   3.203   0.649  10.209  0.0776 -1.6189  0.6061
  762MPD2    H111257   3.296   0.508   9.823  3.7922  1.4724  1.3309
  762MPD2    H211258   2.891   0.561   9.945  0.3177 -0.1932 -2.1597
  762MPD2    H311259   3.069   0.502   9.771  2.1052  2.0853 -0.4595
  762MPD2     N11260   3.408   0.601  10.045  0.1689 -0.0167 -0.4426
  762MPD2    H511261   3.442   0.611  10.140  1.7812 -0.4472 -0.9738
  762MPD2    N111262   2.937   0.631  10.174 -0.9488  0.0974  0.0350
  762MPD2    H711263   2.843   0.611  10.142 -0.2772 -2.0032 -0.6225
  763MPD2     C11264   4.546   2.153  16.356  0.3266 -0.6759  0.0959
  763MPD2    C111265   4.647   2.173  16.257  0.0258  0.0013  0.0519
  763MPD2    C211266   4.693   2.301  16.239  0.0732  0.0182 -0.0265
  763MPD2    C311267   4.638   2.414  16.299  0.3842 -0.3337 -0.2690
  763MPD2    C411268   4.532   2.392  16.389 -0.3253 -0.0809 -0.4446
  763MPD2    C511269   4.494   2.265  16.419 -0.0968 -0.7316  0.0588
  763MPD2     H11270   0.059   2.318  16.176  0.0311  0.8825  0.1467
  763MPD2    H111271   4.490   2.474  16.446 -0.4644 -1.4278  1.3960
  763MPD2    H211272   4.513   2.056  16.391 -3.3611  0.8616  0.8899
  763MPD2    H311273   4.408   2.246  16.482 -0.5917 -3.4842 -1.4316
  763MPD2     N11274   4.667   2.548  16.261  0.5507 -0.4524  0.5811
  763MPD2    H511275   4.595   2.618  16.280 -0.4570 -1.1013 -0.8561
  763MPD2    N111276   4.705   2.062  16.184 -0.0648  0.1541 -0.0023
  763MPD2    H711277   0.067   2.071  16.128 -0.6817 -1.1194 -1.1267
  764MPD2     C11278   3.153   3.861  17.272 -0.0126 -0.6289 -0.2009
  764MPD2    C111279   3.061   3.786  17.196 -0.5415  0.1717 -0.4110
  764MPD2    C211280   3.018   3.663  17.238  0.1636 -0.2333  0.1569
  764MPD2    C311281   3.053   3.610  17.363  0.8397 -1.0941 -0.3689
  764MPD2    C411282   3.143   3.680  17.440 -0.2927 -0.5442 -0.3870
  764MPD2    C511283   3.196   3.798  17.394  0.3735 -0.5720  0.0775
  764MPD2     H11284   2.948   3.602  17.182 -0.9215  0.3236  0.9206
  764MPD2    H111285   3.169   3.656  17.542  0.7777  3.2538  0.2090
  764MPD2    H211286   3.191   3.959  17.245  0.5785 -0.5273  0.9792
  764MPD2    H311287   3.270   3.850  17.453 -1.0751 -0.3524  1.6857
  764MPD2     N11288   2.988   3.495  17.412  0.2476  0.6854 -0.0395
  764MPD2    H511289   2.900   3.478  17.364  0.5787 -1.4056  0.0744
  764MPD2    N111290   3.013   3.833  17.076 -0.4020  0.9809  0.6460
  764MPD2    H711291   2.950   3.771  17.026  0.4506  2.0443 -1.7145
  765MPD2     C11292   2.117   1.132  15.550  0.0716 -0.9364 -0.3270
  765MPD2    C111293   2.204   1.243  15.553  0.1392  0.4039  0.3847
  765MPD2    C211294   2.338   1.226  15.532  0.3517 -0.5622 -0.0808
  765MPD2    C311295   2.388   1.101  15.503  0.6240 -0.6745 -0.0918
  765MPD2    C411296   2.302   0.990  15.491  0.0014 -0.2512  0.1557
  765MPD2    C511297   2.171   1.005  15.533  0.6392  0.4354 -1.0182
  765MPD2     H11298   2.401   1.312  15.512 -0.2420 -0.2347 -0.5884
  765MPD2    H111299   2.320   0.888  15.459 -0.5918 -0.0474 -0.8193
  765MPD2    H211300   2.013   1.140  15.581  0.0296 -0.6096 -0.5468
  765MPD2    H311301   2.101   0.923  15.534  0.8838  0.2242 -1.1234
  765MPD2     N11302   2.526   1.086  15.469  0.8705 -0.2947  0.3921
  765MPD2    H511303   2.590   1.164  15.481  0.5429 -0.1686  1.3085
  765MPD2    N111304   2.144   1.365  15.587  0.4826 -0.5712 -0.0376
  765MPD2    H711305   2.044   1.363  15.569  0.2247 -0.7007  1.4416
  766MPD2     C11306   1.755   1.732  15.215 -0.1589  0.5161 -0.0313
  766MPD2    C111307   1.882   1.693  15.251 -0.0343 -0.5184 -0.8773
  766MPD2    C211308   1.968   1.653  15.158 -0.1138  0.3191  0.8762
  766MPD2    C311309   1.944   1.648  15.015 -0.0471 -1.4766 -0.8255
  766MPD2    C411310   1.814   1.685  14.981 -0.1844 -0.3162  0.0900
  766MPD2    C511311   1.729   1.737  15.076  0.4627  0.0379 -0.2417
  766MPD2     H11312   2.068   1.627  15.192 -0.3589 -2.9297 -0.8308
  766MPD2    H111313   1.774   1.696  14.881  1.5353  0.8385 -0.4808
  766MPD2    H211314   1.680   1.755  15.289  0.7512  1.5716  0.5494
  766MPD2    H311315   1.629   1.769  15.048  1.2832  0.5160 -2.6693
  766MPD2     N11316   2.035   1.621  14.912 -0.4088  0.0925  0.3779
  766MPD2    H511317   2.004   1.636  14.817 -1.0745 -2.3337  0.2008
  766MPD2    N111318   1.927   1.696  15.383 -0.8052  0.3976  0.0901
  766MPD2    H711319   2.011   1.641  15.401 -1.1400 -0.1244  0.0824
  767MPD2     C11320   1.678   1.863  14.681 -0.4277  0.2215  0.9607
  767MPD2    C111321   1.814   1.842  14.674 -0.5781 -0.6289  0.1187
  767MPD2    C211322   1.859   1.727  14.608  0.0304 -0.2106 -0.1529
  767MPD2    C311323   1.759   1.634  14.565 -0.4316 -0.0959 -0.2705
  767MPD2    C411324   1.627   1.653  14.586 -0.2338 -0.3585  0.1271
  767MPD2    C511325   1.584   1.775  14.641  0.5723 -0.1049 -0.0759
  767MPD2     H11326   1.960   1.713  14.572  0.2646  3.3986 -0.9726
  767MPD2    H111327   1.549   1.584  14.555 -0.5978  0.4692 -0.7855
  767MPD2    H211328   1.640   1.948  14.736  1.2412  1.0913  0.7920
  767MPD2    H311329   1.478   1.792  14.653  0.5876  0.2251 -0.4223
  767MPD2     N11330   1.808   1.525  14.493 -0.1374  0.3311 -0.2788
  767MPD2    H511331   1.909   1.531  14.487 -0.3086  0.9001 -2.5713
  767MPD2    N111332   1.907   1.939  14.723 -0.2791  0.1533  0.1109
  767MPD2    H711333   1.872   2.029  14.753 -2.7108 -0.7437  0.0276
  768MPD2     C11334   2.640   3.960  10.736  0.1476  0.4363 -0.9477
  768MPD2    C111335   2.665   4.073  10.809  0.2686 -0.1904  0.7966
  768MPD2    C211336   2.750   4.070  10.914 -0.2121 -0.5771  0.5835
  768MPD2    C311337   2.822   3.954  10.943 -0.3006 -0.0361  0.7401
  768MPD2    C411338   2.805   3.838  10.868  0.4967  0.0505  0.4191
  768MPD2    C511339   2.708   3.843  10.769  0.1271  0.2486 -0.2709
  768MPD2     H11340   2.753   4.153  10.984 -0.1510 -0.6509  0.6690
  768MPD2    H111341   2.858   3.744  10.877 -0.7956 -0.7232 -0.1186
  768MPD2    H211342   2.577   3.953  10.648 -0.0529 -0.1693 -0.7605
  768MPD2    H311343   2.690   3.757  10.706  1.1366 -0.0595 -0.1363
  768MPD2     N11344   2.921   3.955  11.043 -0.2107 -0.4470 -0.2499
  768MPD2    H511345   2.973   3.869  11.060  1.0191  0.4845  0.7464
  768MPD2    N111346   2.583   4.187  10.795 -0.0815 -0.0065 -0.0065
  768MPD2    H711347   2.594   4.254  10.870  0.9814  0.1002 -0.2629
  769MPD2     C11348   3.829   3.089  14.558  0.5342  0.2542  0.0244
  769MPD2    C111349   3.708   3.060  14.615  0.4205 -0.3509  0.0984
  769MPD2    C211350   3.674   3.124  14.735 -0.0942 -0.4466  0.9660
  769MPD2    C311351   3.750   3.233  14.786  0.3418 -0.0844 -0.5302
  769MPD2    C411352   3.874   3.259  14.725 -0.1455  0.7410  0.0672
  769MPD2    C511353   3.908   3.186  14.612 -0.5084 -0.8634 -0.1854
  769MPD2     H11354   3.581   3.094  14.782 -0.1179 -1.7095  0.1296
  769MPD2    H111355   3.951   3.320  14.771 -0.2107 -1.3675  2.9806
  769MPD2    H211356   3.851   3.047  14.461 -1.1394 -0.1033 -0.2124
  769MPD2    H311357   4.012   3.192  14.582 -1.0636 -0.4020 -2.0113
  769MPD2     N11358   3.712   3.298  14.905 -0.1817  0.1935  0.1395
  769MPD2    H511359   3.630   3.262  14.953  0.2702  2.1457  2.3689
  769MPD2    N111360   3.638   2.953  14.557 -0.7268  0.4476 -0.7164
  769MPD2    H711361   3.687   2.899  14.487  0.5116  0.2809  0.2740
  770MPD2     C11362   3.670   2.021  14.501  0.1794 -0.2132 -0.0343
  770MPD2    C111363   3.552   2.059  14.567 -0.1289 -0.4040 -0.0515
  770MPD2    C211364   3.495   2.181  14.536  0.3699 -0.3935  0.4363
  770MPD2    C311365   3.562   2.269  14.452 -0.1069  0.8848  0.3961
  770MPD2    C411366   3.684   2.231  14.392  0.4284  0.3397 -0.2149
  770MPD2    C511367   3.732   2.109  14.421 -0.1988  0.4430 -0.0183
  770MPD2     H11368   3.398   2.216  14.571 -0.7533 -0.3143 -2.7067
  770MPD2    H111369   3.726   2.290  14.312  0.0775  1.9016  0.7629
  770MPD2    H211370   3.724   1.929  14.519  2.1806  0.8853 -0.3755
  770MPD2    H311371   3.823   2.068  14.378 -0.6438 -0.5161 -0.0505
  770MPD2     N11372   3.500   2.394  14.434  0.1044 -0.2269  0.3133
  770MPD2    H511373   3.415   2.404  14.489  0.7505 -2.4439  1.7166
  770MPD2    N111374   3.503   1.968  14.669 -0.5493  0.3035  0.7802
  770MPD2    H711375   3.563   1.890  14.691  0.7684  0.5588 -1.9706
  771MPD2     C11376   4.535   0.696  13.731  0.1790  1.0003 -0.4106
  771MPD2    C111377   4.498   0.812  13.668  0.1732  0.2677 -1.0190
  771MPD2    C211378   4.434   0.803  13.547  0.2594 -0.7843 -0.6653
  771MPD2    C311379   4.393   0.681  13.486  0.0269  0.2625 -0.3978
  771MPD2    C411380   4.423   0.571  13.559 -0.1604  0.0525 -0.1464
  771MPD2    C511381   4.492   0.581  13.678  0.2082 -0.5122 -0.1482
  771MPD2     H11382   4.410   0.889  13.486  2.1327  0.6332  0.6010
  771MPD2    H111383   4.398   0.467  13.539  0.7360 -0.2865  0.4665
  771MPD2    H211384   4.591   0.684  13.823 -0.0515 -2.8444 -0.7597
  771MPD2    H311385   4.528   0.494  13.732 -1.3469 -1.9558 -1.4179
  771MPD2     N11386   4.328   0.677  13.354  0.0182  0.4589  0.2628
  771MPD2    H511387   4.317   0.767  13.308 -0.1861  0.2425 -0.1131
  771MPD2    N111388   4.547   0.940  13.708  0.5521  0.3321 -0.2776
  771MPD2    H711389   4.518   1.019  13.652 -0.1768 -0.6371 -1.2567
  772MPD2     C11390   4.364   1.522  14.093  0.1140 -0.2079 -0.0768
  772MPD2    C111391   4.333   1.484  13.965 -0.3247  0.4093 -1.0186
  772MPD2    C211392   4.199   1.497  13.928  0.1596  0.8565  0.0028
  772MPD2    C311393   4.107   1.568  14.009  0.1183 -0.1753  0.1408
  772MPD2    C411394   4.138   1.594  14.134 -1.0180 -0.0403  0.2494
  772MPD2    C511395   4.266   1.568  14.174  0.3485  0.1074  0.4762
  772MPD2     H11396   4.166   1.459  13.832 -2.8717 -0.7142  1.6410
  772MPD2    H111397   4.069   1.634  14.207  1.0455  0.9312  1.6619
  772MPD2    H211398   4.463   1.503  14.133 -0.2887  0.0720  1.0492
  772MPD2    H311399   4.289   1.602  14.274 -1.3560  1.9492  0.2313
  772MPD2     N11400   3.970   1.586  13.968  0.5685 -0.4743 -0.0252
  772MPD2    H511401   3.910   1.599  14.048 -1.0186 -0.2114 -1.2711
  772MPD2    N111402   4.426   1.437  13.871 -0.0901 -0.7388 -0.2339
  772MPD2    H711403   4.393   1.412  13.778  1.2500  1.1832 -1.1987
  773MPD2     C11404   3.053   2.698   0.262  0.0465  0.0292  0.4113
  773MPD2    C111405   3.164   2.637   0.210 -0.1975  0.2275  0.7531
  773MPD2    C211406   3.258   2.582   0.292 -0.7632 -0.3612 -0.3860
  773MPD2    C311407   3.261   2.602   0.430  0.3945  0.4960  0.2749
  773MPD2    C411408   3.151   2.666   0.484  0.3789  0.5546 -0.4504
  773MPD2    C511409   3.053   2.709   0.397  0.2097 -1.4965  0.2251
  773MPD2     H11410   3.338   2.522   0.251  1.6807  1.8109  1.1987
  773MPD2    H111411   3.149   2.693   0.589  4.2962 -2.0443  0.2674
  773MPD2    H211412   2.974   2.748   0.208  0.0715  0.3800  0.7021
  773MPD2    H311413   2.964   2.751   0.443  1.7338  2.8555 -0.7242
  773MPD2     N11414   3.367   2.551   0.500 -0.7708 -0.3123  0.2044
  773MPD2    H511415   3.441   2.512   0.441  0.4710  0.4148  1.2916
  773MPD2    N111416   3.169   2.612   0.071 -0.1369  0.2826 -0.3856
  773MPD2    H711417   3.242   2.547   0.040  0.9560  1.4490 -0.2594
  774MPD2     C11418   2.173   1.284  13.544  0.5021 -0.0111  0.2868
  774MPD2    C111419   2.300   1.246  13.506  0.0342 -0.0088  0.7250
  774MPD2    C211420   2.352   1.288  13.383 -0.1464 -0.6685  0.5570
  774MPD2    C311421   2.278   1.353  13.295  0.9056  0.2378 -0.3413
  774MPD2    C411422   2.147   1.379  13.329 -0.2102  0.3741  0.2226
  774MPD2    C511423   2.094   1.360  13.455 -0.8335 -0.0070 -0.0686
  774MPD2     H11424   2.455   1.272  13.354 -1.3227 -0.0309 -3.8861
  774MPD2    H111425   2.093   1.451  13.268 -0.0491 -0.2965 -0.7180
  774MPD2    H211426   2.128   1.270  13.641  0.4807 -1.3155  0.0858
  774MPD2    H311427   1.994   1.399  13.475 -1.1068  0.3648 -2.2079
  774MPD2     N11428   2.352   1.398  13.189 -0.7116 -0.9335  0.7242
  774MPD2    H511429   2.453   1.394  13.194 -0.7028 -1.4005  0.1125
  774MPD2    N111430   2.374   1.184  13.608 -0.0869 -0.2326 -0.1586
  774MPD2    H711431   2.329   1.176  13.699  0.6643 -0.1129  0.2214
  775MPD2     C11432   4.016   2.996  15.554 -0.3460  0.0386 -0.4384
  775MPD2    C111433   4.003   3.125  15.611 -1.1224 -0.2217  0.2719
  775MPD2    C211434   4.021   3.234  15.534 -0.1025 -0.0242  0.8467
  775MPD2    C311435   4.070   3.220  15.403 -0.1872 -0.1591 -0.0312
  775MPD2    C411436   4.100   3.099  15.356  0.5744 -0.6377 -0.0743
  775MPD2    C511437   4.068   2.993  15.429 -0.4761 -0.4575 -0.6535
  775MPD2     H11438   3.993   3.330  15.577 -0.3035  0.7611 -1.0566
  775MPD2    H111439   4.123   3.074  15.254  0.2692  1.5957 -0.6889
  775MPD2    H211440   4.014   2.913  15.624 -0.2576  0.4876  0.0955
  775MPD2    H311441   4.095   2.894  15.393  1.7385 -0.1379  0.1639
  775MPD2     N11442   4.084   3.334  15.320 -0.3394  0.5623 -0.8724
  775MPD2    H511443   4.129   3.323  15.229  0.4325 -0.8915 -0.3122
  775MPD2    N111444   3.968   3.132  15.751  0.8686  0.4210 -0.8096
  775MPD2    H711445   3.982   3.051  15.811 -1.3154  1.1867  0.7692
  776MPD2     C11446   3.648   2.540  11.331 -0.2107 -0.4072  0.0151
  776MPD2    C111447   3.583   2.604  11.231 -0.1295  0.2251  0.3196
  776MPD2    C211448   3.603   2.743  11.213 -0.2385  0.3213  0.3946
  776MPD2    C311449   3.683   2.819  11.298  0.7888  0.2848  0.0669
  776MPD2    C411450   3.758   2.752  11.390  0.3791 -0.3604  0.0665
  776MPD2    C511451   3.731   2.613  11.414  0.2804  0.3953 -0.2227
  776MPD2     H11452   3.559   2.789  11.125  1.4099 -0.1403 -0.6534
  776MPD2    H111453   3.820   2.808  11.459 -0.4291 -0.8908  1.2254
  776MPD2    H211454   3.641   2.435  11.354  0.6506 -0.5207 -0.2693
  776MPD2    H311455   3.774   2.557  11.496 -1.7761  2.6032  2.3765
  776MPD2     N11456   3.708   2.961  11.285  0.4482  0.3542  0.0484
  776MPD2    H511457   3.769   3.007  11.351 -0.6139  0.9347  0.6310
  776MPD2    N111458   3.498   2.525  11.148 -0.1005 -0.2082  0.7480
  776MPD2    H711459   3.510   2.425  11.162 -0.2293 -0.5104 -1.2952
  777MPD2     C11460   3.506   0.307   0.196  0.8903 -0.5889  0.7422
  777MPD2    C111461   3.386   0.291   0.252  0.0618 -0.2753  0.1878
  777MPD2    C211462   3.291   0.208   0.200 -0.7745 -0.1835 -0.0581
  777MPD2    C311463   3.315   0.141   0.082 -0.0851 -0.4331  0.2098
  777MPD2    C411464   3.438   0.167   0.020  0.2869 -0.0933 -0.3204
  777MPD2    C511465   3.527   0.255   0.073  0.5359  0.0869 -0.2499
  777MPD2     H11466   3.188   0.210   0.234 -1.2892  0.0840 -1.6507
  777MPD2    H111467   3.466   0.121  17.613  0.2331  1.0713 -0.8945
  777MPD2    H211468   3.577   0.383   0.226  0.9707 -0.1412 -0.5427
  777MPD2    H311469   3.618   0.272   0.018  0.6435  0.5062  0.0540
  777MPD2     N11470   3.217   0.064   0.019  0.5939  0.2745 -0.7185
  777MPD2    H511471   3.131   0.057   0.073  1.5508 -1.3465  0.6112
  777MPD2    N111472   3.362   0.368   0.377 -0.0889  0.1472 -0.2343
  777MPD2    H711473   3.264   0.375   0.405  0.0165  2.0485 -0.3395
  778MPD2     C11474   4.678   1.031  14.914  0.3151 -0.0566 -0.5006
  778MPD2    C111475   4.710   0.928  14.834 -0.6073  0.3956 -0.2295
  778MPD2    C211476   0.066   0.953  14.721 -0.5612 -0.5682 -0.0211
  778MPD2    C311477   0.105   1.082  14.692 -0.2223 -0.3295 -0.0715
  778MPD2    C411478   0.064   1.186  14.776  0.8162  0.0381  0.2659
  778MPD2    C511479   4.711   1.160  14.888 -0.2680  0.4957  0.0156
  778MPD2     H11480   0.084   0.876  14.647  2.7136 -0.0545  0.2178
  778MPD2    H111481   0.098   1.287  14.757  0.8929 -0.3285 -1.5605
  778MPD2    H211482   4.623   1.023  15.007  2.0678  2.6561  0.7929
  778MPD2    H311483   4.684   1.239  14.957 -2.3255 -1.0019  0.9509
  778MPD2     N11484   0.198   1.085  14.587  0.0120  0.6038 -1.0843
  778MPD2    H511485   0.221   0.997  14.542  1.1552  1.3628 -1.9892
  778MPD2    N111486   4.672   0.796  14.863 -0.3282  0.1510  0.1451
  778MPD2    H711487   4.697   0.720  14.801  1.6877  1.8690 -1.1527
  779MPD2     C11488   4.461   4.477  14.066  0.8659  0.3587 -0.1550
  779MPD2    C111489   4.592   4.506  14.080  0.4117  0.7873  0.4404
  779MPD2    C211490   4.614   4.621  14.159 -0.0722  0.4300  0.0455
  779MPD2    C311491   4.513   4.706  14.198  0.5997 -0.1230 -0.2546
  779MPD2    C411492   4.379   4.675  14.176 -0.5526  0.1152 -0.5787
  779MPD2    C511493   4.358   4.555  14.110  0.2953 -0.4110 -0.8388
  779MPD2     H11494   4.716   4.653  14.179  0.0832  0.9406 -1.5684
  779MPD2    H111495   4.297   0.019  14.204 -1.1843 -0.7326 -0.4617
  779MPD2    H211496   4.428   4.393  14.006  0.7023  1.0889 -1.0893
  779MPD2    H311497   4.257   4.532  14.078 -0.2369  2.9444 -1.5976
  779MPD2     N11498   4.561   0.102  14.255  0.2101 -0.2041 -0.4414
  779MPD2    H511499   4.661   0.115  14.266  0.3678 -1.2034 -0.7700
  779MPD2    N111500   4.700   4.421  14.034  0.3497  0.2343  0.2990
  779MPD2    H711501   0.076   4.434  14.062  0.7526 -0.7628 -0.6560
  780MPD2     C11502   4.110   4.176   1.281  0.2332 -0.1883 -0.0367
  780MPD2    C111503   4.004   4.171   1.193 -0.1614 -0.8267 -0.2668
  780MPD2    C211504   4.021   4.265   1.088 -0.1725 -0.6413 -0.1204
  780MPD2    C311505   4.121   4.357   1.083  0.1322 -0.2800 -0.0681
  780MPD2    C411506   4.209   4.374   1.179  0.2146  0.7911 -0.7759
  780MPD2    C511507   4.209   4.270   1.274 -0.7115  0.0916 -0.4551
  780MPD2     H11508   3.943   4.258   1.013 -0.6288  1.7270  0.1343
  780MPD2    H111509   4.283   4.453   1.184  0.9119  0.0564  0.6309
  780MPD2    H211510   4.111   4.107   1.364  1.6380  0.2235  0.2708
  780MPD2    H311511   4.285   4.275   1.351 -1.2031 -1.8973  0.1695
  780MPD2     N11512   4.116   4.447   0.970  0.2897  0.2194 -0.4354
  780MPD2    H511513   4.040   4.430   0.905  0.5127 -0.0950 -0.6078
  780MPD2    N111514   3.901   4.078   1.215  0.4128  0.3344  0.9781
  780MPD2    H711515   3.921   3.997   1.273  0.9972 -0.6696 -0.6284
  781MPD2     C11516   0.596   1.512  11.957  0.3500  0.4149  0.0551
  781MPD2    C111517   0.676   1.398  11.955  0.0659 -0.0081 -0.2709
  781MPD2    C211518   0.767   1.375  11.857  0.1403  0.2217 -0.2579
  781MPD2    C311519   0.793   1.462  11.752 -0.6154  0.5485 -0.0519
  781MPD2    C411520   0.708   1.572  11.752  0.0978  0.6155  0.0874
  781MPD2    C511521   0.612   1.597  11.847  0.3432  0.4940 -0.4081
  781MPD2     H11522   0.828   1.286  11.865 -0.8200 -0.5942 -2.0929
  781MPD2    H111523   0.718   1.646  11.674 -0.6412 -1.3418 -1.8622
  781MPD2    H211524   0.521   1.525  12.034  0.9320 -0.7457  0.8103
  781MPD2    H311525   0.542   1.679  11.831 -1.4262 -0.5931  1.6825
  781MPD2     N11526   0.897   1.463  11.663  0.1694  0.4264  0.0004
  781MPD2    H511527   0.909   1.546  11.606 -0.0981  0.3152 -0.2211
  781MPD2    N111528   0.673   1.304  12.060  0.4372  0.0694  0.2378
  781MPD2    H711529   0.720   1.217  12.038  2.4038  1.1604  0.1421
  782MPD2     C11530   4.009   1.219  10.296 -0.6899  0.5711  0.1087
  782MPD2    C111531   4.108   1.188  10.385 -0.3485  0.0163 -0.8490
  782MPD2    C211532   4.195   1.285  10.438 -0.2633 -0.2996  0.5518
  782MPD2    C311533   4.191   1.412  10.387  0.4245  0.5550  0.4855
  782MPD2    C411534   4.091   1.444  10.293  0.1789 -0.0071 -0.0671
  782MPD2    C511535   4.004   1.343  10.247 -0.2243 -0.4400 -0.8160
  782MPD2     H11536   4.278   1.271  10.506  0.2536  1.0542  0.2008
  782MPD2    H111537   4.067   1.540  10.248  0.0006  0.3573  0.8082
  782MPD2    H211538   3.930   1.151  10.267  0.3720  0.3952 -2.3840
  782MPD2    H311539   3.922   1.372  10.183  1.2131 -0.7836 -2.8371
  782MPD2     N11540   4.280   1.515  10.429  0.2843  0.4023  0.7621
  782MPD2    H511541   4.348   1.499  10.503 -0.0917 -0.2375  0.9731
  782MPD2    N111542   4.118   1.051  10.422 -0.9512 -0.4162 -0.0313
  782MPD2    H711543   4.045   0.991  10.384  0.0623 -1.0924 -0.9196
  783MPD2     C11544   3.411   0.773  10.694  0.4224  0.5345  0.3223
  783MPD2    C111545   3.488   0.882  10.671  0.2781  0.1168  1.0011
  783MPD2    C211546   3.625   0.874  10.655 -0.6966 -0.0154 -0.2660
  783MPD2    C311547   3.679   0.746  10.633 -0.5664  0.5364 -0.4283
  783MPD2    C411548   3.601   0.631  10.659  0.4688  0.4370 -1.0183
  783MPD2    C511549   3.461   0.644  10.680 -0.9036  0.9385  0.2941
  783MPD2     H11550   3.690   0.959  10.645 -0.7614  0.1018  0.3343
  783MPD2    H111551   3.644   0.531  10.661 -0.7806 -0.1360 -2.6405
  783MPD2    H211552   3.306   0.779  10.721  0.6294  0.8396  1.0659
  783MPD2    H311553   3.406   0.557  10.713  1.2157 -0.7703 -0.6763
  783MPD2     N11554   3.818   0.755  10.618  0.2404  0.0933  0.9034
  783MPD2    H511555   3.863   0.845  10.608 -0.2698  0.0685 -1.4497
  783MPD2    N111556   3.424   1.007  10.666 -0.1322  0.3295 -0.6165
  783MPD2    H711557   3.323   1.005  10.656 -0.2417 -1.9449  1.0588
  784MPD2     C11558   1.198   2.112   1.381 -0.7331 -0.0634 -0.1676
  784MPD2    C111559   1.226   2.241   1.403  0.6652 -0.3809 -0.2954
  784MPD2    C211560   1.143   2.341   1.350 -0.3339 -0.0191  0.1276
  784MPD2    C311561   1.030   2.299   1.284  0.1632  0.6542  0.4526
  784MPD2    C411562   0.999   2.159   1.263 -0.1117  0.0163 -0.0335
  784MPD2    C511563   1.090   2.067   1.309  0.1327  0.8152 -1.0020
  784MPD2     H11564   1.178   2.444   1.351  2.4242 -1.0084  2.9535
  784MPD2    H111565   0.903   2.128   1.221 -0.5578  1.2245  0.0849
  784MPD2    H211566   1.270   2.034   1.403  0.2175  0.3646 -1.7339
  784MPD2    H311567   1.068   1.961   1.302 -0.4141  0.9095 -0.7110
  784MPD2     N11568   0.956   2.403   1.226 -0.1247 -0.1733 -0.2131
  784MPD2    H511569   0.998   2.495   1.232 -0.5886  0.0678 -0.7060
  784MPD2    N111570   1.343   2.289   1.467  0.7980 -0.2429 -0.5378
  784MPD2    H711571   1.356   2.388   1.487  1.2992 -0.7186  1.4340
  785MPD2     C11572   1.355   4.404  10.407  0.6215 -0.3527  0.4926
  785MPD2    C111573   1.242   4.457  10.340 -0.8959 -0.5400 -0.2823
  785MPD2    C211574   1.196   4.381  10.227 -0.4573 -1.0601 -0.6627
  785MPD2    C311575   1.262   4.268  10.172 -0.1680 -0.1055 -0.0315
  785MPD2    C411576   1.370   4.218  10.246  0.2733 -0.1240 -0.5661
  785MPD2    C511577   1.415   4.288  10.360  0.2310 -0.4271 -0.4409
  785MPD2     H11578   1.121   4.421  10.160  0.1990  1.7597  0.2839
  785MPD2    H111579   1.419   4.124  10.226 -1.3345 -1.0475 -0.2247
  785MPD2    H211580   1.396   4.446  10.498  1.7902 -0.0902 -0.1568
  785MPD2    H311581   1.499   4.245  10.414  0.1899  0.4622  0.3259
  785MPD2     N11582   1.203   4.212  10.054  0.1512  0.3381  1.0166
  785MPD2    H511583   1.134   4.266  10.003 -0.3823 -1.3660 -0.0985
  785MPD2    N111584   1.185   4.579  10.371 -0.1929  0.0166  0.5006
  785MPD2    H711585   1.102   4.603  10.317  0.6000  0.8132 -0.3558
  786MPD2     C11586   0.244   3.906  14.749 -0.0548 -0.4251  0.5263
  786MPD2    C111587   0.373   3.868  14.750 -0.4631 -0.2737 -0.4060
  786MPD2    C211588   0.466   3.895  14.856 -0.0373  0.8964  0.2628
  786MPD2    C311589   0.427   3.970  14.964  0.0127 -0.1030  0.1708
  786MPD2    C411590   0.299   4.023  14.952  0.1742 -0.5551  0.1205
  786MPD2    C511591   0.205   3.984  14.855 -0.1593 -0.1690 -0.3117
  786MPD2     H11592   0.570   3.869  14.845 -0.4502 -0.7051  0.1598
  786MPD2    H111593   0.264   4.099  15.021  1.3201 -0.2492  0.3566
  786MPD2    H211594   0.186   3.882  14.661  0.0611 -0.2559  0.4018
  786MPD2    H311595   0.106   4.029  14.862 -0.2219 -0.2707 -0.5507
  786MPD2     N11596   0.511   4.028  15.056  0.2324  0.0616 -0.1475
  786MPD2    H511597   0.468   4.071  15.138 -0.8850 -0.5459 -0.4260
  786MPD2    N111598   0.430   3.801  14.639 -0.2276 -0.1303  0.5692
  786MPD2    H711599   0.529   3.782  14.644  0.0721  1.6999  1.7062
  787MPD2     C11600   0.837   3.438  14.817 -1.0609 -0.1953 -0.3154
  787MPD2    C111601   0.817   3.374  14.700  0.6870 -0.4711 -0.0424
  787MPD2    C211602   0.868   3.251  14.677  0.4717  0.4827  0.2029
  787MPD2    C311603   0.943   3.194  14.776 -0.2620  0.9490  0.0382
  787MPD2    C411604   0.957   3.254  14.898  1.2750  0.2391  0.1485
  787MPD2    C511605   0.905   3.377  14.918 -0.4536  0.6404  0.1417
  787MPD2     H11606   0.862   3.194  14.586 -2.0904  1.2111 -0.0640
  787MPD2    H111607   1.011   3.211  14.982 -0.4319 -0.1216  1.0467
  787MPD2    H211608   0.800   3.539  14.832  1.1026  0.6485 -0.6935
  787MPD2    H311609   0.917   3.425  15.014 -0.4998 -0.0181  0.4819
  787MPD2     N11610   1.016   3.075  14.742  0.4724 -0.4963 -0.2590
  787MPD2    H511611   0.994   3.037  14.651 -1.1946 -0.1229 -0.0132
  787MPD2    N111612   0.740   3.445  14.603  0.1219  0.3319  0.4839
  787MPD2    H711613   0.708   3.534  14.640  0.3397  0.4580  0.3708
  788MPD2     C11614   2.242   2.128  17.165  0.6186  0.1226 -0.4534
  788MPD2    C111615   2.207   2.112  17.298  0.1298  0.2992  0.8793
  788MPD2    C211616   2.166   1.985  17.334 -0.3098 -0.1136  0.3974
  788MPD2    C311617   2.172   1.881  17.241  0.3546  0.4698 -0.1446
  788MPD2    C411618   2.199   1.905  17.102  0.4911 -0.0859  0.1316
  788MPD2    C511619   2.229   2.033  17.069  0.6195  0.3190 -0.2449
  788MPD2     H11620   2.137   1.976  17.438 -3.5983 -1.6840 -0.6760
  788MPD2    H111621   2.192   1.826  17.029  2.4615  1.0014 -1.2379
  788MPD2    H211622   2.258   2.228  17.127 -0.4402  0.3342 -0.3435
  788MPD2    H311623   2.226   2.065  16.966 -1.1276 -2.5025 -1.0697
  788MPD2     N11624   2.161   1.742  17.272  0.4949 -0.0651 -0.1444
  788MPD2    H511625   2.187   1.669  17.206 -0.1167  0.7871 -1.3381
  788MPD2    N111626   2.219   2.218  17.392 -0.5773  0.4568 -0.2416
  788MPD2    H711627   2.184   2.201  17.485  1.0931 -2.7459 -0.1947
  789MPD2     C11628   2.624   1.757  15.925  0.5223 -0.3487  0.2662
  789MPD2    C111629   2.577   1.656  16.000  0.7128  0.1340  0.4168
  789MPD2    C211630   2.465   1.684  16.078  0.0097 -0.0137 -0.1990
  789MPD2    C311631   2.415   1.815  16.085  0.2155 -0.5115  0.1251
  789MPD2    C411632   2.470   1.918  16.014 -0.1251  0.1475  0.3358
  789MPD2    C511633   2.571   1.883  15.929 -0.0298  0.3920 -0.5849
  789MPD2     H11634   2.418   1.602  16.131  2.3950 -0.3866  1.3107
  789MPD2    H111635   2.430   2.019  16.014  2.7913  1.3089 -2.5766
  789MPD2    H211636   2.714   1.745  15.866 -0.7162  0.2420 -1.7203
  789MPD2    H311637   2.616   1.961  15.868  1.6195 -0.8353 -0.9367
  789MPD2     N11638   2.297   1.843  16.158  0.0164  0.4240 -0.1734
  789MPD2    H511639   2.254   1.933  16.141  1.4808  1.2973  0.7304
  789MPD2    N111640   2.644   1.529  16.005 -0.2623  0.2623  0.2289
  789MPD2    H711641   2.609   1.460  16.071 -0.3227 -0.6819 -0.7923
  790MPD2     C11642   3.772   3.626  13.237  0.3191  0.5642 -0.1064
  790MPD2    C111643   3.764   3.502  13.174 -0.3651 -0.3339 -0.2980
  790MPD2    C211644   3.644   3.480  13.101 -0.5508  0.5847 -0.0235
  790MPD2    C311645   3.542   3.574  13.075  0.0563 -1.1467 -0.3062
  790MPD2    C411646   3.564   3.704  13.120 -0.3268 -0.1149  0.3547
  790MPD2    C511647   3.674   3.719  13.208  0.0274  0.0367  0.2731
  790MPD2     H11648   3.620   3.380  13.067  1.9652 -0.4303  1.1995
  790MPD2    H111649   3.497   3.787  13.104  0.0811  0.2808  0.6887
  790MPD2    H211650   3.850   3.659  13.305  1.7561 -0.2505 -1.3756
  790MPD2    H311651   3.701   3.819  13.242 -1.2079  0.4861 -0.0767
  790MPD2     N11652   3.425   3.532  13.006  0.4435  0.1033 -0.5632
  790MPD2    H511653   3.408   3.435  12.982  0.3519  0.0806 -0.4034
  790MPD2    N111654   3.844   3.393  13.204 -0.0957 -0.6301  0.4500
  790MPD2    H711655   3.898   3.393  13.290 -0.4843  2.5882  0.6688
  791MPD2     C11656   2.698   3.563  12.829  0.4997 -0.1213  0.4969
  791MPD2    C111657   2.755   3.437  12.812 -0.6725 -0.1224 -0.0618
  791MPD2    C211658   2.697   3.337  12.737  0.3981  0.5060 -0.2801
  791MPD2    C311659   2.580   3.368  12.670 -0.0696 -0.3246  0.0016
  791MPD2    C411660   2.515   3.489  12.690 -0.1649 -0.0485  0.0280
  791MPD2    C511661   2.573   3.583  12.774  0.3199  0.1431 -0.2440
  791MPD2     H11662   2.754   3.247  12.721  0.5339  0.9508 -2.2361
  791MPD2    H111663   2.416   3.512  12.653  0.0555 -2.3200 -1.9668
  791MPD2    H211664   2.739   3.641  12.893 -1.3513 -0.7974  2.5317
  791MPD2    H311665   2.519   3.677  12.781  1.0711  0.4945  0.7110
  791MPD2     N11666   2.511   3.269  12.593 -0.6487  0.0275 -0.3662
  791MPD2    H511667   2.565   3.185  12.572  1.0792  1.0156  0.0828
  791MPD2    N111668   2.885   3.419  12.869  0.3216 -0.0991  0.0556
  791MPD2    H711669   2.933   3.502  12.901  1.9392 -0.9664 -0.1298
  792MPD2     C11670   3.996   2.328  11.062  0.4992  0.3467 -0.3164
  792MPD2    C111671   3.900   2.401  10.998  0.0576  0.2597 -0.5095
  792MPD2    C211672   3.822   2.339  10.908 -0.3424 -0.5703 -0.2481
  792MPD2    C311673   3.819   2.198  10.885  1.1728  0.4617 -0.5652
  792MPD2    C411674   3.918   2.129  10.955 -0.5945 -0.5325 -0.1883
  792MPD2    C511675   4.011   2.192  11.037 -0.4857 -0.4205  0.1399
  792MPD2     H11676   3.754   2.404  10.854 -1.0013 -1.0877 -0.0357
  792MPD2    H111677   3.932   2.023  10.937  0.8108 -0.4414  0.4306
  792MPD2    H211678   4.068   2.385  11.118  1.9834 -0.7520 -1.1029
  792MPD2    H311679   4.091   2.135  11.081 -0.1468  0.2461  0.3967
  792MPD2     N11680   3.749   2.127  10.785  0.4214 -0.2851 -0.1581
  792MPD2    H511681   3.779   2.032  10.770  1.3554  0.1105 -0.7897
  792MPD2    N111682   3.888   2.540  11.020 -0.5643  0.2667  0.1368
  792MPD2    H711683   3.949   2.583  11.088  0.8704 -0.6671 -0.5575
  793MPD2     C11684   3.393   2.666  10.067 -0.0112  0.5973 -0.3188
  793MPD2    C111685   3.428   2.538  10.028 -0.5629 -0.3851  0.2292
  793MPD2    C211686   3.419   2.432  10.113 -0.3870  0.0402  0.4216
  793MPD2    C311687   3.377   2.456  10.242  0.2808  0.0743 -0.0825
  793MPD2    C411688   3.348   2.581  10.285  0.6020  0.5926 -0.2348
  793MPD2    C511689   3.350   2.688  10.197 -0.4434 -0.3731  0.3144
  793MPD2     H11690   3.469   2.338  10.093  1.2679  0.6635  1.6611
  793MPD2    H111691   3.320   2.601  10.388  2.2275  0.5904  0.2112
  793MPD2    H211692   3.381   2.747   9.996  3.3732  0.6524 -0.8609
  793MPD2    H311693   3.311   2.784  10.229 -0.5310  0.2648 -1.7341
  793MPD2     N11694   3.388   2.350  10.339 -0.0998  0.4909  0.3550
  793MPD2    H511695   3.366   2.372  10.435  0.6049  1.2651  0.3422
  793MPD2    N111696   3.487   2.505   9.906  0.2384 -0.3040  0.2661
  793MPD2    H711697   3.497   2.404   9.895 -1.7813 -0.1870 -2.6155
  794MPD2     C11698   3.165   2.750  16.895  0.2304 -0.3173 -0.6730
  794MPD2    C111699   3.042   2.761  16.956 -0.0566  1.1513 -0.2947
  794MPD2    C211700   2.928   2.806  16.892  0.5225  0.3525  0.3037
  794MPD2    C311701   2.938   2.836  16.755  0.3106  0.6163 -0.1465
  794MPD2    C411702   3.057   2.818  16.693 -0.4724 -0.1558  0.0753
  794MPD2    C511703   3.169   2.782  16.761  0.8276  0.7017  0.1750
  794MPD2     H11704   2.832   2.818  16.941  0.8991  1.0346  0.8741
  794MPD2    H111705   3.061   2.837  16.586 -1.2194  0.9423  0.2348
  794MPD2    H211706   3.254   2.707  16.940  2.0773  1.3196 -2.7759
  794MPD2    H311707   3.267   2.789  16.714  0.7270 -2.1813 -0.4874
  794MPD2     N11708   2.838   2.878  16.665  0.1870  0.1289 -0.5965
  794MPD2    H511709   2.864   2.884  16.567 -0.6783  3.4693 -0.6492
  794MPD2    N111710   3.019   2.718  17.087 -1.0257  0.0539  0.2860
  794MPD2    H711711   2.922   2.690  17.099 -1.0471  0.2929  0.6560
  795MPD2     C11712   1.221   0.013  12.370 -0.0309  0.1215  0.0734
  795MPD2    C111713   1.180   4.668  12.487  0.0754  0.2595 -0.3856
  795MPD2    C211714   1.273   4.630  12.588 -0.3513 -0.2969 -0.0054
  795MPD2    C311715   1.405   4.670  12.576  0.1764 -0.5079 -0.2412
  795MPD2    C411716   1.440   0.013  12.461 -0.2640 -0.5671 -0.0412
  795MPD2    C511717   1.347   0.049  12.365 -0.3411  0.1495  0.6204
  795MPD2     H11718   1.230   4.577  12.673  1.8626 -2.3174 -0.1502
  795MPD2    H111719   1.545   0.029  12.439  0.1311 -0.5674  1.8329
  795MPD2    H211720   1.155   0.062  12.301 -1.0885 -0.7118  0.5024
  795MPD2    H311721   1.393   0.101  12.281  1.2622 -1.5738  0.4224
  795MPD2     N11722   1.508   4.637  12.671  0.1484 -0.5456  0.2694
  795MPD2    H511723   1.477   4.596  12.759  2.2221  0.0054  1.2690
  795MPD2    N111724   1.043   4.629  12.509  0.2669 -0.1168 -0.0578
  795MPD2    H711725   1.030   4.549  12.571  1.1694  1.7779  2.5976
  796MPD2     C11726   0.987   1.593  16.215  0.0960  0.1561 -0.7097
  796MPD2    C111727   0.875   1.654  16.276 -0.1602  0.0458  1.1322
  796MPD2    C211728   0.803   1.740  16.198  0.9550  0.0288  0.9195
  796MPD2    C311729   0.829   1.774  16.069 -0.4638  0.5758 -0.0382
  796MPD2    C411730   0.941   1.725  16.012 -0.1195 -0.8516 -0.2442
  796MPD2    C511731   1.021   1.640  16.085 -0.5253 -0.0053 -0.3316
  796MPD2     H11732   0.718   1.778  16.254  1.9170  1.6182  1.3029
  796MPD2    H111733   0.969   1.738  15.909  0.3963 -1.6919 -0.2145
  796MPD2    H211734   1.060   1.520  16.251  2.1203  2.1107 -0.8532
  796MPD2    H311735   1.109   1.599  16.035 -0.6372 -2.1236  1.2581
  796MPD2     N11736   0.737   1.856  16.002  0.1208  0.2401 -0.3546
  796MPD2    H511737   0.655   1.887  16.054 -0.6834 -1.7410 -0.4706
  796MPD2    N111738   0.844   1.617  16.407 -0.1845  0.2890 -0.3180
  796MPD2    H711739   0.915   1.558  16.450 -0.5929 -1.4643 -2.0602
  797MPD2     C11740   1.481   0.403   0.007  0.8623 -1.1063 -1.0173
  797MPD2    C111741   1.415   0.489   0.083 -0.2467 -0.0850  0.0120
  797MPD2    C211742   1.418   0.624   0.048  0.5125  0.5342 -0.0163
  797MPD2    C311743   1.480   0.672  17.619  0.1080 -0.0699 -0.3846
  797MPD2    C411744   1.553   0.580  17.543  0.8462  0.3076 -0.0371
  797MPD2    C511745   1.555   0.448  17.589  0.2305 -0.0040 -0.4666
  797MPD2     H11746   1.362   0.687   0.116  0.5453  1.0936 -0.5006
  797MPD2    H111747   1.612   0.608  17.456  1.0236 -0.9091 -0.3209
  797MPD2    H211748   1.482   0.296   0.024 -2.5610 -1.2570 -1.8358
  797MPD2    H311749   1.611   0.376  17.532 -0.4638  2.0950 -3.7908
  797MPD2     N11750   1.471   0.807  17.585 -0.1532  0.0077 -0.2438
  797MPD2    H511751   1.504   0.834  17.493 -0.3418 -0.8305 -0.5583
  797MPD2    N111752   1.317   0.458   0.183  0.8453  0.6158 -0.1820
  797MPD2    H711753   1.271   0.536   0.230  2.3513  0.7967  1.0000
  798MPD2     C11754   0.812   0.989   0.017  0.5636  0.0892 -0.5194
  798MPD2    C111755   0.946   0.969   0.037  0.5631 -0.1135  0.1547
  798MPD2    C211756   0.983   0.853   0.104 -0.2885  0.1125 -0.3773
  798MPD2    C311757   0.892   0.766   0.156  0.3699  0.2009  0.0586
  798MPD2    C411758   0.756   0.796   0.151 -0.3555  0.2809 -0.0182
  798MPD2    C511759   0.719   0.914   0.087 -0.7210  0.4967 -0.0106
  798MPD2     H11760   1.089   0.829   0.116  0.3358  2.5817 -0.9986
  798MPD2    H111761   0.675   0.739   0.194  0.9236 -2.8661 -1.8271
  798MPD2    H211762   0.773   1.068  17.642  0.1840  1.5047  1.5148
  798MPD2    H311763   0.615   0.940   0.074 -0.5995  0.1322 -1.7266
  798MPD2     N11764   0.935   0.636   0.196 -0.6773  0.0770  0.4273
  798MPD2    H511765   1.033   0.613   0.185 -1.0698 -1.8142  0.8515
  798MPD2    N111766   1.052   1.032  17.662 -0.4509  0.0678  0.3590
  798MPD2    H711767   1.137   0.984   0.005 -0.4629  1.0271  1.9161
  799MPD2     C11768   0.267   3.135  14.400 -0.2750 -0.1212  0.0418
  799MPD2    C111769   0.290   3.030  14.304  0.2901  0.4448 -0.6221
  799MPD2    C211770   0.294   3.049  14.167  0.4091 -0.5550  0.0141
  799MPD2    C311771   0.269   3.178  14.119 -0.3400 -1.2384 -0.1523
  799MPD2    C411772   0.259   3.280  14.208 -0.1349 -0.1357 -0.3345
  799MPD2    C511773   0.245   3.260  14.344 -0.0936 -0.0265 -0.2976
  799MPD2     H11774   0.317   2.968  14.100  1.2400 -0.6006  0.3493
  799MPD2    H111775   0.255   3.380  14.167 -2.5331  0.2766  0.9316
  799MPD2    H211776   0.254   3.121  14.507  0.6931  0.7738  0.2725
  799MPD2    H311777   0.219   3.344  14.407  1.8599  1.1155 -1.0106
  799MPD2     N11778   0.287   3.206  13.983  0.0751 -0.4830 -0.3164
  799MPD2    H511779   0.309   3.303  13.964  0.6059 -0.6486 -0.5585
  799MPD2    N111780   0.299   2.899  14.342 -0.2256  0.0738  0.4749
  799MPD2    H711781   0.290   2.828  14.271  0.7782  1.4785 -1.0613
  800MPD2     C11782   0.954   3.594  14.061 -0.7698 -0.1442 -0.0990
  800MPD2    C111783   1.057   3.692  14.055  0.1488 -0.0614 -0.8076
  800MPD2    C211784   1.050   3.784  13.953  0.5597 -0.4269  0.6635
  800MPD2    C311785   0.969   3.764  13.846  1.2894  0.0267 -0.1070
  800MPD2    C411786   0.879   3.660  13.845  0.0441  0.5393 -0.2646
  800MPD2    C511787   0.865   3.590  13.958 -0.3310 -0.5055 -0.4345
  800MPD2     H11788   1.123   3.864  13.946  0.1481 -0.0522  0.6804
  800MPD2    H111789   0.817   3.632  13.761  2.2669  2.2601 -2.4630
  800MPD2    H211790   0.951   3.522  14.141 -0.8838 -0.3835 -0.3173
  800MPD2    H311791   0.797   3.506  13.943 -1.6954  0.5374 -0.1133
  800MPD2     N11792   0.996   3.846  13.735  0.1674  0.0227  0.4758
  800MPD2    H511793   1.067   3.918  13.743 -0.6314  0.7005  1.3378
  800MPD2    N111794   1.154   3.698  14.152 -0.3909  0.7886  0.2696
  800MPD2    H711795   1.139   3.650  14.239 -0.6437 -1.6696 -1.1369
  801MPD2     C11796   1.285   4.278  14.534  0.3737 -0.3000 -0.3404
  801MPD2    C111797   1.239   4.195  14.447 -0.2245 -0.2816 -0.5615
  801MPD2    C211798   1.142   4.242  14.358 -0.2524 -0.6831  0.0460
  801MPD2    C311799   1.100   4.375  14.362  0.3067 -0.1392  0.8397
  801MPD2    C411800   1.149   4.457  14.452  0.3295  0.3506  0.2137
  801MPD2    C511801   1.245   4.404  14.542  0.5719 -0.0128 -0.0298
  801MPD2     H11802   1.116   4.171  14.280  2.8597 -1.2585 -0.4901
  801MPD2    H111803   1.109   4.557  14.468  1.3316  1.0612 -1.7828
  801MPD2    H211804   1.352   4.235  14.607  1.0759  0.4125 -0.5647
  801MPD2    H311805   1.266   4.471  14.625  0.7250  0.0561 -0.1253
  801MPD2     N11806   0.988   4.424  14.292 -0.6567 -0.8998 -0.1340
  801MPD2    H511807   0.944   4.513  14.313 -1.3139 -1.2675  0.0389
  801MPD2    N111808   1.286   4.060  14.426  0.1272  0.6694 -0.3606
  801MPD2    H711809   1.239   4.006  14.354  1.1455  1.6936 -1.7733
  802MPD2     C11810   4.521   0.101  17.265 -0.1051 -0.2866  0.5125
  802MPD2    C111811   4.601   0.115  17.378 -0.6737  0.4130  0.2190
  802MPD2    C211812   4.680   0.014  17.422 -0.0516 -0.2398  0.2167
  802MPD2    C311813   4.707   4.629  17.335  0.3346  0.6551  0.3997
  802MPD2    C411814   4.609   4.608  17.243  0.3457 -0.8749 -0.4103
  802MPD2    C511815   4.512   4.703  17.210  0.2363  0.8891  0.1543
  802MPD2     H11816   0.015   0.026  17.514 -0.2450  0.5120  0.2351
  802MPD2    H111817   4.607   4.519  17.182  0.9413 -1.0715 -0.1461
  802MPD2    H211818   4.458   0.184  17.233  0.1424 -1.1819 -2.2968
  802MPD2    H311819   4.440   4.691  17.130 -0.4969 -0.7800  1.0705
  802MPD2     N11820   0.097   4.543  17.356  0.0859 -0.8460  0.6381
  802MPD2    H511821   0.156   4.556  17.438  0.4866  0.7428  0.0806
  802MPD2    N111822   4.596   0.231  17.455 -0.8165  0.4614 -0.1437
  802MPD2    H711823   4.629   0.232  17.551  0.4012 -0.7139 -0.5682
  803MPD2     C11824   1.511   2.980  11.351 -0.4096 -0.6063  0.9201
  803MPD2    C111825   1.575   3.049  11.457 -0.5718 -0.2602  0.4359
  803MPD2    C211826   1.512   3.043  11.584 -0.5057 -0.9427 -0.1830
  803MPD2    C311827   1.396   2.971  11.607  0.2841 -0.3857 -0.9575
  803MPD2    C411828   1.348   2.888  11.506  0.5586 -0.2262  0.0744
  803MPD2    C511829   1.396   2.900  11.376  0.6084  0.2791 -0.3402
  803MPD2     H11830   1.564   3.095  11.664  2.0877 -2.0402 -1.1390
  803MPD2    H111831   1.265   2.819  11.518  0.7332 -0.8399 -2.1402
  803MPD2    H211832   1.544   2.977  11.247 -0.6091  0.5406  0.8252
  803MPD2    H311833   1.346   2.852  11.292 -2.4865  0.9331  1.1316
  803MPD2     N11834   1.347   2.942  11.739  0.0308  0.7518 -0.0419
  803MPD2    H511835   1.285   2.863  11.750 -1.2526  1.2291 -3.8178
  803MPD2    N111836   1.706   3.097  11.462  0.0541  0.2003 -0.1757
  803MPD2    H711837   1.743   3.145  11.544 -1.4331 -0.3979  0.8353
  804MPD2     C11838   0.845   4.048  16.871 -0.0974 -0.6969 -0.0975
  804MPD2    C111839   0.859   4.030  17.014  0.1056  0.5165 -0.5690
  804MPD2    C211840   0.867   4.142  17.094 -0.1670 -0.0542  0.0155
  804MPD2    C311841   0.868   4.260  17.034 -0.3272 -0.0000  0.2261
  804MPD2    C411842   0.864   4.279  16.899  0.3815 -0.2588 -0.6193
  804MPD2    C511843   0.838   4.174  16.815  0.3035  0.3304 -0.2069
  804MPD2     H11844   0.879   4.135  17.201  0.5384  1.9037  0.0576
  804MPD2    H111845   0.888   4.374  16.853  0.4414  0.8103  1.6547
  804MPD2    H211846   0.838   3.967  16.799  0.3143  1.4255 -2.5281
  804MPD2    H311847   0.830   4.191  16.709 -1.1132  0.3696 -0.0961
  804MPD2     N11848   0.896   4.368  17.121  0.2348  0.5690  0.3654
  804MPD2    H511849   0.912   4.351  17.219 -0.3063  1.0657  0.5439
  804MPD2    N111850   0.870   3.911  17.085  0.1876 -0.1731 -0.4095
  804MPD2    H711851   0.879   3.921  17.185 -0.5944  1.5826 -0.5135
  805MPD2     C11852   4.613   3.149  15.426 -0.4845 -0.3591  0.5489
  805MPD2    C111853   0.004   3.162  15.354 -0.2995  0.4193  0.1450
  805MPD2    C211854   0.119   3.182  15.429  0.0930 -0.0067  0.5572
  805MPD2    C311855   0.121   3.182  15.567 -0.0023 -0.4415  0.3189
  805MPD2    C411856   4.719   3.175  15.632  0.3078  0.3270 -0.2934
  805MPD2    C511857   4.606   3.158  15.560 -0.3990  0.5356  0.9363
  805MPD2     H11858   0.211   3.190  15.374  0.1428  0.1064  0.6575
  805MPD2    H111859   4.707   3.154  15.738 -3.8328  0.8089 -0.6703
  805MPD2    H211860   4.523   3.124  15.370 -0.1659  2.2475 -1.1221
  805MPD2    H311861   4.506   3.142  15.600 -0.7409 -1.3397 -0.6788
  805MPD2     N11862   0.248   3.201  15.627 -0.3768 -0.7273  0.7486
  805MPD2    H511863   0.326   3.215  15.564 -0.6861 -0.1345  0.4952
  805MPD2    N111864   0.016   3.143  15.215 -0.0733 -0.2892 -0.2669
  805MPD2    H711865   0.110   3.150  15.179 -0.1236  0.5796 -0.2128
  806MPD2     C11866   0.632   1.970   0.277  0.3978  0.8548  0.7554
  806MPD2    C111867   0.602   2.058   0.382 -0.2366 -0.6961  0.1341
  806MPD2    C211868   0.668   2.175   0.404 -0.2363  0.3160 -0.3188
  806MPD2    C311869   0.764   2.211   0.315  0.9364  0.8177 -0.2870
  806MPD2    C411870   0.789   2.134   0.199 -1.4473  0.4649 -0.4489
  806MPD2    C511871   0.724   2.015   0.188  0.6332  0.0879  0.0436
  806MPD2     H11872   0.648   2.239   0.490  1.0091 -0.6872  0.7115
  806MPD2    H111873   0.868   2.161   0.129  0.0915 -0.7145  0.8200
  806MPD2    H211874   0.572   1.881   0.260 -1.6836  2.6509 -1.3782
  806MPD2    H311875   0.742   1.946   0.106  1.5602  0.3754  0.0016
  806MPD2     N11876   0.816   2.338   0.335  0.3319 -0.5397 -0.3301
  806MPD2    H511877   0.787   2.380   0.422 -2.1328  1.3402 -2.0315
  806MPD2    N111878   0.515   2.032   0.488 -0.6484 -0.3729 -0.0564
  806MPD2    H711879   0.503   2.096   0.565  2.1075 -1.8754  1.6445
  807MPD2     C11880   0.368   1.271   0.836 -0.4120 -0.0357  0.5215
  807MPD2    C111881   0.298   1.367   0.905 -0.0129 -0.5646  0.2284
  807MPD2    C211882   0.229   1.330   1.016  0.0103 -0.4329  0.0891
  807MPD2    C311883   0.214   1.199   1.046 -0.6936  0.5330  0.1575
  807MPD2    C411884   0.283   1.100   0.969 -0.8749 -0.2636 -0.1709
  807MPD2    C511885   0.359   1.137   0.863 -0.4215 -0.3444 -0.3942
  807MPD2     H11886   0.187   1.412   1.074  0.6104  0.1709 -0.3237
  807MPD2    H111887   0.278   0.993   0.986  0.4970 -0.2521  0.2754
  807MPD2    H211888   0.433   1.294   0.752  0.0738  0.4168  1.0210
  807MPD2    H311889   0.412   1.062   0.806 -1.7516 -0.5499 -1.3664
  807MPD2     N11890   0.120   1.159   1.144  0.4311  0.5093  0.0146
  807MPD2    H511891   0.056   1.229   1.182  0.6731 -0.4097  2.1277
  807MPD2    N111892   0.322   1.505   0.879 -0.4108  0.1448  0.1872
  807MPD2    H711893   0.288   1.563   0.954  1.1606  0.6474  0.5092
  808MPD2     C11894   0.991   3.403   9.611 -0.6061 -0.3090  0.7129
  808MPD2    C111895   1.103   3.335   9.665  0.1338  0.3738 -0.1167
  808MPD2    C211896   1.233   3.380   9.638 -0.0479  0.4127  0.4633
  808MPD2    C311897   1.249   3.484   9.550  0.0813  0.7520 -0.6474
  808MPD2    C411898   1.141   3.542   9.489 -0.6884  0.2423  0.0783
  808MPD2    C511899   1.012   3.509   9.525  0.2834  0.3539 -0.7506
  808MPD2     H11900   1.319   3.329   9.680  0.1742  0.8480  0.5427
  808MPD2    H111901   1.153   3.622   9.417 -1.6049  0.1411 -0.1791
  808MPD2    H211902   0.889   3.386   9.645  0.0891 -0.7795  2.5866
  808MPD2    H311903   0.929   3.566   9.484 -1.0340  0.4687  2.1169
  808MPD2     N11904   1.372   3.535   9.522 -0.6032  0.2737 -0.1177
  808MPD2    H511905   1.385   3.605   9.449 -1.0958 -0.1181 -0.5828
  808MPD2    N111906   1.086   3.221   9.745 -0.7205  0.3075 -0.5460
  808MPD2    H711907   1.174   3.175   9.766 -0.2668  2.6239  2.7099
  809MPD2     C11908   2.457   3.394   9.590 -0.1727 -0.6681  0.4356
  809MPD2    C111909   2.352   3.302   9.597 -0.2022  0.7430 -0.7792
  809MPD2    C211910   2.223   3.334   9.567 -0.3962  0.3968 -0.1524
  809MPD2    C311911   2.189   3.464   9.531 -0.1965 -0.7205 -0.6002
  809MPD2    C411912   2.292   3.555   9.521 -0.0372 -0.3180  0.3357
  809MPD2    C511913   2.420   3.521   9.561  0.6152  0.5567 -0.1996
  809MPD2     H11914   2.147   3.263   9.595 -1.1175  0.9810 -0.6180
  809MPD2    H111915   2.275   3.656   9.486  1.8871  0.2612  1.0603
  809MPD2    H211916   2.563   3.370   9.584  0.1790  0.8812  0.2109
  809MPD2    H311917   2.500   3.592   9.544 -0.7508  1.9649 -0.7067
  809MPD2     N11918   2.059   3.512   9.493 -0.4739  0.9295  0.1457
  809MPD2    H511919   2.049   3.611   9.472  0.6001  0.1691 -4.0637
  809MPD2    N111920   2.380   3.171   9.648 -1.1357 -0.2904 -0.1157
  809MPD2    H711921   2.304   3.104   9.659 -1.1956 -0.1768  0.1698
  810MPD2     C11922   0.749   2.463  11.144  0.0555 -0.5972  0.0366
  810MPD2    C111923   0.767   2.496  11.008 -0.1655  0.5587  0.2046
  810MPD2    C211924   0.746   2.626  10.965  0.6535  0.1440 -0.3323
  810MPD2    C311925   0.711   2.720  11.063  0.3272 -0.4878  0.1526
  810MPD2    C411926   0.707   2.692  11.197 -0.8033  0.4918  0.7028
  810MPD2    C511927   0.723   2.561  11.235  0.0798 -0.0598  0.0481
  810MPD2     H11928   0.750   2.648  10.858 -0.1854  0.2364 -0.3510
  810MPD2    H111929   0.689   2.773  11.267  1.0056 -0.5935  2.4144
  810MPD2    H211930   0.754   2.363  11.185 -1.2778  0.1664  2.0953
  810MPD2    H311931   0.714   2.537  11.341 -1.5584  2.6974  0.5416
  810MPD2     N11932   0.694   2.850  11.027  0.6471  0.3643  0.1324
  810MPD2    H511933   0.688   2.923  11.098  0.1480 -1.2372  1.7400
  810MPD2    N111934   0.796   2.393  10.921  1.2314 -0.2433 -0.2013
  810MPD2    H711935   0.768   2.303  10.957 -1.8268  0.3803 -1.0432
  811MPD2     C11936   0.611   2.223  10.025  0.1035 -0.1002 -0.1253
  811MPD2    C111937   0.656   2.313  10.117 -0.0859  0.5777  0.8411
  811MPD2    C211938   0.660   2.449  10.080  0.1847  0.7650  0.4162
  811MPD2    C311939   0.606   2.494   9.958 -0.0715 -0.4785  0.6186
  811MPD2    C411940   0.562   2.396   9.870  0.6845  0.2971  0.3044
  811MPD2    C511941   0.572   2.263   9.900 -0.1135  0.4535 -0.3769
  811MPD2     H11942   0.690   2.528  10.149  1.7418  0.5330 -0.0021
  811MPD2    H111943   0.510   2.425   9.779  0.8934  1.6935  0.6355
  811MPD2    H211944   0.596   2.116  10.041  0.4499 -0.5753 -2.9689
  811MPD2    H311945   0.532   2.188   9.833 -0.7066  1.4249 -1.1032
  811MPD2     N11946   0.579   2.634   9.932  0.1134  0.4027 -0.2038
  811MPD2    H511947   0.609   2.692  10.010  1.1956  0.5286 -0.7119
  811MPD2    N111948   0.697   2.263  10.243 -0.6909  0.8527  0.1557
  811MPD2    H711949   0.688   2.163  10.261 -0.6048  1.3376  2.8865
  812MPD2     C11950   4.582   2.865  12.205 -0.6004 -0.0356  0.8988
  812MPD2    C111951   4.450   2.847  12.248 -0.6000 -0.6151  1.1317
  812MPD2    C211952   4.428   2.775  12.361 -0.0074  0.6098 -0.4687
  812MPD2    C311953   4.532   2.730  12.439 -0.4387 -0.2010  0.2125
  812MPD2    C411954   4.660   2.753  12.401 -0.1445  0.1758 -0.8340
  812MPD2    C511955   4.688   2.813  12.280  0.3617 -0.7483  0.4663
  812MPD2     H11956   4.327   2.764  12.399  0.6190 -0.1255  1.0014
  812MPD2    H111957   0.026   2.719  12.455 -0.0284  0.1062 -1.0660
  812MPD2    H211958   4.600   2.906  12.106 -2.6020 -0.0322  0.5295
  812MPD2    H311959   0.070   2.824  12.249 -0.2188  1.4226 -0.6676
  812MPD2     N11960   4.495   2.679  12.567  0.0306  0.1901 -0.4730
  812MPD2    H511961   4.400   2.647  12.583  0.3344 -1.3594 -1.7171
  812MPD2    N111962   4.335   2.892  12.174 -0.3183 -0.2454  0.5925
  812MPD2    H711963   4.346   2.964  12.103 -0.3572 -0.6069  0.2220
  813MPD2     C11964   3.539   0.423  12.402 -0.1184 -0.8435 -0.1677
  813MPD2    C111965   3.511   0.554  12.430 -0.0858 -0.2133 -0.4429
  813MPD2    C211966   3.466   0.590  12.558  0.5007 -0.8128  0.6351
  813MPD2    C311967   3.467   0.503  12.664  0.0788 -0.2973  0.4207
  813MPD2    C411968   3.498   0.371  12.636  0.0634 -0.2427  0.8027
  813MPD2    C511969   3.533   0.338  12.505 -0.1220 -0.0145  0.0720
  813MPD2     H11970   3.418   0.686  12.578 -0.3201 -1.2154  0.5962
  813MPD2    H111971   3.501   0.298  12.717 -1.4362 -0.1297  0.9513
  813MPD2    H211972   3.557   0.394  12.299  1.2961  0.2786 -0.2363
  813MPD2    H311973   3.550   0.233  12.482  1.3782  0.2778 -0.1558
  813MPD2     N11974   3.450   0.554  12.801 -0.2854  0.1383  0.8207
  813MPD2    H511975   3.443   0.655  12.812  2.9567  0.3750  0.6302
  813MPD2    N111976   3.500   0.653  12.327 -0.2461 -0.2465 -0.0522
  813MPD2    H711977   3.512   0.611  12.235 -2.2014  1.8022 -1.2233
  814MPD2     C11978   3.130   1.871  11.748  0.2693 -0.1982 -0.5661
  814MPD2    C111979   3.226   1.771  11.751 -1.0927 -0.6474  0.5233
  814MPD2    C211980   3.333   1.785  11.838 -0.3507 -0.5258 -0.3874
  814MPD2    C311981   3.349   1.892  11.924 -0.7403 -0.6849 -0.4663
  814MPD2    C411982   3.252   1.986  11.922  0.3555  0.3506 -0.0620
  814MPD2    C511983   3.143   1.977  11.838 -0.5267 -0.0107 -0.0075
  814MPD2     H11984   3.404   1.703  11.843 -1.8098 -1.7040  0.6858
  814MPD2    H111985   3.251   2.069  11.992  1.3730  0.4748 -0.1876
  814MPD2    H211986   3.042   1.876  11.685  0.2987 -0.0889 -0.5983
  814MPD2    H311987   3.073   2.060  11.836  1.2967  1.5373  0.1981
  814MPD2     N11988   3.461   1.912  12.006 -0.3101  0.3598  0.0845
  814MPD2    H511989   3.456   1.993  12.067 -0.2627 -0.3114  0.9835
  814MPD2    N111990   3.214   1.653  11.674 -0.7662 -0.0100 -0.0149
  814MPD2    H711991   3.269   1.571  11.698  0.6493  1.1458  0.6687
  815MPD2     C11992   3.946   4.537  11.742 -0.1811  0.7111 -1.0534
  815MPD2    C111993   3.941   4.396  11.766 -0.1256 -0.3760  0.4359
  815MPD2    C211994   3.849   4.345  11.849 -0.2648 -0.2250 -0.6281
  815MPD2    C311995   3.751   4.433  11.902  0.1087  0.8271  0.3821
  815MPD2    C411996   3.758   4.570  11.887 -0.2967  0.0908 -0.7426
  815MPD2    C511997   3.859   4.619  11.811  0.3325  0.5707 -0.2500
  815MPD2     H11998   3.834   4.238  11.858  1.7130 -0.6135 -1.9301
  815MPD2    H111999   3.694   4.635  11.944  3.2690  2.9097  0.0058
  815MPD2    H212000   4.024   4.590  11.689  0.2523 -0.6586 -1.7984
  815MPD2    H312001   3.890   0.001  11.809 -2.2764  1.3463  0.2141
  815MPD2     N12002   3.647   4.374  11.978  0.0366 -0.6834  0.5886
  815MPD2    H512003   3.634   4.274  11.988 -1.6640 -0.1619  3.4135
  815MPD2    N112004   4.049   4.316  11.703 -0.0011  0.4594 -0.4511
  815MPD2    H712005   4.111   4.357  11.634 -0.2221  1.6263  0.0553
  816MPD2     C12006   4.602   4.416   0.048 -0.0675  0.1136 -0.3683
  816MPD2    C112007   4.526   4.419  17.616  0.6527  0.2625  0.1111
  816MPD2    C212008   4.564   4.333  17.509  0.1088 -0.1091 -0.5354
  816MPD2    C312009   4.661   4.234  17.527  0.4171  0.1210 -0.1612
  816MPD2    C412010   0.011   4.231  17.643  0.1409 -1.2118  0.0599
  816MPD2    C512011   4.706   4.319   0.054  0.6092 -0.2884  0.6311
  816MPD2     H12012   4.504   4.317  17.420  0.5183  1.0030 -1.0016
  816MPD2    H112013   0.078   4.148  17.663 -0.9893 -2.1348 -0.0353
  816MPD2    H212014   4.578   4.486   0.127 -1.2740  0.8197 -1.3566
  816MPD2    H312015   0.027   4.300   0.152 -0.2424 -0.8365  0.8932
  816MPD2     N12016   4.686   4.146  17.416  0.0526  0.3639 -0.1212
  816MPD2    H512017   4.613   4.141  17.345  1.2058  0.8892 -1.3361
  816MPD2    N112018   4.422   4.507  17.604  0.1452 -0.4483  0.5812
  816MPD2    H712019   4.402   4.577  17.674  1.6456  1.5522 -1.0046
  817MPD2     C12020   3.900   4.552   9.109  0.1477 -0.4635 -0.3042
  817MPD2    C112021   3.812   4.475   9.177  0.3858  1.1795  0.4490
  817MPD2    C212022   3.695   4.422   9.119 -0.1349 -0.2656 -0.2161
  817MPD2    C312023   3.663   4.453   8.983 -0.5576  0.1051 -0.4571
  817MPD2    C412024   3.750   4.541   8.912  0.1783  1.0991 -0.2866
  817MPD2    C512025   3.853   4.598   8.984 -0.6892  0.5980  0.6500
  817MPD2     H12026   3.633   4.362   9.185 -0.5589 -0.0439 -0.4090
  817MPD2    H112027   3.722   4.573   8.813 -1.1988  1.0471  0.0951
  817MPD2    H212028   3.987   4.598   9.154 -0.4766  1.8472 -1.4202
  817MPD2    H312029   3.910   4.678   8.940 -0.0250  0.8980  2.0422
  817MPD2     N12030   3.561   4.384   8.923  0.4096  0.0060  0.2134
  817MPD2    H512031   3.519   4.310   8.979 -1.6636  1.9967  1.3006
  817MPD2    N112032   3.836   4.430   9.311 -0.0582 -0.2867 -0.5623
  817MPD2    H712033   3.762   4.374   9.351 -0.9756  0.6143 -1.0138
  818MPD2     C12034   2.307   0.381   9.471  0.1275 -0.1472 -0.2027
  818MPD2    C112035   2.315   0.320   9.595 -0.5594 -0.2685 -0.7767
  818MPD2    C212036   2.413   0.221   9.614  0.4363  0.3336 -0.0740
  818MPD2    C312037   2.484   0.179   9.508 -0.2789 -0.0016  0.3342
  818MPD2    C412038   2.481   0.242   9.383 -0.6601 -0.8129 -0.4384
  818MPD2    C512039   2.396   0.351   9.369 -0.1336  0.4990 -0.1108
  818MPD2     H12040   2.425   0.177   9.713 -1.6864  1.2930  0.6271
  818MPD2    H112041   2.544   0.213   9.299  2.8560  2.2117  1.1390
  818MPD2    H212042   2.235   0.460   9.457 -0.6889 -0.9777 -0.7123
  818MPD2    H312043   2.377   0.406   9.278 -0.9249 -1.0375 -0.8770
  818MPD2     N12044   2.587   0.077   9.514  0.2067 -0.2564  0.0184
  818MPD2    H512045   2.635   0.068   9.425  0.9376 -1.7823  0.5812
  818MPD2    N112046   2.230   0.336   9.701 -0.4371 -0.1701  0.2683
  818MPD2    H712047   2.245   0.274   9.780  0.0624  2.2430  2.0700
  819MPD2     C12048   0.995   2.234  15.065  0.0927  0.6287  0.3020
  819MPD2    C112049   1.030   2.303  15.177 -0.6401  0.8316 -0.2524
  819MPD2    C212050   1.157   2.296  15.240  0.6526 -0.3093 -0.1287
  819MPD2    C312051   1.254   2.206  15.181 -0.5169  0.1735 -0.8206
  819MPD2    C412052   1.210   2.140  15.067  0.0143  0.2443  0.0482
  819MPD2    C512053   1.086   2.144  15.024  0.2914 -0.1814 -0.0760
  819MPD2     H12054   1.190   2.351  15.327 -0.3765  0.9728 -0.5479
  819MPD2    H112055   1.273   2.066  15.019 -2.3628 -0.5203 -1.8607
  819MPD2    H212056   0.898   2.245  15.017  0.1503  1.1928  0.3205
  819MPD2    H312057   1.057   2.086  14.937 -1.4392  2.7421 -1.4587
  819MPD2     N12058   1.390   2.206  15.226 -0.1400 -0.0359  0.3847
  819MPD2    H512059   1.393   2.268  15.307 -0.7467 -2.3834  2.2035
  819MPD2    N112060   0.928   2.380  15.236 -0.4469  0.1723 -0.3388
  819MPD2    H712061   0.838   2.378  15.190 -0.7222  3.0016  0.0483
  820MPD2     C12062   0.628   2.926  14.765 -0.9389 -0.1980  0.4721
  820MPD2    C112063   0.552   2.976  14.869  0.3780 -0.0867  0.2855
  820MPD2    C212064   0.595   2.960  15.001 -0.0387 -1.5041 -0.4337
  820MPD2    C312065   0.714   2.895  15.030  0.5675  0.0006 -0.0358
  820MPD2    C412066   0.786   2.841  14.925 -0.0014  0.2272  0.2484
  820MPD2    C512067   0.747   2.859  14.795  0.6625 -0.9313  0.9737
  820MPD2     H12068   0.519   2.984  15.075 -0.3615 -1.2288 -0.8539
  820MPD2    H112069   0.873   2.781  14.949 -1.0690 -2.0433 -1.5429
  820MPD2    H212070   0.588   2.924  14.664  0.9101 -0.7691 -0.2503
  820MPD2    H312071   0.820   2.829  14.720  1.3006  1.0597  0.7961
  820MPD2     N12072   0.755   2.863  15.159 -0.1457 -0.4490 -0.7481
  820MPD2    H512073   0.834   2.799  15.165  0.8635  0.7052 -1.8855
  820MPD2    N112074   0.421   3.026  14.842  0.3971  0.0303 -0.4896
  820MPD2    H712075   0.383   2.995  14.754 -1.2793 -1.7128  0.8367
  821MPD2     C12076   0.999   3.969  12.853  0.7550 -0.2144 -1.6757
  821MPD2    C112077   1.104   3.900  12.917 -0.3678 -0.5247 -0.2355
  821MPD2    C212078   1.216   3.865  12.841 -0.8081  0.4554 -0.0908
  821MPD2    C312079   1.216   3.905  12.706  0.3582  0.2113 -0.2435
  821MPD2    C412080   1.109   3.969  12.642  0.4248  0.1609 -0.1346
  821MPD2    C512081   0.999   3.997  12.716  0.4354 -0.5800 -0.1409
  821MPD2     H12082   1.302   3.825  12.894  0.8110 -0.4124 -3.3366
  821MPD2    H112083   1.109   3.993  12.536  0.2880  1.8807  0.2566
  821MPD2    H212084   0.916   4.006  12.913  1.4795 -0.1055 -0.7363
  821MPD2    H312085   0.925   4.057  12.665  1.0914  0.9611  0.7286
  821MPD2     N12086   1.328   3.872  12.632  0.2992  0.3690 -0.0277
  821MPD2    H512087   1.331   3.924  12.545 -2.3624  0.1064 -0.2680
  821MPD2    N112088   1.106   3.866  13.054 -0.3070 -0.0269  0.5592
  821MPD2    H712089   1.192   3.820  13.084 -0.1857 -0.0423  0.1822
  822MPD2     C12090   1.203   3.741  15.853 -0.3701 -0.3492  0.5647
  822MPD2    C112091   1.308   3.720  15.940 -0.3057  0.0396  0.3738
  822MPD2    C212092   1.324   3.801  16.053  0.3524 -0.4785 -0.7776
  822MPD2    C312093   1.230   3.908  16.074 -0.4097  0.4464  0.3705
  822MPD2    C412094   1.128   3.927  15.985 -0.4242 -0.0764 -0.1049
  822MPD2    C512095   1.121   3.846  15.870 -0.2275  0.3297  0.6010
  822MPD2     H12096   1.402   3.794  16.127 -0.1647  1.4305 -0.0512
  822MPD2    H112097   1.047   3.997  15.997 -1.9359 -1.8602  0.1524
  822MPD2    H212098   1.178   3.670  15.775 -0.0802  0.7606 -0.5256
  822MPD2    H312099   1.036   3.858  15.804 -0.1754  1.3542  0.7189
  822MPD2     N12100   1.247   3.989  16.193  0.4456 -0.3302 -0.5642
  822MPD2    H512101   1.317   3.950  16.255 -0.5032  0.4002  0.9580
  822MPD2    N112102   1.400   3.614  15.929  0.2534 -0.0434 -0.2546
  822MPD2    H712103   1.464   3.598  16.006 -1.9398 -1.1970  1.3027
  823MPD2     C12104   1.192   4.199  17.057 -0.3671 -0.1207  0.1966
  823MPD2    C112105   1.199   4.110  16.954  0.4867  0.0841 -0.5188
  823MPD2    C212106   1.217   3.979  16.985  0.0272 -0.2808 -0.2153
  823MPD2    C312107   1.219   3.938  17.121 -0.0454 -0.1886  0.5676
  823MPD2    C412108   1.212   4.032  17.227 -0.3486 -0.9805  0.3332
  823MPD2    C512109   1.199   4.165  17.194 -0.0853  0.1937  0.0937
  823MPD2     H12110   1.220   3.905  16.906  0.5556 -0.7494  0.2426
  823MPD2    H112111   1.225   4.010  17.333 -0.6014  1.0388  0.7802
  823MPD2    H212112   1.179   4.304  17.038  0.5175 -0.3736 -1.7611
  823MPD2    H312113   1.193   4.243  17.268  4.5099 -0.9169  1.5979
  823MPD2     N12114   1.231   3.802  17.158 -0.4416  0.1226 -0.1677
  823MPD2    H512115   1.208   3.775  17.253 -2.3761  1.1651 -0.3406
  823MPD2    N112116   1.200   4.164  16.822  0.0663  0.1185  0.5018
  823MPD2    H712117   1.204   4.264  16.803 -0.7306 -0.1662 -1.1419
  824MPD2     C12118   1.735   2.942  15.493 -0.1315  0.1364 -0.3278
  824MPD2    C112119   1.813   3.003  15.584 -0.1048 -0.3163  0.0042
  824MPD2    C212120   1.951   2.972  15.602 -0.3215  0.1221 -0.2050
  824MPD2    C312121   2.003   2.878  15.519  0.4378 -0.0666 -0.2088
  824MPD2    C412122   1.923   2.811  15.429 -0.6991 -0.1124 -0.1099
  824MPD2    C512123   1.789   2.847  15.407 -0.1393  0.1532  0.8154
  824MPD2     H12124   2.008   3.036  15.668 -1.6074  0.6644  0.3804
  824MPD2    H112125   1.952   2.721  15.376  1.4114  0.3294  0.3207
  824MPD2    H212126   1.630   2.961  15.479 -0.6499  0.1453  3.5718
  824MPD2    H312127   1.727   2.790  15.339 -1.3106  1.5537  0.7157
  824MPD2     N12128   2.133   2.839  15.539  0.4692  0.2381  0.4184
  824MPD2    H512129   2.183   2.902  15.601 -1.5533  1.7768  0.4594
  824MPD2    N112130   1.766   3.103  15.669 -0.5873 -0.5227  0.6875
  824MPD2    H712131   1.833   3.139  15.735  0.6285 -0.6217 -0.5085
  825MPD2     C12132   2.814   3.024  15.910 -0.4679  0.9144  0.4155
  825MPD2    C112133   2.756   3.052  15.782 -0.3807  0.2351  0.4558
  825MPD2    C212134   2.780   3.175  15.720 -0.2548  0.1204  0.2958
  825MPD2    C312135   2.854   3.270  15.788 -0.3276 -0.3185 -0.8299
  825MPD2    C412136   2.907   3.245  15.906 -0.0539 -0.4987 -0.3322
  825MPD2    C512137   2.887   3.120  15.966 -0.3880  0.0231  0.0613
  825MPD2     H12138   2.729   3.197  15.627  0.6137 -0.1377 -0.2409
  825MPD2    H112139   2.976   3.320  15.943  0.5782 -0.5966 -1.2949
  825MPD2    H212140   2.796   2.928  15.956  1.4055  1.1952  1.7547
  825MPD2    H312141   2.931   3.102  16.063 -1.8461 -2.6993  0.1968
  825MPD2     N12142   2.875   3.397  15.731 -0.6116 -0.2366  0.4375
  825MPD2    H512143   2.926   3.466  15.786  1.0304 -0.7518 -0.4270
  825MPD2    N112144   2.685   2.946  15.723  0.4975 -0.4402  0.0158
  825MPD2    H712145   2.686   2.854  15.768 -0.0084  1.1383  3.2706
  826MPD2     C12146   2.904   2.785  13.131  0.1689 -0.1369  0.1102
  826MPD2    C112147   2.850   2.749  13.254 -0.3944 -0.1185  0.0564
  826MPD2    C212148   2.793   2.850  13.330 -0.7814 -0.2626 -0.0652
  826MPD2    C312149   2.786   2.979  13.286 -0.2208  0.0247  1.4706
  826MPD2    C412150   2.849   3.016  13.174  0.2133 -0.1349 -0.1139
  826MPD2    C512151   2.908   2.918  13.095 -0.0270  0.4148  0.1762
  826MPD2     H12152   2.742   2.820  13.422  0.5538 -0.6497  0.5486
  826MPD2    H112153   2.844   3.119  13.140  0.2888 -1.1156 -3.1183
  826MPD2    H212154   2.956   2.711  13.070  0.0545  0.5608 -0.8364
  826MPD2    H312155   2.942   2.941  12.995  1.2951 -0.2810  0.4672
  826MPD2     N12156   2.722   3.085  13.358 -0.0046  0.3799 -1.3142
  826MPD2    H512157   2.741   3.176  13.317 -0.6070  1.3715  0.6144
  826MPD2    N112158   2.839   2.608  13.276  0.1302  0.3245 -0.0560
  826MPD2    H712159   2.854   2.537  13.205  1.1774 -0.8141  1.3306
  827MPD2     C12160   3.027   3.770   9.827 -0.0874 -0.0399  0.1369
  827MPD2    C112161   3.054   3.639   9.855 -0.0770 -1.0965 -0.3689
  827MPD2    C212162   3.003   3.537   9.779  0.3195 -0.7733  0.1847
  827MPD2    C312163   2.917   3.569   9.678 -0.0423  0.5797  0.1176
  827MPD2    C412164   2.889   3.701   9.649 -0.0231  0.4210  0.3526
  827MPD2    C512165   2.943   3.800   9.728  0.6408 -0.2118 -0.8975
  827MPD2     H12166   3.017   3.431   9.796  0.4769 -1.1188 -2.0261
  827MPD2    H112167   2.830   3.737   9.566  0.5881  0.7296  0.0518
  827MPD2    H212168   3.067   3.847   9.893  3.2565 -1.0530 -0.7085
  827MPD2    H312169   2.908   3.903   9.727 -0.3025 -0.5129  0.7276
  827MPD2     N12170   2.869   3.458   9.602 -0.5761 -0.2292  0.7642
  827MPD2    H512171   2.901   3.366   9.628 -0.3713  0.0824  1.6025
  827MPD2    N112172   3.130   3.613   9.977  0.5807  0.1420  0.4130
  827MPD2    H712173   3.127   3.688  10.045  3.4543  0.0338  0.6505
  828MPD2     C12174   2.089   3.960  12.216  0.4697 -0.0350 -0.0683
  828MPD2    C112175   2.081   3.995  12.079 -1.1512 -0.7193 -0.5907
  828MPD2    C212176   2.183   3.949  11.999  0.2005 -0.3463 -0.1056
  828MPD2    C312177   2.275   3.860  12.052 -0.3105 -0.5715  0.5007
  828MPD2    C412178   2.276   3.823  12.187 -0.0561  0.0453  0.1452
  828MPD2    C512179   2.190   3.889  12.269  0.0363  0.1034 -0.3543
  828MPD2     H12180   2.178   3.959  11.891  1.8883  3.5104  0.1615
  828MPD2    H112181   2.341   3.747  12.229  0.6417  0.8087  0.4471
  828MPD2    H212182   2.013   3.989  12.287  2.4402  0.8132  1.7136
  828MPD2    H312183   2.187   3.860  12.374  0.0501 -1.4510 -0.7772
  828MPD2     N12184   2.363   3.783  11.974 -0.0255  0.0005 -0.0710
  828MPD2    H512185   2.441   3.741  12.024  0.3227  0.1941 -0.4439
  828MPD2    N112186   1.973   4.062  12.020  0.5865  0.4456  0.0021
  828MPD2    H712187   1.986   4.115  11.935  0.1236  1.2973  0.4600
  829MPD2     C12188   1.256   4.155  11.316 -0.0977 -0.7067  0.0573
  829MPD2    C112189   1.247   4.086  11.430 -0.0743 -0.0562  0.4408
  829MPD2    C212190   1.352   4.103  11.522 -0.2457  0.4336  0.0979
  829MPD2    C312191   1.452   4.195  11.497  1.0856  0.3462  0.2711
  829MPD2    C412192   1.449   4.278  11.387 -0.3460  0.7039 -0.2112
  829MPD2    C512193   1.357   4.250  11.297 -0.1653 -0.1219  0.2487
  829MPD2     H12194   1.353   4.041  11.611 -0.1875 -2.3453 -1.8286
  829MPD2    H112195   1.517   4.358  11.360  1.5838  0.0025  2.5649
  829MPD2    H212196   1.183   4.150  11.236 -0.1688  1.7406 -0.0233
  829MPD2    H312197   1.355   4.303  11.202 -0.7119  0.4605  0.5910
  829MPD2     N12198   1.551   4.223  11.593  0.0896  0.4691 -0.4155
  829MPD2    H512199   1.607   4.308  11.590 -1.8492  1.7686  0.5266
  829MPD2    N112200   1.135   4.000  11.444  0.3257 -0.2183 -0.9707
  829MPD2    H712201   1.067   3.994  11.369  0.2778 -0.2035 -0.9285
  830MPD2     C12202   2.320   2.208  15.264 -0.3691  0.2115  0.0752
  830MPD2    C112203   2.198   2.253  15.203 -0.2261  0.0091 -1.1215
  830MPD2    C212204   2.199   2.373  15.130 -0.2708 -0.4053  0.4354
  830MPD2    C312205   2.308   2.458  15.133 -0.1362  0.2229  0.4195
  830MPD2    C412206   2.423   2.416  15.188 -1.1431 -0.7278  0.1305
  830MPD2    C512207   2.430   2.289  15.240  0.3225 -0.1898 -0.0807
  830MPD2     H12208   2.107   2.411  15.086 -1.3969 -2.0351  1.3671
  830MPD2    H112209   2.514   2.474  15.190 -0.9541 -0.9265 -3.0961
  830MPD2    H212210   2.348   2.115  15.312  0.5201 -0.6159 -2.0512
  830MPD2    H312211   2.523   2.265  15.291 -0.0435 -3.1128 -0.7948
  830MPD2     N12212   2.308   2.590  15.079 -0.2704 -0.3813  0.0175
  830MPD2    H512213   2.387   2.648  15.107 -1.8099  1.9471 -0.5068
  830MPD2    N112214   2.088   2.163  15.219 -0.3708 -0.4820 -0.2035
  830MPD2    H712215   2.108   2.077  15.268  1.7576 -0.1299 -0.4456
  831MPD2     C12216   1.438   3.743  16.397  0.0871  0.1074  0.1884
  831MPD2    C112217   1.515   3.650  16.331  0.2390  1.1939  0.1501
  831MPD2    C212218   1.464   3.528  16.294 -0.0824 -0.1829  1.2620
  831MPD2    C312219   1.331   3.502  16.311 -0.1283  0.3665  0.2120
  831MPD2    C412220   1.251   3.594  16.370 -0.3302  0.7373 -0.6554
  831MPD2    C512221   1.305   3.713  16.420  0.3674  1.1728  0.6780
  831MPD2     H12222   1.526   3.449  16.252 -1.4336 -1.3815  1.5051
  831MPD2    H112223   1.146   3.583  16.397  0.0520 -0.8733  0.1790
  831MPD2    H212224   1.475   3.836  16.439 -0.5126  1.4133 -2.1697
  831MPD2    H312225   1.237   3.785  16.465 -1.3803  0.4929 -0.8674
  831MPD2     N12226   1.272   3.379  16.283 -0.0044  0.6876  0.7420
  831MPD2    H512227   1.174   3.362  16.306  0.6540 -1.7535  1.6744
  831MPD2    N112228   1.653   3.673  16.302 -0.0566 -0.1352 -0.6044
  831MPD2    H712229   1.708   3.597  16.262  0.7413  1.4080 -2.4765
  832MPD2     C12230   0.171   0.221  17.256 -0.9531  0.0851  0.3150
  832MPD2    C112231   0.162   0.357  17.248 -0.6877 -0.7714 -0.1496
  832MPD2    C212232   0.132   0.426  17.132  0.2671  0.3744  0.8748
  832MPD2    C312233   0.103   0.356  17.014 -0.0447  0.1408 -0.5198
  832MPD2    C412234   0.099   0.222  17.035 -0.2854 -0.4641 -0.1984
  832MPD2    C512235   0.135   0.151  17.143 -0.4231  0.2143 -0.7680
  832MPD2     H12236   0.116   0.533  17.135  0.5476  0.4429 -0.2613
  832MPD2    H112237   0.058   0.157  16.959 -0.9883  0.5973 -0.7321
  832MPD2    H212238   0.183   0.167  17.349 -1.8976 -2.9888 -1.3556
  832MPD2    H312239   0.131   0.043  17.128  1.2660  0.4245 -2.6573
  832MPD2     N12240   0.067   0.417  16.892  0.3554  0.0135 -0.3202
  832MPD2    H512241   0.056   0.361  16.808 -0.4072  0.7330 -0.6998
  832MPD2    N112242   0.201   0.434  17.365  0.3084  0.0438 -0.2496
  832MPD2    H712243   0.243   0.379  17.439  0.1729  1.6332  1.0185
  833MPD2     C12244   2.050   1.564  12.290 -0.3101 -0.9354 -0.1307
  833MPD2    C112245   1.967   1.611  12.184 -0.1480 -0.2164  0.6466
  833MPD2    C212246   2.015   1.582  12.053  0.3302 -0.0299 -0.3758
  833MPD2    C312247   2.150   1.548  12.027  0.1883 -0.3179  0.3478
  833MPD2    C412248   2.228   1.518  12.134  0.1220 -0.4083  0.8280
  833MPD2    C512249   2.176   1.522  12.258  0.6196 -0.2664 -0.3531
  833MPD2     H12250   1.954   1.605  11.967 -2.5850  0.9378  1.9354
  833MPD2    H112251   2.334   1.496  12.127 -0.2470 -1.2944 -1.7352
  833MPD2    H212252   2.019   1.562  12.394 -1.5608 -2.6398 -0.5319
  833MPD2    H312253   2.239   1.491  12.340 -0.6216  0.4116  0.8660
  833MPD2     N12254   2.213   1.562  11.898 -0.0391 -0.0234  0.3204
  833MPD2    H512255   2.313   1.546  11.897  0.2258  1.6309  1.2929
  833MPD2    N112256   1.839   1.661  12.210  0.3737  0.3757 -0.6920
  833MPD2    H712257   1.825   1.679  12.309 -3.2431 -1.3978 -0.8842
  834MPD2     C12258   2.467   1.273  10.882  0.2208 -0.0622 -0.2332
  834MPD2    C112259   2.444   1.202  10.997  0.0975 -0.2923 -0.2587
  834MPD2    C212260   2.407   1.268  11.121 -0.7544  0.2728  0.0133
  834MPD2    C312261   2.410   1.404  11.125 -0.2399  0.2546  0.4666
  834MPD2    C412262   2.446   1.475  11.013  0.0547 -0.3177 -0.0723
  834MPD2    C512263   2.469   1.411  10.888  0.4237  0.0124 -0.1583
  834MPD2     H12264   2.377   1.205  11.204  1.0699 -0.5412  0.0739
  834MPD2    H112265   2.447   1.583  11.014  1.4344 -0.3162 -2.2307
  834MPD2    H212266   2.495   1.225  10.789  0.8011 -1.7402  0.8051
  834MPD2    H312267   2.499   1.465  10.799 -2.1032  0.8058 -0.5292
  834MPD2     N12268   2.359   1.476  11.238  0.1096  0.1088 -0.0311
  834MPD2    H512269   2.372   1.576  11.232  1.2367 -0.2359 -3.2378
  834MPD2    N112270   2.457   1.062  10.981  0.4412 -0.1395  0.2370
  834MPD2    H712271   2.485   1.039  10.886 -0.1307  0.1140  0.0037
  835MPD2     C12272   2.751   3.475  11.214 -0.4014  0.6070  0.0806
  835MPD2    C112273   2.692   3.598  11.206 -0.6720  0.4240  0.4818
  835MPD2    C212274   2.725   3.695  11.293  0.6702  0.9036  0.2265
  835MPD2    C312275   2.813   3.680  11.394 -0.3030  0.0965  0.5505
  835MPD2    C412276   2.868   3.556  11.401  0.2099  0.6266 -0.1835
  835MPD2    C512277   2.843   3.458  11.308 -0.9229 -0.4253 -0.2175
  835MPD2     H12278   2.660   3.782  11.295 -0.9265 -0.2561 -0.9555
  835MPD2    H112279   2.937   3.542  11.484 -1.6454 -0.6500  1.1388
  835MPD2    H212280   2.732   3.402  11.136  1.0054 -0.2146  0.5037
  835MPD2    H312281   2.908   3.372  11.317  0.1181  0.0669 -3.1427
  835MPD2     N12282   2.854   3.788  11.475  0.2266  0.1811 -0.6084
  835MPD2    H512283   2.936   3.780  11.534 -0.4315 -2.9501 -0.1505
  835MPD2    N112284   2.592   3.630  11.112  0.7287  0.6105  0.0192
  835MPD2    H712285   2.549   3.721  11.122 -1.5335 -0.5899  1.1907
  836MPD2     C12286   2.389   4.178  11.432  0.8334  0.3594  0.0670
  836MPD2    C112287   2.442   4.253  11.535  0.3875 -0.0408 -0.6114
  836MPD2    C212288   2.369   4.349  11.596  1.1144 -0.3119  0.4328
  836MPD2    C312289   2.235   4.366  11.566  0.0896 -0.0917 -0.8014
  836MPD2    C412290   2.187   4.303  11.456 -0.5015 -0.2004 -0.4325
  836MPD2    C512291   2.258   4.201  11.403  0.5034  0.4977  0.1171
  836MPD2     H12292   2.414   4.401  11.680  1.2732  1.1117 -0.5432
  836MPD2    H112293   2.090   4.316  11.410 -1.2831  0.6179  1.4571
  836MPD2    H212294   2.442   4.095  11.386 -0.0744 -0.9313  1.3329
  836MPD2    H312295   2.220   4.142  11.320  2.0425 -1.0683  0.5437
  836MPD2     N12296   2.149   4.461  11.630 -0.7309 -0.2938 -1.0403
  836MPD2    H512297   2.056   4.462  11.589 -1.6369 -0.7879  1.0158
  836MPD2    N112298   2.575   4.215  11.578  0.4239 -0.9862 -0.0675
  836MPD2    H712299   2.620   4.143  11.522 -0.2156 -0.4175 -1.3350
  837MPD2     C12300   0.685   3.339  10.259  0.0767 -1.0696 -0.1659
  837MPD2    C112301   0.653   3.351  10.123 -0.2309 -0.3706 -0.2581
  837MPD2    C212302   0.613   3.470  10.072  0.1715 -0.6480 -0.5896
  837MPD2    C312303   0.612   3.584  10.151 -0.2828  0.4484 -0.6579
  837MPD2    C412304   0.648   3.580  10.290 -0.3919 -0.5122 -0.0472
  837MPD2    C512305   0.681   3.449  10.336  0.4621 -0.1860 -0.5472
  837MPD2     H12306   0.579   3.469   9.970  3.7191  0.7380 -1.7838
  837MPD2    H112307   0.638   3.659  10.363  2.5097 -0.4176  0.2179
  837MPD2    H212308   0.704   3.242  10.305 -1.0533 -1.1907  0.0530
  837MPD2    H312309   0.706   3.434  10.440  0.5851 -0.5609 -0.6301
  837MPD2     N12310   0.557   3.703  10.089 -0.9139  0.4527 -0.5562
  837MPD2    H512311   0.555   3.707   9.987  4.4900  1.6395 -0.6046
  837MPD2    N112312   0.646   3.237  10.038 -0.4342  0.7096 -0.0826
  837MPD2    H712313   0.615   3.257   9.943  1.1374 -0.3314 -0.8152
  838MPD2     C12314   3.922   2.318  11.863  0.5841 -0.4274 -0.1366
  838MPD2    C112315   3.846   2.235  11.789 -0.3547 -0.4239  0.3170
  838MPD2    C212316   3.706   2.246  11.798  0.0675 -0.3773  0.2926
  838MPD2    C312317   3.650   2.352  11.876 -0.8720 -0.4412 -0.4530
  838MPD2    C412318   3.734   2.437  11.945  0.6045 -0.4388  0.3051
  838MPD2    C512319   3.869   2.417  11.938 -0.2624  0.3740 -0.4590
  838MPD2     H12320   3.637   2.176  11.754 -0.3751  0.7161 -0.7653
  838MPD2    H112321   3.696   2.524  11.998 -2.4800 -0.1972 -2.3024
  838MPD2    H212322   4.029   2.307  11.876  0.6298  0.6249  0.4330
  838MPD2    H312323   3.933   2.482  11.997 -0.6055 -0.5213  0.8933
  838MPD2     N12324   3.512   2.372  11.906  0.0215 -0.4640 -0.2014
  838MPD2    H512325   3.495   2.455  11.963 -1.1868 -1.0486  0.2765
  838MPD2    N112326   3.881   2.127  11.712  0.4163 -0.0068  0.1557
  838MPD2    H712327   3.814   2.070  11.662 -1.1466  0.2085  2.0046
  839MPD2     C12328   3.332   1.651  11.279 -0.7911  0.1369  0.6276
  839MPD2    C112329   3.437   1.570  11.272 -0.0719  0.0119 -0.7815
  839MPD2    C212330   3.551   1.611  11.341  0.2934  0.2494 -0.5636
  839MPD2    C312331   3.563   1.729  11.411  0.2029  0.0774 -0.0596
  839MPD2    C412332   3.448   1.807  11.423  0.2027  0.0737  0.8127
  839MPD2    C512333   3.339   1.772  11.346  0.2904  0.6982 -0.4598
  839MPD2     H12334   3.639   1.549  11.325 -0.3575 -1.0610  0.9312
  839MPD2    H112335   3.448   1.899  11.481 -0.1106  0.9108 -0.5072
  839MPD2    H212336   3.236   1.620  11.239 -0.9352 -0.0682  1.1223
  839MPD2    H312337   3.257   1.843  11.348  1.2920  1.8364  0.6585
  839MPD2     N12338   3.684   1.773  11.469  0.4533  0.0938 -0.0093
  839MPD2    H512339   3.685   1.863  11.516  1.4905  0.5638 -0.9387
  839MPD2    N112340   3.443   1.448  11.200  0.8860 -0.7315 -0.1278
  839MPD2    H712341   3.529   1.394  11.198  1.3839  0.1422 -2.0425
  840MPD2     C12342   3.437   4.076  10.288 -0.0851  0.5290 -0.4201
  840MPD2    C112343   3.443   3.974  10.375  0.3631 -0.8832 -0.6851
  840MPD2    C212344   3.515   3.982  10.489 -1.1845 -0.8628 -0.6634
  840MPD2    C312345   3.589   4.104  10.512 -0.1831  0.1061 -1.0166
  840MPD2    C412346   3.583   4.207  10.418  0.0540 -0.2188 -0.1577
  840MPD2    C512347   3.506   4.193  10.310 -0.2068 -0.2842  0.2173
  840MPD2     H12348   3.536   3.898  10.554  0.9622 -0.5277 -0.9069
  840MPD2    H112349   3.640   4.298  10.426  1.5849 -1.1713 -0.2217
  840MPD2    H212350   3.378   4.078  10.197  0.4832  0.4849 -0.7882
  840MPD2    H312351   3.504   4.274  10.238  0.2536 -0.4580  0.0104
  840MPD2     N12352   3.680   4.123  10.615  0.6634 -0.1904 -0.2519
  840MPD2    H512353   3.725   4.214  10.621 -0.4438  0.5079 -2.4518
  840MPD2    N112354   3.378   3.856  10.340 -0.1728 -0.3555 -0.2919
  840MPD2    H712355   3.332   3.865  10.250 -0.5301  0.9225  0.0048
  841MPD2     C12356   3.346   0.041  13.773  0.3658 -0.3265 -0.5540
  841MPD2    C112357   3.251   4.712  13.861  0.7077 -0.0163 -0.1718
  841MPD2    C212358   3.294   4.692  13.995  0.7940 -0.1971 -0.3922
  841MPD2    C312359   3.428   4.719  14.036  1.1554  0.4397  0.3952
  841MPD2    C412360   3.511   0.060  13.948 -0.3607 -0.1859 -0.4482
  841MPD2    C512361   3.469   0.080  13.821 -0.3683  0.2909  0.8342
  841MPD2     H12362   3.219   4.655  14.064  0.5275 -0.1595 -0.6628
  841MPD2    H112363   3.615   0.081  13.970 -0.8753  0.1172  1.6136
  841MPD2    H212364   3.323   0.052  13.668 -2.1176  1.1463  0.1465
  841MPD2    H312365   3.539   0.122  13.750 -1.3414 -0.2652 -0.4622
  841MPD2     N12366   3.466   4.690  14.168  0.1219  0.5658 -0.9366
  841MPD2    H512367   3.400   4.637  14.224  1.2638 -0.3557 -0.4808
  841MPD2    N112368   3.122   4.674  13.831  0.0226 -0.1983 -0.0441
  841MPD2    H712369   3.068   4.642  13.910 -0.5483 -0.2950 -0.4737
  842MPD2     C12370   3.892   0.856  16.166  0.5481 -0.1666  0.0032
  842MPD2    C112371   3.797   0.755  16.154  0.0579  0.0771  0.0211
  842MPD2    C212372   3.749   0.693  16.272 -0.4965  0.1199 -0.2949
  842MPD2    C312373   3.795   0.742  16.399 -0.3390 -0.1535  0.2681
  842MPD2    C412374   3.901   0.830  16.404 -0.2719  0.3093 -0.1622
  842MPD2    C512375   3.948   0.882  16.285  0.1796 -0.3707  0.0391
  842MPD2     H12376   3.655   0.639  16.267  0.1936 -0.8619 -2.5074
  842MPD2    H112377   3.929   0.866  16.502  1.0431 -1.2722  0.0520
  842MPD2    H212378   3.912   0.924  16.085  0.4024  3.9656  3.4472
  842MPD2    H312379   4.018   0.962  16.301  1.0105 -1.0561 -0.1646
  842MPD2     N12380   3.737   0.709  16.518 -0.2441  0.7447  0.2083
  842MPD2    H512381   3.780   0.745  16.602  1.2280 -0.7575  0.1029
  842MPD2    N112382   3.724   0.746  16.030  0.0884  0.3974 -0.3540
  842MPD2    H712383   3.763   0.801  15.955  1.4923  0.9975  0.8246
  843MPD2     C12384   1.159   0.323   0.825 -0.2744 -0.0359 -0.6821
  843MPD2    C112385   1.277   0.253   0.819 -0.4470 -0.2318  0.8070
  843MPD2    C212386   1.375   0.287   0.724 -0.5659 -0.0252 -0.1059
  843MPD2    C312387   1.346   0.389   0.631  0.1099  0.1124 -0.4063
  843MPD2    C412388   1.225   0.448   0.632  0.2181 -0.1012  0.0439
  843MPD2    C512389   1.144   0.424   0.737 -0.0223  0.2483 -0.1877
  843MPD2     H12390   1.460   0.222   0.707  0.5745  1.3013  0.5664
  843MPD2    H112391   1.195   0.528   0.565 -1.0340 -0.0596  0.6547
  843MPD2    H212392   1.087   0.296   0.902  0.9333 -0.5052  0.2892
  843MPD2    H312393   1.053   0.482   0.745 -0.3078  0.1754 -2.8943
  843MPD2     N12394   1.442   0.434   0.534 -0.5680 -0.2595 -0.7329
  843MPD2    H512395   1.413   0.520   0.488 -0.5683  1.0341  1.6857
  843MPD2    N112396   1.288   0.149   0.913 -0.0539 -0.1647  0.2481
  843MPD2    H712397   1.214   0.145   0.983  0.5184  0.8788  0.9151
  844MPD2     C12398   0.244   0.099  16.166 -0.2608  0.1844  0.0355
  844MPD2    C112399   0.169   0.058  16.281 -0.3803  0.1030 -0.4547
  844MPD2    C212400   0.190   0.123  16.402 -0.4985  0.0977 -0.0078
  844MPD2    C312401   0.285   0.226  16.413  0.3632 -0.3900  0.2282
  844MPD2    C412402   0.356   0.261  16.307  0.8805 -0.4294  0.0544
  844MPD2    C512403   0.337   0.192  16.190  0.4000  0.2284  0.2664
  844MPD2     H12404   0.124   0.095  16.483 -0.2973 -0.6623 -0.1022
  844MPD2    H112405   0.444   0.323  16.296  1.3492 -1.0337  0.4258
  844MPD2    H212406   0.229   0.049  16.071 -0.0694 -0.2467  0.2284
  844MPD2    H312407   0.391   0.227  16.103 -1.7437 -0.9621 -1.5291
  844MPD2     N12408   0.319   0.290  16.539 -0.0152 -0.2985  0.5792
  844MPD2    H512409   0.269   0.256  16.621 -1.1422  0.3311  0.1579
  844MPD2    N112410   0.060   4.681  16.270  0.2304 -0.0125 -0.1960
  844MPD2    H712411   0.009   4.668  16.357 -0.7111 -0.0244 -0.7534
  845MPD2     C12412   0.174   1.232  16.980 -0.6372  0.4414  0.2839
  845MPD2    C112413   0.089   1.134  17.033  0.6137  0.8733 -0.1967
  845MPD2    C212414   0.118   0.999  17.018  0.0692  0.0513  0.0548
  845MPD2    C312415   0.241   0.964  16.963 -0.8573  0.2862 -0.5581
  845MPD2    C412416   0.335   1.060  16.930 -0.2622  0.1925  0.1249
  845MPD2    C512417   0.295   1.191  16.943 -0.6047  0.2866 -0.2165
  845MPD2     H12418   0.059   0.917  17.056  0.3246 -0.9474 -1.7144
  845MPD2    H112419   0.431   1.040  16.885 -0.8164 -1.4926 -0.3059
  845MPD2    H212420   0.153   1.338  16.989 -0.6015  0.4225  0.6137
  845MPD2    H312421   0.368   1.264  16.909  1.1480 -1.5494 -0.4178
  845MPD2     N12422   0.266   0.827  16.944 -1.0325 -0.1985 -0.7493
  845MPD2    H512423   0.200   0.757  16.976  0.2309 -0.9693  0.1982
  845MPD2    N112424   4.694   1.186  17.096 -0.2187 -0.7905  0.1227
  845MPD2    H712425   4.691   1.284  17.125 -1.3791 -0.8118  0.0912
  846MPD2     C12426   1.417   1.205  13.654  0.4950  0.0404  0.0068
  846MPD2    C112427   1.348   1.321  13.660 -0.1407  0.0703 -0.2049
  846MPD2    C212428   1.319   1.369  13.786 -0.0647 -0.3393  0.0286
  846MPD2    C312429   1.356   1.299  13.904 -0.1911 -0.1026 -0.3435
  846MPD2    C412430   1.414   1.182  13.885  0.3483 -0.1118  0.3510
  846MPD2    C512431   1.437   1.130  13.761  0.4916  0.1042 -0.4673
  846MPD2     H12432   1.264   1.460  13.804 -2.6588 -2.4571  2.7220
  846MPD2    H112433   1.434   1.118  13.970 -0.6239 -0.8597  0.0160
  846MPD2    H212434   1.443   1.150  13.564  0.0746 -0.5234  0.2280
  846MPD2    H312435   1.476   1.030  13.748  1.2693  0.4087 -0.4971
  846MPD2     N12436   1.311   1.342  14.031 -0.0132  0.4047  0.6564
  846MPD2    H512437   1.259   1.429  14.036 -0.6689  0.0445  0.0441
  846MPD2    N112438   1.317   1.402  13.546  0.0521  1.0410  0.3728
  846MPD2    H712439   1.274   1.493  13.557 -1.1682  0.4251  0.6116
  847MPD2     C12440   1.616   2.187  13.403 -0.0665  0.9229 -0.0341
  847MPD2    C112441   1.659   2.256  13.519 -0.0332  0.1982  0.3244
  847MPD2    C212442   1.747   2.186  13.602  0.2519 -0.3013  0.5447
  847MPD2    C312443   1.778   2.054  13.580  0.2868  0.0804  0.4425
  847MPD2    C412444   1.734   1.981  13.471  0.2066  0.2565 -0.0359
  847MPD2    C512445   1.658   2.056  13.383  0.3119  0.0619 -0.4366
  847MPD2     H12446   1.780   2.237  13.691  2.0179 -1.0622  0.3179
  847MPD2    H112447   1.751   1.875  13.452 -1.0357  0.2889 -1.3196
  847MPD2    H212448   1.560   2.244  13.329  2.2257 -0.5535 -2.8860
  847MPD2    H312449   1.619   2.010  13.293  0.0294 -0.5349 -0.0063
  847MPD2     N12450   1.862   1.995  13.677  0.1118  0.2451 -0.7962
  847MPD2    H512451   1.894   2.056  13.751  2.3847 -1.4206 -0.4239
  847MPD2    N112452   1.609   2.385  13.550 -0.6922 -0.4368  0.0915
  847MPD2    H712453   1.636   2.422  13.641 -0.7021  0.5616 -0.3104
  848MPD2     C12454   4.605   0.998  16.310 -0.2245  0.0932 -0.1286
  848MPD2    C112455   4.484   0.970  16.373 -0.3047 -0.7756 -0.0513
  848MPD2    C212456   4.377   1.054  16.349  0.7735  0.1515 -0.0791
  848MPD2    C312457   4.398   1.158  16.257  0.7946  0.2032 -0.1657
  848MPD2    C412458   4.510   1.181  16.185  0.0783 -0.8543 -0.5448
  848MPD2    C512459   4.612   1.094  16.215  0.2007 -0.9473  0.4829
  848MPD2     H12460   4.280   1.033  16.392 -0.4529  1.1561 -2.3459
  848MPD2    H112461   4.529   1.264  16.118 -2.9856  1.2798  1.2344
  848MPD2    H212462   4.700   0.949  16.331 -1.0293 -0.9802  0.9702
  848MPD2    H312463   4.701   1.109  16.155  1.3118 -0.1405  2.3540
  848MPD2     N12464   4.296   1.251  16.245  0.0179  0.6536  0.1340
  848MPD2    H512465   4.315   1.327  16.181  2.6177 -1.3915 -1.5235
  848MPD2    N112466   4.476   0.884  16.483 -0.2870 -0.7068 -0.7621
  848MPD2    H712467   4.382   0.867  16.518 -0.0311  0.0040  0.2475
  849MPD2     C12468   3.569   0.816  13.927  0.3455  0.4418 -0.4532
  849MPD2    C112469   3.688   0.747  13.897 -0.1913 -0.1062 -0.3484
  849MPD2    C212470   3.738   0.657  13.988  0.3489 -0.0113 -0.0324
  849MPD2    C312471   3.681   0.657  14.116 -0.0864 -0.2140 -0.7104
  849MPD2    C412472   3.590   0.747  14.156 -0.7365  0.0349 -0.3467
  849MPD2    C512473   3.532   0.823  14.057 -0.1123 -0.4073 -0.8144
  849MPD2     H12474   3.818   0.587  13.973  1.6234  0.9471  2.3552
  849MPD2    H112475   3.561   0.763  14.259 -0.1846  0.3564 -0.2414
  849MPD2    H212476   3.518   0.878  13.855  0.1779  0.8246 -0.0064
  849MPD2    H312477   3.444   0.884  14.076  1.0918  0.7071  1.1207
  849MPD2     N12478   3.757   0.575  14.205 -0.1090 -0.1369 -0.1676
  849MPD2    H512479   3.820   0.514  14.155 -1.9698 -1.7901 -0.5141
  849MPD2    N112480   3.752   0.749  13.769 -0.0295  0.4867  0.1830
  849MPD2    H712481   3.833   0.688  13.764 -0.8280 -0.7563  2.1017
  850MPD2     C12482   1.600   3.454  14.939 -0.3660  0.4327 -0.4713
  850MPD2    C112483   1.613   3.545  15.042  0.3685  0.0511  0.4530
  850MPD2    C212484   1.739   3.575  15.082  0.0459  0.3587  0.6392
  850MPD2    C312485   1.849   3.510  15.031  0.3609 -0.5507 -1.2499
  850MPD2    C412486   1.834   3.412  14.936 -0.0504 -0.4068 -0.0400
  850MPD2    C512487   1.707   3.385  14.891 -0.2984  0.2399  0.0121
  850MPD2     H12488   1.759   3.656  15.152 -3.0277  0.9102  0.8567
  850MPD2    H112489   1.914   3.359  14.886 -0.3391  0.4525 -1.3988
  850MPD2    H212490   1.502   3.427  14.899 -0.5311 -0.0726  0.2776
  850MPD2    H312491   1.690   3.309  14.816 -1.0816 -0.1991  0.6440
  850MPD2     N12492   1.986   3.528  15.073  0.7434  0.1736  0.0585
  850MPD2    H512493   2.055   3.467  15.031  1.5005 -0.7355  2.6926
  850MPD2    N112494   1.502   3.619  15.077 -0.2048  0.2794 -0.4944
  850MPD2    H712495   1.417   3.604  15.023 -0.9369 -0.1145  0.7498
  851MPD2     C12496   2.056   3.365  15.618  0.3519  0.0879 -0.3316
  851MPD2    C112497   1.962   3.366  15.517 -0.6957  0.1568 -0.0734
  851MPD2    C212498   1.979   3.286  15.405 -0.8075 -0.4501 -0.7270
  851MPD2    C312499   2.089   3.208  15.396  0.5054  0.0718 -0.3860
  851MPD2    C412500   2.173   3.197  15.502  0.3952 -0.0828  0.7755
  851MPD2    C512501   2.154   3.268  15.617 -0.2678 -0.7457  0.1689
  851MPD2     H12502   1.912   3.283  15.320  0.1981  0.2379 -1.5439
  851MPD2    H112503   2.247   3.118  15.511  2.1096  1.5389  0.9294
  851MPD2    H212504   2.043   3.425  15.708  0.9799  1.5789 -1.2249
  851MPD2    H312505   2.225   3.252  15.698  0.0178  0.6611  0.1913
  851MPD2     N12506   2.102   3.129  15.280  0.4387  0.6480  0.1759
  851MPD2    H512507   2.023   3.123  15.216  0.9722 -0.0640 -0.4111
  851MPD2    N112508   1.838   3.442  15.538 -0.0617 -0.0538  0.0609
  851MPD2    H712509   1.841   3.512  15.611  0.2228  2.4223 -2.3100
  852MPD2     C12510   1.396   4.374   9.347 -0.1342 -0.4906  0.6207
  852MPD2    C112511   1.343   4.439   9.454  0.4427 -0.2623  0.2802
  852MPD2    C212512   1.369   4.573   9.471  0.0311 -0.7231  0.4113
  852MPD2    C312513   1.456   4.643   9.381 -0.0504  0.3170  0.1389
  852MPD2    C412514   1.507   4.578   9.273 -0.0610  0.3723  0.0617
  852MPD2    C512515   1.478   4.444   9.255 -0.6653 -0.3906 -0.1596
  852MPD2     H12516   1.319   4.630   9.549  0.2195 -2.2297  1.6484
  852MPD2    H112517   1.567   4.630   9.199  1.2490  1.2878  1.7781
  852MPD2    H212518   1.385   4.269   9.324  2.3166 -0.8961  1.3579
  852MPD2    H312519   1.516   4.384   9.173  2.1899 -0.3632  1.1471
  852MPD2     N12520   1.478   0.062   9.404 -0.2675  0.0560  0.6029
  852MPD2    H512521   1.443   0.104   9.489 -0.6267 -0.7861  0.8698
  852MPD2    N112522   1.264   4.377   9.549 -0.0011  0.0437 -0.0483
  852MPD2    H712523   1.250   4.430   9.634  0.2472  0.5787 -0.3447
  853MPD2     C12524   3.226   0.499  12.141  0.0425 -0.1169  0.2719
  853MPD2    C112525   3.186   0.597  12.059 -0.0729  0.0129  0.0660
  853MPD2    C212526   3.184   0.572  11.923  0.0968 -0.2708 -0.1699
  853MPD2    C312527   3.232   0.452  11.870 -0.2174  0.7075 -0.7554
  853MPD2    C412528   3.277   0.357  11.958 -0.5778  0.2176  0.4081
  853MPD2    C512529   3.273   0.383  12.091  0.8504 -0.2487  0.7174
  853MPD2     H12530   3.139   0.642  11.854  0.9217  0.6071  0.1740
  853MPD2    H112531   3.318   0.262  11.927 -3.2666 -1.0523  0.7826
  853MPD2    H212532   3.241   0.531  12.243 -1.1213 -3.5119  1.5077
  853MPD2    H312533   3.318   0.313  12.161 -1.6792 -1.6703  0.9105
  853MPD2     N12534   3.228   0.423  11.730 -0.2144  0.3187 -0.1519
  853MPD2    H512535   3.271   0.335  11.700 -0.1809  0.2871 -0.0101
  853MPD2    N112536   3.165   0.720  12.120 -0.2839 -0.1822  0.0810
  853MPD2    H712537   3.151   0.715  12.221  0.4469  0.8597  0.2301
  854MPD2     C12538   0.508   0.457  12.898 -0.0455 -0.7131 -0.4081
  854MPD2    C112539   0.577   0.545  12.817  0.1347 -0.3502 -0.2656
  854MPD2    C212540   0.695   0.504  12.768  0.1584  0.3072 -0.3702
  854MPD2    C312541   0.730   0.372  12.785 -0.0375  0.2900  0.4960
  854MPD2    C412542   0.653   0.282  12.852  0.0057 -0.1297 -0.9007
  854MPD2    C512543   0.548   0.332  12.922  0.2907  0.5321  0.3697
  854MPD2     H12544   0.754   0.571  12.706  1.5790 -0.3107  0.3217
  854MPD2    H112545   0.682   0.178  12.858  1.7045  0.3346 -1.1547
  854MPD2    H212546   0.421   0.491  12.953 -0.3950 -1.5435 -0.4505
  854MPD2    H312547   0.482   0.271  12.983  0.1848 -1.1065 -1.3791
  854MPD2     N12548   0.856   0.332  12.725 -0.2236  0.3869 -0.4329
  854MPD2    H512549   0.919   0.410  12.710  1.6620 -0.4235  3.1084
  854MPD2    N112550   0.513   0.664  12.788 -0.4698 -0.2277 -0.3668
  854MPD2    H712551   0.424   0.672  12.835 -2.1875 -2.1238 -3.3109
  855MPD2     C12552   1.645   0.392  13.211 -0.0382 -0.1034  0.1335
  855MPD2    C112553   1.507   0.374  13.221 -0.1833 -0.2685 -0.0318
  855MPD2    C212554   1.443   0.326  13.110 -1.2339  0.0636 -0.4983
  855MPD2    C312555   1.510   0.308  12.991  0.0310 -0.3672 -0.1848
  855MPD2    C412556   1.641   0.337  12.978 -0.2783  0.3836 -0.4197
  855MPD2    C512557   1.715   0.380  13.087  0.6580  0.0845 -0.4823
  855MPD2     H12558   1.335   0.324  13.118 -1.0751 -0.3212  1.4012
  855MPD2    H112559   1.679   0.342  12.877  1.6598 -3.7907  0.1222
  855MPD2    H212560   1.705   0.423  13.296 -0.4551  2.0434 -0.3484
  855MPD2    H312561   1.817   0.417  13.079  0.6403  0.2440  0.0641
  855MPD2     N12562   1.446   0.270  12.867 -0.1585 -0.1105  1.1250
  855MPD2    H512563   1.497   0.284  12.780 -1.1778 -0.5665  0.4485
  855MPD2    N112564   1.429   0.395  13.333  0.0836 -0.1756 -0.6422
  855MPD2    H712565   1.332   0.368  13.325 -0.7107  2.3904  0.3866
  856MPD2     C12566   2.551   1.633  13.686  0.2121  0.1131 -0.1388
  856MPD2    C112567   2.587   1.765  13.702 -0.5849  0.0195  0.4475
  856MPD2    C212568   2.500   1.856  13.656 -0.1394  0.3089 -0.6741
  856MPD2    C312569   2.381   1.816  13.594  0.5348 -0.3551  0.0301
  856MPD2    C412570   2.356   1.683  13.563  0.7945 -0.3432  0.2337
  856MPD2    C512571   2.440   1.592  13.616 -0.4993 -0.4974  0.0157
  856MPD2     H12572   2.513   1.960  13.685 -0.8230 -0.1485  1.2896
  856MPD2    H112573   2.266   1.650  13.511 -0.6126  2.5359  0.8086
  856MPD2    H212574   2.616   1.555  13.725 -1.8490 -2.4840 -1.9205
  856MPD2    H312575   2.410   1.488  13.618 -1.0999 -0.3642 -1.6424
  856MPD2     N12576   2.289   1.909  13.545 -0.2299  0.4944  0.1434
  856MPD2    H512577   2.217   1.885  13.478  1.3260 -2.3350 -0.4908
  856MPD2    N112578   2.686   1.809  13.787 -0.0957 -0.3521 -0.3806
  856MPD2    H712579   2.703   1.908  13.796  0.7471 -0.4675 -0.7374
  857MPD2     C12580   4.012   3.644  12.871  0.0599 -0.0110  0.4875
  857MPD2    C112581   4.145   3.636  12.830  0.5255 -0.4017 -1.1787
  857MPD2    C212582   4.225   3.747  12.834  0.8567  0.0030  0.0071
  857MPD2    C312583   4.179   3.872  12.878 -0.5041  0.3914  0.4338
  857MPD2    C412584   4.045   3.881  12.919  0.2063  0.3842  0.2125
  857MPD2    C512585   3.968   3.769  12.909 -0.4460  0.0931 -0.2507
  857MPD2     H12586   4.328   3.737  12.800  1.3883  0.7979  1.3774
  857MPD2    H112587   4.000   3.970  12.960  1.9427  1.6016 -0.5128
  857MPD2    H212588   3.951   3.555  12.876 -0.9813  0.5765 -1.6598
  857MPD2    H312589   3.874   3.765  12.963  0.5141 -1.7117  1.3253
  857MPD2     N12590   4.274   3.976  12.872  0.2352  0.2680 -0.4711
  857MPD2    H512591   4.365   3.956  12.832 -0.7591 -1.7177 -1.7760
  857MPD2    N112592   4.191   3.515  12.772 -0.0507 -0.4613  0.7722
  857MPD2    H712593   4.129   3.436  12.788 -0.8690 -0.1212 -0.6960
  858MPD2     C12594   0.078   3.378  16.377 -0.3887  0.1579 -0.3684
  858MPD2    C112595   0.100   3.251  16.434 -0.0711 -0.4674  0.2636
  858MPD2    C212596   0.138   3.245  16.569  0.0579 -0.1192  0.7840
  858MPD2    C312597   0.126   3.357  16.649 -0.2242 -0.0535 -0.4139
  858MPD2    C412598   0.080   3.480  16.595 -0.1617 -0.2559  0.1923
  858MPD2    C512599   0.056   3.488  16.461  0.2065  0.2695 -0.6577
  858MPD2     H12600   0.160   3.154  16.622 -1.5545 -1.0017 -0.0455
  858MPD2    H112601   0.057   3.570  16.651 -0.8501 -0.6132  0.4892
  858MPD2    H212602   0.063   3.400  16.272 -1.2651 -0.8728 -0.4689
  858MPD2    H312603   0.023   3.575  16.405 -0.8250  0.4784  0.2851
  858MPD2     N12604   0.127   3.344  16.794 -0.5147 -0.4173 -0.2901
  858MPD2    H512605   0.093   3.427  16.841 -3.3099 -0.6266 -1.9639
  858MPD2    N112606   0.100   3.147  16.343 -0.5765  0.1035  0.5414
  858MPD2    H712607   0.067   3.167  16.249  1.3869 -3.9481 -0.9766
  859MPD2     C12608   3.486   0.460  15.600  0.4337 -0.8631  0.2431
  859MPD2    C112609   3.464   0.437  15.467 -0.1688  0.4660 -0.1453
  859MPD2    C212610   3.367   0.349  15.421 -0.2943  0.8589 -0.3984
  859MPD2    C312611   3.291   0.283  15.517  0.4865  0.5877 -0.3577
  859MPD2    C412612   3.319   0.303  15.652 -0.1281 -0.3294  0.2376
  859MPD2    C512613   3.410   0.397  15.693 -0.4216  0.5602 -0.2654
  859MPD2     H12614   3.358   0.327  15.316  3.3745  2.4625 -1.0634
  859MPD2    H112615   3.268   0.237  15.722  0.4116  0.9729  1.8460
  859MPD2    H212616   3.566   0.528  15.627  0.2136 -2.0747  3.9652
  859MPD2    H312617   3.445   0.423  15.792 -1.0204  0.6002 -0.0665
  859MPD2     N12618   3.189   0.187  15.483 -0.6364  0.3729  0.0962
  859MPD2    H512619   3.131   0.150  15.557  0.8232 -0.0617  1.0313
  859MPD2    N112620   3.541   0.500  15.364 -0.6004 -0.0020 -0.2421
  859MPD2    H712621   3.512   0.478  15.269  0.6806 -2.8773  0.0252
  860MPD2     C12622   1.301   0.589  11.195  0.1221 -0.1446  0.1761
  860MPD2    C112623   1.263   0.646  11.314  0.5938 -0.4981 -0.4575
  860MPD2    C212624   1.144   0.605  11.367 -0.9043 -0.3269  0.0634
  860MPD2    C312625   1.078   0.492  11.331 -0.3060 -0.3226 -0.6635
  860MPD2    C412626   1.121   0.435  11.216 -0.2125 -0.0295  0.1039
  860MPD2    C512627   1.222   0.490  11.140  0.0363 -0.1670 -0.8793
  860MPD2     H12628   1.120   0.650  11.462  2.3978 -0.5194  1.0093
  860MPD2    H112629   1.082   0.345  11.169  1.4169 -1.0367  0.6982
  860MPD2    H212630   1.392   0.623  11.146  1.1247 -0.0318  2.1442
  860MPD2    H312631   1.245   0.442  11.045 -2.9241 -2.1912 -0.5949
  860MPD2     N12632   0.978   0.447  11.426 -0.7807  0.2197  0.6740
  860MPD2    H512633   0.974   0.502  11.512  0.6996  0.2193  0.7297
  860MPD2    N112634   1.341   0.729  11.392  1.1907  0.3411 -0.1226
  860MPD2    H712635   1.294   0.755  11.478 -0.0984 -0.0354 -0.7117
  861MPD2     C12636   0.361   3.465  11.076 -0.2648 -0.2134  0.6137
  861MPD2    C112637   0.246   3.415  11.145  0.0199 -0.4028 -0.1260
  861MPD2    C212638   0.128   3.403  11.076 -0.2276 -0.7562 -0.1740
  861MPD2    C312639   0.132   3.413  10.935 -0.2751  0.7450  0.4503
  861MPD2    C412640   0.243   3.447  10.862  0.0669  0.5223  0.0495
  861MPD2    C512641   0.355   3.472  10.936  0.6079  0.4971  0.5486
  861MPD2     H12642   0.048   3.355  11.132 -0.9226 -1.2121 -1.5347
  861MPD2    H112643   0.258   3.470  10.757  0.4382 -2.4813 -0.5333
  861MPD2    H212644   0.452   3.487  11.129  0.3667  1.1282 -1.0198
  861MPD2    H312645   0.441   3.518  10.890  1.3259 -1.5753 -0.1920
  861MPD2     N12646   0.020   3.387  10.849  0.0128  0.1210  0.2493
  861MPD2    H512647   0.031   3.414  10.751 -1.5663 -0.7903 -0.1681
  861MPD2    N112648   0.251   3.392  11.288  0.0335 -0.4274 -0.2095
  861MPD2    H712649   0.166   3.367  11.336  1.9508  1.6665  4.3183
  862MPD2     C12650   4.493   3.339  10.156 -0.0618  0.0670 -0.7066
  862MPD2    C112651   4.552   3.288  10.268  0.5831  0.7588 -0.2496
  862MPD2    C212652   4.589   3.157  10.258 -0.2489  0.2430  0.3469
  862MPD2    C312653   4.558   3.076  10.153 -0.5230 -0.1070  0.5615
  862MPD2    C412654   4.489   3.129  10.042  0.4707 -0.0454 -0.1621
  862MPD2    C512655   4.459   3.265  10.042  0.4521 -1.0080  0.4990
  862MPD2     H12656   4.644   3.117  10.343  0.8332 -1.8683 -1.3441
  862MPD2    H112657   4.457   3.062   9.963  0.7614 -1.1764  0.6825
  862MPD2    H212658   4.470   3.444  10.143  1.8937  0.8276  2.0299
  862MPD2    H312659   4.404   3.304   9.957  0.5501  0.7014  1.2359
  862MPD2     N12660   4.584   2.934  10.149  0.3289 -0.0306  0.4084
  862MPD2    H512661   4.532   2.887  10.075  1.4161 -0.5847 -0.0035
  862MPD2    N112662   4.577   3.348  10.390 -0.4522 -0.5510 -0.1580
  862MPD2    H712663   4.608   3.280  10.459  1.8514  1.0381  0.3883
  863MPD2     C12664   2.856   2.311  16.812 -0.1684  0.2056  0.2599
  863MPD2    C112665   2.870   2.175  16.836  0.0016 -0.3674 -0.0553
  863MPD2    C212666   2.975   2.119  16.911  0.5931  0.0309  0.5517
  863MPD2    C312667   3.074   2.208  16.951  0.2010  0.6509 -0.2226
  863MPD2    C412668   3.060   2.345  16.923 -0.0436  0.0778 -0.0757
  863MPD2    C512669   2.953   2.398  16.851 -0.3677 -0.0482 -0.1512
  863MPD2     H12670   2.986   2.016  16.943  3.4883 -0.1999 -1.2043
  863MPD2    H112671   3.123   2.429  16.952  1.6681 -1.1974 -0.0668
  863MPD2    H212672   2.773   2.351  16.755  0.0894  0.1741 -0.1397
  863MPD2    H312673   2.960   2.505  16.839 -0.8524 -0.0421 -0.3517
  863MPD2     N12674   3.174   2.170  17.041  0.0216  0.2475  0.2381
  863MPD2    H512675   3.242   2.240  17.068  0.8732  0.2563 -1.8580
  863MPD2    N112676   2.756   2.098  16.787  0.6154  0.3948  0.3049
  863MPD2    H712677   2.696   2.149  16.723 -1.1728 -0.6845  1.1169
  864MPD2     C12678   3.754   3.058  17.086  0.0911  0.2721 -0.2642
  864MPD2    C112679   3.803   2.954  17.011 -0.3801 -0.1446  0.6152
  864MPD2    C212680   3.916   2.991  16.928 -0.6914 -0.0227 -0.3343
  864MPD2    C312681   3.965   3.121  16.919  0.2281 -0.5431 -0.1889
  864MPD2    C412682   3.902   3.219  16.987 -0.5567  0.8258 -0.3198
  864MPD2    C512683   3.801   3.188  17.070  0.2302  0.4404 -0.0883
  864MPD2     H12684   3.971   2.913  16.877  0.2173  0.7254 -0.5008
  864MPD2    H112685   3.920   3.325  16.976  1.0362  0.2022 -3.7026
  864MPD2    H212686   3.664   3.032  17.142  0.9648  1.1815  1.5453
  864MPD2    H312687   3.757   3.272  17.123 -1.1041 -0.2123 -0.1390
  864MPD2     N12688   4.072   3.159  16.837  0.6714  0.0396  0.0918
  864MPD2    H512689   4.105   3.254  16.845  1.7539 -0.2588 -0.7484
  864MPD2    N112690   3.743   2.820  17.016  0.2402  0.1636  0.4251
  864MPD2    H712691   3.662   2.802  17.074 -1.1523  1.9526 -0.9640
  865MPD2     C12692   3.839   3.368  16.625 -0.2498 -0.5296  0.8723
  865MPD2    C112693   3.947   3.356  16.541  0.2403  0.0939 -0.6144
  865MPD2    C212694   4.067   3.420  16.569  0.6984 -1.0333  0.4348
  865MPD2    C312695   4.085   3.492  16.687 -0.1055 -0.2303 -0.6916
  865MPD2    C412696   3.973   3.504  16.770  0.4849  0.3622  0.4723
  865MPD2    C512697   3.854   3.449  16.733  0.4086 -0.8750  0.3630
  865MPD2     H12698   4.148   3.398  16.499  1.2078  0.5290  0.5228
  865MPD2    H112699   3.983   3.560  16.863 -0.6443  1.4983 -0.0902
  865MPD2    H212700   3.746   3.318  16.600 -0.6878  0.3848  0.6540
  865MPD2    H312701   3.765   3.460  16.795  0.7821 -0.3667  0.8021
  865MPD2     N12702   4.211   3.544  16.726  0.7146 -0.3896 -0.8728
  865MPD2    H512703   4.193   3.628  16.781 -0.4567 -0.9426 -0.4116
  865MPD2    N112704   3.914   3.293  16.422  0.3021  0.1455 -0.3699
  865MPD2    H712705   3.822   3.251  16.417 -0.4819  1.5414  2.6710
  866MPD2     C12706   0.367   3.674  11.628 -0.0671  0.8962 -0.2599
  866MPD2    C112707   0.406   3.704  11.499  0.4697 -0.0155 -0.8184
  866MPD2    C212708   0.311   3.754  11.412 -0.0935  1.0552 -0.3627
  866MPD2    C312709   0.196   3.806  11.456 -0.3153 -0.2222 -0.0913
  866MPD2    C412710   0.161   3.800  11.593 -0.2591 -0.5572 -0.2513
  866MPD2    C512711   0.244   3.720  11.676 -0.0673 -0.4434 -0.2014
  866MPD2     H12712   0.348   3.766  11.311 -1.1182 -0.0678 -0.8736
  866MPD2    H112713   0.060   3.825  11.623  0.3408 -1.2780  2.2928
  866MPD2    H212714   0.430   3.605  11.682  1.0764  1.6691 -0.6032
  866MPD2    H312715   0.202   3.702  11.774  0.6910 -0.4882  0.1138
  866MPD2     N12716   0.096   3.858  11.371  0.6176  0.7362 -0.1000
  866MPD2    H512717   0.009   3.879  11.418  0.1856 -2.5964  0.5714
  866MPD2    N112718   0.543   3.682  11.462 -0.1237 -0.2021 -0.2106
  866MPD2    H712719   0.593   3.618  11.522  1.6841  3.1560  1.8922
  867MPD2     C12720   2.473   3.628  16.318  0.4718 -0.4011  0.0347
  867MPD2    C112721   2.553   3.565  16.411  0.3156  0.1722  0.2478
  867MPD2    C212722   2.656   3.631  16.467 -0.1476  0.7653 -0.1164
  867MPD2    C312723   2.675   3.768  16.448  0.1077 -0.1456  0.4524
  867MPD2    C412724   2.585   3.839  16.363 -0.0150 -0.6665  1.0373
  867MPD2    C512725   2.495   3.765  16.293 -0.1405  0.2612 -0.6784
  867MPD2     H12726   2.722   3.583  16.538 -0.0393  0.1438 -0.6456
  867MPD2    H112727   2.601   3.943  16.336 -1.0164 -0.4496  1.2869
  867MPD2    H212728   2.394   3.578  16.264  1.7481 -0.5390 -1.7232
  867MPD2    H312729   2.431   3.818  16.223 -0.7017 -0.5412 -0.7691
  867MPD2     N12730   2.767   3.846  16.514  0.2655 -0.2598  0.3182
  867MPD2    H512731   2.774   3.943  16.486  2.6142 -0.1158  1.3613
  867MPD2    N112732   2.519   3.426  16.442  0.2522 -0.4639  0.0886
  867MPD2    H712733   2.437   3.385  16.398 -0.7448 -0.2308  1.7200
  868MPD2     C12734   4.623   2.340  13.109 -0.5732 -0.4754 -0.5688
  868MPD2    C112735   4.674   2.322  13.236 -0.7328  0.4296 -0.3418
  868MPD2    C212736   4.604   2.375  13.340  0.0737 -0.4918  0.2125
  868MPD2    C312737   4.472   2.419  13.318 -0.8077  0.2864  0.4814
  868MPD2    C412738   4.415   2.424  13.194  0.1032 -0.4103  0.1080
  868MPD2    C512739   4.494   2.379  13.088 -0.1780 -0.7143 -0.9342
  868MPD2     H12740   4.640   2.372  13.442  0.5125 -1.2200  0.0389
  868MPD2    H112741   4.309   2.439  13.177  0.4758  0.5386 -1.3464
  868MPD2    H212742   4.686   2.305  13.027  0.7976 -3.4612  1.7537
  868MPD2    H312743   4.462   2.378  12.985  0.3041 -0.0509 -1.0891
  868MPD2     N12744   4.404   2.444  13.446  0.0953  0.2419 -0.3616
  868MPD2    H512745   4.464   2.443  13.528 -0.4771 -0.2649  0.0531
  868MPD2    N112746   0.072   2.259  13.259  0.0309  0.1429  0.3822
  868MPD2    H712747   0.125   2.239  13.175 -1.4576  0.0456 -0.5354
  869MPD2     C12748   0.704   0.039   2.487 -0.4399  0.4767 -0.0564
  869MPD2    C112749   0.594   4.707   2.424  0.7475  0.0665 -1.3832
  869MPD2    C212750   0.574   0.016   2.292  0.2103  0.4316 -0.5680
  869MPD2    C312751   0.659   0.092   2.214 -0.5955 -0.4231 -0.1848
  869MPD2    C412752   0.780   0.130   2.273  0.9209 -0.7178 -0.9590
  869MPD2    C512753   0.801   0.104   2.407  0.1798  0.1147  0.2966
  869MPD2     H12754   0.503   4.674   2.238 -1.1252  2.3552 -1.0781
  869MPD2    H112755   0.839   0.185   2.202 -0.6895 -0.3048 -1.9767
  869MPD2    H212756   0.723   0.013   2.590  1.9692 -3.7312 -1.6022
  869MPD2    H312757   0.893   0.131   2.457  1.1623  1.2812 -2.1505
  869MPD2     N12758   0.628   0.126   2.078 -0.4271 -0.3018  0.0925
  869MPD2    H512759   0.700   0.179   2.031 -0.1765 -0.2971  0.4764
  869MPD2    N112760   0.507   4.633   2.506  0.4204  0.2329  0.1017
  869MPD2    H712761   0.533   4.632   2.605 -1.4948 -2.2142  0.5680
  870MPD2     C12762   4.524   4.041   1.652  0.5221  0.3884  0.2782
  870MPD2    C112763   4.654   4.068   1.684  0.0108 -0.5355  0.0273
  870MPD2    C212764   0.013   4.128   1.587 -0.4880 -0.9834  0.4364
  870MPD2    C312765   4.698   4.144   1.460  0.1023 -0.0216 -0.1125
  870MPD2    C412766   4.565   4.137   1.432 -0.0107 -0.4362 -0.2850
  870MPD2    C512767   4.479   4.087   1.531 -0.2317  0.2465  0.3484
  870MPD2     H12768   0.120   4.132   1.603 -0.0838  0.1972 -2.5295
  870MPD2    H112769   4.518   4.147   1.335 -0.3752 -0.9423 -0.1592
  870MPD2    H212770   4.463   3.997   1.730 -0.5025 -1.0050 -1.3171
  870MPD2    H312771   4.376   4.072   1.500 -0.3630  0.1142  0.8562
  870MPD2     N12772   0.076   4.187   1.370 -0.3394 -0.7982 -0.2368
  870MPD2    H512773   0.170   4.191   1.409 -0.1652 -0.9710 -0.6330
  870MPD2    N112774   4.697   4.030   1.821 -0.6460  0.1250  0.1856
  870MPD2    H712775   4.623   3.991   1.880 -0.4951  0.0237  0.3076
  871MPD2     C12776   1.449   3.279  16.601 -1.0073  0.7174  0.7908
  871MPD2    C112777   1.440   3.216  16.723 -0.2845 -0.3135  0.0878
  871MPD2    C212778   1.459   3.082  16.729 -0.2848 -0.4453 -0.4051
  871MPD2    C312779   1.495   3.007  16.622 -0.2828  0.4800 -1.0570
  871MPD2    C412780   1.526   3.075  16.507 -0.1710 -0.0470 -0.1885
  871MPD2    C512781   1.504   3.212  16.494  0.4702  0.5211 -0.3931
  871MPD2     H12782   1.444   3.026  16.821  0.4878  1.9233  1.1591
  871MPD2    H112783   1.562   3.027  16.417  1.1270 -1.5984  1.1520
  871MPD2    H212784   1.429   3.384  16.585  2.3443  1.2477  0.0927
  871MPD2    H312785   1.529   3.268  16.405  0.6040  2.3830  0.8081
  871MPD2     N12786   1.518   2.865  16.637 -0.3388 -0.3653 -0.1050
  871MPD2    H512787   1.525   2.816  16.725  2.2538  2.2392  1.1666
  871MPD2    N112788   1.390   3.282  16.835  0.2110 -0.1476 -0.0320
  871MPD2    H712789   1.366   3.378  16.814 -1.8520 -0.6721 -0.0484
  872MPD2     C12790   2.424   0.870  14.290 -0.0672  0.2542 -0.4519
  872MPD2    C112791   2.340   0.903  14.177 -0.1216  0.3613 -0.1744
  872MPD2    C212792   2.205   0.877  14.178  0.4072  0.7032 -0.5740
  872MPD2    C312793   2.148   0.814  14.284 -0.2169  0.1335 -0.7775
  872MPD2    C412794   2.227   0.769  14.392  0.2060  0.8694 -0.6829
  872MPD2    C512795   2.360   0.796  14.392  0.7350 -0.0922  0.2434
  872MPD2     H12796   2.143   0.919  14.099  0.4922 -1.0835 -1.6138
  872MPD2    H112797   2.194   0.722  14.483 -1.2430  0.6509 -1.3116
  872MPD2    H212798   2.532   0.878  14.284 -0.0992  2.1684  1.2496
  872MPD2    H312799   2.414   0.760  14.478 -0.5817  0.4843  1.3068
  872MPD2     N12800   2.012   0.786  14.304 -0.3254  0.0695 -0.3572
  872MPD2    H512801   1.987   0.727  14.382 -0.7299 -1.1344 -1.4137
  872MPD2    N112802   2.402   0.968  14.067 -0.4911  0.8724  0.0208
  872MPD2    H712803   2.349   0.989  13.983  0.1723  4.5251  0.4971
  873MPD2     C12804   3.877   1.230   0.270  0.1836  0.4933  0.3252
  873MPD2    C112805   3.808   1.152   0.355 -0.1736 -0.2803 -0.3832
  873MPD2    C212806   3.783   1.019   0.318 -0.6380  0.4408 -0.5666
  873MPD2    C312807   3.832   0.973   0.196 -0.4834  0.0766  0.3437
  873MPD2    C412808   3.888   1.058   0.106 -0.0940  0.4072 -0.0219
  873MPD2    C512809   3.925   1.180   0.149  0.0244 -0.1618  0.8597
  873MPD2     H12810   3.738   0.951   0.388 -2.0703  0.4596 -1.4749
  873MPD2    H112811   3.931   1.015   0.016  0.1323  2.0792 -0.7130
  873MPD2    H212812   3.904   1.331   0.297  2.0397  0.3588 -0.9955
  873MPD2    H312813   3.992   1.248   0.097 -0.3571  0.0377  0.6288
  873MPD2     N12814   3.831   0.838   0.151  0.4133 -0.1985 -0.6539
  873MPD2    H512815   3.870   0.826   0.058 -0.6728 -0.5686 -1.0765
  873MPD2    N112816   3.750   1.218   0.472  0.2026  0.2800  0.2764
  873MPD2    H712817   3.782   1.315   0.481  0.3314  0.1600  1.1607
  874MPD2     C12818   3.601   1.392  15.724 -0.0817 -0.0121 -0.1473
  874MPD2    C112819   3.653   1.288  15.795  0.0244 -0.2620 -0.3294
  874MPD2    C212820   3.758   1.312  15.885  0.7116  0.5998 -0.6673
  874MPD2    C312821   3.803   1.442  15.896 -0.7948  0.1839 -0.1007
  874MPD2    C412822   3.761   1.543  15.821  0.8079 -0.4372 -1.1017
  874MPD2    C512823   3.654   1.518  15.734 -0.0288 -0.1416  0.5832
  874MPD2     H12824   3.796   1.232  15.947  2.5734  2.6139  0.8273
  874MPD2    H112825   3.797   1.644  15.833 -1.1700  0.2000 -0.5926
  874MPD2    H212826   3.525   1.381  15.647 -1.2741  0.5734  0.9447
  874MPD2    H312827   3.623   1.608  15.682 -0.8312 -1.1746 -0.7020
  874MPD2     N12828   3.902   1.462  15.997 -0.2560  0.4539 -0.2598
  874MPD2    H512829   3.937   1.375  16.036 -1.7306  0.6630  1.5064
  874MPD2    N112830   3.608   1.164  15.764  0.4749  0.1115  1.0012
  874MPD2    H712831   3.527   1.156  15.704  0.5488  0.8854  0.8033
  875MPD2     C12832   0.496   4.099  14.459 -0.3512 -0.4789 -0.2279
  875MPD2    C112833   0.375   4.162  14.438 -0.5190  0.0937 -0.1560
  875MPD2    C212834   0.317   4.246  14.532 -0.2899  0.3572 -0.0439
  875MPD2    C312835   0.381   4.264  14.654  0.1152  0.3246  0.7019
  875MPD2    C412836   0.508   4.204  14.670  0.9155  0.0302 -0.5215
  875MPD2    C512837   0.559   4.129  14.573 -0.3083 -0.1852 -0.0612
  875MPD2     H12838   0.226   4.302  14.516  0.2235  1.0602 -0.5348
  875MPD2    H112839   0.573   4.239  14.749  0.6976 -2.4648  0.7541
  875MPD2    H212840   0.530   4.023  14.391 -0.5673  0.4532 -1.3869
  875MPD2    H312841   0.642   4.064  14.599  0.2078  0.4470 -0.1320
  875MPD2     N12842   0.328   4.343  14.759 -0.0959 -0.5287  1.0145
  875MPD2    H512843   0.386   4.367  14.839  3.3393  0.6145 -1.8578
  875MPD2    N112844   0.310   4.154  14.315  0.6681 -0.4174  0.1997
  875MPD2    H712845   0.222   4.204  14.308 -0.6946 -2.8050 -0.0861
  876MPD2     C12846   4.293   0.850  15.971  0.7353 -0.4055  0.3418
  876MPD2    C112847   4.190   0.802  15.893 -0.2187 -0.3618  0.1264
  876MPD2    C212848   4.119   0.689  15.931  0.9113 -0.4078  0.2966
  876MPD2    C312849   4.134   0.628  16.051 -0.0252  0.6458  0.4090
  876MPD2    C412850   4.240   0.672  16.125 -0.0476 -0.4083 -0.9865
  876MPD2    C512851   4.315   0.783  16.091 -0.0232  0.2375  0.0840
  876MPD2     H12852   4.043   0.653  15.862 -0.5275  2.0694  0.5942
  876MPD2    H112853   4.271   0.617  16.213 -1.8424 -1.0635 -0.7671
  876MPD2    H212854   4.342   0.940  15.934 -2.7260  1.9192  1.4856
  876MPD2    H312855   4.408   0.796  16.145  0.2951 -1.0757 -0.1638
  876MPD2     N12856   4.042   0.526  16.090 -0.3178  0.3312 -0.1344
  876MPD2    H512857   3.958   0.500  16.040  1.4396  0.3311 -3.0526
  876MPD2    N112858   4.169   0.875  15.771 -0.2821 -0.7044  0.9170
  876MPD2    H712859   4.232   0.949  15.742 -0.7559 -0.4321  0.5773
  877MPD2     C12860   3.714   1.115  15.046 -0.0731 -0.6774 -0.1293
  877MPD2    C112861   3.847   1.135  15.050  0.0161 -0.5356  0.1931
  877MPD2    C212862   3.909   1.179  14.941  0.5381 -0.0811  0.8625
  877MPD2    C312863   3.841   1.209  14.826 -0.1947  0.3272 -0.2369
  877MPD2    C412864   3.705   1.193  14.828  0.1522 -0.2745 -0.7807
  877MPD2    C512865   3.641   1.136  14.934 -0.5322  1.1591 -0.5570
  877MPD2     H12866   4.016   1.192  14.949  0.8636 -1.4278 -1.1785
  877MPD2    H112867   3.644   1.220  14.742  1.6065 -0.4974 -1.8864
  877MPD2    H212868   3.669   1.076  15.137  1.8464 -2.2843  0.1332
  877MPD2    H312869   3.534   1.117  14.925 -0.4944  0.1975  1.1299
  877MPD2     N12870   3.900   1.241  14.699 -0.0007  0.0981 -0.0238
  877MPD2    H512871   3.838   1.244  14.619  0.1944 -2.2976 -0.2797
  877MPD2    N112872   3.917   1.119  15.163 -0.8154  0.7919  0.3162
  877MPD2    H712873   4.013   1.153  15.167 -0.1205 -1.0455 -0.7909
  878MPD2     C12874   3.887   0.437  12.783 -0.3192  0.0140 -0.5880
  878MPD2    C112875   3.834   0.553  12.827  0.3871 -0.8231  0.0348
  878MPD2    C212876   3.808   0.562  12.965  0.8283 -0.0375  0.0250
  878MPD2    C312877   3.849   0.471  13.059  0.2249  0.0289  0.5933
  878MPD2    C412878   3.922   0.365  13.014  0.1973 -0.6403 -0.9680
  878MPD2    C512879   3.933   0.343  12.879 -0.9525 -0.7797 -0.7479
  878MPD2     H12880   3.748   0.648  12.996 -0.0376 -0.0862 -1.5241
  878MPD2    H112881   3.961   0.283  13.072  0.6343 -1.9452 -3.0935
  878MPD2    H212882   3.902   0.417  12.678  0.1785  1.1125 -0.7142
  878MPD2    H312883   3.982   0.251  12.847 -1.7443 -0.5623 -2.5483
  878MPD2     N12884   3.844   0.504  13.196 -0.0246 -0.1055 -0.0041
  878MPD2    H512885   3.891   0.440  13.261  2.2379 -0.3328 -1.8704
  878MPD2    N112886   3.795   0.649  12.731 -0.1243  0.0313 -0.8830
  878MPD2    H712887   3.810   0.619  12.635 -0.9869  0.1906 -1.0639
  879MPD2     C12888   3.890   2.293  16.985 -0.3494 -0.4677  0.3192
  879MPD2    C112889   3.937   2.215  17.095  0.4496  0.3080 -0.0188
  879MPD2    C212890   3.905   2.081  17.096 -0.2541 -0.2746 -0.0649
  879MPD2    C312891   3.849   2.019  16.986  0.2267  0.4283 -0.2303
  879MPD2    C412892   3.795   2.100  16.887  0.2424  0.1556 -0.5733
  879MPD2    C512893   3.813   2.236  16.884 -0.2750 -0.5408  0.4383
  879MPD2     H12894   3.933   2.014  17.176 -1.0739 -2.1463 -1.3307
  879MPD2    H112895   3.745   2.060  16.800 -1.8045  1.2139  0.1182
  879MPD2    H212896   3.891   2.401  16.983  1.1327 -0.4928 -0.4311
  879MPD2    H312897   3.766   2.291  16.803 -2.3119  0.1151  2.0687
  879MPD2     N12898   3.831   1.883  16.970  0.0450 -0.8990  0.1977
  879MPD2    H512899   3.815   1.859  16.872 -1.5656  0.5786  0.0993
  879MPD2    N112900   4.009   2.274  17.200 -0.0400 -0.7367 -0.0631
  879MPD2    H712901   4.012   2.376  17.197 -1.4171 -0.6707  0.9772
  880MPD2     C12902   1.163   3.114   0.611 -0.1360 -0.2913  0.1358
  880MPD2    C112903   1.055   3.170   0.672 -0.4533 -0.6436  0.0336
  880MPD2    C212904   0.986   3.100   0.769  0.3704 -0.2992  0.6195
  880MPD2    C312905   1.032   2.972   0.808  0.0411 -0.4080  0.3667
  880MPD2    C412906   1.158   2.936   0.763  0.2128  0.0131 -0.1462
  880MPD2    C512907   1.219   3.003   0.661  0.4454 -0.0255  0.7362
  880MPD2     H12908   0.886   3.129   0.800 -0.2170 -0.0764 -1.4239
  880MPD2    H112909   1.216   2.851   0.797 -1.3212 -1.5683 -1.5174
  880MPD2    H212910   1.211   3.157   0.524  0.2461  0.0312  0.5039
  880MPD2    H312911   1.306   2.964   0.610 -1.8645 -1.3621 -2.1653
  880MPD2     N12912   0.955   2.905   0.909 -0.0858  0.0695 -0.3218
  880MPD2    H512913   0.871   2.951   0.944  0.5881  1.0453 -0.0005
  880MPD2    N112914   1.012   3.294   0.621  0.2686  0.1295  0.2543
  880MPD2    H712915   1.058   3.337   0.542 -0.4721 -0.3320 -0.4362
  881MPD2     C12916   0.507   3.821  17.623 -0.4110  0.8699 -0.0144
  881MPD2    C112917   0.610   3.730  17.615  0.1996 -0.2534  0.4551
  881MPD2    C212918   0.670   3.697   0.052 -0.3634 -0.0800  0.1979
  881MPD2    C312919   0.627   3.746   0.174 -0.2156 -0.1197 -0.0924
  881MPD2    C412920   0.508   3.816   0.174  0.3397  0.1515 -0.7486
  881MPD2    C512921   0.454   3.855   0.059  0.0297  0.4816  0.0600
  881MPD2     H12922   0.763   3.642   0.039 -0.7049 -1.2876  2.9102
  881MPD2    H112923   0.471   3.855   0.269  0.5255 -2.4113  0.3769
  881MPD2    H212924   0.461   3.865  17.535 -0.6927 -0.9861 -0.8053
  881MPD2    H312925   0.372   3.926   0.065  1.8975  2.6341  0.0050
  881MPD2     N12926   0.691   3.721   0.300 -0.5975 -0.0677  0.4504
  881MPD2    H512927   0.656   3.762   0.386  0.9736  2.0159  0.0990
  881MPD2    N112928   0.674   3.711  17.492 -0.2351 -0.6225  0.5974
  881MPD2    H712929   0.636   3.774  17.422  1.9678 -0.3200 -0.3382
  882MPD2     C12930   3.874   1.222  13.862  0.4243  0.3954  0.3542
  882MPD2    C112931   3.830   1.236  13.994 -0.0486  0.4049 -0.0001
  882MPD2    C212932   3.694   1.228  14.027 -0.3195  0.6334  0.1896
  882MPD2    C312933   3.599   1.210  13.923 -0.8948  0.4876  0.6392
  882MPD2    C412934   3.645   1.199  13.791 -0.1557 -0.3813  1.0548
  882MPD2    C512935   3.781   1.197  13.763  0.2025  0.8027 -0.4688
  882MPD2     H12936   3.665   1.234  14.132 -0.4925 -1.6983  0.2778
  882MPD2    H112937   3.571   1.197  13.712  0.0105 -1.4084  0.9345
  882MPD2    H212938   3.979   1.223  13.833  0.5741 -0.3831  0.8467
  882MPD2    H312939   3.811   1.199  13.659  2.7678  0.5375  0.2600
  882MPD2     N12940   3.464   1.197  13.952 -0.3746  0.0838 -0.7972
  882MPD2    H512941   3.403   1.207  13.872  0.7374 -1.5841 -1.8474
  882MPD2    N112942   3.929   1.261  14.095  0.2052  0.0184  0.1781
  882MPD2    H712943   4.024   1.236  14.069 -0.6850 -1.1356 -1.9577
  883MPD2     C12944   1.011   1.092  16.365  0.2762  0.4305  0.9699
  883MPD2    C112945   1.047   1.172  16.260  0.1225 -0.0244 -0.2044
  883MPD2    C212946   1.176   1.199  16.248  0.2096 -0.1597 -0.3370
  883MPD2    C312947   1.266   1.170  16.348 -0.1154  0.8242 -0.3524
  883MPD2    C412948   1.223   1.113  16.469 -0.2439  0.2112  0.3124
  883MPD2    C512949   1.096   1.073  16.467 -0.4326  0.1742  0.6789
  883MPD2     H12950   1.208   1.255  16.160 -1.7802  1.1581 -0.2439
  883MPD2    H112951   1.278   1.097  16.561 -1.1274 -2.5424  0.3584
  883MPD2    H212952   0.911   1.051  16.374  0.0982  0.3010 -1.5958
  883MPD2    H312953   1.054   1.012  16.547 -2.2174  0.6414  0.0946
  883MPD2     N12954   1.396   1.218  16.341  0.0696 -0.1298 -0.5120
  883MPD2    H512955   1.415   1.267  16.254 -0.3344 -0.3561 -0.7276
  883MPD2    N112956   0.959   1.235  16.167  0.0508 -0.8279 -0.3774
  883MPD2    H712957   1.004   1.283  16.090  3.3840 -1.2327  1.3027
  884MPD2     C12958   2.858   1.785  15.206  0.0391  0.3401 -0.2597
  884MPD2    C112959   2.885   1.861  15.095  0.4160  0.4547  0.0147
  884MPD2    C212960   2.785   1.935  15.037 -0.1730  0.0163  0.0109
  884MPD2    C312961   2.650   1.926  15.085  0.0647  0.5965 -0.0400
  884MPD2    C412962   2.633   1.843  15.195 -0.9591 -0.1869  0.3286
  884MPD2    C512963   2.734   1.786  15.261 -0.2591  0.0642  0.7315
  884MPD2     H12964   2.813   1.999  14.955 -0.0173 -1.8592 -1.3966
  884MPD2    H112965   2.533   1.833  15.235 -1.2673  1.1680 -0.1080
  884MPD2    H212966   2.930   1.730  15.264 -1.6796  0.1821  1.7296
  884MPD2    H312967   2.723   1.729  15.353 -0.1508  0.6025  1.0770
  884MPD2     N12968   2.540   1.978  15.010  0.9036  0.0774  0.8960
  884MPD2    H512969   2.561   2.024  14.922 -0.4584  0.4089  0.7386
  884MPD2    N112970   3.017   1.879  15.048  0.2102  0.0445  0.0416
  884MPD2    H712971   3.033   1.951  14.979  2.0580 -0.8530 -0.4857
  885MPD2     C12972   0.917   2.357  17.524  0.2407  0.3258  0.6613
  885MPD2    C112973   1.016   2.257  17.511  0.2751 -0.0070  0.8220
  885MPD2    C212974   1.043   2.201  17.390 -0.3619 -0.6849  0.0522
  885MPD2    C312975   0.976   2.240  17.282 -1.1200 -0.1337  0.2137
  885MPD2    C412976   0.896   2.353  17.288  0.2610  0.0557 -0.2373
  885MPD2    C512977   0.861   2.410  17.406  0.4769 -0.6593  0.0450
  885MPD2     H12978   1.121   2.127  17.373 -0.4153 -0.6161 -0.4814
  885MPD2    H112979   0.860   2.414  17.207 -0.3611 -1.2300 -0.9115
  885MPD2    H212980   0.909   2.402  17.622 -1.4444  1.1173  0.1638
  885MPD2    H312981   0.790   2.491  17.407  0.8065 -0.3795  0.9242
  885MPD2     N12982   1.004   2.186  17.156 -0.0900 -0.1114 -0.3132
  885MPD2    H512983   1.067   2.106  17.151  0.0721 -0.1462  2.5340
  885MPD2    N112984   1.080   2.218  17.631 -0.3010  0.5296 -0.2211
  885MPD2    H712985   1.054   2.253   0.036  2.8296  0.2641  0.7753
  886MPD2     C12986   2.194   0.257  15.369 -0.1224  0.5451 -0.7045
  886MPD2    C112987   2.326   0.290  15.410 -0.9341  0.6264  0.1420
  886MPD2    C212988   2.397   0.392  15.353 -0.0355  0.3304  0.5507
  886MPD2    C312989   2.343   0.459  15.243 -0.0367 -0.2984  0.0819
  886MPD2    C412990   2.211   0.424  15.205 -0.4515 -0.1247 -0.4552
  886MPD2    C512991   2.133   0.328  15.268 -0.6250  0.8657 -0.3973
  886MPD2     H12992   2.497   0.410  15.392  0.4797  1.9153 -1.4771
  886MPD2    H112993   2.165   0.468  15.118 -0.7457 -0.3470 -0.4159
  886MPD2    H212994   2.131   0.186  15.422  2.2225 -0.3626  0.8393
  886MPD2    H312995   2.027   0.320  15.245  0.1267 -0.8744 -3.3570
  886MPD2     N12996   2.407   0.546  15.156 -0.2992  0.6408  0.3776
  886MPD2    H512997   2.346   0.587  15.086 -2.7655  0.1317  2.2178
  886MPD2    N112998   2.385   0.239  15.526  0.0135 -0.2176  0.2666
  886MPD2    H712999   2.480   0.270  15.543  0.0050 -1.0845  1.9006
  887MPD2     C13000   2.986   0.403  15.815  0.1823 -0.4188  0.8836
  887MPD2    C113001   2.895   0.380  15.719  0.4182  0.5464  0.4947
  887MPD2    C213002   2.891   0.461  15.606 -0.1966 -0.1373  0.1736
  887MPD2    C313003   2.984   0.558  15.590 -0.8093 -0.0230  0.7055
  887MPD2    C413004   3.090   0.569  15.677 -0.5104 -0.2721  0.3496
  887MPD2    C513005   3.081   0.501  15.799 -0.7195  0.1688 -0.5929
  887MPD2     H13006   2.810   0.455  15.535 -0.8658  0.6555  0.8722
  887MPD2    H113007   3.166   0.646  15.673 -0.9548  0.0223 -1.9723
  887MPD2    H213008   2.975   0.350  15.909  1.9328  2.4897  2.7204
  887MPD2    H313009   3.142   0.524  15.886  0.2324 -2.4338 -0.5627
  887MPD2     N13010   2.953   0.650  15.492  0.5360 -0.1738  0.0037
  887MPD2    H513011   2.866   0.641  15.439 -1.1928  0.3562  2.7863
  887MPD2    N113012   2.791   0.284  15.728 -0.1518 -0.0218 -0.3694
  887MPD2    H713013   2.737   0.271  15.643 -1.5381 -1.1894  0.7068
  888MPD2     C13014   0.342   0.588  14.926  0.0205 -0.1391 -0.7868
  888MPD2    C113015   0.241   0.629  15.010 -0.4305  0.7212 -0.2682
  888MPD2    C213016   0.240   0.764  15.052  0.4388  0.1187  0.7657
  888MPD2    C313017   0.340   0.849  15.020  0.4762  0.2505 -0.3997
  888MPD2    C413018   0.454   0.804  14.954 -0.4722  0.1325  0.0686
  888MPD2    C513019   0.452   0.674  14.908 -0.6965 -0.1396 -0.7411
  888MPD2     H13020   0.152   0.799  15.104  0.7658 -0.7896  1.9462
  888MPD2    H113021   0.545   0.857  14.930 -1.2683  1.3127 -0.3547
  888MPD2    H213022   0.357   0.489  14.885  1.3416  0.1678 -1.0548
  888MPD2    H313023   0.546   0.629  14.878  0.1407  0.9557  0.2487
  888MPD2     N13024   0.333   0.984  15.050 -0.0910 -0.2308  0.6210
  888MPD2    H513025   0.271   1.009  15.127 -0.3361  0.6498  0.1335
  888MPD2    N113026   0.146   0.534  15.056  0.1372 -0.0626 -0.2933
  888MPD2    H713027   0.075   0.555  15.126 -1.7756  0.3491 -2.3615
  889MPD2     C13028   4.573   0.088  12.662 -0.4314 -0.1727 -0.6289
  889MPD2    C113029   4.499   0.040  12.764  0.0501  0.4453 -0.0215
  889MPD2    C213030   4.405   0.119  12.817 -0.6098 -0.8044  0.1420
  889MPD2    C313031   4.391   0.250  12.787 -0.4420  0.3057  0.0180
  889MPD2    C413032   4.474   0.302  12.687 -0.6728 -0.1012 -0.4174
  889MPD2    C513033   4.560   0.221  12.630 -0.0681 -0.6056  0.0054
  889MPD2     H13034   4.338   0.083  12.895  0.1118  0.7412  1.4839
  889MPD2    H113035   4.476   0.405  12.653  0.1316  0.1593  0.4306
  889MPD2    H213036   4.660   0.030  12.632  0.8985  0.9088  1.0829
  889MPD2    H313037   4.631   0.260  12.558 -1.1917  1.5548  0.0535
  889MPD2     N13038   4.311   0.333  12.866 -0.0086 -0.4728  0.3110
  889MPD2    H513039   4.279   0.290  12.952 -0.3028 -1.4562 -0.2878
  889MPD2    N113040   4.492   4.622  12.772 -1.1568  0.1090 -0.8100
  889MPD2    H713041   4.571   4.571  12.733 -1.4181  0.1052 -1.3420
  890MPD2     C13042   4.343   1.570  14.596 -0.3422  0.7156 -0.7097
  890MPD2    C113043   4.260   1.676  14.613 -0.2193  1.1032 -0.5528
  890MPD2    C213044   4.168   1.668  14.715  0.5396  0.4074 -0.2405
  890MPD2    C313045   4.173   1.560  14.806  0.2887  0.8785 -0.1368
  890MPD2    C413046   4.266   1.459  14.792  0.3736 -0.1871  0.2463
  890MPD2    C513047   4.354   1.469  14.689  0.1967 -0.2013 -0.0102
  890MPD2     H13048   4.088   1.739  14.732  0.0112  0.0023 -0.9640
  890MPD2    H113049   4.276   1.375  14.860  0.4506 -2.0641 -2.0714
  890MPD2    H213050   4.417   1.563  14.518 -1.2178 -0.9649 -1.3919
  890MPD2    H313051   4.434   1.396  14.692 -0.4189 -0.8460  0.5275
  890MPD2     N13052   4.090   1.568  14.923  0.6596 -0.2584 -0.3722
  890MPD2    H513053   4.022   1.643  14.910 -0.0156 -0.8903 -0.5155
  890MPD2    N113054   4.274   1.788  14.522 -0.0938 -1.1558  0.6282
  890MPD2    H713055   4.363   1.789  14.474  0.4861  1.6979  1.7648
  891MPD2     C13056   1.728   0.146  16.602 -0.1435 -0.1357 -0.4306
  891MPD2    C113057   1.694   0.223  16.712  0.7186 -0.0757 -0.6543
  891MPD2    C213058   1.746   0.198  16.843  0.2305 -0.0863  0.3969
  891MPD2    C313059   1.839   0.099  16.856 -0.4692  0.1884 -0.0702
  891MPD2    C413060   1.862   0.013  16.749  0.0568  0.0024 -0.5269
  891MPD2    C513061   1.806   0.037  16.627  0.2134 -0.0853 -0.6209
  891MPD2     H13062   1.722   0.270  16.920 -1.2485 -1.9683  1.7012
  891MPD2    H113063   1.919   4.643  16.763  1.5410  1.0873  0.4458
  891MPD2    H213064   1.692   0.161  16.501 -2.0262 -1.2040  0.0750
  891MPD2    H313065   1.829   4.691  16.544 -1.1456 -0.2210 -0.8790
  891MPD2     N13066   1.901   0.084  16.984 -0.8190 -0.1061 -0.1515
  891MPD2    H513067   1.867   0.147  17.056  1.2123  1.5113 -0.6008
  891MPD2    N113068   1.596   0.326  16.688 -0.1875  0.3476 -0.4319
  891MPD2    H713069   1.584   0.353  16.590  3.3022 -0.5347 -1.0945
  892MPD2     C13070   2.860   1.351  14.784  0.0108 -0.2093 -0.1438
  892MPD2    C113071   2.786   1.354  14.669 -0.1523 -0.1689 -0.3135
  892MPD2    C213072   2.854   1.333  14.550  0.2679  0.1042 -0.6911
  892MPD2    C313073   2.983   1.288  14.561  0.6667  0.1280  0.1284
  892MPD2    C413074   3.053   1.284  14.680 -0.7903  0.6085 -0.5169
  892MPD2    C513075   2.988   1.311  14.790 -0.2512 -0.8810 -0.7437
  892MPD2     H13076   2.800   1.345  14.458  0.8528  1.4453 -0.8547
  892MPD2    H113077   3.155   1.246  14.683 -1.6890 -1.6211  1.4773
  892MPD2    H213078   2.817   1.371  14.882  0.7385 -2.1583  0.5768
  892MPD2    H313079   3.055   1.307  14.875 -1.4229  2.6878  0.3304
  892MPD2     N13080   3.058   1.255  14.444  0.0751  0.0868  0.3276
  892MPD2    H513081   3.158   1.242  14.449 -0.2533 -2.0618  1.3285
  892MPD2    N113082   2.651   1.408  14.662 -0.9920  0.4901  0.1341
  892MPD2    H713083   2.613   1.410  14.568 -0.6256 -0.4820 -0.0412
  893MPD2     C13084   4.025   4.166   1.692  0.6425 -0.5575  0.2420
  893MPD2    C113085   4.075   4.276   1.626  0.0038 -0.3534 -0.2872
  893MPD2    C213086   3.985   4.337   1.536  0.0305  0.0471  0.6671
  893MPD2    C313087   3.862   4.278   1.510  0.1405 -0.5996 -0.3392
  893MPD2    C413088   3.822   4.169   1.585 -0.0694  0.1392  0.3465
  893MPD2    C513089   3.903   4.112   1.674  0.2168  0.8795  1.0688
  893MPD2     H13090   4.006   4.427   1.479 -2.2205 -0.6741 -1.3241
  893MPD2    H113091   3.725   4.121   1.572 -0.4495  0.8888  0.4327
  893MPD2    H213092   4.091   4.116   1.762  0.1775  0.2634  1.2617
  893MPD2    H313093   3.865   4.027   1.730 -0.8470  0.7776  0.2158
  893MPD2     N13094   3.758   4.334   1.431  0.4034 -0.6247  0.2114
  893MPD2    H513095   3.675   4.278   1.421  0.2615 -0.4049  0.1515
  893MPD2    N113096   4.209   4.322   1.656 -0.0427  0.0076 -0.3318
  893MPD2    H713097   4.260   4.277   1.731  0.1771 -0.7202 -0.9249
  894MPD2     C13098   2.807   1.929   0.721  0.1151  0.2600  0.0817
  894MPD2    C113099   2.763   2.002   0.831  0.7450 -0.3425  0.0249
  894MPD2    C213100   2.789   2.141   0.845  0.0507  0.5978  0.3873
  894MPD2    C313101   2.865   2.201   0.748  0.0108  0.1957 -0.4677
  894MPD2    C413102   2.915   2.127   0.636  0.0187 -0.1866 -0.2516
  894MPD2    C513103   2.877   1.998   0.623  0.1569 -0.5641  0.9330
  894MPD2     H13104   2.770   2.202   0.933 -0.3964 -0.7022  1.1922
  894MPD2    H113105   2.965   2.166   0.548 -0.4692  0.2252 -0.3474
  894MPD2    H213106   2.778   1.827   0.700 -0.1701  0.6534 -1.4049
  894MPD2    H313107   2.886   1.939   0.532  0.3500 -0.4326  0.8682
  894MPD2     N13108   2.896   2.335   0.771  0.2891 -0.1000 -0.0330
  894MPD2    H513109   2.843   2.378   0.846  0.3875  0.3950 -0.2481
  894MPD2    N113110   2.684   1.945   0.931  0.0981  0.3677 -0.6361
  894MPD2    H713111   2.674   1.992   1.020  2.2843  0.1582 -0.2700
  895MPD2     C13112   2.374   0.663  13.551 -0.1336 -0.2240  0.3580
  895MPD2    C113113   2.358   0.726  13.434  0.5281 -0.0491  0.0247
  895MPD2    C213114   2.433   0.689  13.324  0.0902 -0.1652 -0.1247
  895MPD2    C313115   2.525   0.586  13.334  0.0423  0.4692 -0.3119
  895MPD2    C413116   2.546   0.529  13.459  0.2304 -0.0656 -0.3428
  895MPD2    C513117   2.464   0.565  13.559 -0.3699 -0.1870 -0.3280
  895MPD2     H13118   2.425   0.755  13.239  1.7875  2.5156  1.7944
  895MPD2    H113119   2.615   0.447  13.476 -1.1356 -1.0419  0.5509
  895MPD2    H213120   2.320   0.702  13.637  2.1716  3.0883  0.2887
  895MPD2    H313121   2.477   0.521  13.657 -3.0022 -0.5962 -0.1687
  895MPD2     N13122   2.590   0.531  13.218 -0.4268  0.1109 -0.4757
  895MPD2    H513123   2.640   0.443  13.222 -1.0023 -0.1351  1.1860
  895MPD2    N113124   2.270   0.837  13.421  0.6615 -0.2707  0.0813
  895MPD2    H713125   2.279   0.896  13.339  1.1561  0.6074  0.7646
  896MPD2     C13126   3.796   3.143   2.116 -0.4268 -0.6304 -0.7693
  896MPD2    C113127   3.854   3.096   2.003 -0.2271 -0.2049 -0.9454
  896MPD2    C213128   3.781   3.002   1.929  1.0540  0.2324 -0.0197
  896MPD2    C313129   3.656   2.969   1.966 -0.4973 -0.2902 -0.5031
  896MPD2    C413130   3.603   3.009   2.087  0.3542  0.3961  0.5056
  896MPD2    C513131   3.676   3.095   2.163 -0.3753  0.2963  0.4800
  896MPD2     H13132   3.815   2.980   1.828  0.8173 -0.9985  0.1684
  896MPD2    H113133   3.508   2.978   2.128  0.8879  0.9023  2.1258
  896MPD2    H213134   3.851   3.217   2.173 -1.7189  0.0147 -0.3539
  896MPD2    H313135   3.635   3.132   2.257 -2.5559 -0.3393 -0.2281
  896MPD2     N13136   3.581   2.904   1.866 -0.7095 -0.5083  0.2213
  896MPD2    H513137   3.625   2.890   1.775 -0.9430  3.9289 -0.5737
  896MPD2    N113138   3.970   3.165   1.956 -0.0081  1.1146  0.0440
  896MPD2    H713139   4.022   3.228   2.016  2.9534 -2.8739  1.6633
  897MPD2     C13140   0.463   4.109  10.504 -0.3115 -0.3772 -0.1492
  897MPD2    C113141   0.381   4.220  10.483  0.7175  0.0239  0.1378
  897MPD2    C213142   0.291   4.254  10.586 -0.4465 -1.0573  0.1379
  897MPD2    C313143   0.287   4.177  10.700  0.5067 -0.0024  0.8604
  897MPD2    C413144   0.365   4.064  10.713  0.6678 -0.5454  0.3780
  897MPD2    C513145   0.447   4.029  10.614 -0.5829 -0.2797  0.1253
  897MPD2     H13146   0.231   4.344  10.586  1.2859  0.1065 -1.9260
  897MPD2    H113147   0.341   3.986  10.784  2.3644  0.5591  2.1437
  897MPD2    H213148   0.539   4.082  10.432 -0.9796 -0.2054 -0.9240
  897MPD2    H313149   0.509   3.941  10.616  1.6888  1.3469  1.5687
  897MPD2     N13150   0.212   4.225  10.809  0.1850  0.3228 -0.1304
  897MPD2    H513151   0.163   4.313  10.796  0.0951  0.5608  1.7889
  897MPD2    N113152   0.397   4.299  10.371  0.2237  0.0780  0.3340
  897MPD2    H713153   0.467   4.271  10.302 -0.7203 -2.5827  0.4800
  898MPD2     C13154   2.803   0.467  17.544 -0.0474  0.4803  0.2033
  898MPD2    C113155   2.720   0.581  17.554 -0.1589 -0.6260  0.3823
  898MPD2    C213156   2.629   0.601  17.451  0.1171 -0.4000  0.4129
  898MPD2    C313157   2.618   0.510  17.348  0.1915  0.3526  0.1843
  898MPD2    C413158   2.712   0.405  17.337  0.0451  0.0273 -0.6712
  898MPD2    C513159   2.794   0.388  17.438 -0.2686  0.5093  0.3483
  898MPD2     H13160   2.568   0.690  17.454  2.1168  0.9809  0.0650
  898MPD2    H113161   2.714   0.341  17.250 -0.5325  1.7802 -1.9776
  898MPD2    H213162   2.880   0.433  17.612  0.7223  3.8055  0.9629
  898MPD2    H313163   2.870   0.311  17.439 -1.0142 -0.1883  3.1017
  898MPD2     N13164   2.532   0.552  17.244  0.0627  0.2065  0.2793
  898MPD2    H513165   2.475   0.635  17.253 -0.0757  0.2460 -0.9371
  898MPD2    N113166   2.727   0.675  17.658  0.6292 -0.3497 -0.6406
  898MPD2    H713167   2.645   0.734  17.670  1.1988  0.4237 -0.4902
  899MPD2     C13168   3.780   1.560  17.386  0.0685  0.4329  0.2140
  899MPD2    C113169   3.650   1.587  17.371 -0.1096  0.1950  0.0338
  899MPD2    C213170   3.568   1.477  17.408 -0.4125  0.4496  0.3480
  899MPD2    C313171   3.620   1.353  17.460  0.8210  0.1598 -0.2984
  899MPD2    C413172   3.756   1.334  17.468  0.2528 -0.1679  0.0963
  899MPD2    C513173   3.835   1.437  17.426 -0.0190 -0.4000  0.6261
  899MPD2     H13174   3.462   1.486  17.385 -0.7353  0.0114  1.6460
  899MPD2    H113175   3.816   1.247  17.497  1.0709  0.4715  0.3282
  899MPD2    H213176   3.853   1.638  17.370  0.6748  0.2362  1.9950
  899MPD2    H313177   3.942   1.437  17.440  0.3455  2.7340 -2.1635
  899MPD2     N13178   3.539   1.238  17.492  0.7752 -0.1967 -0.1198
  899MPD2    H513179   3.575   1.145  17.471 -2.8650 -1.4003 -1.0619
  899MPD2    N113180   3.607   1.711  17.325 -0.2014  0.2008 -0.2296
  899MPD2    H713181   3.680   1.768  17.282  0.5057 -0.4216  0.1685
  900MPD2     C13182   3.012   3.334  12.508 -0.6425 -0.3255 -0.8665
  900MPD2    C113183   2.973   3.217  12.444 -0.4934  0.3878 -0.3076
  900MPD2    C213184   2.864   3.216  12.362 -0.4091 -0.2163  0.4577
  900MPD2    C313185   2.788   3.325  12.341  0.5193  0.2524  0.3545
  900MPD2    C413186   2.820   3.445  12.402 -0.3526  0.9432  0.0606
  900MPD2    C513187   2.927   3.445  12.492  0.3830 -0.5465  0.5367
  900MPD2     H13188   2.834   3.121  12.319  0.2005 -0.6098  0.9086
  900MPD2    H113189   2.768   3.539  12.392 -0.2339  1.0202  0.1650
  900MPD2    H213190   3.096   3.337  12.577 -1.0222 -0.7058 -0.3861
  900MPD2    H313191   2.955   3.537  12.543 -0.1360 -0.0661 -0.0362
  900MPD2     N13192   2.685   3.309  12.241 -0.8781 -0.4909 -0.1762
  900MPD2    H513193   2.677   3.219  12.193 -1.8493 -0.8334  0.6221
  900MPD2    N113194   3.051   3.103  12.480 -0.3566 -0.4828  0.3999
  900MPD2    H713195   3.131   3.116  12.541 -0.2255  0.8740 -0.0513
  901MPD2     C13196   3.170   2.384  13.165 -0.3319 -0.6460  0.5283
  901MPD2    C113197   3.177   2.333  13.040 -0.9939  0.2434 -0.6214
  901MPD2    C213198   3.204   2.416  12.939 -0.8924 -0.1390  0.1225
  901MPD2    C313199   3.199   2.554  12.949  0.9646 -0.0517  0.5643
  901MPD2    C413200   3.199   2.607  13.075  0.3536 -0.1332 -0.0498
  901MPD2    C513201   3.187   2.522  13.178  0.9483 -0.2213  0.1672
  901MPD2     H13202   3.221   2.375  12.840  0.3708 -0.1178  0.3226
  901MPD2    H113203   3.210   2.714  13.090 -1.2593 -0.3261  2.4116
  901MPD2    H213204   3.145   2.330  13.255 -2.3351  1.7129  1.3878
  901MPD2    H313205   3.157   2.559  13.275 -1.5059 -1.9914  0.0908
  901MPD2     N13206   3.214   2.632  12.829 -0.0734 -0.1334 -0.4520
  901MPD2    H513207   3.224   2.581  12.742  1.5613  0.9677 -0.9087
  901MPD2    N113208   3.150   2.194  13.024 -0.1029 -0.0571 -0.5757
  901MPD2    H713209   3.142   2.151  13.116  0.8513  0.0467 -0.4379
  902MPD2     C13210   1.258   1.048  12.781 -0.2853 -0.3391  0.5505
  902MPD2    C113211   1.284   1.044  12.646  0.8662  0.2549 -0.0307
  902MPD2    C213212   1.411   1.039  12.597  0.2466  0.2310  0.0991
  902MPD2    C313213   1.516   1.051  12.689 -0.2723 -0.0651 -0.8440
  902MPD2    C413214   1.485   1.051  12.827 -0.1234  0.6391 -0.0603
  902MPD2    C513215   1.360   1.042  12.872  0.7088  0.2257  0.4512
  902MPD2     H13216   1.432   1.020  12.492  0.5923  0.7627  0.0700
  902MPD2    H113217   1.563   1.062  12.902 -0.3973 -1.3566  0.5185
  902MPD2    H213218   1.155   1.041  12.814 -0.1134 -1.6261  0.7848
  902MPD2    H313219   1.338   1.041  12.979  0.8658  0.4390  0.4852
  902MPD2     N13220   1.655   1.076  12.645  0.0063  0.0456 -0.1304
  902MPD2    H513221   1.721   1.097  12.718  0.3907 -2.1149  0.1463
  902MPD2    N113222   1.168   1.048  12.564  0.5098  0.3363  0.4075
  902MPD2    H713223   1.082   1.034  12.617  1.7026  0.3781  2.3382
  903MPD2     C13224   2.198   1.204  11.910  0.5056  0.6266 -0.0431
  903MPD2    C113225   2.076   1.203  11.975 -0.2168  0.3623  0.0800
  903MPD2    C213226   1.961   1.168  11.900 -0.1824 -0.3945 -0.7317
  903MPD2    C313227   1.966   1.126  11.771  0.2127  0.7167  0.3289
  903MPD2    C413228   2.086   1.138  11.707 -0.1837  0.6012 -0.7502
  903MPD2    C513229   2.195   1.182  11.773 -0.4344 -0.2102  0.5868
  903MPD2     H13230   1.862   1.165  11.944  0.3510 -0.7794  0.4361
  903MPD2    H113231   2.092   1.122  11.600 -1.3765  2.0784 -1.0392
  903MPD2    H213232   2.295   1.224  11.953  0.3924  1.0207  0.0309
  903MPD2    H313233   2.285   1.193  11.714 -1.6441  0.3674 -1.1500
  903MPD2     N13234   1.846   1.069  11.715  0.2709  0.2367 -0.7968
  903MPD2    H513235   1.764   1.075  11.774  1.2424 -0.5822  0.6560
  903MPD2    N113236   2.068   1.233  12.114  0.5682  0.0189  0.6679
  903MPD2    H713237   2.157   1.257  12.158  0.7150  0.2238  0.2570
  904MPD2     C13238   2.448   4.620  13.433  0.4221 -0.4007  0.4175
  904MPD2    C113239   2.361   4.670  13.525 -0.5138 -0.3477  0.2690
  904MPD2    C213240   2.420   0.022  13.628  0.2216  0.1552 -0.1586
  904MPD2    C313241   2.554   0.049  13.644 -0.2048 -0.5637  0.1236
  904MPD2    C413242   2.628   0.002  13.538 -0.6011 -0.2977 -0.4389
  904MPD2    C513243   2.578   4.642  13.440 -0.1505  0.4511  0.1884
  904MPD2     H13244   2.351   0.063  13.700 -0.3842 -1.9534  0.4721
  904MPD2    H113245   2.735   0.021  13.534 -0.6322  0.2637  1.1903
  904MPD2    H213246   2.414   4.569  13.344 -2.8811  1.6929  0.5073
  904MPD2    H313247   2.646   4.611  13.362 -1.3151 -3.6881  0.8140
  904MPD2     N13248   2.597   0.142  13.741  0.2823  0.0261  0.5342
  904MPD2    H513249   2.532   0.169  13.814 -0.1651  1.0533 -0.2395
  904MPD2    N113250   2.221   4.669  13.506  0.5073 -0.2596  0.3638
  904MPD2    H713251   2.167   4.721  13.574 -1.2920 -0.1716 -1.1396
  905MPD2     C13252   1.894   0.177  12.848  0.0729 -0.3720  0.0484
  905MPD2    C113253   1.975   0.172  12.956  0.1863  0.1179  0.3100
  905MPD2    C213254   2.098   0.232  12.945 -0.1849  0.2504  0.1135
  905MPD2    C313255   2.144   0.296  12.838  0.2860 -0.3398  0.1681
  905MPD2    C413256   2.063   0.305  12.726  0.1987 -0.0415 -0.0668
  905MPD2    C513257   1.933   0.256  12.741  0.3974 -0.2544 -0.7107
  905MPD2     H13258   2.164   0.228  13.031  0.0757 -1.3366 -0.1493
  905MPD2    H113259   2.087   0.362  12.638  2.0813 -0.7988 -0.0398
  905MPD2    H213260   1.803   0.120  12.834  0.0496 -0.8534  2.1963
  905MPD2    H313261   1.875   0.278  12.652 -1.0234 -1.4177 -0.0751
  905MPD2     N13262   2.271   0.360  12.848 -0.6753 -0.0215 -0.2334
  905MPD2    H513263   2.313   0.376  12.939  2.1397  2.9309 -2.0460
  905MPD2    N113264   1.948   0.104  13.078  0.2367  0.5718 -0.2292
  905MPD2    H713265   2.017   0.109  13.152  0.1510 -0.1430 -0.0981
  906MPD2     C13266   3.837   3.865  11.400 -0.6780  0.4871  0.0602
  906MPD2    C113267   3.733   3.866  11.310 -0.5039 -0.1487  0.6305
  906MPD2    C213268   3.646   3.759  11.307 -0.0843 -1.1206  0.1841
  906MPD2    C313269   3.646   3.670  11.413 -0.3910  0.4557  0.1250
  906MPD2    C413270   3.752   3.663  11.501 -0.0592  0.4159  0.4072
  906MPD2    C513271   3.853   3.755  11.479  0.0517  0.7994 -0.5139
  906MPD2     H13272   3.562   3.763  11.238  0.4710 -1.3357 -0.5063
  906MPD2    H113273   3.759   3.596  11.586  2.0980  1.5700  1.1482
  906MPD2    H213274   3.919   3.935  11.399 -1.3067  1.2020 -0.7586
  906MPD2    H313275   3.933   3.749  11.553 -0.7518  1.3973  0.3977
  906MPD2     N13276   3.549   3.574  11.432 -0.5687  0.5016  0.0782
  906MPD2    H513277   3.568   3.506  11.506  0.5993  2.8615  1.9270
  906MPD2    N113278   3.721   3.958  11.205  0.0590 -0.0340 -0.7910
  906MPD2    H713279   3.663   3.929  11.126  0.2033  0.4862 -1.0865
  907MPD2     C13280   3.244   4.072  15.853  0.8485  0.4891  0.3956
  907MPD2    C113281   3.216   3.939  15.881  0.5437  0.1380 -0.5121
  907MPD2    C213282   3.271   3.882  15.994 -0.7888 -0.4729  0.0667
  907MPD2    C313283   3.326   3.968  16.078 -0.1056  0.1708 -0.0334
  907MPD2    C413284   3.333   4.105  16.061  0.7447 -0.6344 -0.0445
  907MPD2    C513285   3.283   4.157  15.949  0.8093 -0.3740  0.2099
  907MPD2     H13286   3.245   3.780  16.022  0.5323 -1.2215 -1.4879
  907MPD2    H113287   3.370   4.173  16.137 -0.8552  0.7565 -0.5054
  907MPD2    H213288   3.205   4.117  15.763  0.8546 -1.0714 -0.3951
  907MPD2    H313289   3.288   4.263  15.925  0.3802 -0.8061 -1.8096
  907MPD2     N13290   3.391   3.902  16.188  0.1901 -0.4244 -0.2590
  907MPD2    H513291   3.389   3.801  16.187 -0.1872 -0.4241  0.1210
  907MPD2    N113292   3.148   3.850  15.795  0.1915  0.0491 -0.2798
  907MPD2    H713293   3.126   3.757  15.829 -1.6825  0.3703 -0.5919
  908MPD2     C13294   0.515   4.348   9.363 -0.0775  0.7278 -0.6991
  908MPD2    C113295   0.523   4.252   9.461 -0.1195  0.9077 -0.7530
  908MPD2    C213296   0.515   4.298   9.593  0.0425 -0.0988 -0.1991
  908MPD2    C313297   0.502   4.435   9.627  0.3159 -0.5263 -0.3556
  908MPD2    C413298   0.490   4.525   9.527  0.7047  0.0521  0.2967
  908MPD2    C513299   0.496   4.478   9.400  0.4735 -0.5169  0.1346
  908MPD2     H13300   0.521   4.229   9.677 -0.7153  0.0550 -0.0132
  908MPD2    H113301   0.485   4.633   9.542  1.5643  0.4747 -2.4329
  908MPD2    H213302   0.520   4.328   9.257  0.9590 -2.8092  0.0194
  908MPD2    H313303   0.494   4.564   9.333 -0.1664  0.0308  0.8560
  908MPD2     N13304   0.510   4.479   9.767 -0.0956  0.1344 -0.2127
  908MPD2    H513305   0.497   4.579   9.781  1.0164  0.1514  0.6573
  908MPD2    N113306   0.533   4.114   9.415  0.0123 -0.4287 -0.8617
  908MPD2    H713307   0.535   4.104   9.314 -1.0418  0.1135 -0.9325
  909MPD2     C13308   1.029   1.907  11.733 -0.7583  0.1077  0.0394
  909MPD2    C113309   1.084   2.026  11.684 -0.0372  0.9765  0.3351
  909MPD2    C213310   1.065   2.142  11.762 -0.2937  0.8166 -0.3296
  909MPD2    C313311   1.018   2.136  11.894 -0.5334 -0.3906  0.7707
  909MPD2    C413312   0.967   2.016  11.938 -0.1276  0.1686  0.0465
  909MPD2    C513313   0.977   1.904  11.861  0.5054 -0.6287  0.3511
  909MPD2     H13314   1.104   2.234  11.721  0.7744  0.2054 -0.6814
  909MPD2    H113315   0.910   1.996  12.028 -0.0704 -0.7136 -0.1050
  909MPD2    H213316   1.035   1.813  11.678 -0.9729  0.2095 -0.1561
  909MPD2    H313317   0.929   1.812  11.891  1.6475 -1.8613 -1.6770
  909MPD2     N13318   0.984   2.255  11.967  0.4941  0.0015  0.7217
  909MPD2    H513319   1.026   2.338  11.926 -1.4634  0.3669 -0.5566
  909MPD2    N113320   1.146   2.038  11.559  0.0857 -0.5939 -0.1181
  909MPD2    H713321   1.183   2.130  11.535  0.2142  0.1161  2.7863
  910MPD2     C13322   3.004   4.290  15.502  1.0228  0.0576 -0.1181
  910MPD2    C113323   2.875   4.262  15.545  0.3023  0.4656 -0.1493
  910MPD2    C213324   2.771   4.262  15.462  0.5687  1.0277  0.2411
  910MPD2    C313325   2.789   4.301  15.330 -1.1442 -0.0927 -0.6415
  910MPD2    C413326   2.918   4.325  15.284  0.4904 -0.6620 -0.3156
  910MPD2    C513327   3.025   4.314  15.372 -0.2940 -0.1418  0.8111
  910MPD2     H13328   2.677   4.219  15.496  1.3958 -1.5898 -0.7813
  910MPD2    H113329   2.929   4.335  15.177  2.5365  0.3521 -0.0014
  910MPD2    H213330   3.091   4.286  15.567  0.8934  1.9323  0.1811
  910MPD2    H313331   3.129   4.328  15.343 -0.7391  2.0275  0.2536
  910MPD2     N13332   2.679   4.325  15.238  0.4226  0.0294  0.3150
  910MPD2    H513333   2.703   4.365  15.148  0.2617  1.5914  0.9657
  910MPD2    N113334   2.850   4.223  15.679  0.4368 -0.0862  0.2840
  910MPD2    H713335   2.757   4.186  15.695  0.4901  0.5449  2.0738
  911MPD2     C13336   0.151   0.638  16.343 -0.3591  0.5760  0.0264
  911MPD2    C113337   0.207   0.674  16.226  0.2344 -0.3232  0.3407
  911MPD2    C213338   0.136   0.694  16.110 -0.2741 -0.1437  0.4608
  911MPD2    C313339   4.717   0.695  16.112 -0.1300  0.4491  0.6304
  911MPD2    C413340   4.658   0.660  16.231 -0.3165  0.0128 -0.2159
  911MPD2    C513341   0.012   0.632  16.347  0.6642 -0.4302  0.6223
  911MPD2     H13342   0.191   0.714  16.019 -0.7931 -1.6595 -0.1968
  911MPD2    H113343   4.552   0.668  16.249  0.3160  2.4688  2.4774
  911MPD2    H213344   0.202   0.618  16.436  1.5981 -0.3259 -1.2369
  911MPD2    H313345   4.681   0.593  16.433  0.1396 -1.0608  0.0123
  911MPD2     N13346   4.632   0.701  15.998 -0.1725  0.5248 -0.3563
  911MPD2    H513347   4.532   0.692  16.012 -0.1113  0.9692  0.3753
  911MPD2    N113348   0.344   0.654  16.226 -0.8106  0.1441  0.1103
  911MPD2    H713349   0.383   0.638  16.318 -0.2156  1.8803  0.1560
  912MPD2     C13350   4.212   0.147  15.628  0.3678  0.3567  0.8000
  912MPD2    C113351   4.320   0.197  15.696  1.0632  0.5413 -0.0321
  912MPD2    C213352   4.371   0.115  15.798 -0.1602  0.6530 -0.2450
  912MPD2    C313353   4.317   4.720  15.825  0.3808 -0.5840 -0.2609
  912MPD2    C413354   4.217   4.664  15.753 -0.0561 -0.5768 -0.5561
  912MPD2    C513355   4.158   0.018  15.654 -0.2992 -0.1091  0.0492
  912MPD2     H13356   4.439   0.153  15.874  0.7448 -0.9457 -0.2444
  912MPD2    H113357   4.183   4.563  15.776 -0.1385 -0.5452 -0.5393
  912MPD2    H213358   4.174   0.200  15.541 -0.5564 -0.2584  0.8345
  912MPD2    H313359   4.076   4.700  15.595  0.9510  0.7121 -2.2000
  912MPD2     N13360   4.374   4.651  15.935 -0.3766  0.4115 -0.3105
  912MPD2    H513361   4.462   4.693  15.964  0.3558  0.8653 -3.1418
  912MPD2    N113362   4.367   0.331  15.663 -0.0442 -0.6062 -0.2827
  912MPD2    H713363   4.328   0.380  15.583  0.0668  1.6779  1.0759
  913MPD2     C13364   0.019   0.937  10.132  0.0630 -0.8124  0.1314
  913MPD2    C113365   0.142   0.958  10.195  0.6327  0.2302  0.4718
  913MPD2    C213366   0.203   1.082  10.181  0.1080 -0.3759 -0.0492
  913MPD2    C313367   0.155   1.182  10.089  0.0954  0.9907  0.2554
  913MPD2    C413368   0.027   1.150  10.037  0.7725  0.2155  0.0092
  913MPD2    C513369   4.683   1.034  10.058 -0.1739  0.1393 -1.2257
  913MPD2     H13370   0.297   1.095  10.233  0.3967  0.5247 -0.7992
  913MPD2    H113371   4.711   1.222   9.964  2.3646  0.9833 -0.0404
  913MPD2    H213372   4.679   0.851  10.155 -3.0675  1.4401  0.1754
  913MPD2    H313373   4.599   1.004   9.997  0.1220 -0.9142 -1.1088
  913MPD2     N13374   0.217   1.304  10.059  0.1125  0.3066 -0.1088
  913MPD2    H513375   0.166   1.374  10.006 -0.6200 -1.6783 -1.9997
  913MPD2    N113376   0.197   0.857  10.272  0.4806  0.5046  0.3088
  913MPD2    H713377   0.145   0.771  10.290  1.3483 -0.2306 -0.7563
  914MPD2     C13378   2.889   1.940  12.154 -0.0562 -0.3693 -0.0508
  914MPD2    C113379   2.973   2.034  12.212 -0.6708  0.0969 -0.5334
  914MPD2    C213380   3.011   2.014  12.346  0.3871 -0.5658 -0.7190
  914MPD2    C313381   2.958   1.910  12.424  0.2853  0.2096 -0.1066
  914MPD2    C413382   2.871   1.823  12.367  0.3404 -0.2539  0.6208
  914MPD2    C513383   2.842   1.839  12.233 -0.4583 -0.2992  0.5571
  914MPD2     H13384   3.081   2.077  12.400 -0.0564 -0.6126 -0.0956
  914MPD2    H113385   2.815   1.741  12.410  0.5857 -1.0353 -0.5627
  914MPD2    H213386   2.863   1.934  12.049  2.2601 -0.5149 -0.6259
  914MPD2    H313387   2.780   1.763  12.187  0.5623 -0.9156  0.1935
  914MPD2     N13388   3.002   1.899  12.562 -0.6265  0.0620  0.4965
  914MPD2    H513389   3.067   1.970  12.594  0.5497 -0.7050 -0.1934
  914MPD2    N113390   3.018   2.147  12.136  0.2612  0.4834 -0.4924
  914MPD2    H713391   2.978   2.152  12.043 -0.3520  0.4966 -0.2288
  915MPD2     C13392   1.148   1.955  15.355 -0.2213  0.3097 -0.6339
  915MPD2    C113393   1.016   1.971  15.372 -0.0965  0.7245 -0.5900
  915MPD2    C213394   0.970   2.065  15.465 -0.3183 -0.1399  0.1480
  915MPD2    C313395   1.057   2.148  15.535 -0.0188 -0.6171  1.0095
  915MPD2    C413396   1.192   2.132  15.514  0.3546  0.6009  0.2986
  915MPD2    C513397   1.236   2.028  15.435  0.7411 -0.5284  0.1337
  915MPD2     H13398   0.865   2.076  15.488  0.6091  1.7720  3.3747
  915MPD2    H113399   1.265   2.194  15.565  0.6479  0.5441 -0.0560
  915MPD2    H213400   1.189   1.876  15.294  0.5236  0.6362 -0.5473
  915MPD2    H313401   1.341   2.002  15.444  0.4538 -0.9404  2.3489
  915MPD2     N13402   1.011   2.230  15.633 -0.4799  0.2297  0.1932
  915MPD2    H513403   0.910   2.227  15.643 -0.1238  1.6450  4.1567
  915MPD2    N113404   0.928   1.884  15.299  0.2786  0.3346 -0.6484
  915MPD2    H713405   0.967   1.843  15.215  2.1799 -0.5908  0.7095
  916MPD2     C13406   3.273   0.217  16.073  0.8566 -0.2725 -0.3591
  916MPD2    C113407   3.406   0.198  16.039  0.4684  0.1706  0.4554
  916MPD2    C213408   3.426   0.095  15.947 -0.3470 -0.1068  0.5134
  916MPD2    C313409   3.322   0.031  15.884 -0.5247  0.1357  0.6122
  916MPD2    C413410   3.186   0.059  15.915  0.6164  0.3639 -0.3562
  916MPD2    C513411   3.164   0.154  16.012 -0.1352 -0.0944 -0.6600
  916MPD2     H13412   3.524   0.051  15.933 -0.3110  0.0444  0.2822
  916MPD2    H113413   3.104   0.018  15.858  0.3714  1.2397 -0.6263
  916MPD2    H213414   3.249   0.289  16.150  0.3688 -1.5688  0.7082
  916MPD2    H313415   3.062   0.181  16.040 -1.3998 -3.3437 -2.1849
  916MPD2     N13416   3.362   4.663  15.781  0.2023  1.0896  0.4924
  916MPD2    H513417   3.460   4.638  15.772 -0.2781 -0.6674  0.0707
  916MPD2    N113418   3.513   0.259  16.114 -0.0217 -0.1588 -0.1086
  916MPD2    H713419   3.479   0.323  16.185 -3.1221 -2.2827  0.2892
  917MPD2     C13420   4.300   1.622  11.099 -0.0214 -0.5271 -0.1980
  917MPD2    C113421   4.369   1.642  11.213  0.0807  0.4332  0.4213
  917MPD2    C213422   4.498   1.689  11.197  0.4400 -0.3949  0.1314
  917MPD2    C313423   4.555   1.712  11.073 -0.4350 -0.7384  0.2714
  917MPD2    C413424   4.484   1.671  10.961  0.9547 -0.0043  0.4070
  917MPD2    C513425   4.357   1.628  10.982  0.3628 -0.1112 -0.1129
  917MPD2     H13426   4.553   1.712  11.288  0.0160 -0.9647  0.5361
  917MPD2    H113427   4.519   1.685  10.859  0.2970  0.4006  0.2444
  917MPD2    H213428   4.192   1.607  11.106 -0.1560  1.8234  2.6561
  917MPD2    H313429   4.295   1.617  10.894 -0.8927 -0.6109  0.8414
  917MPD2     N13430   4.679   1.778  11.054 -0.3522 -0.3627  0.3045
  917MPD2    H513431   4.698   1.803  10.958 -0.0715 -1.9863 -0.0584
  917MPD2    N113432   4.307   1.623  11.342  0.2106 -0.1109 -0.3903
  917MPD2    H713433   4.219   1.573  11.339  1.0411 -1.6100  0.1050
  918MPD2     C13434   4.437   2.172  12.168  0.1224 -0.6110 -0.0702
  918MPD2    C113435   4.525   2.074  12.116  0.1442  0.4311 -0.1962
  918MPD2    C213436   4.487   1.980  12.027 -0.7609 -0.2363 -0.1063
  918MPD2    C313437   4.354   1.970  12.011 -0.0838 -0.0414  0.3622
  918MPD2    C413438   4.259   2.058  12.058 -0.1885  0.1360 -0.1358
  918MPD2    C513439   4.303   2.163  12.138  0.1883  0.2475 -0.0401
  918MPD2     H13440   4.556   1.909  11.983 -1.0798 -1.3300  1.1414
  918MPD2    H113441   4.156   2.064  12.023 -0.9634 -1.4732  1.7857
  918MPD2    H213442   4.462   2.250  12.239 -2.4291  1.1631 -1.1305
  918MPD2    H313443   4.237   2.240  12.175 -0.1162 -0.1697  0.2834
  918MPD2     N13444   4.320   1.876  11.912 -0.8514  0.1009  1.0514
  918MPD2    H513445   4.388   1.835  11.849 -0.6921  1.5896  0.2478
  918MPD2    N113446   4.666   2.092  12.138 -0.1205  0.2533 -0.3130
  918MPD2    H713447   0.006   2.019  12.103  0.7749 -0.1288  2.0309
  919MPD2     C13448   0.513   1.197  11.594  0.3162 -0.0272  0.2915
  919MPD2    C113449   0.432   1.086  11.561  1.0315  0.0703  0.5778
  919MPD2    C213450   0.389   1.057  11.427  0.1003 -0.2692  0.0881
  919MPD2    C313451   0.438   1.141  11.330 -0.2556 -0.0403  0.1481
  919MPD2    C413452   0.505   1.259  11.363  0.0578  0.3542  0.2741
  919MPD2    C513453   0.536   1.284  11.493  0.6068  0.6480  0.0751
  919MPD2     H13454   0.327   0.969  11.410  2.0381 -1.6812  0.3166
  919MPD2    H113455   0.550   1.322  11.287 -0.2053  0.3701  0.1308
  919MPD2    H213456   0.563   1.208  11.690 -0.8295 -0.8431  0.9967
  919MPD2    H313457   0.604   1.364  11.520  0.5932  0.2798  1.2059
  919MPD2     N13458   0.410   1.114  11.195 -0.1708 -0.0399 -0.7810
  919MPD2    H513459   0.451   1.168  11.120  0.8397  2.9192  1.8919
  919MPD2    N113460   0.405   0.991  11.658 -0.0199 -0.5072 -0.0821
  919MPD2    H713461   0.360   0.904  11.633 -1.1330 -0.7370  2.7131
  920MPD2     C13462   0.081   1.546  10.362 -0.2213 -0.1329  0.3143
  920MPD2    C113463   0.018   1.428  10.356 -0.3170 -0.5264  0.0715
  920MPD2    C213464   0.051   1.330  10.441 -0.3388 -0.4056 -0.0860
  920MPD2    C313465   0.152   1.352  10.534  0.5367 -0.0398  0.4354
  920MPD2    C413466   0.228   1.460  10.518  0.8162 -0.0304  0.2927
  920MPD2    C513467   0.194   1.556  10.437 -0.4801  0.5222  0.0566
  920MPD2     H13468   4.718   1.236  10.438  2.5023 -2.0495  0.3872
  920MPD2    H113469   0.321   1.481  10.571  1.2049  2.4535 -1.3851
  920MPD2    H213470   0.050   1.621  10.290  0.5715 -0.7558 -0.6722
  920MPD2    H313471   0.254   1.646  10.431  2.4878 -1.3889  0.9198
  920MPD2     N13472   0.185   1.255  10.631  0.2542  0.4924  0.4603
  920MPD2    H513473   0.122   1.175  10.638 -0.4135  1.0789  1.1621
  920MPD2    N113474   4.625   1.397  10.267  0.5262  0.4033  0.1735
  920MPD2    H713475   4.580   1.308  10.283 -1.4921  1.0918 -1.8244
  921MPD2     C13476   0.927   0.979  16.771  0.1070 -0.7394 -0.2783
  921MPD2    C113477   0.981   0.852  16.746  0.4770  1.1632 -0.4215
  921MPD2    C213478   0.904   0.762  16.678 -0.0848  1.0254 -0.1411
  921MPD2    C313479   0.789   0.802  16.613 -0.0276 -0.4401 -0.1662
  921MPD2    C413480   0.735   0.925  16.638  0.1440  0.5109  0.5588
  921MPD2    C513481   0.806   1.016  16.717 -0.2502 -0.6749 -0.7613
  921MPD2     H13482   0.936   0.659  16.679  0.1807  1.1624  3.6363
  921MPD2    H113483   0.643   0.967  16.600 -0.6094 -0.9200  0.8093
  921MPD2    H213484   0.977   1.062  16.820  0.1200 -1.0813  0.2905
  921MPD2    H313485   0.772   1.116  16.740  0.0724 -1.1153  1.5751
  921MPD2     N13486   0.715   0.716  16.521  0.4901 -0.4939 -0.2659
  921MPD2    H513487   0.630   0.756  16.483  0.5906 -2.6407 -2.7348
  921MPD2    N113488   1.116   0.827  16.794 -0.3517 -0.1287 -0.0460
  921MPD2    H713489   1.166   0.911  16.820  0.5982 -1.0630  1.1307
  922MPD2     C13490   1.577   2.804  17.018 -0.1426 -0.2837 -0.9357
  922MPD2    C113491   1.690   2.746  17.079 -0.3425 -0.2958  0.0024
  922MPD2    C213492   1.674   2.693  17.208  0.4715  0.0636 -0.0524
  922MPD2    C313493   1.553   2.703  17.271 -0.4036  0.5293 -0.0054
  922MPD2    C413494   1.444   2.766  17.210  0.2782  0.3247  0.3812
  922MPD2    C513495   1.458   2.813  17.083 -0.3496  0.0691 -0.7173
  922MPD2     H13496   1.764   2.653  17.253 -0.9886  0.0415  2.7872
  922MPD2    H113497   1.348   2.768  17.260  1.0063  0.9344  1.7386
  922MPD2    H213498   1.580   2.857  16.924  0.4793 -0.0705 -0.7964
  922MPD2    H313499   1.378   2.865  17.031 -0.3161  1.3494  0.5324
  922MPD2     N13500   1.526   2.662  17.399 -0.0073  0.8758 -0.5883
  922MPD2    H513501   1.430   2.679  17.426  0.1845  1.7402 -0.4496
  922MPD2    N113502   1.819   2.766  17.028  0.6300  0.3983  0.2604
  922MPD2    H713503   1.891   2.760  17.100 -0.3078 -0.3270  1.1440
  923MPD2     C13504   2.802   3.357   8.816 -0.1033  0.0765  0.7002
  923MPD2    C113505   2.821   3.474   8.876 -0.1944 -0.4439 -0.0871
  923MPD2    C213506   2.937   3.496   8.945  0.0742  0.2062 -0.2754
  923MPD2    C313507   3.036   3.398   8.960  0.9597 -0.0145  0.2966
  923MPD2    C413508   3.013   3.278   8.896  1.2375 -1.0431  0.2184
  923MPD2    C513509   2.898   3.260   8.824 -0.1210 -0.0874  0.1860
  923MPD2     H13510   2.947   3.587   9.003 -0.4024  0.5692 -0.7726
  923MPD2    H113511   3.085   3.197   8.895 -1.0079 -3.0358 -1.6257
  923MPD2    H213512   2.713   3.344   8.755 -0.1144 -2.1702  1.2036
  923MPD2    H313513   2.876   3.167   8.773 -0.0851 -0.1387  0.2641
  923MPD2     N13514   3.157   3.421   9.041  0.1520  0.5486  0.1590
  923MPD2    H513515   3.230   3.352   9.030 -1.8410 -1.4466 -0.7175
  923MPD2    N113516   2.712   3.563   8.867  0.0319 -0.3054 -0.1863
  923MPD2    H713517   2.632   3.540   8.810 -0.4476 -1.7418  1.0670
  924MPD2     C13518   3.495   3.176  16.233 -0.5310  0.2473 -0.8271
  924MPD2    C113519   3.454   3.199  16.366 -0.5537  0.5053 -0.0446
  924MPD2    C213520   3.513   3.308  16.430 -0.6446  0.3714 -0.2821
  924MPD2    C313521   3.598   3.392  16.359  0.4049 -0.4442  0.1019
  924MPD2    C413522   3.628   3.374  16.223  0.5532  0.6072 -0.4518
  924MPD2    C513523   3.582   3.260  16.167 -0.4395 -0.7015  0.6270
  924MPD2     H13524   3.486   3.343  16.530  0.1492 -0.2844  0.1573
  924MPD2    H113525   3.679   3.446  16.159 -1.1490 -0.0728 -2.5445
  924MPD2    H213526   3.455   3.097  16.170 -0.9650 -0.1400 -0.0584
  924MPD2    H313527   3.604   3.238  16.063 -0.2035 -2.4434  1.0401
  924MPD2     N13528   3.641   3.518  16.411  0.2737 -0.3475  0.0079
  924MPD2    H513529   3.690   3.574  16.342 -1.9367 -0.1868 -1.4544
  924MPD2    N113530   3.352   3.127  16.425 -0.7663  0.2958  0.0939
  924MPD2    H713531   3.305   3.069  16.356  2.2400 -0.4428 -1.3184
  925MPD2     C13532   1.815   0.510  14.870  0.0093 -0.4301  0.2272
  925MPD2    C113533   1.699   0.576  14.834 -0.2827  0.0924  0.6758
  925MPD2    C213534   1.600   0.599  14.927 -0.4030  1.2708  0.2530
  925MPD2    C313535   1.619   0.555  15.058  0.5907  0.0644  0.8293
  925MPD2    C413536   1.740   0.497  15.094  0.1687 -0.0521 -0.7719
  925MPD2    C513537   1.834   0.472  14.999  0.1171 -0.1210 -0.4138
  925MPD2     H13538   1.505   0.640  14.895 -0.8129 -0.0593 -0.2346
  925MPD2    H113539   1.752   0.470  15.198  0.4787  0.0579 -0.7779
  925MPD2    H213540   1.892   0.480  14.800 -0.2281 -0.5810  0.0317
  925MPD2    H313541   1.927   0.422  15.022  0.1849 -0.7349 -2.0727
  925MPD2     N13542   1.521   0.580  15.157 -0.4024 -0.0941  0.3290
  925MPD2    H513543   1.551   0.564  15.253 -0.3726  0.5628  0.4322
  925MPD2    N113544   1.677   0.607  14.699 -0.5066  0.2659 -0.0530
  925MPD2    H713545   1.592   0.663  14.688 -0.4002  0.3866 -0.2665
  926MPD2     C13546   1.230   4.270  12.761 -0.4177  0.6022  0.3151
  926MPD2    C113547   1.105   4.293  12.705  0.5057  0.2989  0.4243
  926MPD2    C213548   1.091   4.298  12.566  0.3067  0.2259 -0.4951
  926MPD2    C313549   1.209   4.275  12.493 -0.2430 -0.0286  0.0311
  926MPD2    C413550   1.329   4.238  12.548 -0.0226  0.0262 -0.2976
  926MPD2    C513551   1.337   4.238  12.683 -0.4449 -0.3852  0.2402
  926MPD2     H13552   0.995   4.324  12.522 -1.1004  0.4344  2.6978
  926MPD2    H113553   1.421   4.230  12.491 -0.0991  2.5393 -0.7967
  926MPD2    H213554   1.234   4.281  12.869 -1.4284 -0.2079  0.4340
  926MPD2    H313555   1.430   4.216  12.735 -1.5753 -2.4457  1.4013
  926MPD2     N13556   1.208   4.308  12.358  0.1137 -0.0861  0.1388
  926MPD2    H513557   1.297   4.294  12.311  0.4845 -1.3827  1.2250
  926MPD2    N113558   0.992   4.342  12.783 -0.0611  0.5062 -0.1667
  926MPD2    H713559   0.898   4.336  12.745  0.1932  0.9276 -0.8701
  927MPD2     C13560   0.644   1.580   0.406  0.3315 -1.2348 -0.2271
  927MPD2    C113561   0.542   1.555   0.317  0.2010 -0.1846  0.5341
  927MPD2    C213562   0.562   1.587   0.184  0.0756 -0.0621 -0.4442
  927MPD2    C313563   0.680   1.636   0.147 -0.2214  0.2529  0.3767
  927MPD2    C413564   0.782   1.663   0.239 -0.7062  0.0581  0.7246
  927MPD2    C513565   0.769   1.625   0.366 -1.2837  0.0321 -0.2756
  927MPD2     H13566   0.485   1.582   0.107  1.5050 -0.6040 -1.8533
  927MPD2    H113567   0.878   1.703   0.207 -0.5690 -0.8692 -0.0231
  927MPD2    H213568   0.633   1.539   0.506  1.1769  1.2519  0.8882
  927MPD2    H313569   0.856   1.633   0.430 -1.1297 -1.1237 -0.3450
  927MPD2     N13570   0.695   1.658   0.004 -0.2282  0.2858  0.0286
  927MPD2    H513571   0.619   1.636  17.628  0.1287  0.4804 -0.4715
  927MPD2    N113572   0.416   1.508   0.362  0.3278 -1.1635 -0.5249
  927MPD2    H713573   0.419   1.487   0.461  1.2107 -0.2925 -0.3704
  928MPD2     C13574   2.504   0.365   0.256 -0.5362  0.3194  0.1195
  928MPD2    C113575   2.600   0.295   0.321  0.6756  0.5024  1.0993
  928MPD2    C213576   2.676   0.202   0.251  0.0034 -0.2287 -0.3001
  928MPD2    C313577   2.656   0.183   0.111 -0.5005  0.3308 -0.0885
  928MPD2    C413578   2.556   0.263   0.048  0.5502 -0.4986  0.2878
  928MPD2    C513579   2.490   0.356   0.119  0.1232 -1.2077 -0.2083
  928MPD2     H13580   2.764   0.154   0.293  2.3202  3.4007 -0.9688
  928MPD2    H113581   2.554   0.272  17.627 -0.7688  1.0786  0.4409
  928MPD2    H213582   2.443   0.443   0.300 -0.6715  0.3588 -0.1416
  928MPD2    H313583   2.408   0.417   0.083  2.7528  1.9687 -0.8121
  928MPD2     N13584   2.731   0.107   0.016  0.0188 -0.6206  0.4593
  928MPD2    H513585   2.690   0.099  17.610 -1.8460  3.5312  0.9237
  928MPD2    N113586   2.613   0.323   0.451 -0.1162  0.3988  0.0604
  928MPD2    H713587   2.548   0.385   0.498  0.2890  0.6908  0.2380
  929MPD2     C13588   3.039   4.533  10.359  0.2149  0.0281  0.1819
  929MPD2    C113589   2.947   4.446  10.301  0.2319 -0.1442 -0.2719
  929MPD2    C213590   2.900   4.472  10.175 -0.1980 -0.5280  0.8338
  929MPD2    C313591   2.962   4.574  10.095 -0.2859 -0.2804 -0.8558
  929MPD2    C413592   3.037   4.668  10.158  0.3107 -0.6681  0.5111
  929MPD2    C513593   3.077   4.640  10.287  0.7842 -0.0041 -0.0918
  929MPD2     H13594   2.847   4.397  10.119  0.2825 -1.4097  1.5519
  929MPD2    H113595   3.073   0.034  10.105  0.0462 -0.6706  0.3244
  929MPD2    H213596   3.077   4.516  10.459 -1.1320  0.2558  0.7341
  929MPD2    H313597   3.145   4.705  10.340  0.7769 -0.5365  0.5801
  929MPD2     N13598   2.939   4.586   9.960 -0.4709 -0.6020  0.0264
  929MPD2    H513599   2.960   4.675   9.917 -1.2814  0.0817  1.0259
  929MPD2    N113600   2.902   4.331  10.379  0.0718  0.6049 -0.1204
  929MPD2    H713601   2.950   4.326  10.468 -1.8198 -0.2672  0.8432
  930MPD2     C13602   0.163   2.606  13.466 -0.0430 -0.4053 -0.3567
  930MPD2    C113603   0.293   2.561  13.475  0.3544 -0.5979 -0.2868
  930MPD2    C213604   0.357   2.503  13.361  0.3724  0.1877  0.0266
  930MPD2    C313605   0.296   2.506  13.240  0.3641  0.0051 -0.1818
  930MPD2    C413606   0.170   2.554  13.235  0.0216 -0.2473 -0.2025
  930MPD2    C513607   0.102   2.610  13.344 -0.0625  0.0867  0.4934
  930MPD2     H13608   0.455   2.459  13.380 -0.0575 -1.1197 -0.8146
  930MPD2    H113609   0.119   2.543  13.140  1.4145 -1.2333 -0.8454
  930MPD2    H213610   0.113   2.638  13.556  0.6540 -1.2067  0.3241
  930MPD2    H313611   4.720   2.642  13.330  0.2246  0.1579 -1.4680
  930MPD2     N13612   0.354   2.462  13.123  0.4089  0.5402  0.1210
  930MPD2    H513613   0.308   2.486  13.036 -2.3495 -1.5559  1.0423
  930MPD2    N113614   0.368   2.589  13.593  0.4950 -0.0679 -0.4153
  930MPD2    H713615   0.322   2.645  13.664 -1.4070 -1.4625 -0.5496
  931MPD2     C13616   0.220   0.894   0.547 -0.5241  0.3056  0.2745
  931MPD2    C113617   0.145   0.989   0.618 -0.1165 -0.1946 -0.0341
  931MPD2    C213618   0.085   0.954   0.734  0.1155 -0.7532  0.0976
  931MPD2    C313619   0.103   0.822   0.779  0.3543 -0.2233  0.6385
  931MPD2    C413620   0.191   0.736   0.717  0.2091  0.7330 -0.0347
  931MPD2    C513621   0.246   0.769   0.593  0.0860 -0.2989  0.9071
  931MPD2     H13622   0.049   1.026   0.806  0.4900  1.0622 -1.5288
  931MPD2    H113623   0.212   0.633   0.743  0.4225  1.3950  2.4082
  931MPD2    H213624   0.262   0.920   0.451 -1.1396  0.5225  0.0627
  931MPD2    H313625   0.304   0.695   0.539  0.6983 -0.7214  2.1478
  931MPD2     N13626   0.049   0.774   0.899 -0.2515  0.8357  0.2322
  931MPD2    H513627   0.075   0.680   0.928  0.0733  1.1703  1.0388
  931MPD2    N113628   0.145   1.122   0.565 -0.1653  0.2591 -1.3222
  931MPD2    H713629   0.211   1.148   0.493 -1.9862  2.0911 -2.3359
  932MPD2     C13630   2.714   0.359  11.282 -0.0198  0.2311  0.2518
  932MPD2    C113631   2.605   0.439  11.327 -0.2583 -0.5604  0.2811
  932MPD2    C213632   2.581   0.456  11.461 -0.1420 -0.0103  0.3108
  932MPD2    C313633   2.646   0.371  11.553 -0.3422  0.3752  0.5677
  932MPD2    C413634   2.752   0.304  11.509  0.0042 -0.2506 -0.3298
  932MPD2    C513635   2.794   0.299  11.380 -0.1396  0.2903 -0.4898
  932MPD2     H13636   2.500   0.524  11.485 -0.0070  0.0632  0.5670
  932MPD2    H113637   2.807   0.251  11.587  0.8740 -1.0197 -1.4613
  932MPD2    H213638   2.750   0.346  11.181 -1.3318  0.5070 -0.2457
  932MPD2    H313639   2.876   0.237  11.345 -1.5523 -1.5370 -0.5308
  932MPD2     N13640   2.608   0.345  11.683  0.3705  0.3750  0.1840
  932MPD2    H513641   2.660   0.283  11.745 -0.2627 -0.3569 -0.0141
  932MPD2    N113642   2.520   0.509  11.237  0.0564  0.2741 -0.1366
  932MPD2    H713643   2.455   0.577  11.275  2.3563  2.7721 -0.7130
  933MPD2     C13644   2.356   0.045   1.223  0.2456  0.2554 -0.3497
  933MPD2    C113645   2.352   0.138   1.116 -0.1774 -1.3205 -0.2011
  933MPD2    C213646   2.227   0.185   1.078  0.0163  0.1552  0.8993
  933MPD2    C313647   2.113   0.150   1.149 -0.4139  0.1914 -0.1891
  933MPD2    C413648   2.121   0.062   1.248 -0.0574  0.1001 -0.8441
  933MPD2    C513649   2.245   0.012   1.284  0.2195 -0.2227 -0.7688
  933MPD2     H13650   2.222   0.251   0.991 -2.4773 -1.7129 -0.3660
  933MPD2    H113651   2.033   0.036   1.305  0.5347 -1.8203 -0.7982
  933MPD2    H213652   2.451   0.009   1.261  0.0737 -0.4380 -0.5682
  933MPD2    H313653   2.252   4.672   1.373 -2.7477  0.4844 -0.0426
  933MPD2     N13654   1.981   0.189   1.112 -0.7163 -0.2081 -0.3356
  933MPD2    H513655   1.911   0.163   1.180  0.4921  0.3358  1.1190
  933MPD2    N113656   2.471   0.174   1.044 -0.1472  0.0827  0.1475
  933MPD2    H713657   2.561   0.135   1.072 -0.6125 -0.9157  0.2358
  934MPD2     C13658   3.774   2.639   2.096 -0.1178 -0.5818  0.9683
  934MPD2    C113659   3.886   2.603   2.016  0.4366 -0.1802  0.0291
  934MPD2    C213660   3.867   2.518   1.907  0.3365  0.0237 -0.0445
  934MPD2    C313661   3.741   2.472   1.876  0.2455  0.1633 -0.5990
  934MPD2    C413662   3.635   2.510   1.953  0.2555 -0.2452  0.7770
  934MPD2    C513663   3.646   2.585   2.060 -0.6953 -0.2137  0.6112
  934MPD2     H13664   3.949   2.495   1.838  0.8986 -0.0685  0.6541
  934MPD2    H113665   3.540   2.471   1.919  0.5584 -1.1378  0.9479
  934MPD2    H213666   3.776   2.712   2.176  0.5573  1.1626 -0.6398
  934MPD2    H313667   3.561   2.604   2.124 -0.2098  0.2186  1.1345
  934MPD2     N13668   3.703   2.397   1.763 -0.2925 -0.3464 -0.0704
  934MPD2    H513669   3.604   2.376   1.760 -0.2625 -0.6163  0.7134
  934MPD2    N113670   4.015   2.651   2.030  0.3506  0.0509  0.5672
  934MPD2    H713671   4.083   2.618   1.961  1.6204 -0.5006  2.0724
  935MPD2     C13672   4.179   2.073   0.975  0.3973 -0.0235  0.8994
  935MPD2    C113673   4.100   1.962   1.005 -0.4452  0.4754  0.2234
  935MPD2    C213674   4.014   1.963   1.117  0.5658  0.1564  0.4056
  935MPD2    C313675   4.007   2.083   1.192 -0.2899 -0.0588  0.0034
  935MPD2    C413676   4.087   2.187   1.158  0.0566  0.5945  0.3233
  935MPD2    C513677   4.162   2.186   1.046 -0.4211  0.4923 -0.1766
  935MPD2     H13678   3.950   1.878   1.142  3.3081 -2.3178 -0.9196
  935MPD2    H113679   4.078   2.279   1.213 -2.7595  1.1949 -1.1690
  935MPD2    H213680   4.252   2.068   0.896  1.0114  1.2001  1.3911
  935MPD2    H313681   4.224   2.271   1.021  1.4523  0.0823  3.0176
  935MPD2     N13682   3.924   2.102   1.304 -0.0814  0.6870 -0.1110
  935MPD2    H513683   3.931   2.192   1.352 -0.6758  0.0544  1.1441
  935MPD2    N113684   4.112   1.839   0.936  0.2654 -0.4835  0.8299
  935MPD2    H713685   4.083   1.752   0.979 -0.6734 -1.9253 -2.7367
  936MPD2     C13686   2.545   4.119  13.408 -0.1498  0.5583 -0.2895
  936MPD2    C113687   2.619   4.020  13.343 -0.5032  0.1930  0.0012
  936MPD2    C213688   2.751   4.042  13.319 -0.3726  0.1588 -0.3933
  936MPD2    C313689   2.817   4.157  13.353 -0.4746  0.1863 -0.0500
  936MPD2    C413690   2.745   4.261  13.401  0.2624  0.5154  0.0956
  936MPD2    C513691   2.609   4.242  13.431 -0.0271 -0.5120 -1.0494
  936MPD2     H13692   2.802   3.957  13.274  1.8514  1.3186 -0.0510
  936MPD2    H113693   2.796   4.353  13.428  1.0042  0.5013 -1.2572
  936MPD2    H213694   2.445   4.108  13.448  0.6383 -2.3200  0.9053
  936MPD2    H313695   2.556   4.324  13.478 -0.4767 -2.3143  1.5919
  936MPD2     N13696   2.958   4.147  13.338  0.2479 -0.2354  0.5397
  936MPD2    H513697   2.998   4.059  13.310 -0.9454  0.0970 -2.1552
  936MPD2    N113698   2.571   3.887  13.316  0.4788 -0.7511  0.1195
  936MPD2    H713699   2.629   3.824  13.260  1.5059  0.3404 -0.0531
  937MPD2     C13700   0.448   0.285  11.593 -0.0521 -0.1669  0.1762
  937MPD2    C113701   0.495   0.415  11.572  0.4267  0.2554  0.5424
  937MPD2    C213702   0.545   0.444  11.448 -0.0081 -0.3607  0.5300
  937MPD2    C313703   0.565   0.355  11.345  0.5969 -0.2162  0.2902
  937MPD2    C413704   0.522   0.232  11.364 -0.1959 -0.7736 -0.6171
  937MPD2    C513705   0.473   0.199  11.489  0.1455  0.0981  0.0559
  937MPD2     H13706   0.588   0.541  11.423  0.5122 -0.2487  1.8542
  937MPD2    H113707   0.535   0.161  11.283 -0.9494 -0.7730 -0.7347
  937MPD2    H213708   0.405   0.248  11.686 -0.9880 -0.6399 -0.4559
  937MPD2    H313709   0.457   0.093  11.505 -0.3848 -0.0971 -1.7449
  937MPD2     N13710   0.621   0.408  11.224 -0.4261 -0.3997  0.5202
  937MPD2    H513711   0.638   0.508  11.217  1.5105 -0.7878 -0.2167
  937MPD2    N113712   0.470   0.524  11.664  0.7069  0.0662  0.0690
  937MPD2    H713713   0.507   0.616  11.645 -2.2311  1.1225 -0.5652
  938MPD2     C13714   2.909   1.771   1.171 -0.2927 -0.4981  1.1389
  938MPD2    C113715   2.960   1.720   1.051  0.1204 -0.1966  0.3559
  938MPD2    C213716   2.925   1.596   1.001  0.1455  0.1667  0.1632
  938MPD2    C313717   2.837   1.518   1.076 -0.7072 -0.6343 -0.4338
  938MPD2    C413718   2.803   1.560   1.202 -0.1526  0.3332  0.0384
  938MPD2    C513719   2.842   1.684   1.255  0.4362  0.1955 -0.1753
  938MPD2     H13720   2.940   1.585   0.894 -1.6536  1.7556 -0.2632
  938MPD2    H113721   2.721   1.506   1.248 -0.0250 -0.8229 -1.0579
  938MPD2    H213722   2.902   1.874   1.203 -1.2387 -0.3120  0.3332
  938MPD2    H313723   2.806   1.713   1.353  0.2692  0.2872 -0.2630
  938MPD2     N13724   2.765   1.405   1.031  0.5428  0.0694  0.2523
  938MPD2    H513725   2.678   1.376   1.072  0.8109 -2.3599 -0.9008
  938MPD2    N113726   3.031   1.808   0.962  0.2201  0.3591  0.3853
  938MPD2    H713727   3.069   1.773   0.874  0.3508  1.9443 -0.1807
  939MPD2     C13728   4.650   2.704   0.961  0.1880 -0.4249 -0.5649
  939MPD2    C113729   4.686   2.834   0.975  0.5059  0.6618 -0.3516
  939MPD2    C213730   0.083   2.873   0.906 -0.7073  0.6577 -0.0567
  939MPD2    C313731   0.139   2.784   0.819  0.5240 -0.9285  0.2355
  939MPD2    C413732   0.095   2.651   0.814  0.6379  0.0500 -0.1992
  939MPD2    C513733   4.714   2.605   0.893  0.5735  0.3973 -0.1605
  939MPD2     H13734   0.105   2.979   0.898 -0.8588  0.5868 -1.3558
  939MPD2    H113735   0.145   2.574   0.756  0.1347 -0.5987  0.2282
  939MPD2    H213736   4.559   2.679   1.015  1.0628 -1.1927  0.5600
  939MPD2    H313737   4.688   2.500   0.901 -0.3063  0.5759 -0.5879
  939MPD2     N13738   0.219   2.847   0.725  0.6698  0.1669  0.6639
  939MPD2    H513739   0.232   2.948   0.726 -0.7749  0.3600 -0.1820
  939MPD2    N113740   4.622   2.931   1.056 -0.7221  0.2695  0.6111
  939MPD2    H713741   4.652   3.027   1.068  2.0398 -0.8581  2.5959
  940MPD2     C13742   3.623   4.406  13.363  0.7684  0.3072  0.0636
  940MPD2    C113743   3.648   4.264  13.368  0.2931  0.1677  0.4525
  940MPD2    C213744   3.647   4.193  13.244 -0.7163 -0.4324  0.3498
  940MPD2    C313745   3.648   4.264  13.122 -0.3413  0.3981  0.0806
  940MPD2    C413746   3.622   4.402  13.129 -0.0782 -0.4891 -0.7319
  940MPD2    C513747   3.609   4.468  13.246  0.1309 -0.3044  0.5320
  940MPD2     H13748   3.675   4.089  13.243 -2.4810 -0.8981  0.7544
  940MPD2    H113749   3.620   4.465  13.042 -1.0563  2.2624  1.2933
  940MPD2    H213750   3.612   4.471  13.449 -1.5163 -0.2644  0.1967
  940MPD2    H313751   3.594   4.575  13.238  1.3308 -0.1354  0.5508
  940MPD2     N13752   3.677   4.202  12.995 -0.1503  0.8769  0.5452
  940MPD2    H513753   3.695   4.264  12.917 -0.5058  0.0091 -0.2273
  940MPD2    N113754   3.678   4.184  13.477 -0.5725 -0.4647  0.3761
  940MPD2    H713755   3.652   4.087  13.460 -2.1878  0.0227  0.1218
  941MPD2     C13756   2.522   2.727   9.006 -0.7214  0.3511  0.2952
  941MPD2    C113757   2.584   2.656   9.106  0.1254  0.0414 -0.1263
  941MPD2    C213758   2.535   2.530   9.127 -0.0538  0.1539 -0.1408
  941MPD2    C313759   2.422   2.478   9.060 -0.5189 -0.1324  0.0150
  941MPD2    C413760   2.357   2.557   8.971 -0.3531  0.1820 -0.0041
  941MPD2    C513761   2.406   2.682   8.941 -0.0570  0.7619  0.0038
  941MPD2     H13762   2.578   2.478   9.212  1.9222  0.8129 -0.7526
  941MPD2    H113763   2.266   2.521   8.922 -1.1423 -1.0528  2.3598
  941MPD2    H213764   2.560   2.826   8.981  3.3425 -1.0493  0.8180
  941MPD2    H313765   2.353   2.746   8.872  1.6447  0.5067 -1.5459
  941MPD2     N13766   2.374   2.342   9.064 -0.4599  0.2064  0.2778
  941MPD2    H513767   2.299   2.327   8.997 -0.7240  0.7726  0.4442
  941MPD2    N113768   2.695   2.704   9.177  0.4507  0.5509 -0.0161
  941MPD2    H713769   2.724   2.646   9.255  0.0454  3.6168  2.4036
  942MPD2     C13770   1.443   3.592   9.065  0.7594 -0.6754  0.8049
  942MPD2    C113771   1.462   3.460   9.108  0.1198  0.4955  0.2450
  942MPD2    C213772   1.587   3.399   9.117  0.0129 -0.2513  0.4750
  942MPD2    C313773   1.698   3.467   9.071 -0.0968 -0.5797 -0.9986
  942MPD2    C413774   1.679   3.600   9.023 -0.4601  0.0979  0.1616
  942MPD2    C513775   1.552   3.654   9.013  0.7079  0.0303 -0.2927
  942MPD2     H13776   1.593   3.299   9.160  0.1449 -0.2396  0.4825
  942MPD2    H113777   1.770   3.650   8.992 -0.3083  0.6320  1.4435
  942MPD2    H213778   1.353   3.652   9.054  1.4613  0.0065 -1.1791
  942MPD2    H313779   1.542   3.756   8.977 -4.6719 -0.7752 -1.0644
  942MPD2     N13780   1.829   3.413   9.087  0.3701  0.3687  0.3487
  942MPD2    H513781   1.910   3.471   9.067 -0.6228  1.2016 -1.2675
  942MPD2    N113782   1.358   3.395   9.182 -0.6856 -0.0585 -0.4050
  942MPD2    H713783   1.380   3.311   9.235  1.8913  0.2763 -0.9511
  943MPD2     C13784   1.223   2.152   9.610  0.3619  0.9075  1.0554
  943MPD2    C113785   1.268   2.260   9.683  0.3667  0.4335 -0.0254
  943MPD2    C213786   1.371   2.339   9.628 -0.0207 -0.6379  0.7107
  943MPD2    C313787   1.412   2.329   9.496 -0.4590 -0.0349  0.7883
  943MPD2    C413788   1.358   2.226   9.418  0.6267 -0.6178  0.2470
  943MPD2    C513789   1.270   2.139   9.479 -0.2181  0.6922  0.8204
  943MPD2     H13790   1.400   2.433   9.674 -1.2199  0.7860 -1.4505
  943MPD2    H113791   1.391   2.198   9.319 -1.6159  0.0557 -0.7034
  943MPD2    H213792   1.143   2.088   9.644 -0.7088  1.2554 -0.8465
  943MPD2    H313793   1.229   2.060   9.417 -2.8375  2.7680 -0.1096
  943MPD2     N13794   1.499   2.417   9.432  0.1837 -0.6511  0.1662
  943MPD2    H513795   1.505   2.423   9.331  0.5099  0.4125  0.2417
  943MPD2    N113796   1.226   2.272   9.817 -0.0591  0.0512 -0.2828
  943MPD2    H713797   1.156   2.205   9.848 -1.1056  1.2191 -0.1360
  944MPD2     C13798   0.941   1.246  11.091  0.0027  0.5178 -0.0853
  944MPD2    C113799   1.029   1.341  11.043  0.2729  0.7434  0.5929
  944MPD2    C213800   1.030   1.473  11.088 -0.0467 -0.1059 -0.3558
  944MPD2    C313801   0.945   1.504  11.187 -0.6896 -0.0599  0.1765
  944MPD2    C413802   0.860   1.410  11.240  0.0967  0.2829  0.5970
  944MPD2    C513803   0.851   1.288  11.187  0.5065  0.1830  0.2416
  944MPD2     H13804   1.090   1.547  11.038 -0.2647 -0.8319 -1.6766
  944MPD2    H113805   0.777   1.439  11.304  0.2397 -0.5604  1.1597
  944MPD2    H213806   0.932   1.150  11.042 -0.2463  1.3789 -1.7602
  944MPD2    H313807   0.767   1.223  11.206 -0.1440  1.2038  0.8191
  944MPD2     N13808   0.945   1.636  11.225 -0.5307  0.5178  0.1169
  944MPD2    H513809   1.012   1.694  11.176  0.2173  0.5651  1.1877
  944MPD2    N113810   1.114   1.292  10.942  0.0828 -0.4104 -0.1022
  944MPD2    H713811   1.103   1.205  10.891  1.2257 -1.6005  1.6446
    1TCq1    O113812   3.934   2.926  13.521  0.2638  0.1447  0.4802
    1TCq1    C113813   3.967   2.926  13.647  0.1722  0.6753  0.9976
    1TCq1    O213814   3.992   2.836  13.724 -0.1332  0.0300  0.6024
    1TCq1    C213815   3.981   3.064  13.690  0.2646 -0.1048  0.3516
    1TCq1    C313816   3.953   3.171  13.612  0.3745  0.2995  0.3429
    1TCq1    C413817   4.011   3.287  13.644  0.0295 -1.1231 -0.6153
    1TCq1    C513818   4.060   3.312  13.771 -0.2601 -0.1730  1.0272
    1TCq1    C613819   4.073   3.202  13.853  1.2041  0.5333 -0.1082
    1TCq1    C713820   4.042   3.076  13.810  0.2948 -0.5839 -0.1948
    1TCq1    C813821   4.112   3.222  13.993  0.1037 -0.0110  0.3541
    1TCq1    O413822   4.161   3.127  14.052 -0.7283 -0.2857 -0.3496
    1TCq1    C913823   4.007   3.401  13.556 -0.2713 -0.4955  0.1884
    1TCq1    O513824   3.940   3.391  13.449 -0.2827  0.0092 -0.1681
    1TCq1    O613825   4.059   3.509  13.602  0.2061  0.3457 -0.0670
    1TCq1    H113826   3.869   2.994  13.495 -0.2964 -0.1907  0.9915
    1TCq1    H213827   3.919   3.160  13.509 -1.2546 -0.0715  0.9377
    1TCq1    H313828   4.105   3.407  13.798  0.0063  0.3422 -1.2644
    1TCq1    H413829   4.068   2.993  13.875  0.6211  0.4975  1.0608
    2MPD2     C13830   4.050   3.432  14.453 -0.2821  0.2019 -0.1643
    2MPD2    C113831   3.986   3.511  14.355  0.2194  0.4930 -1.1450
    2MPD2    C213832   4.000   3.484  14.219  0.0002  0.9991 -0.2588
    2MPD2    C313833   4.076   3.376  14.184  0.0894 -0.2066 -0.1860
    2MPD2    C413834   4.150   3.302  14.274  0.7189 -0.4667 -0.2658
    2MPD2    C513835   4.137   3.333  14.409  0.1278 -0.7794  0.3198
    2MPD2     H13836   3.948   3.534  14.138  0.4609 -1.3899 -2.0245
    2MPD2    H113837   4.209   3.216  14.245  1.7778  1.2322 -3.0703
    2MPD2    H213838   4.032   3.461  14.555  1.8886  0.2061  0.2125
    2MPD2    H313839   4.195   3.270  14.476 -0.6361 -0.0289  1.6890
    2MPD2     N13840   4.064   3.340  14.045 -0.0253 -0.7005  0.0784
    2MPD2    H513841   4.000   3.390  13.985  0.0693 -0.6768 -0.0014
    2MPD2    N113842   3.891   3.612  14.397  0.5433  0.3590  0.0796
    2MPD2    H713843   3.864   3.610  14.495 -1.1829  0.7427 -0.4019
    3TMC2    C113844   3.735   3.792  14.392  0.6437 -0.4267 -0.6121
    3TMC2    C213845   3.634   3.711  14.443 -0.2456  0.6661 -0.5676
    3TMC2    C313846   3.520   3.775  14.471  0.4005  0.2389 -0.0976
    3TMC2    C413847   3.710   3.917  14.348  0.5340 -0.7740  0.0219
    3TMC2    C513848   3.585   3.970  14.366 -0.3239 -0.0818 -0.1782
    3TMC2    C613849   3.484   3.906  14.443 -0.7477  0.5857 -0.1682
    3TMC2     C13850   3.845   3.718  14.322 -0.6158 -0.3072  0.0560
    3TMC2     O13851   3.909   3.779  14.236 -0.6869 -0.3513  0.1007
    3TMC2     H13852   3.647   3.603  14.447 -0.0238  0.7160  0.0334
    3TMC2    H113853   3.795   3.966  14.302 -0.4151  2.1061  1.3543
    3TMC2    H213854   3.385   3.939  14.469 -0.5777  1.1438 -0.2436
    3TMC2    C713855   3.534   4.080  14.289  0.2820 -0.5911 -0.3948
    3TMC2    C813856   3.419   3.705  14.549  0.4752  0.0751 -0.6647
    3TMC2    O113857   3.416   4.108  14.294 -0.2434 -0.1018  0.2038
    3TMC2    O213858   3.303   3.730  14.561 -0.0639 -0.1513  0.4196
    3TMC2    O513859   3.486   3.626  14.633 -0.0183  0.4923  0.2148
    3TMC2    H513860   3.583   3.620  14.622 -0.1914 -0.0058 -0.9904
    4MPD2     C13861   3.473   0.417  13.566 -0.1786  0.3252 -0.5626
    4MPD2    C113862   3.509   0.313  13.479 -0.1291  0.3145  0.1798
    4MPD2    C213863   3.631   0.250  13.492 -0.1706 -0.6731 -0.4626
    4MPD2    C313864   3.713   0.283  13.599  0.3109  0.5174  0.5281
    4MPD2    C413865   3.677   0.395  13.674 -0.0582 -0.7973 -0.7355
    4MPD2    C513866   3.565   0.471  13.651 -0.3045  0.4540  0.0760
    4MPD2     H13867   3.652   0.162  13.432  0.6759 -0.3344 -0.6505
    4MPD2    H113868   3.751   0.433  13.743 -0.3371 -0.9084 -0.3810
    4MPD2    H213869   3.374   0.459  13.556 -0.8678 -0.3030  3.8905
    4MPD2    H313870   3.541   0.563  13.703  2.6554  2.5005 -2.1438
    4MPD2     N13871   3.815   0.193  13.641 -0.8205 -0.8313  1.0200
    4MPD2    H513872   3.842   0.119  13.578 -1.9798  0.0568 -0.5134
    4MPD2    N113873   3.407   0.277  13.383  0.1296  0.5131 -0.5558
    4MPD2    H713874   3.323   0.333  13.388 -0.8856 -1.1514  0.7720
    5TCq2    C113875   3.867   0.193  13.764  0.5067 -0.5068 -0.2352
    5TCq2    O213876   3.831   0.256  13.864  0.6003 -0.3632 -0.1588
    5TCq2    C213877   3.958   0.080  13.785 -0.3617 -0.1354 -0.0868
    5TCq2    C313878   4.050   0.048  13.688  0.3113 -0.5755  0.1179
    5TCq2    C413879   4.123   4.657  13.723 -0.4311  0.2840 -0.6625
    5TCq2    C513880   4.107   4.591  13.839 -0.1638 -0.0547  0.2526
    5TCq2    C613881   4.017   4.634  13.932  0.1531  0.3325  0.2506
    5TCq2    C713882   3.938   0.015  13.908  0.2421 -0.8832 -0.4145
    5TCq2    C813883   3.953   4.518  13.990  0.8387  0.8446  0.0625
    5TCq2    O413884   4.011   4.439  14.066  0.1831 -0.5369 -0.6814
    5TCq2    C913885   4.218   4.607  13.623  0.5012  0.4264 -0.2169
    5TCq2    O513886   4.276   4.497  13.644  0.5624  0.1238  0.4228
    5TCq2    O613887   4.241   4.682  13.524  0.6763 -0.0062  0.3935
    5TCq2    H213888   4.064   0.096  13.591  0.0404 -0.6344  0.0492
    5TCq2    H313889   4.161   4.497  13.844 -1.3492 -0.7950 -0.8566
    5TCq2    H413890   3.868   0.044  13.986  0.0746 -1.0127 -0.5181
    6MPD1     C13891   2.559   1.132  11.983 -0.3688  1.2085 -0.1025
    6MPD1    C113892   2.589   1.199  12.097  0.4684  0.2244 -0.1574
    6MPD1    C213893   2.637   1.138  12.210  0.0749 -0.9767  0.1316
    6MPD1    C313894   2.661   1.003  12.208 -0.5679 -0.6285  1.1325
    6MPD1    C413895   2.631   0.941  12.091  0.5049 -0.2385 -0.2301
    6MPD1    C513896   2.592   0.997  11.979  0.3323  0.0570 -0.1216
    6MPD1     H13897   2.673   1.195  12.296  1.9889  0.5834 -1.7174
    6MPD1    H113898   2.645   0.833  12.086 -1.3762 -0.4412 -1.1073
    6MPD1    H213899   2.522   1.185  11.897 -2.4659  1.1772  0.7650
    6MPD1    H313900   2.568   0.951  11.884  2.0671  1.4442 -1.2329
    6MPD1     N13901   2.721   0.932  12.311  0.0977  0.5070 -0.1635
    6MPD1    H513902   2.754   0.839  12.285 -0.2221  0.9644 -2.2255
    6MPD1    N113903   2.556   1.338  12.103  0.3316 -0.2729  0.4497
    6MPD1    H613904   2.530   1.386  12.018 -0.1941 -2.4821 -0.6310
    6MPD1    H713905   2.635   1.381  12.152 -1.5249  2.4878  1.0351
    7MPD2     C13906   2.885   0.795  13.185  0.4037 -0.0496 -0.1728
    7MPD2    C113907   2.923   0.716  13.078 -0.1463 -0.1088  0.3583
    7MPD2    C213908   2.952   0.585  13.106  0.1084 -0.2936  0.2866
    7MPD2    C313909   2.937   0.526  13.227  0.1826 -0.1012 -0.1486
    7MPD2    C413910   2.907   0.606  13.338 -0.3014  0.0769 -0.5778
    7MPD2    C513911   2.879   0.740  13.312 -0.4441  0.2344  0.3192
    7MPD2     H13912   2.984   0.532  13.018  0.0320  2.1245 -1.2006
    7MPD2    H113913   2.909   0.568  13.439 -0.7801  0.5511 -0.3849
    7MPD2    H213914   2.865   0.902  13.182  1.7620  0.2078  0.0722
    7MPD2    H313915   2.877   0.793  13.406  1.4961  1.6658 -0.4352
    7MPD2     N13916   2.981   0.391  13.241 -0.5606  0.5148 -0.2500
    7MPD2    H513917   2.988   0.358  13.337 -4.4188  0.6191  0.0410
    7MPD2    N113918   2.928   0.760  12.943  0.3648  0.2311 -0.2281
    7MPD2    H713919   2.955   0.692  12.873  1.3185 -0.5892  0.9330
    8TMC3    C113920   3.081   0.183  13.171 -0.2550  0.4448  0.6940
    8TMC3    C213921   3.186   0.212  13.253 -0.4168 -0.1451  0.2089
    8TMC3    C313922   3.297   0.142  13.228 -0.2268  0.0450 -1.0304
    8TMC3    C413923   3.099   0.093  13.070 -0.5188 -0.2521  0.8917
    8TMC3    C513924   3.217   0.035  13.039 -0.4158  0.4524 -0.2481
    8TMC3    C613925   3.321   0.053  13.121  0.5543  0.8181 -1.0849
    8TMC3     C13926   2.996   0.301  13.138 -0.0988  1.2002  0.3665
    8TMC3     O13927   2.982   0.308  13.018 -0.5483  0.2949 -0.3100
    8TMC3     H13928   3.159   0.279  13.335  0.8726  0.8355 -0.1693
    8TMC3    H113929   3.014   0.086  13.003  1.2078  0.3304 -1.3547
    8TMC3    H213930   3.413   0.012  13.081  1.0694  1.2159 -0.3140
    8TMC3    C713931   3.256   0.059  12.901  0.1776 -0.5159 -0.8969
    8TMC3    C813932   3.420   0.164  13.308 -0.6806 -0.2580  0.4384
    8TMC3    O113933   3.361   0.012  12.860  0.0830  0.0026 -0.7284
    8TMC3    O213934   3.513   0.087  13.286  0.6202 -0.5325 -0.6920
    9TMC3    C113935   2.836   0.911  12.517 -1.0578 -0.8904  0.5769
    9TMC3    C213936   2.921   0.815  12.470 -0.0583  0.6300  1.1962
    9TMC3    C313937   2.998   0.745  12.556 -0.1182 -0.0041 -0.4814
    9TMC3    C413938   2.823   0.932  12.657  0.5432 -1.0122  0.2432
    9TMC3    C513939   2.909   0.870  12.737 -0.4067 -0.0735  1.0110
    9TMC3    C613940   2.991   0.772  12.690  0.2250 -0.5941 -0.2535
    9TMC3     C13941   2.745   0.991  12.439  0.2278  0.1541 -0.3812
    9TMC3     O13942   2.685   1.078  12.498  0.1594 -0.6918  0.1480
    9TMC3     H13943   2.919   0.803  12.362 -0.1988 -0.1163  1.2884
    9TMC3    H113944   2.752   1.000  12.701 -0.3828 -1.6083 -0.3256
    9TMC3    H213945   3.079   0.739  12.742  0.9571  3.7707  1.3293
    9TMC3    C713946   2.884   0.880  12.884  0.1762  0.1589 -0.6783
    9TMC3    C813947   3.072   0.631  12.506 -0.1924  0.4838 -0.1186
    9TMC3    O113948   2.826   0.976  12.932  0.1330 -0.4439 -0.7395
    9TMC3    O213949   3.079   0.615  12.386 -0.3524 -0.3621  0.0038
   10MPD2     C13950   3.237   0.153  12.623 -0.2090  0.2614 -0.2748
   10MPD2    C113951   3.200   0.222  12.733  0.3991  0.1523  0.7859
   10MPD2    C213952   3.146   0.350  12.729  0.0573  0.0493 -0.1297
   10MPD2    C313953   3.137   0.416  12.607 -0.2012  0.1605 -0.1731
   10MPD2    C413954   3.175   0.344  12.488  0.1896  0.2355 -0.0864
   10MPD2    C513955   3.226   0.214  12.499 -0.8307 -0.1850  0.3250
   10MPD2     H13956   3.101   0.395  12.816 -2.4568  1.1492 -1.9898
   10MPD2    H113957   3.156   0.385  12.390  0.3124 -0.2445 -0.3110
   10MPD2    H213958   3.263   0.048  12.631 -2.0186 -0.1942 -0.5693
   10MPD2    H313959   3.251   0.158  12.410  0.4018  0.9872 -0.0654
   10MPD2     N13960   3.091   0.546  12.611  0.3676  0.1852 -0.6932
   10MPD2    H513961   3.051   0.556  12.704  1.7360  0.8234 -0.1702
   10MPD2    N113962   3.184   0.166  12.856 -0.3029 -0.5638 -0.5188
   10MPD2    H713963   3.146   0.230  12.924  0.0361  0.7706 -1.5653
   11MPD2     C13964   3.507   4.261  14.055  0.5460 -0.0553  0.2036
   11MPD2    C113965   3.621   4.256  14.132 -0.6003 -0.6185  0.0891
   11MPD2    C213966   3.735   4.332  14.093 -0.2075  0.7332  0.8063
   11MPD2    C313967   3.725   4.417  13.988 -0.1007 -0.1015 -0.0248
   11MPD2    C413968   3.611   4.419  13.913  0.8470 -0.8384  0.2514
   11MPD2    C513969   3.508   4.335  13.942 -0.7660  0.9571  0.3128
   11MPD2     H13970   3.829   4.318  14.143  0.9296 -1.2798 -1.9151
   11MPD2    H113971   3.601   4.482  13.825 -0.5487 -0.8351  0.4152
   11MPD2    H213972   3.420   4.199  14.070 -0.0921  0.4868 -1.2377
   11MPD2    H313973   3.417   4.322  13.885 -0.3854 -2.0733  0.4111
   11MPD2     N13974   3.828   4.509  13.948  0.2989  0.2229  0.3183
   11MPD2    H513975   3.801   4.582  13.884  1.7564  1.9136  1.6323
   11MPD2    N113976   3.637   4.160  14.236 -0.6046 -0.2164 -0.2915
   11MPD2    H713977   3.729   4.136  14.271 -0.1952 -0.4378 -1.5501
    1MPD1     C13978   0.923   0.945  17.304 -1.4381 -0.6073 -0.2375
    1MPD1    C113979   0.993   0.847  17.362 -0.0854 -0.3916  0.1364
    1MPD1    C213980   1.114   0.805  17.311 -0.5140  0.1403 -0.1734
    1MPD1    C313981   1.163   0.865  17.193  0.0558  1.1049 -0.2929
    1MPD1    C413982   1.091   0.964  17.137 -0.0341 -0.4000  1.0099
    1MPD1    C513983   0.978   1.009  17.196  0.5632 -0.1729  0.4525
    1MPD1     H13984   1.163   0.721  17.358 -0.8160 -0.0791 -0.2514
    1MPD1    H113985   1.131   1.030  17.061 -1.7581 -0.3812  0.1246
    1MPD1    H213986   0.830   0.986  17.342  0.3862  1.5967  1.8101
    1MPD1    H313987   0.937   1.103  17.162 -0.0630  0.4888  3.0136
    1MPD1     N13988   1.286   0.840  17.134 -0.2148 -0.0605 -0.2585
    1MPD1    H513989   1.307   0.901  17.056 -1.0540  1.1577  0.4555
    1MPD1    N113990   0.923   0.772  17.455  0.1956  0.0269 -0.4192
    1MPD1    H613991   0.871   0.831  17.521 -1.2329  0.6348 -2.0932
    1MPD1    H713992   0.981   0.706  17.506  2.7619  3.4327  1.0277
    2MPD1     C13993   1.966   1.334  16.653 -0.0471 -0.7563  0.0107
    2MPD1    C113994   2.049   1.226  16.672 -0.1179 -0.3673 -0.4873
    2MPD1    C213995   1.999   1.121  16.751 -0.2273  0.0551 -0.0967
    2MPD1    C313996   1.861   1.106  16.764 -0.0731 -0.5691  0.1786
    2MPD1    C413997   1.776   1.213  16.724  0.7687 -0.3839  0.2249
    2MPD1    C513998   1.831   1.324  16.668  0.4156  1.2157 -0.4088
    2MPD1     H13999   2.063   1.040  16.784  1.4331  0.6797 -1.8015
    2MPD1    H114000   1.668   1.209  16.728  0.7097  1.7912  0.8848
    2MPD1    H214001   2.008   1.422  16.606 -0.3039 -0.7086 -0.1331
    2MPD1    H314002   1.771   1.406  16.629 -0.5708  2.0426  2.8298
    2MPD1     N14003   1.808   0.987  16.823  0.5646 -0.3584 -0.2510
    2MPD1    H514004   1.877   0.923  16.861  0.0967 -0.3088  0.6843
    2MPD1    N114005   2.186   1.241  16.652 -0.3179  0.4073 -0.7310
    2MPD1    H614006   2.228   1.149  16.638  0.6458  0.9252 -1.3016
    2MPD1    H714007   2.184   1.298  16.568 -1.5155  1.9861  0.3856
    3TMC3    C114008   1.652   0.869  16.951 -0.4141 -0.5655 -0.9582
    3TMC3    C214009   1.749   0.771  16.980  0.6816 -0.5562  0.1300
    3TMC3    C314010   1.709   0.662  17.047  0.2417  0.4965 -0.1366
    3TMC3    C414011   1.532   0.859  17.002  0.5784 -0.2590  0.1248
    3TMC3    C514012   1.498   0.754  17.090  0.6326 -0.1710  0.3176
    3TMC3    C614013   1.588   0.652  17.106  0.3569 -0.2837 -0.1768
    3TMC3     C14014   1.676   0.979  16.864  0.0938  0.0630 -0.1448
    3TMC3     O14015   1.575   1.042  16.837  0.0457 -0.1176 -0.4261
    3TMC3     H14016   1.849   0.783  16.942  0.5938 -2.6067 -0.7379
    3TMC3    H114017   1.463   0.943  16.995  1.4675  0.3318 -1.3400
    3TMC3    H214018   1.568   0.557  17.156  0.1281 -0.3499 -0.3975
    3TMC3    C714019   1.381   0.750  17.175 -0.5078 -0.1062  0.2923
    3TMC3    C814020   1.800   0.561  17.086 -0.1438  0.0926  0.6073
    3TMC3    O114021   1.390   0.696  17.284  0.0023  1.0115 -0.4610
    3TMC3    O214022   1.774   0.486  17.179 -0.3576 -0.3491 -0.0800
    4MPD1     C14023   2.212   0.271  17.031 -0.8516 -1.2190 -0.9524
    4MPD1    C114024   2.190   0.334  16.911 -0.2685  0.6422 -0.8195
    4MPD1    C214025   2.096   0.427  16.902  0.1959 -0.6387 -0.1027
    4MPD1    C314026   2.008   0.447  17.008 -0.3670  0.1722 -0.3290
    4MPD1    C414027   2.034   0.385  17.130  1.1247 -0.1156 -0.2206
    4MPD1    C514028   2.132   0.301  17.141 -0.2578 -0.4169 -0.1647
    4MPD1     H14029   2.076   0.486  16.813  1.8458 -0.3872 -0.3086
    4MPD1    H114030   1.977   0.398  17.221  0.9821  1.2617 -0.5060
    4MPD1    H214031   2.289   0.195  17.034 -0.0778 -0.4856 -2.1187
    4MPD1    H314032   2.151   0.253  17.236  0.0286  2.1717  1.0697
    4MPD1     N14033   1.896   0.540  16.989  0.4151 -0.8916  0.2462
    4MPD1    H514034   1.877   0.587  16.900 -0.2678  0.8812  1.3309
    4MPD1    N114035   2.286   0.318  16.804 -0.0477 -0.2850 -0.4048
    4MPD1    H614036   2.265   0.226  16.765  0.7074 -1.6690  2.4356
    4MPD1    H714037   2.273   0.394  16.738  1.3096  0.8238  0.6121
    1TCq1    O114038   2.666   0.200  12.495 -0.0997  0.0168 -0.7267
    1TCq1    C114039   2.759   0.298  12.495 -0.2895 -0.3420 -0.5462
    1TCq1    O214040   2.779   0.383  12.581 -0.3390 -0.1492 -0.3364
    1TCq1    C214041   2.820   0.307  12.359 -0.1242  0.2550 -0.4666
    1TCq1    C314042   2.854   0.195  12.290  0.1435 -0.6362  0.0469
    1TCq1    C414043   2.929   0.201  12.178 -0.4004 -1.0621 -0.0749
    1TCq1    C514044   2.945   0.321  12.117 -0.0303  0.1335  0.3028
    1TCq1    C614045   2.902   0.439  12.177 -0.2559 -0.2056 -0.2318
    1TCq1    C714046   2.856   0.430  12.312  0.0415  0.2404 -0.1193
    1TCq1    C814047   2.855   0.551  12.102  0.6720  0.9077 -0.0977
    1TCq1    O414048   2.819   0.654  12.160  0.0880 -0.6258 -0.2285
    1TCq1    C914049   2.941   0.078  12.102  0.4788 -0.7130  0.4616
    1TCq1    O514050   2.915   4.698  12.166 -0.5738  0.6618 -0.1961
    1TCq1    O614051   2.940   0.077  11.976 -0.3567 -0.4561  0.6223
    1TCq1    H114052   2.651   0.156  12.408 -2.0920 -1.6789  0.4776
    1TCq1    H214053   2.837   0.097  12.333  1.1682 -0.0118  1.8935
    1TCq1    H314054   2.990   0.325  12.018 -2.1178 -3.2478 -0.7793
    1TCq1    H414055   2.833   0.521  12.365  0.1160  0.5294 -0.5776
    2MPD1     C14056   2.821   0.815  11.677  0.0865 -0.7296 -0.0110
    2MPD1    C114057   2.814   0.686  11.634 -0.1496  0.0846 -0.7561
    2MPD1    C214058   2.832   0.590  11.734  0.2834  0.9930 -0.4202
    2MPD1    C314059   2.849   0.623  11.869  0.2089  0.2989 -0.7549
    2MPD1    C414060   2.865   0.761  11.900 -0.6238 -0.2302  0.0940
    2MPD1    C514061   2.853   0.858  11.800  0.0300  0.6230 -0.4038
    2MPD1     H14062   2.840   0.487  11.701 -1.7933  1.1285 -1.3397
    2MPD1    H114063   2.900   0.793  11.998  0.8455  0.0202 -0.5093
    2MPD1    H214064   2.801   0.894  11.605  2.4088 -0.4167 -0.2927
    2MPD1    H314065   2.853   0.964  11.819 -0.5983  0.2194  1.8835
    2MPD1     N14066   2.848   0.524  11.969 -0.0596  0.4767 -0.0801
    2MPD1    H514067   2.854   0.428  11.936  2.3293  0.9529 -1.0698
    2MPD1    N114068   2.834   0.652  11.500  0.4257 -0.3369 -0.1566
    2MPD1    H614069   2.782   0.566  11.481  0.0939 -0.1691 -0.0203
    2MPD1    H714070   2.780   0.726  11.455 -1.7718 -0.8637  1.6105
    1TCq1    O114071   0.972   3.440  10.158 -0.5895 -0.2367  0.5189
    1TCq1    C114072   1.054   3.382  10.072 -0.1143 -0.7792  0.7164
    1TCq1    O214073   1.110   3.275  10.086 -0.4883 -0.2684 -0.1988
    1TCq1    C214074   1.114   3.497  10.015 -0.0637  0.1749  0.0817
    1TCq1    C314075   1.247   3.493   9.987 -0.2951  0.3344  0.0991
    1TCq1    C414076   1.300   3.600   9.922 -0.3517  0.2528 -0.2929
    1TCq1    C514077   1.223   3.687   9.849  0.2351 -0.2822  0.5907
    1TCq1    C614078   1.085   3.681   9.871 -0.5569  0.1197  0.2518
    1TCq1    C714079   1.035   3.600   9.970 -0.1916  0.1958  0.5365
    1TCq1    C814080   0.997   3.761   9.791  0.3072 -0.7838  0.0620
    1TCq1    O414081   0.885   3.778   9.828  0.4470 -0.3726 -0.0852
    1TCq1    C914082   1.442   3.607   9.904 -0.2422 -0.5830 -0.0534
    1TCq1    O514083   1.510   3.508   9.924 -0.0375  0.1323  0.2027
    1TCq1    O614084   1.484   3.715   9.851 -0.5561 -0.1774  0.8023
    1TCq1    H114085   0.960   3.537  10.151  0.5929 -0.0498  1.0655
    1TCq1    H214086   1.317   3.431  10.041 -1.4582 -1.0872 -0.0337
    1TCq1    H314087   1.266   3.767   9.790  0.3766 -0.3877  0.5535
    1TCq1    H414088   0.928   3.586   9.978 -0.0289 -1.6560 -0.6147
    2MPD1     C14089   0.940   4.090   9.406  0.6589 -0.0106 -0.0476
    2MPD1    C114090   1.034   4.003   9.360 -0.1225 -0.0470  0.3097
    2MPD1    C214091   1.072   3.907   9.456 -0.8774 -0.9035 -0.0604
    2MPD1    C314092   1.004   3.883   9.578 -0.4035 -0.3392 -0.3835
    2MPD1    C414093   0.906   3.971   9.604 -0.0055  0.1595 -0.5761
    2MPD1    C514094   0.875   4.075   9.522  0.8184  0.7739  0.4298
    2MPD1     H14095   1.157   3.844   9.432  1.3593  1.8236  0.6813
    2MPD1    H114096   0.852   3.968   9.698 -1.0897 -4.0887 -1.3367
    2MPD1    H214097   0.914   4.184   9.357  2.3130 -0.3799 -1.6563
    2MPD1    H314098   0.789   4.140   9.537 -0.9158 -0.9790 -1.8079
    2MPD1     N14099   1.050   3.786   9.667  0.0792 -0.0472  0.6970
    2MPD1    H514100   1.125   3.723   9.640 -2.0659 -2.2361 -0.1069
    2MPD1    N114101   1.073   3.991   9.229 -1.0032 -0.6892 -0.3560
    2MPD1    H614102   1.072   4.082   9.185  2.0781 -0.0203  0.9169
    2MPD1    H714103   1.172   3.965   9.224 -0.4105  1.8165 -1.2823
    1MPD1     C14104   3.841   0.917  11.777 -0.0171  0.0365 -0.4476
    1MPD1    C114105   3.925   0.817  11.832  0.9577 -0.3640  0.0541
    1MPD1    C214106   4.053   0.844  11.860 -0.4917 -0.1637  0.5672
    1MPD1    C314107   4.102   0.975  11.843  0.7131  0.4922 -0.1129
    1MPD1    C414108   4.016   1.078  11.807  0.1009  0.0100  0.0415
    1MPD1    C514109   3.881   1.041  11.774  0.4476  0.3749 -0.4844
    1MPD1     H14110   4.127   0.768  11.884 -2.7787 -2.0542  1.5627
    1MPD1    H114111   4.039   1.182  11.789  0.8826 -0.1596  0.0565
    1MPD1    H214112   3.738   0.895  11.750  0.1246 -2.6684  1.2113
    1MPD1    H314113   3.797   1.103  11.747  0.6589  1.1138  0.5552
    1MPD1     N14114   4.239   1.000  11.867  0.1099 -0.2437 -0.3197
    1MPD1    H514115   4.289   0.915  11.895  0.1466  0.7073  2.5127
    1MPD1    N114116   3.888   0.679  11.842 -0.7628  0.1202  0.4162
    1MPD1    H614117   3.788   0.668  11.857 -0.4726 -2.7889  0.1702
    1MPD1    H714118   3.926   0.658  11.934  0.4007 -0.5098 -0.2097
    2MPD1     C14119   3.592   0.810  11.504 -0.5128 -0.4525  0.8615
    2MPD1    C114120   3.491   0.712  11.481 -0.5277 -0.5848 -0.3045
    2MPD1    C214121   3.529   0.586  11.435  0.3854  0.7655  0.1469
    2MPD1    C314122   3.663   0.557  11.412  0.1949 -0.7105 -0.2463
    2MPD1    C414123   3.757   0.659  11.422  0.9560  0.3377  0.0822
    2MPD1    C514124   3.720   0.783  11.473  0.3140  0.2939  0.3660
    2MPD1     H14125   3.452   0.515  11.406  0.4029 -0.1289  2.2945
    2MPD1    H114126   3.860   0.633  11.403  0.8488 -0.0238 -0.0074
    2MPD1    H214127   3.561   0.910  11.530 -1.7119 -0.4494 -0.5560
    2MPD1    H314128   3.804   0.849  11.491  0.0869  0.6300  0.1945
    2MPD1     N14129   3.706   0.422  11.379 -0.6023 -0.0167 -0.4929
    2MPD1    H514130   3.804   0.407  11.359 -0.4630 -0.9245  0.8421
    2MPD1    N114131   3.361   0.747  11.475 -0.9540 -0.1905  0.7921
    2MPD1    H614132   3.291   0.683  11.512 -0.5802 -1.1253 -0.1113
    2MPD1    H714133   3.343   0.842  11.508 -1.0446 -0.5684  1.8176
    3MPD1     C14134   3.341   4.334  10.889  0.3072  0.2199  0.3355
    3MPD1    C114135   3.272   4.416  10.974  0.5793 -0.2465  0.2939
    3MPD1    C214136   3.339   4.500  11.053  0.3630  0.3086 -0.6026
    3MPD1    C314137   3.480   4.504  11.046 -0.2761 -0.4315  0.2134
    3MPD1    C414138   3.546   4.415  10.965  0.4599 -0.0510  0.3692
    3MPD1    C514139   3.479   4.331  10.888  0.0355  0.5616  0.3483
    3MPD1     H14140   3.288   4.572  11.115 -1.0695 -0.0721 -1.3481
    3MPD1    H114141   3.652   4.418  10.944  0.0201  4.4768 -1.1539
    3MPD1    H214142   3.293   4.266  10.819 -2.0607  0.3835  1.8212
    3MPD1    H314143   3.530   4.269  10.814  1.8246  0.9167  1.2838
    3MPD1     N14144   3.555   4.600  11.124 -0.4153 -0.0794  0.1520
    3MPD1    H514145   3.498   4.657  11.184 -2.4508 -2.3233  0.3598
    3MPD1    N114146   3.135   4.425  10.964  0.0716 -0.6619  0.5880
    3MPD1    H614147   3.100   4.444  11.058 -0.2425 -0.5413  0.4455
    3MPD1    H714148   3.091   4.341  10.925 -1.5553  1.4126 -2.0624
    4MPD2     C14149   0.125   0.783  11.521  0.1396  1.0228  0.4264
    4MPD2    C114150   0.097   0.775  11.655  0.0387  0.2232  0.5898
    4MPD2    C214151   0.093   0.651  11.713 -0.2149  0.0565  0.1271
    4MPD2    C314152   0.117   0.533  11.640 -0.8013  0.7815 -0.4441
    4MPD2    C414153   0.149   0.543  11.510 -0.4184 -0.5582  0.1516
    4MPD2    C514154   0.156   0.668  11.455 -0.6159  0.6984 -0.1417
    4MPD2     H14155   0.073   0.641  11.820 -1.5219  1.0767 -0.0181
    4MPD2    H114156   0.191   0.463  11.449  2.3993  1.2319 -0.2886
    4MPD2    H214157   0.125   0.877  11.468 -0.5020  1.1955  0.7241
    4MPD2    H314158   0.188   0.673  11.351 -2.3795 -0.8019 -0.7600
    4MPD2     N14159   0.102   0.409  11.704  0.1353 -0.5460 -0.4917
    4MPD2    H514160   0.076   0.417  11.802 -0.6071  0.3014 -0.7562
    4MPD2    N114161   0.064   0.887  11.744 -0.7098 -0.8980  0.1109
    4MPD2    H714162   0.042   0.868  11.841  1.5391  0.2364  0.8382
    5TMC3    C114163   4.683   1.081  11.808  0.9979 -0.1321  0.6942
    5TMC3    C214164   4.552   1.109  11.780 -0.0051 -0.7458 -0.3065
    5TMC3    C314165   4.452   1.090  11.869 -0.0313  0.9033  0.5884
    5TMC3    C414166   4.712   1.030  11.934 -0.0087 -0.1054 -0.3739
    5TMC3    C514167   4.605   1.004  12.024  0.1693 -0.7151 -0.3044
    5TMC3    C614168   4.477   1.029  11.993 -0.7070 -0.5984 -0.1893
    5TMC3     C14169   0.041   1.016  11.707 -0.4139  0.0657 -0.5103
    5TMC3     O14170   0.025   1.060  11.594 -0.1630 -0.2277  0.6601
    5TMC3     H14171   4.531   1.147  11.681  2.0036 -0.0783 -0.4842
    5TMC3    H114172   0.093   1.011  11.965  0.5401 -1.3744 -2.9306
    5TMC3    H214173   4.391   0.998  12.052 -3.5312  1.4500 -3.2845
    5TMC3    C714174   4.616   0.862  12.059  0.3922  1.2263 -0.3484
    5TMC3    C814175   4.313   1.105  11.819 -0.0524 -0.8910 -0.8046
    5TMC3    O114176   4.690   0.792  11.991  0.2945  0.6116  0.2984
    5TMC3    O214177   4.279   1.193  11.741  0.0486  0.0592 -0.4681
    6TMC3    C114178   3.700   0.187  11.352 -0.9957 -0.5087  0.3338
    6TMC3    C214179   3.642   0.103  11.259 -0.5232  0.2195  0.3303
    6TMC3    C314180   3.727   4.720  11.223  0.5874  1.0393 -0.1290
    6TMC3    C414181   3.822   0.175  11.417 -0.2236 -0.9152 -0.1427
    6TMC3    C514182   3.897   0.062  11.388  0.4678 -0.9018  0.4511
    6TMC3    C614183   3.850   4.702  11.285  0.3692 -0.5168  0.5844
    6TMC3     C14184   3.623   0.311  11.365 -0.2530  0.1688  0.4820
    6TMC3     O14185   3.503   0.309  11.341 -0.1431  0.4709 -0.2850
    6TMC3     H14186   3.544   0.114  11.215 -0.6569 -0.7251  0.3945
    6TMC3    H114187   3.854   0.248  11.490  0.9655  0.2279 -1.8154
    6TMC3    H214188   3.912   4.619  11.253  0.0493 -0.6816  0.3866
    6TMC3    C714189   4.021   0.038  11.465  0.5061 -0.2474  0.1386
    6TMC3    C814190   3.690   4.617  11.129  0.4418 -0.7905 -0.4736
    6TMC3    O114191   4.051   0.113  11.559  0.0340 -0.1585 -0.5495
    6TMC3    O214192   3.777   4.560  11.070 -0.7626  0.1216 -0.0808
    7MPD2     C14193   4.467   0.446  12.319 -0.2995  0.4587  1.4556
    7MPD2    C114194   4.542   0.456  12.205 -0.6594  0.0106  0.3580
    7MPD2    C214195   4.568   0.586  12.165  0.3009  0.0766 -0.2193
    7MPD2    C314196   4.531   0.703  12.225 -0.8939 -0.3926 -0.4920
    7MPD2    C414197   4.460   0.683  12.340  0.3054  0.4284  0.3487
    7MPD2    C514198   4.422   0.560  12.387  0.7361  0.7568  0.9174
    7MPD2     H14199   4.631   0.589  12.076  0.6438  1.2724  0.0561
    7MPD2    H114200   4.414   0.768  12.390 -0.6672 -1.6959  3.0416
    7MPD2    H214201   4.437   0.353  12.367  0.2616 -1.3150 -1.6494
    7MPD2    H314202   4.375   0.550  12.484 -0.1742 -0.0883  0.3778
    7MPD2     N14203   4.542   0.837  12.175  0.3187  0.3395  0.3569
    7MPD2    H514204   4.512   0.916  12.231 -1.6938 -0.9924  1.1623
    7MPD2    N114205   4.587   0.342  12.137 -0.0101 -0.7644 -0.1254
    7MPD2    H714206   4.548   0.251  12.160 -0.9414  0.0921  1.7712
    8TMC3    C114207   4.712   0.218  11.977 -0.0948  0.7934  0.4062
    8TMC3    C214208   4.605   0.140  11.951 -0.0630  0.1473  0.0708
    8TMC3    C314209   4.594   0.095  11.816 -0.1369 -0.7164  0.0433
    8TMC3    C414210   0.090   0.231  11.887 -0.2509 -0.2219  0.1368
    8TMC3    C514211   0.072   0.184  11.761 -0.1033 -0.3066 -0.4939
    8TMC3    C614212   4.683   0.114  11.717  0.9440 -0.4153  0.0997
    8TMC3     C14213   4.683   0.341  12.040 -0.6818 -0.2680  1.2134
    8TMC3     O14214   0.027   0.435  11.998  0.3591  0.3006  0.1055
    8TMC3     H14215   4.518   0.143  12.016 -0.5504  1.4411 -0.6334
    8TMC3    H114216   0.183   0.285  11.903  0.1740 -1.0975  0.6377
    8TMC3    H214217   4.664   0.099  11.612  1.6475  2.4593 -0.4397
    8TMC3    C714218   0.116   0.278  11.661 -0.0164  0.1998 -0.1768
    8TMC3    C814219   4.468   0.034  11.773  1.0512 -0.7132  0.0115
    8TMC3    O114220   0.114   0.238  11.548  0.5906 -0.1277 -0.4183
    8TMC3    O214221   4.366   0.055  11.842  0.0892 -0.0681 -0.0161
    9MPD2     C14222   4.446   4.474  11.548 -0.0051 -0.1100  0.0850
    9MPD2    C114223   4.399   4.587  11.611  0.0073  0.3241 -0.0557
    9MPD2    C214224   4.276   4.646  11.582 -0.5379  0.0265  0.1383
    9MPD2    C314225   4.199   4.589  11.482  0.4050 -0.3840 -0.2322
    9MPD2    C414226   4.241   4.478  11.418  1.1602  0.3383  0.2502
    9MPD2    C514227   4.370   4.428  11.446  0.1331  0.1965 -0.1949
    9MPD2     H14228   4.242   0.016  11.629  0.9104  0.4720  0.3344
    9MPD2    H114229   4.184   4.447  11.331 -0.2553  0.9455  0.9556
    9MPD2    H214230   4.549   4.442  11.560  0.0570  0.7630  1.8960
    9MPD2    H314231   4.413   4.336  11.408 -0.1548  0.1596 -0.4360
    9MPD2     N14232   4.076   4.640  11.442 -0.1622 -0.5813 -0.0802
    9MPD2    H514233   4.032   4.585  11.368 -0.5822 -0.3718  0.0120
    9MPD2    N114234   4.495   4.656  11.684  0.1812  0.1510 -0.4197
    9MPD2    H714235   4.591   4.626  11.683 -0.9054 -3.2225 -1.9109
    1MPD1     C14236   3.645   4.666  15.404 -0.2646  0.0981 -0.5196
    1MPD1    C114237   3.728   4.574  15.463  0.6943 -0.3597  0.1220
    1MPD1    C214238   3.752   4.581  15.595 -0.0386 -0.2604  0.7701
    1MPD1    C314239   3.692   4.674  15.677  0.3434  0.3412 -0.5672
    1MPD1    C414240   3.599   0.045  15.624  0.2381  0.1266  0.4620
    1MPD1    C514241   3.580   0.040  15.487  0.4120 -0.8204 -0.1643
    1MPD1     H14242   3.821   4.512  15.643 -0.3048 -0.1231  1.3473
    1MPD1    H114243   3.559   0.130  15.679  0.1414  0.2301  0.2311
    1MPD1    H214244   3.641   4.685  15.297 -1.5471  0.5717 -0.3834
    1MPD1    H314245   3.511   0.108  15.439 -0.0589 -0.7658  0.5905
    1MPD1     N14246   3.725   4.692  15.817  0.0579 -0.0240 -0.4590
    1MPD1    H514247   3.676   0.045  15.866 -1.4755 -1.4639  0.1958
    1MPD1    N114248   3.822   4.508  15.383 -0.2521 -0.2203 -0.7040
    1MPD1    H614249   3.783   4.469  15.297 -0.2269 -1.2411 -0.2565
    1MPD1    H714250   3.875   4.428  15.417  0.5728  0.6501  0.0478
    2MPD1     C14251   4.555   0.196  16.324 -0.0235  0.4274 -0.2199
    2MPD1    C114252   4.499   0.252  16.208  0.3645 -0.3338 -0.9302
    2MPD1    C214253   4.375   0.214  16.170  0.1843 -0.1262 -0.0521
    2MPD1    C314254   4.300   0.130  16.242 -0.0369 -0.1712  0.3787
    2MPD1    C414255   4.348   0.080  16.362  0.8307 -1.4481  0.4382
    2MPD1    C514256   4.481   0.109  16.393 -0.3256  0.0896  0.6174
    2MPD1     H14257   4.339   0.247  16.073 -0.6064  1.6952  0.8551
    2MPD1    H114258   4.298   0.010  16.428 -1.3834 -1.2129 -1.0107
    2MPD1    H214259   4.660   0.214  16.345  0.3025 -0.0541 -1.4222
    2MPD1    H314260   4.517   0.067  16.486  3.5505  1.6319 -0.1634
    2MPD1     N14261   4.177   0.086  16.200 -0.3014 -0.1679  0.4789
    2MPD1    H514262   4.141   0.108  16.107  0.2659  2.3408  0.8403
    2MPD1    N114263   4.562   0.351  16.129  0.1948  0.2575 -0.3493
    2MPD1    H614264   4.529   0.354  16.033  0.8783 -1.5057 -0.6449
    2MPD1    H714265   4.663   0.344  16.127  0.2419  0.0271  2.8527
    3TCq2    C114266   4.091   0.020  16.278 -0.1973  0.4043 -0.0681
    3TCq2    O214267   4.080   0.037  16.400  0.2091 -0.3946 -0.1210
    3TCq2    C214268   3.965   4.698  16.213 -0.4175 -0.2467 -0.6679
    3TCq2    C314269   3.848   4.699  16.285 -0.3528  0.5716  0.2853
    3TCq2    C414270   3.731   4.666  16.219 -0.2693  0.3726  0.2540
    3TCq2    C514271   3.731   4.649  16.085 -0.0908  0.8610 -0.0673
    3TCq2    C614272   3.842   4.656  16.014  0.3590  0.0635 -0.0028
    3TCq2    C714273   3.961   4.676  16.080  0.7140  0.3101  0.2921
    3TCq2    C814274   3.833   4.637  15.871 -0.2269 -0.2814 -0.4547
    3TCq2    O414275   3.926   4.578  15.821 -0.4104  0.5794 -0.0391
    3TCq2    C914276   3.608   4.649  16.293  0.5738 -0.2173  0.2291
    3TCq2    O514277   3.500   4.640  16.226  0.7380 -0.0760 -0.0413
    3TCq2    O614278   3.601   4.704  16.406 -0.1753  0.7639 -0.2744
    3TCq2    H214279   3.840   4.718  16.392  0.3764  0.0547  0.4337
    3TCq2    H314280   3.635   4.621  16.044  0.4566  0.0674 -0.8223
    3TCq2    H414281   4.048   4.669  16.015 -0.2697  0.8787 -1.1009
    1TCq1    O114282   1.609   2.984  12.938  0.0693 -0.8734 -0.1881
    1TCq1    C114283   1.716   2.915  12.969 -0.2112  0.0327  0.5269
    1TCq1    O214284   1.744   2.810  12.913  0.3003 -0.3096 -0.3434
    1TCq1    C214285   1.819   3.014  13.018 -0.4861 -0.3462  0.2669
    1TCq1    C314286   1.788   3.144  13.014 -0.3403  0.0691 -0.0126
    1TCq1    C414287   1.875   3.233  13.070  0.4508 -0.1441  0.5451
    1TCq1    C514288   1.996   3.195  13.117  0.1292 -0.4398  0.1049
    1TCq1    C614289   2.031   3.065  13.092 -0.2274  0.4971  0.4289
    1TCq1    C714290   1.948   2.972  13.045  0.5963 -0.4821  0.2834
    1TCq1    C814291   2.174   3.031  13.106  0.2500  0.0979 -0.6150
    1TCq1    O414292   2.244   3.110  13.163 -0.2505 -0.1290  0.0263
    1TCq1    C914293   1.834   3.372  13.070  0.0407  0.0372  0.0009
    1TCq1    O514294   1.714   3.403  13.038 -0.7615 -0.4999 -0.2960
    1TCq1    O614295   1.911   3.447  13.138 -0.0788  0.3099 -0.0009
    1TCq1    H114296   1.594   3.050  13.009  1.3528 -1.0121  0.2059
    1TCq1    H214297   1.693   3.184  12.979  0.0664  0.7950 -0.2997
    1TCq1    H314298   2.068   3.272  13.143 -0.4104 -0.3766  1.4413
    1TCq1    H414299   1.963   2.865  13.042  0.1523 -0.5589  0.7936
    2MPD2     C14300   2.414   2.889  13.120  0.9593  0.2442 -1.1321
    2MPD2    C114301   2.310   2.837  13.043  0.5481 -0.7095  0.9271
    2MPD2    C214302   2.308   2.719  12.973  0.0894 -0.0424  0.3047
    2MPD2    C314303   2.413   2.635  12.982  0.7613  0.3389 -0.2051
    2MPD2    C414304   2.520   2.675  13.064  0.2705 -0.2411 -0.8809
    2MPD2    C514305   2.513   2.796  13.131  0.3943  0.2396 -0.0359
    2MPD2     H14306   2.222   2.696  12.912  0.8028  0.3595 -0.8553
    2MPD2    H114307   2.605   2.611  13.083 -0.7959 -1.1385  0.9544
    2MPD2    H214308   2.421   2.981  13.177 -1.0181  0.7292 -1.6694
    2MPD2    H314309   2.594   2.821  13.199  0.3426  0.6400 -0.1213
    2MPD2     N14310   2.404   2.511  12.915  0.2404 -0.4275 -0.3322
    2MPD2    H514311   2.317   2.497  12.866  0.2341  0.0401 -0.4597
    2MPD2    N114312   2.198   2.919  13.036  0.0290  0.4220  0.7043
    2MPD2    H714313   2.124   2.879  12.978  0.0248 -0.3317  1.2364
    3TCq1    O114314   2.707   1.981  12.633 -0.1564  0.1917  0.0416
    3TCq1    C114315   2.621   1.985  12.738  0.2977  0.0297 -0.1959
    3TCq1    O214316   2.619   1.912  12.836  0.3498 -0.0696 -0.8754
    3TCq1    C214317   2.540   2.105  12.723  0.3404  0.8964  0.5790
    3TCq1    C314318   2.493   2.143  12.599  0.2332 -0.2909  0.1419
    3TCq1    C414319   2.433   2.266  12.587 -0.1263  0.0016 -0.4533
    3TCq1    C514320   2.413   2.347  12.697 -0.9730  0.2839 -0.1743
    3TCq1    C614321   2.452   2.299  12.822 -0.6164  0.1031 -0.7521
    3TCq1    C714322   2.511   2.176  12.838 -0.3607 -0.1009 -0.6764
    3TCq1    C814323   2.495   2.401  12.914  0.2527 -0.6050 -0.0708
    3TCq1    O414324   2.604   2.397  12.968  0.4367  0.1107  0.3944
    3TCq1    C914325   2.428   2.333  12.459  0.1517  0.9018 -0.0230
    3TCq1    O514326   2.452   2.264  12.360 -0.0521  0.0745  0.1062
    3TCq1    O614327   2.427   2.463  12.463  0.1728 -0.1690 -0.1296
    3TCq1    H114328   2.726   2.066  12.589  0.9660  1.0270  2.1645
    3TCq1    H214329   2.509   2.084  12.510 -0.2364 -0.9610  0.5003
    3TCq1    H314330   2.379   2.448  12.679 -1.6885  0.1394  0.3538
    3TCq1    H414331   2.560   2.153  12.932 -1.0502 -0.9536 -0.5228
    1MPD2     C14332   2.360   3.844  15.010 -0.2157 -0.6956  0.1780
    1MPD2    C114333   2.263   3.858  14.911 -0.4549 -0.4134  0.0399
    1MPD2    C214334   2.276   3.766  14.802 -0.5496 -0.2820  0.4191
    1MPD2    C314335   2.378   3.677  14.789 -0.6209  0.1130 -0.6254
    1MPD2    C414336   2.479   3.674  14.892 -0.2430 -0.0504 -0.8835
    1MPD2    C514337   2.468   3.762  14.995  0.0287 -0.5883 -0.5313
    1MPD2     H14338   2.193   3.749  14.733  0.4923 -0.1068 -0.8742
    1MPD2    H114339   2.564   3.608  14.878  0.1799 -0.0501  1.7273
    1MPD2    H214340   2.355   3.912  15.094  0.3174  1.0691 -1.2194
    1MPD2    H314341   2.543   3.768  15.073 -0.7775  0.9838  0.1368
    1MPD2     N14342   2.374   3.591  14.678 -0.0598  0.3171  0.2655
    1MPD2    H514343   2.288   3.598  14.624  0.2289 -0.6011 -0.3106
    1MPD2    N114344   2.146   3.930  14.939 -0.0843 -0.4161 -0.1533
    1MPD2    H714345   2.144   3.995  15.018  1.5745 -0.2040 -0.2799
    2TMC3    C114346   1.921   3.984  14.929  0.5919 -0.4695 -0.2849
    2TMC3    C214347   1.807   3.900  14.937 -0.1857 -0.0424 -0.5433
    2TMC3    C314348   1.691   3.940  14.880 -0.1793 -0.0654 -0.1410
    2TMC3    C414349   1.899   4.105  14.872 -0.8642 -0.3657  0.5062
    2TMC3    C514350   1.776   4.151  14.841 -0.4950 -0.7177  0.5379
    2TMC3    C614351   1.663   4.064  14.841  0.2575  0.4417 -0.4928
    2TMC3     C14352   2.034   3.926  14.862  0.4051 -0.0628 -0.0305
    2TMC3     O14353   2.005   3.859  14.766 -0.1339  0.1720  0.2986
    2TMC3     H14354   1.825   3.795  14.957  1.1531  0.2074 -0.4507
    2TMC3    H114355   1.985   4.170  14.864 -1.0331 -0.5089 -2.4965
    2TMC3    H214356   1.571   4.103  14.799 -0.2000 -0.3593 -0.2350
    2TMC3    C714357   1.737   4.290  14.824 -0.3278  0.5747  0.0725
    2TMC3    C814358   1.626   3.836  14.801  1.0402  0.0128 -0.0481
    2TMC3    O114359   1.619   4.314  14.830  0.6721  0.4958  0.8502
    2TMC3    O214360   1.506   3.832  14.782 -0.1206  0.2210  0.6986
    3TCq1    O114361   2.359   0.529  14.618 -0.2150 -0.3958 -0.3046
    3TCq1    C114362   2.460   0.471  14.688 -0.2886  0.0937 -0.7614
    3TCq1    O214363   2.572   0.461  14.646 -0.0963 -0.0159  0.7514
    3TCq1    C214364   2.405   0.382  14.791  0.0004 -0.1677 -0.7179
    3TCq1    C314365   2.491   0.328  14.881 -0.4064  0.2650 -0.4363
    3TCq1    C414366   2.449   0.232  14.977  0.5775 -0.2792 -0.2926
    3TCq1    C514367   2.319   0.181  14.974  0.4281  0.1485  0.2090
    3TCq1    C614368   2.234   0.245  14.882 -0.4225 -0.1715 -0.0298
    3TCq1    C714369   2.272   0.346  14.793  0.4559  0.3072  0.7394
    3TCq1    C814370   2.098   0.202  14.861  0.1198 -0.5166 -0.0037
    3TCq1    O414371   2.015   0.282  14.823 -0.3966  0.1253 -0.1927
    3TCq1    C914372   2.537   0.176  15.072  0.0242  0.6166  1.1859
    3TCq1    O514373   2.647   0.236  15.089 -0.0533 -0.7154 -0.2464
    3TCq1    O614374   2.491   0.090  15.146  0.1849 -0.6566  0.6067
    3TCq1    H114375   2.269   0.543  14.656  0.5531  0.6198  1.1380
    3TCq1    H214376   2.598   0.350  14.878 -0.3432 -0.0055 -0.2301
    3TCq1    H314377   2.291   0.095  15.034 -1.5058  0.0270 -0.8379
    3TCq1    H414378   2.206   0.384  14.717  1.3964  0.2216 -0.1275
    4MPD2     C14379   1.835   0.075  14.880 -0.8053 -0.7284 -0.4891
    4MPD2    C114380   1.954   0.006  14.855  0.1200 -0.0836  0.6464
    4MPD2    C214381   1.955   4.590  14.826  0.2707 -0.2300 -1.3309
    4MPD2    C314382   1.843   4.511  14.834  0.5113 -0.2496 -0.0780
    4MPD2    C414383   1.727   4.585  14.872  0.1319  0.1556 -0.2920
    4MPD2    C514384   1.723   4.721  14.881  0.0816 -0.6736  0.3674
    4MPD2     H14385   2.055   4.551  14.809  0.7072  0.3474 -0.0860
    4MPD2    H114386   1.636   4.527  14.881  1.0346 -1.3301 -0.7735
    4MPD2    H214387   1.820   0.182  14.892  0.0608 -0.6490 -0.1316
    4MPD2    H314388   1.628   0.041  14.911  0.9652  0.7878  1.1783
    4MPD2     N14389   1.848   4.371  14.818 -0.1698 -0.6454  0.0524
    4MPD2    H514390   1.938   4.332  14.795  0.7177  2.1074 -1.2000
    4MPD2    N114391   2.084   0.071  14.864  0.0638 -0.4578  0.5570
    4MPD2    H714392   2.166   0.011  14.867  0.6031  0.3614  2.2539
    5TMC2    C114393   2.171   3.365  14.482 -0.0044  0.0113 -0.7204
    5TMC2    C214394   2.160   3.239  14.525  0.1589  0.4215  0.0878
    5TMC2    C314395   2.273   3.182  14.588 -0.1943 -0.5923 -0.4936
    5TMC2    C414396   2.283   3.440  14.493 -0.1485  0.8141  0.1214
    5TMC2    C514397   2.389   3.393  14.564 -0.5368  0.5332  0.0132
    5TMC2    C614398   2.390   3.261  14.609  0.6852 -1.0408  0.1450
    5TMC2     C14399   2.064   3.452  14.519  0.8571 -0.3302  0.4912
    5TMC2     O14400   2.108   3.544  14.589  0.3582  0.1222 -1.2634
    5TMC2     H14401   2.065   3.185  14.521  0.2325  0.3014 -0.0668
    5TMC2    H114402   2.286   3.538  14.448  2.5311 -0.3847 -2.2982
    5TMC2    H214403   2.477   3.222  14.661  1.4283  1.6466  0.9179
    5TMC2    C714404   2.456   3.479  14.655  0.1329 -1.1755  0.4859
    5TMC2    C814405   2.268   3.039  14.600 -0.8726  0.1428  0.0398
    5TMC2    O114406   2.562   3.445  14.703  0.4449 -0.2727  0.1122
    5TMC2    O214407   2.182   2.966  14.550  0.5291 -0.8293  0.0410
    5TMC2    O514408   2.342   2.999  14.706 -0.2346 -0.3978  0.4362
    5TMC2    H514409   2.353   3.080  14.760 -2.2400  0.9617 -1.2099
    6MPD2     C14410   1.586   3.616  14.601  0.2240  0.7002 -0.6086
    6MPD2    C114411   1.703   3.658  14.648  0.1058  0.1797  0.4820
    6MPD2    C214412   1.819   3.593  14.610  0.3873  0.3374  0.0638
    6MPD2    C314413   1.826   3.476  14.533  0.5166  0.0177  0.4376
    6MPD2    C414414   1.705   3.431  14.493  0.0460  0.4688  0.7488
    6MPD2    C514415   1.585   3.503  14.521  0.8737 -0.3326  0.1791
    6MPD2     H14416   1.912   3.633  14.648  1.9174  0.0338 -3.3710
    6MPD2    H114417   1.709   3.339  14.436 -0.3769  0.4836  0.6913
    6MPD2    H214418   1.492   3.662  14.629 -0.3968 -0.7573 -0.3145
    6MPD2    H314419   1.489   3.478  14.477  1.5655 -0.1473 -1.4314
    6MPD2     N14420   1.937   3.408  14.493 -0.8625 -0.2700  0.3210
    6MPD2    H514421   1.918   3.328  14.434  0.0657  1.4052 -2.2544
    6MPD2    N114422   1.727   3.766  14.734  0.3268  0.5068 -0.9395
    6MPD2    H714423   1.819   3.792  14.766  0.3977  0.9584 -1.5034
  945NH4     N114424   4.188   4.492  12.402  0.2425 -0.2415 -0.3799
  945NH4     H214425   4.263   4.421  12.402 -0.2650 -0.7870 -1.2726
  945NH4     H314426   4.153   4.503  12.304 -1.8312 -0.6679  0.3168
  945NH4     H414427   4.225   4.573  12.455 -2.1705 -0.5082  1.6681
  945NH4     H514428   4.108   4.461  12.460 -1.4017 -1.9289 -3.5189
  946SOD     NA14429   3.045   1.785  16.708 -0.0452  0.4016 -0.2831
  947SOD     NA14430   2.730   0.338  15.261  0.2964  0.1804  0.0667
  948SOD     NA14431   0.512   4.128  11.059 -0.0905 -0.1335 -0.2666
  949SOD     NA14432   0.807   3.630   3.684  0.1102 -0.1018 -0.0356
  950SOD     NA14433   0.215   2.903   2.355  0.6817 -0.1545 -0.2129
  951SOD     NA14434   4.083   2.554   3.357  0.0364  0.0601 -0.3639
  952SOD     NA14435   1.875   2.742   7.702 -0.8228  0.3003  0.6250
  953SOD     NA14436   2.227   2.246  11.177 -0.1311  0.1359  0.2491
  954SOD     NA14437   4.055   2.519  13.180  0.0229  0.2327  0.0987
  955SOD     NA14438   0.377   0.490   2.416  0.1861  0.4220 -0.0565
  956SOD     NA14439   2.428   2.938  11.677 -0.1349  0.0430 -0.4909
  957SOD     NA14440   2.761   4.576  12.081 -0.3651 -0.4910  0.1118
  958SOD     NA14441   2.784   0.769  16.244  0.1013 -0.1025  0.0432
  959SOD     NA14442   1.888   1.095  11.283 -0.1201  0.2494  0.3470
  960SOD     NA14443   1.273   2.802  12.833 -0.2131  0.4254 -0.1032
  961SOD     NA14444   1.156   3.382  11.035 -0.5443 -0.4507 -0.1688
  962SOD     NA14445   0.928   0.108   1.315  0.6188  0.0191 -0.2601
  963SOD     NA14446   3.278   3.588  10.976 -0.0017  0.1943 -0.4767
  964SOD     NA14447   2.411   4.639  11.953 -0.3098 -0.4734 -0.3425
  965SOD     NA14448   1.049   2.275   8.609 -0.0895 -0.0328  0.0031
  966SOD     NA14449   2.055   4.217   7.367  0.4811 -0.0377 -0.4704
  967SOD     NA14450   4.452   4.670   1.151  0.0082  0.2565  0.0720
  968SOD     NA14451   2.857   2.921  12.159  0.3164  0.1124 -0.1115
  969SOD     NA14452   2.772   4.516  14.277 -0.5478 -0.0364 -0.2963
  970SOD     NA14453   1.496   2.552  10.530  0.0041 -0.3595  0.2536
  971SOD     NA14454   3.317   1.639   0.600  0.3824  0.5224  0.0434
  972SOD     NA14455   0.300   2.832  16.538  0.3492 -0.4435  0.2223
  973SOD     NA14456   3.048   1.500   9.495 -0.0835 -0.0812 -0.4925
  974SOD     NA14457   0.334   2.149   1.550 -0.1465  0.1891 -0.5453
  975SOD     NA14458   2.995   2.422   9.877 -0.0869 -0.2692 -0.3987
  976SOD     NA14459   1.524   3.810  12.963 -0.0368  0.3075 -0.5334
  977SOD     NA14460   1.809   2.642  15.992 -0.4597  0.2228 -0.1828
  978SOD     NA14461   1.566   3.317   9.835 -0.2915  0.5270 -0.0825
  979SOD     NA14462   1.867   0.030  10.727 -0.0471 -0.2242 -0.0372
  980SOD     NA14463   2.564   3.424  17.233  0.7290  0.0013 -0.2499
  981SOD     NA14464   4.269   1.455   1.216 -0.4533  0.4440  0.5525
  982SOD     NA14465   1.365   3.131  10.415  0.1312 -0.2462 -0.3878
  983SOD     NA14466   1.913   4.061  14.362 -0.5302 -0.4449  0.3365
  984SOD     NA14467   2.123   2.637   9.556  0.0438 -0.0752  0.3602
  985SOD     NA14468   2.962   2.964  11.843  0.2154 -0.0806 -0.4319
  986SOD     NA14469   2.822   2.579  14.440 -0.0731  0.2845  0.1692
  987SOD     NA14470   3.934   2.367  12.935 -0.3549  0.1994 -0.2846
  988SOD     NA14471   3.396   4.117  15.172 -0.3358  0.1006 -0.1214
  989SOD     NA14472   3.671   3.454   5.223 -0.1463 -0.1709  0.6659
  990SOD     NA14473   4.330   2.545   0.707  0.2260  0.1062 -0.4145
  991SOD     NA14474   3.623   1.298  12.119  0.2516  0.1118 -0.0847
  992SOD     NA14475   4.003   0.823  14.308 -0.1684 -0.1210 -0.2998
  993SOD     NA14476   2.559   3.143  11.484  0.3580  0.5155 -0.1926
  994SOD     NA14477   2.401   0.026  15.330  0.3073  0.3709  0.4604
  995SOD     NA14478   3.712   1.545   8.823 -0.3252  0.3642 -0.1515
  996SOD     NA14479   0.730   1.333  13.965  0.5286  0.4535  0.0350
  997SOD     NA14480   1.644   2.570  10.216 -0.3378  0.5278 -0.1289
  998SOD     NA14481   4.363   1.263   1.007 -0.2132  0.1343  0.6270
  999SOD     NA14482   0.905   2.922  12.764 -0.1536 -0.0130  0.1297
 1000SOD     NA14483   1.448   2.216  10.623  0.5083  0.2893  0.4626
 1001SOD     NA14484   0.672   0.654   9.570  0.1001  0.0959  0.2368
 1002SOD     NA14485   2.164   3.898  13.489  0.3141  0.0658  0.2115
 1003SOD     NA14486   0.151   3.305   0.733  0.2346  0.5470  0.6049
 1004SOD     NA14487   4.229   3.598  13.709  0.1358 -0.1432 -0.0689
 1005SOD     NA14488   4.414   3.838  13.953  0.0796  0.6278 -0.0708
 1006SOD     NA14489   3.349   0.008  16.355  0.3914  0.0079  0.2468
 1007SOD     NA14490   1.641   3.492  10.091 -0.4682  0.3306 -0.3853
 1008SOD     NA14491   0.180   2.909  10.804 -0.2753 -0.5329 -0.3312
 1009SOD     NA14492   0.230   4.670   2.173 -0.5067 -0.3429 -0.1522
 1010SOD     NA14493   1.269   1.998   6.184  0.1183  0.0285  0.7524
 1011SOL     OW14494   0.813   0.700   2.096  0.7600 -0.0930  0.0110
 1011SOL    HW114495   0.888   0.642   2.082  0.6586 -0.0450 -0.6890
 1011SOL    HW214496   0.860   0.761   2.155 -1.6972  2.2190 -0.4451
 1012SOL     OW14497   4.490   3.746   0.608  0.4459 -0.6691 -0.3666
 1012SOL    HW114498   4.548   3.822   0.609 -0.8247  0.3001 -0.5250
 1012SOL    HW214499   4.541   3.681   0.558  2.9574 -0.0787  1.4123
 1013SOL     OW14500   4.468   0.532   9.114 -0.1890  0.4659 -0.0941
 1013SOL    HW114501   4.408   0.579   9.173 -2.0482 -0.2691 -1.3862
 1013SOL    HW214502   4.495   0.601   9.054  1.3922  0.6466  0.8272
 1014SOL     OW14503   3.251   4.420   3.848  0.9140 -0.0481  0.0105
 1014SOL    HW114504   3.163   4.419   3.887  0.4882 -0.8152 -0.9638
 1014SOL    HW214505   3.227   4.462   3.765  0.4435 -1.5465 -0.6087
 1015SOL     OW14506   2.516   3.866   7.505 -0.0893  0.4634 -0.0637
 1015SOL    HW114507   2.545   3.937   7.448 -0.6110  1.3467  0.7631
 1015SOL    HW214508   2.562   3.785   7.484 -1.2114 -0.1696 -0.1261
 1016SOL     OW14509   3.275   3.545   7.323 -0.0906  0.1081 -0.0768
 1016SOL    HW114510   3.330   3.467   7.325 -0.7340 -0.3042  1.4714
 1016SOL    HW214511   3.271   3.568   7.230 -2.3848 -0.0957 -0.0447
 1017SOL     OW14512   2.748   3.869  12.687 -0.3290 -0.6017 -0.0955
 1017SOL    HW114513   2.655   3.891  12.698  0.3335  1.4299  1.4527
 1017SOL    HW214514   2.759   3.872  12.592  0.9424 -0.9143  0.0354
 1018SOL     OW14515   3.003   1.475   8.791  0.3746  0.2306 -0.1098
 1018SOL    HW114516   2.970   1.479   8.881 -0.8003 -0.0624 -0.5311
 1018SOL    HW214517   3.024   1.382   8.786 -1.3890 -0.1982  0.6818
 1019SOL     OW14518   2.057   4.516   0.240 -0.0491 -0.2552  0.0955
 1019SOL    HW114519   1.969   4.491   0.211 -0.0082 -0.5694  0.2395
 1019SOL    HW214520   2.070   4.603   0.205  1.3122  0.3998  2.2229
 1020SOL     OW14521   0.959   0.875   7.364 -0.1992 -0.2335 -0.4781
 1020SOL    HW114522   0.919   0.822   7.296  2.4803 -1.3472 -1.1797
 1020SOL    HW214523   1.042   0.830   7.374 -0.2666 -0.1251  0.5681
 1021SOL     OW14524   3.350   2.702   7.398 -0.0144  0.2989 -0.0927
 1021SOL    HW114525   3.363   2.714   7.492 -2.3602  1.3017  0.0940
 1021SOL    HW214526   3.272   2.647   7.391  0.9470 -0.9073 -1.4803
 1022SOL     OW14527   3.802   1.509  13.246 -0.6665 -0.1751 -0.2315
 1022SOL    HW114528   3.868   1.560  13.199 -0.3419  0.0692  0.4743
 1022SOL    HW214529   3.738   1.575  13.270  0.1526  0.4172  0.3542
 1023SOL     OW14530   1.137   1.830  13.867 -0.2183 -0.1655 -0.1144
 1023SOL    HW114531   1.073   1.819  13.797 -0.9050 -1.9078  0.7889
 1023SOL    HW214532   1.096   1.895  13.924  0.9601  1.1903 -0.8034
 1024SOL     OW14533   3.796   1.714   8.449  0.1819 -0.3186  0.5434
 1024SOL    HW114534   3.713   1.674   8.476 -0.0814 -0.9686 -1.2452
 1024SOL    HW214535   3.767   1.785   8.392 -1.4169 -1.1807  0.2720
 1025SOL     OW14536   2.677   2.698   5.258 -0.2862  0.3144 -0.3837
 1025SOL    HW114537   2.673   2.793   5.250  0.4353  0.4137  0.4712
 1025SOL    HW214538   2.735   2.693   5.334  0.7534  0.8604 -1.1564
 1026SOL     OW14539   4.520   0.550   8.607  0.0833 -0.0656  0.1518
 1026SOL    HW114540   4.445   0.609   8.610  0.3732  0.3612 -1.1613
 1026SOL    HW214541   4.505   0.503   8.689  0.4885 -2.1894 -0.9869
 1027SOL     OW14542   3.456   0.650   6.751  0.0113  0.3371 -1.1568
 1027SOL    HW114543   3.376   0.656   6.803 -0.2815  1.0700 -1.6970
 1027SOL    HW214544   3.457   0.740   6.720 -0.1654  0.7746  0.1155
 1028SOL     OW14545   2.007   2.024   3.496  0.2148 -0.1967  0.2746
 1028SOL    HW114546   2.022   2.082   3.421 -3.1523 -0.9017 -0.9346
 1028SOL    HW214547   1.915   2.000   3.489  0.1274  0.2550 -0.1913
 1029SOL     OW14548   1.443   3.725   8.591  0.4156 -0.2991  0.4348
 1029SOL    HW114549   1.472   3.797   8.535 -0.4210  0.5924  1.1344
 1029SOL    HW214550   1.395   3.765   8.664  1.3288 -2.0383  1.9633
 1030SOL     OW14551   2.481   2.580   4.176  0.9545 -0.3633 -0.4280
 1030SOL    HW114552   2.414   2.647   4.169  1.7403  0.2262 -2.4622
 1030SOL    HW214553   2.558   2.629   4.204  1.4676  0.8526 -3.9238
 1031SOL     OW14554   3.638   1.373   5.017 -0.5280  0.1815  0.6116
 1031SOL    HW114555   3.591   1.319   4.953  1.2065  0.1693 -0.6892
 1031SOL    HW214556   3.691   1.317   5.074 -1.5784  1.3166  2.6688
 1032SOL     OW14557   3.906   2.396   4.893 -0.1130  0.1093 -0.2516
 1032SOL    HW114558   3.855   2.329   4.848 -1.7231  0.0290  1.7078
 1032SOL    HW214559   3.917   2.363   4.982  1.0898  2.1832  0.3855
 1033SOL     OW14560   4.251   2.842   5.169 -0.1520 -0.0799  0.1724
 1033SOL    HW114561   4.289   2.833   5.256  1.1959  2.9544 -0.0841
 1033SOL    HW214562   4.157   2.851   5.183 -0.5565 -1.3821 -1.6124
 1034SOL     OW14563   2.372   1.132   8.639  0.5249 -0.2712 -0.8214
 1034SOL    HW114564   2.392   1.153   8.547  3.9079  0.9136  0.1999
 1034SOL    HW214565   2.314   1.207   8.652 -0.2662 -1.1170  0.5202
 1035SOL     OW14566   3.108   0.587   7.861 -0.1227 -0.0233 -0.4918
 1035SOL    HW114567   3.081   0.673   7.830  1.2636  0.3801 -0.5447
 1035SOL    HW214568   3.034   0.584   7.922 -0.3535 -2.0829 -0.8676
 1036SOL     OW14569   0.280   3.846   3.616  0.1964  0.3413 -0.6559
 1036SOL    HW114570   0.199   3.851   3.667 -0.8050 -0.7882 -2.1323
 1036SOL    HW214571   0.345   3.846   3.686 -2.2257 -1.8376  1.6251
 1037SOL     OW14572   3.202   1.821   3.931  0.4449  0.3971 -0.3074
 1037SOL    HW114573   3.282   1.784   3.968 -0.0587  1.6304  1.9703
 1037SOL    HW214574   3.146   1.853   4.001  0.6073  0.0561 -0.0211
 1038SOL     OW14575   0.802   0.540   0.987  0.0120  0.3961 -0.5095
 1038SOL    HW114576   0.797   0.516   0.894 -0.9942 -0.0784 -0.3323
 1038SOL    HW214577   0.722   0.501   1.023  0.6508 -0.8694 -0.4780
 1039SOL     OW14578   1.176   0.242   8.808  0.1580  0.0075  0.3437
 1039SOL    HW114579   1.262   0.264   8.842 -0.6787  3.8907 -0.1050
 1039SOL    HW214580   1.170   0.150   8.833 -1.2399  0.3992  1.4634
 1040SOL     OW14581   4.652   4.709   6.164  0.1974 -0.4810 -0.1257
 1040SOL    HW114582   4.708   0.044   6.110  0.0754 -1.7020 -1.5338
 1040SOL    HW214583   4.635   4.642   6.097  1.1283  0.3029 -1.1393
 1041SOL     OW14584   3.249   3.789   5.445 -0.1267 -0.3974 -0.4412
 1041SOL    HW114585   3.174   3.804   5.388 -0.8280  1.5960  0.9859
 1041SOL    HW214586   3.202   3.745   5.515 -1.8787  1.9983 -0.1051
 1042SOL     OW14587   4.678   3.130  11.240  0.0449  0.5673  0.0260
 1042SOL    HW114588   4.651   3.044  11.209 -0.3202 -0.1934  2.4504
 1042SOL    HW214589   4.649   3.187  11.169 -0.7550  0.3938  0.2140
 1043SOL     OW14590   4.347   2.399  16.996 -0.0157  0.3618  0.8029
 1043SOL    HW114591   4.268   2.448  17.017  0.9461  2.6807 -1.0432
 1043SOL    HW214592   4.305   2.329  16.946 -1.1759  1.1010  0.7556
 1044SOL     OW14593   0.144   2.355  13.696  0.0880  0.4012 -0.3225
 1044SOL    HW114594   0.204   2.292  13.737 -1.0704 -1.2531 -1.2103
 1044SOL    HW214595   0.113   2.308  13.619 -2.0582  0.9776  0.2089
 1045SOL     OW14596   4.363   4.548   9.735 -1.0473  0.7693 -0.1856
 1045SOL    HW114597   4.291   4.542   9.798 -1.1879  2.7745 -0.1661
 1045SOL    HW214598   4.318   4.563   9.652  1.5832  0.0474 -1.7457
 1046SOL     OW14599   3.780   2.526   6.941  0.3269 -0.0088 -0.3429
 1046SOL    HW114600   3.736   2.448   6.974  0.6639  1.1132  2.6890
 1046SOL    HW214601   3.871   2.501   6.956  0.3149  0.4574  0.4995
 1047SOL     OW14602   4.197   4.406   5.093  0.1794  0.7209 -0.1261
 1047SOL    HW114603   4.219   4.491   5.131  0.5964  0.6286 -0.1573
 1047SOL    HW214604   4.205   4.422   4.999 -0.3353 -1.0739 -0.4679
 1048SOL     OW14605   0.885   3.606  16.355 -0.4476 -0.0444 -0.3201
 1048SOL    HW114606   0.793   3.581  16.362 -0.2890 -0.0638  1.6436
 1048SOL    HW214607   0.889   3.656  16.273 -1.2824 -0.2960 -0.5187
 1049SOL     OW14608   4.297   1.638   6.176  0.3639  0.0387 -0.1083
 1049SOL    HW114609   4.222   1.695   6.189 -2.1759 -3.3882  0.2081
 1049SOL    HW214610   4.285   1.606   6.086 -0.9204 -0.5965  0.2887
 1050SOL     OW14611   2.698   2.887   7.846 -0.5644  0.2789  0.1793
 1050SOL    HW114612   2.739   2.974   7.839 -2.3610  1.0932 -0.2372
 1050SOL    HW214613   2.675   2.894   7.939 -1.7013 -0.0600 -0.0839
 1051SOL     OW14614   2.231   2.278   5.711  0.3253  0.5721 -0.0532
 1051SOL    HW114615   2.246   2.344   5.778 -3.2945  2.7631 -1.3927
 1051SOL    HW214616   2.245   2.329   5.632  3.2324 -0.2778 -0.0738
 1052SOL     OW14617   1.069   3.183   3.630  0.0008  0.1988  0.1044
 1052SOL    HW114618   0.988   3.189   3.680 -0.4045 -2.6001 -0.2293
 1052SOL    HW214619   1.098   3.114   3.690  3.6495  0.6682 -1.0969
 1053SOL     OW14620   1.585   0.567   3.446  0.4945  0.7263  0.3931
 1053SOL    HW114621   1.577   0.492   3.387 -0.9424  2.4762 -1.6429
 1053SOL    HW214622   1.676   0.562   3.474  0.3151  0.2879  0.9190
 1054SOL     OW14623   3.311   2.955   5.903 -0.3968  0.1568  0.2503
 1054SOL    HW114624   3.374   2.959   5.975  1.7488  0.0785 -1.6168
 1054SOL    HW214625   3.286   2.863   5.910  1.5483 -0.4095 -0.2162
 1055SOL     OW14626   3.390   2.945   0.863 -0.2866  0.1772  0.1537
 1055SOL    HW114627   3.368   2.899   0.783  1.1574 -1.0981  0.4852
 1055SOL    HW214628   3.477   2.973   0.835 -0.3673 -1.8895 -2.1077
 1056SOL     OW14629   2.994   1.116   1.251  0.0845 -0.3523 -0.2459
 1056SOL    HW114630   2.907   1.138   1.285  1.4994  1.2492  2.3780
 1056SOL    HW214631   2.995   1.022   1.235  1.0889 -0.2313 -0.8734
 1057SOL     OW14632   3.474   4.669   3.524  0.3220 -0.1051 -0.1948
 1057SOL    HW114633   3.432   0.001   3.457  1.6409  1.2083  0.0190
 1057SOL    HW214634   3.495   4.596   3.466  0.4274 -0.4906  0.3330
 1058SOL     OW14635   4.331   4.120  16.003  0.4989 -0.2187  0.1019
 1058SOL    HW114636   4.426   4.114  15.997  0.4222 -1.1237 -0.1733
 1058SOL    HW214637   4.309   4.146  15.913 -1.5782 -3.8147 -0.4342
 1059SOL     OW14638   1.281   4.595  11.473 -0.2732 -0.2262  0.0637
 1059SOL    HW114639   1.329   4.570  11.394  0.3808  1.1019  0.0464
 1059SOL    HW214640   1.259   4.683  11.443  0.8036  0.2736  0.7507
 1060SOL     OW14641   1.609   0.972   6.865  0.4229  0.0828  0.0230
 1060SOL    HW114642   1.668   0.984   6.791  2.7969 -1.6400  1.6280
 1060SOL    HW214643   1.534   0.922   6.835  0.7956 -1.1776  1.1972
 1061SOL     OW14644   3.596   2.341   7.401  0.0655 -0.0746 -0.4325
 1061SOL    HW114645   3.518   2.335   7.456 -0.2656  0.4666 -0.8464
 1061SOL    HW214646   3.567   2.316   7.313 -0.5809 -0.7797 -0.0295
 1062SOL     OW14647   4.152   2.282   2.141  0.4099  0.5064 -0.2689
 1062SOL    HW114648   4.086   2.226   2.099 -0.8228  1.7963 -0.0708
 1062SOL    HW214649   4.095   2.346   2.183 -2.6246 -3.4473  1.6097
 1063SOL     OW14650   1.501   3.793   4.454 -0.6849 -0.2072  0.6608
 1063SOL    HW114651   1.531   3.744   4.531  0.2620 -1.6214 -0.6154
 1063SOL    HW214652   1.527   3.881   4.479 -3.4542  0.9050 -0.4251
 1064SOL     OW14653   0.768   2.222   7.483  0.8150 -0.1919 -0.6156
 1064SOL    HW114654   0.806   2.161   7.420  2.6544 -0.5706  0.8831
 1064SOL    HW214655   0.729   2.164   7.548  0.3025  0.5689 -0.2433
 1065SOL     OW14656   3.158   0.750  14.463 -0.1623 -0.2141 -0.1160
 1065SOL    HW114657   3.106   0.742  14.543 -1.0314  0.8318 -0.5714
 1065SOL    HW214658   3.150   0.659  14.432 -0.1957 -0.5264  0.8125
 1066SOL     OW14659   2.421   3.316   9.945  0.5015  0.4102 -0.9242
 1066SOL    HW114660   2.329   3.295   9.935  0.2386  0.9590  0.3475
 1066SOL    HW214661   2.470   3.287   9.868  0.8205  3.0899 -1.7655
 1067SOL     OW14662   3.390   0.592   2.984 -0.0931 -0.0322 -0.0101
 1067SOL    HW114663   3.392   0.578   3.079 -1.0567  2.4507  0.3821
 1067SOL    HW214664   3.435   0.510   2.963 -1.2429 -0.6469 -0.1269
 1068SOL     OW14665   2.126   0.046   9.747 -0.0020  0.1850  0.8095
 1068SOL    HW114666   2.143   0.069   9.655 -0.5747 -0.2322  0.5979
 1068SOL    HW214667   2.213   0.014   9.771 -0.0600  0.0176  0.7945
 1069SOL     OW14668   3.732   3.506   4.984 -0.3850  0.0751  0.7008
 1069SOL    HW114669   3.738   3.570   4.913  2.2206 -0.2479  0.6304
 1069SOL    HW214670   3.820   3.468   4.980 -0.9179 -1.1362  0.7607
 1070SOL     OW14671   2.549   1.578   6.788  0.3190 -0.0174  0.1113
 1070SOL    HW114672   2.575   1.514   6.855  0.9097  0.2965  0.1787
 1070SOL    HW214673   2.628   1.579   6.735  0.0205  2.0753 -0.3088
 1071SOL     OW14674   3.001   4.047  14.891  0.0015 -0.6235 -0.2942
 1071SOL    HW114675   2.911   4.079  14.892  0.2901  0.1912  0.5186
 1071SOL    HW214676   2.982   3.955  14.908  1.5585 -1.1985 -1.7183
 1072SOL     OW14677   2.701   2.753   3.307  0.1396 -0.6506  0.8309
 1072SOL    HW114678   2.667   2.697   3.236  0.6656 -1.2061  1.0103
 1072SOL    HW214679   2.628   2.766   3.367  0.4224 -0.6537  1.1750
 1073SOL     OW14680   0.046   4.624   0.371 -0.4010 -0.0520  0.0412
 1073SOL    HW114681   0.025   4.703   0.421 -1.7125  0.7480 -1.7580
 1073SOL    HW214682   0.030   4.554   0.434 -2.0131 -1.5979 -2.0609
 1074SOL     OW14683   0.776   3.957   3.386 -0.2998  0.2427 -0.6451
 1074SOL    HW114684   0.872   3.952   3.382 -0.4020 -0.6023 -2.1454
 1074SOL    HW214685   0.748   3.899   3.315  1.4517 -1.3920 -0.0008
 1075SOL     OW14686   0.329   1.362   4.026  0.0227  0.0905 -0.0077
 1075SOL    HW114687   0.395   1.298   3.998  0.2700  0.9281 -1.3200
 1075SOL    HW214688   0.328   1.348   4.121 -0.9046 -1.7812 -0.2956
 1076SOL     OW14689   4.524   1.694  17.258  0.3891 -0.1079 -0.2765
 1076SOL    HW114690   4.512   1.789  17.260  0.5519 -0.1200  1.7936
 1076SOL    HW214691   4.571   1.674  17.339 -0.1890 -0.6640 -0.0772
 1077SOL     OW14692   3.522   0.369   3.322 -0.0283 -0.3375 -0.0750
 1077SOL    HW114693   3.583   0.345   3.252  0.6971 -0.5421  0.6295
 1077SOL    HW214694   3.573   0.336   3.396  0.6118 -0.6726 -0.6630
 1078SOL     OW14695   3.620   2.679   4.167  0.0373  0.5486 -0.1692
 1078SOL    HW114696   3.628   2.610   4.233 -0.9616  0.1232 -0.4800
 1078SOL    HW214697   3.684   2.745   4.191  0.3077  0.8034 -1.6229
 1079SOL     OW14698   0.404   2.272  14.956 -0.3744 -0.8475 -0.0585
 1079SOL    HW114699   0.450   2.190  14.939  0.1468 -0.3209 -1.1512
 1079SOL    HW214700   0.409   2.313  14.870  0.5865 -1.4236 -0.2724
 1080SOL     OW14701   1.798   4.193   1.316 -0.3473  0.3110 -0.3581
 1080SOL    HW114702   1.765   4.142   1.390  0.5988 -1.3926 -1.1358
 1080SOL    HW214703   1.722   4.250   1.305 -1.2894 -0.4918  1.9177
 1081SOL     OW14704   0.323   4.335   1.740  0.3145 -0.0144 -0.5869
 1081SOL    HW114705   0.406   4.293   1.715  0.0792 -0.0412 -1.3385
 1081SOL    HW214706   0.271   4.261   1.771 -2.3317  0.9505 -2.7642
 1082SOL     OW14707   1.879   3.255   7.722 -0.1854  0.3009 -0.2103
 1082SOL    HW114708   1.913   3.277   7.635  0.4265 -1.2682 -0.3664
 1082SOL    HW214709   1.948   3.292   7.777  0.2908 -0.0481 -0.5765
 1083SOL     OW14710   3.669   1.612   3.012  0.0323  0.0498 -0.2374
 1083SOL    HW114711   3.646   1.612   2.919 -0.0099  1.5166 -0.2230
 1083SOL    HW214712   3.700   1.522   3.015 -3.0495 -0.9434  1.3258
 1084SOL     OW14713   2.690   0.807   6.251  0.0097 -0.1495 -0.0486
 1084SOL    HW114714   2.747   0.746   6.203  0.7410  0.8681 -0.4748
 1084SOL    HW214715   2.753   0.853   6.306  0.9403  0.4464 -1.6094
 1085SOL     OW14716   3.007   0.694   3.015 -0.4622  0.2336 -0.5186
 1085SOL    HW114717   2.959   0.777   3.018 -1.0661 -0.1379  0.0636
 1085SOL    HW214718   3.049   0.711   3.099  0.0671  0.3642 -0.8072
 1086SOL     OW14719   4.013   0.027   6.474 -0.2483  0.0024 -0.2629
 1086SOL    HW114720   3.984   4.669   6.518  1.5310 -0.1827  0.5719
 1086SOL    HW214721   3.995   0.009   6.381  0.8732 -1.8595 -0.1125
 1087SOL     OW14722   3.810   3.887   7.975 -0.1512 -0.8553 -0.0217
 1087SOL    HW114723   3.734   3.838   8.006 -1.3419  0.3890 -0.9849
 1087SOL    HW214724   3.874   3.817   7.966  2.1412  1.2223  0.1128
 1088SOL     OW14725   0.931   2.522  13.246  0.1519  0.7796 -0.1335
 1088SOL    HW114726   0.848   2.565  13.260 -1.1123 -2.3706  2.0568
 1088SOL    HW214727   0.981   2.599  13.219 -0.3590  0.1195 -2.9702
 1089SOL     OW14728   2.663   3.268   5.806 -0.2511 -0.3723 -0.0483
 1089SOL    HW114729   2.734   3.287   5.744 -0.4498  2.6087  0.6437
 1089SOL    HW214730   2.716   3.224   5.872  0.3613 -0.2615 -0.4639
 1090SOL     OW14731   2.641   2.414   2.240  1.0004  0.0275 -0.1360
 1090SOL    HW114732   2.594   2.332   2.227 -0.1613  0.8074 -0.8494
 1090SOL    HW214733   2.575   2.481   2.222 -1.6841 -1.9497  2.3387
 1091SOL     OW14734   0.957   2.053   9.197  0.2758  0.0931 -0.0175
 1091SOL    HW114735   0.969   2.006   9.279 -0.6723 -1.2125 -0.6249
 1091SOL    HW214736   1.046   2.042   9.164  0.0427 -0.4824 -0.4682
 1092SOL     OW14737   3.532   4.581   0.114 -0.2869 -0.0693 -0.1963
 1092SOL    HW114738   3.581   4.610   0.191  0.1878  2.7619 -1.5518
 1092SOL    HW214739   3.465   4.649   0.110 -0.3469 -0.1135  0.1549
 1093SOL     OW14740   3.606   1.165   2.244 -0.2425 -0.0309  0.3009
 1093SOL    HW114741   3.552   1.088   2.260  0.1333 -0.0239  1.6787
 1093SOL    HW214742   3.692   1.128   2.222  0.5188 -0.1325  3.4370
 1094SOL     OW14743   3.957   1.603   2.829 -0.4931 -0.7043 -0.6480
 1094SOL    HW114744   3.903   1.525   2.820 -1.7116 -0.1250  1.5269
 1094SOL    HW214745   3.977   1.594   2.922 -0.4113  1.0620 -0.5033
 1095SOL     OW14746   3.540   4.622   7.098  0.3467  0.1716  0.3477
 1095SOL    HW114747   3.586   4.674   7.164  0.6707 -0.9630  1.0195
 1095SOL    HW214748   3.532   4.541   7.148  0.1320  1.6892  2.7135
 1096SOL     OW14749   2.699   2.418   4.521  0.0922  0.1565 -0.2310
 1096SOL    HW114750   2.723   2.507   4.496 -0.1770  0.0578 -0.8291
 1096SOL    HW214751   2.756   2.378   4.455 -0.3612 -0.3167 -0.3364
 1097SOL     OW14752   2.744   0.691   2.509 -0.0386 -0.0510  0.3944
 1097SOL    HW114753   2.725   0.735   2.592  2.9503 -0.0766  1.1027
 1097SOL    HW214754   2.750   0.769   2.454  0.8817  0.2003  0.8576
 1098SOL     OW14755   0.054   0.315   2.905 -0.4874  0.5411 -0.0282
 1098SOL    HW114756   0.062   0.302   2.810 -1.5534 -1.1652  0.1154
 1098SOL    HW214757   4.717   0.391   2.902 -0.8256  0.3037  0.4500
 1099SOL     OW14758   1.249   4.682  10.031  0.4199  0.3533  0.3289
 1099SOL    HW114759   1.247   0.055  10.045 -0.6407  0.1969  1.2477
 1099SOL    HW214760   1.314   4.671  10.100  0.1565  1.6856  0.7895
 1100SOL     OW14761   3.321   3.660   2.008  0.3473 -0.5524  0.4974
 1100SOL    HW114762   3.245   3.605   1.991  1.3171 -1.2802 -1.4299
 1100SOL    HW214763   3.348   3.673   1.918  0.0565  0.9478  0.6203
 1101SOL     OW14764   3.832   2.329   7.968 -0.3380  0.4572 -0.2184
 1101SOL    HW114765   3.810   2.401   7.908 -0.9970 -1.8198 -2.7197
 1101SOL    HW214766   3.866   2.375   8.045 -0.6293 -1.7049  1.1922
 1102SOL     OW14767   3.000   4.024  15.267 -0.6421 -0.3143 -0.5567
 1102SOL    HW114768   3.059   4.084  15.220  0.6590 -1.4478 -0.3548
 1102SOL    HW214769   3.000   4.063  15.355  0.9497  1.7850 -1.4789
 1103SOL     OW14770   0.891   2.928  14.483  0.1386 -0.2973  0.1881
 1103SOL    HW114771   0.837   2.852  14.502  2.7787 -2.2597 -0.0396
 1103SOL    HW214772   0.827   2.997  14.472  1.7852  1.2769  0.4777
 1104SOL     OW14773   0.544   1.507   1.532 -0.2319  0.5326  0.2087
 1104SOL    HW114774   0.633   1.492   1.502 -0.2223  0.2789  0.3673
 1104SOL    HW214775   0.558   1.513   1.627  2.6499 -0.4354 -0.1673
 1105SOL     OW14776   1.831   2.492   4.821  0.5495  0.3226 -0.5399
 1105SOL    HW114777   1.856   2.430   4.753  0.7393  3.0658 -2.9620
 1105SOL    HW214778   1.768   2.552   4.781 -1.3388  0.3231  2.4215
 1106SOL     OW14779   0.277   2.173  13.855  0.4969  0.0653 -0.2098
 1106SOL    HW114780   0.198   2.118  13.857  0.0610  0.8205  2.7576
 1106SOL    HW214781   0.352   2.116  13.869 -0.1053 -0.5824  0.3806
 1107SOL     OW14782   0.063   3.266  16.070  0.2268  0.0033  0.2125
 1107SOL    HW114783   0.106   3.351  16.065 -1.1691  0.6592 -0.6065
 1107SOL    HW214784   0.094   3.224  15.990  1.4580  0.7468  0.2990
 1108SOL     OW14785   2.487   0.653   1.687 -0.2614  0.6898  0.1774
 1108SOL    HW114786   2.392   0.659   1.691 -0.4239 -2.2069  0.3405
 1108SOL    HW214787   2.514   0.671   1.597  1.5632 -1.2457  0.3450
 1109SOL     OW14788   4.043   1.728  12.680  0.1047  0.4313  0.2412
 1109SOL    HW114789   3.956   1.688  12.676 -0.5637  1.3472  4.7641
 1109SOL    HW214790   4.103   1.665  12.640 -1.7633 -0.3185 -1.3634
 1110SOL     OW14791   0.424   3.613   3.915  0.5894  0.9310 -0.4388
 1110SOL    HW114792   0.432   3.551   3.987  0.6434 -0.2198 -1.4389
 1110SOL    HW214793   0.353   3.668   3.949  1.7004  1.1284  1.5989
 1111SOL     OW14794   4.298   3.094  15.741  0.0640 -0.2503 -0.1508
 1111SOL    HW114795   4.232   3.057  15.799 -1.1067  1.8014 -0.1983
 1111SOL    HW214796   4.283   3.188  15.755 -0.2521 -0.5492  1.5180
 1112SOL     OW14797   3.621   2.020   9.113 -0.1761 -0.5419 -0.1100
 1112SOL    HW114798   3.607   1.928   9.090  0.5974 -0.9184  0.8956
 1112SOL    HW214799   3.676   2.009   9.191  2.3832 -0.9694 -1.9758
 1113SOL     OW14800   2.201   3.608   2.550  0.7741 -0.2967  0.5150
 1113SOL    HW114801   2.194   3.684   2.492 -0.4673  1.2842  2.7526
 1113SOL    HW214802   2.131   3.642   2.605  0.5594  0.2918 -0.1090
 1114SOL     OW14803   3.665   3.608  10.522  0.0461 -0.2437 -0.1127
 1114SOL    HW114804   3.684   3.555  10.599 -2.8034  1.2363  1.6268
 1114SOL    HW214805   3.574   3.635  10.538  0.1405  0.1663 -0.2713
 1115SOL     OW14806   3.671   2.069   7.959  0.7494  0.7749  0.0141
 1115SOL    HW114807   3.756   2.082   7.917 -0.3459 -0.6433 -2.6853
 1115SOL    HW214808   3.665   1.974   7.968 -2.5707  0.9701 -0.1094
 1116SOL     OW14809   1.171   3.679   7.143  0.0849 -0.0262 -0.3961
 1116SOL    HW114810   1.198   3.634   7.062  1.6598 -0.2141  0.2317
 1116SOL    HW214811   1.138   3.610   7.200 -1.0175  0.4591 -0.4554
 1117SOL     OW14812   1.421   2.091  14.806 -0.6158  0.0570  0.4791
 1117SOL    HW114813   1.429   2.074  14.900 -3.1187 -0.5187  0.6081
 1117SOL    HW214814   1.449   2.182  14.809 -1.5639  0.2654  2.6570
 1118SOL     OW14815   0.134   4.341   5.926  0.2323  0.4947 -0.0213
 1118SOL    HW114816   0.128   4.351   5.831 -1.6195 -0.2774  0.0116
 1118SOL    HW214817   0.049   4.379   5.949 -0.7917 -1.5439 -0.4364
 1119SOL     OW14818   1.872   2.719   8.182 -0.3309 -0.2563 -0.3168
 1119SOL    HW114819   1.798   2.768   8.147  0.2362  0.1680 -0.9191
 1119SOL    HW214820   1.833   2.676   8.258  1.8213 -0.1283  0.8819
 1120SOL     OW14821   3.142   2.482   7.396  0.8650  0.7394 -0.2639
 1120SOL    HW114822   3.079   2.444   7.457  1.8686 -1.4037 -0.5508
 1120SOL    HW214823   3.084   2.528   7.335  1.7471 -0.6803 -2.1687
 1121SOL     OW14824   1.894   2.340   1.824  0.4005  0.0283  0.0699
 1121SOL    HW114825   1.840   2.329   1.902 -0.6424 -2.4497 -1.0276
 1121SOL    HW214826   1.931   2.252   1.818 -2.5395 -1.2879  1.6840
 1122SOL     OW14827   1.418   3.025  11.003  0.3856 -0.1861 -0.1423
 1122SOL    HW114828   1.326   3.052  11.010 -0.6009 -2.9943 -1.9964
 1122SOL    HW214829   1.404   2.948  10.947  0.8054  0.2450 -0.8380
 1123SOL     OW14830   4.052   2.677   3.567 -0.3139  0.5944 -0.0865
 1123SOL    HW114831   3.994   2.748   3.596  0.7116  2.5120 -2.7251
 1123SOL    HW214832   4.022   2.610   3.628  1.2958  1.1771  1.3579
 1124SOL     OW14833   1.711   1.451   4.466 -0.6158  0.5869 -0.0893
 1124SOL    HW114834   1.690   1.409   4.550  1.5882  1.2377  0.7690
 1124SOL    HW214835   1.746   1.530   4.505 -0.3604  2.0962 -3.3708
 1125SOL     OW14836   2.384   1.363  14.040  0.3253  0.3815 -0.5246
 1125SOL    HW114837   2.347   1.282  14.075  3.5518 -0.2424  1.4915
 1125SOL    HW214838   2.311   1.413  14.076 -0.4890 -0.7467 -0.6164
 1126SOL     OW14839   0.077   0.112   2.542 -0.8787  0.2105 -0.0968
 1126SOL    HW114840   0.119   0.078   2.622 -1.1626  2.1825  0.8961
 1126SOL    HW214841   4.720   0.057   2.541 -0.1236 -0.9603  3.3354
 1127SOL     OW14842   1.420   3.204   1.250  0.4828  0.0125 -0.6294
 1127SOL    HW114843   1.447   3.175   1.338  3.2249  1.7997 -0.8755
 1127SOL    HW214844   1.491   3.173   1.194  1.5628 -0.8202  1.1939
 1128SOL     OW14845   4.172   2.761   8.604 -0.3298  0.5387  0.0966
 1128SOL    HW114846   4.118   2.738   8.679  1.6602  0.6178  1.5458
 1128SOL    HW214847   4.120   2.831   8.563 -2.2744 -0.8439  0.2017
 1129SOL     OW14848   1.517   2.045  17.492 -0.0438 -0.0889 -0.6733
 1129SOL    HW114849   1.430   2.082  17.505  1.3178  1.5927  3.5767
 1129SOL    HW214850   1.503   1.988  17.416  1.2152  0.0192 -0.9968
 1130SOL     OW14851   0.596   3.745   4.148  0.3263  0.4521 -0.1474
 1130SOL    HW114852   0.507   3.771   4.174  0.0656 -1.3260  0.7625
 1130SOL    HW214853   0.648   3.809   4.196 -0.4512  1.2021 -0.3115
 1131SOL     OW14854   1.262   2.026   2.467 -0.3370 -0.4871  0.4106
 1131SOL    HW114855   1.263   2.079   2.546  1.7409  0.7457 -0.4520
 1131SOL    HW214856   1.338   1.968   2.477 -0.9845 -0.9164  2.8111
 1132SOL     OW14857   0.973   1.753   0.728 -0.4354  0.9606  0.3241
 1132SOL    HW114858   1.066   1.739   0.708 -0.6271  0.0977  0.0136
 1132SOL    HW214859   0.977   1.844   0.698  1.1903  1.1275  1.0458
 1133SOL     OW14860   1.896   0.206   1.399 -1.0066  0.0797 -0.7864
 1133SOL    HW114861   1.952   0.251   1.462 -3.0487 -0.3455  1.3360
 1133SOL    HW214862   1.851   0.141   1.453 -1.1168  0.7290 -0.1019
 1134SOL     OW14863   0.250   1.736   3.774  0.0116  0.0696 -0.3996
 1134SOL    HW114864   0.314   1.673   3.740 -1.4395 -2.0882  0.8547
 1134SOL    HW214865   0.304   1.812   3.794  0.5166 -0.5333  0.4776
 1135SOL     OW14866   0.315   3.122   3.881 -0.3602 -0.5013  0.2301
 1135SOL    HW114867   0.296   3.123   3.974 -0.1729  0.7704  0.2450
 1135SOL    HW214868   0.234   3.091   3.841 -0.3904  2.4769 -2.0172
 1136SOL     OW14869   1.771   3.878   4.862  0.7316 -0.0537  0.0806
 1136SOL    HW114870   1.704   3.939   4.828  1.0946  0.8343  0.9552
 1136SOL    HW214871   1.845   3.891   4.803  1.4372 -1.1887  0.7340
 1137SOL     OW14872   1.680   1.441  15.264  0.4510  0.4550 -0.3489
 1137SOL    HW114873   1.612   1.454  15.198 -0.2262 -0.7704  0.1007
 1137SOL    HW214874   1.735   1.518  15.247  1.5335 -0.5589 -1.5262
 1138SOL     OW14875   4.316   0.009   1.868  0.0474 -0.5238  0.2531
 1138SOL    HW114876   4.252   4.667   1.900 -0.1313 -0.2195  0.4994
 1138SOL    HW214877   4.264   0.048   1.798 -1.6085  0.1397  1.8309
 1139SOL     OW14878   2.823   1.890   2.718  0.4668  0.0179  0.8268
 1139SOL    HW114879   2.865   1.943   2.650  0.6511  2.1735  2.6188
 1139SOL    HW214880   2.864   1.934   2.793 -0.0406 -0.1926  1.2328
 1140SOL     OW14881   0.418   3.676   6.640 -0.0755  0.1259 -0.3416
 1140SOL    HW114882   0.400   3.631   6.557 -0.6976  2.1479 -1.3241
 1140SOL    HW214883   0.474   3.750   6.615  0.2024  0.3181  0.8685
 1141SOL     OW14884   4.000   2.990   3.223 -0.1311  0.5041  0.4428
 1141SOL    HW114885   4.038   3.078   3.218 -1.0765  0.9893  1.5684
 1141SOL    HW214886   3.990   2.966   3.131  0.3904  2.5242 -0.1315
 1142SOL     OW14887   2.460   2.136   4.092  0.0025 -0.4479  0.3807
 1142SOL    HW114888   2.397   2.128   4.164 -3.1019 -1.4868 -2.4344
 1142SOL    HW214889   2.456   2.047   4.057  1.4442 -0.5202  0.3989
 1143SOL     OW14890   1.045   3.004  10.713  0.1423  0.2298 -0.3249
 1143SOL    HW114891   0.981   3.036  10.650 -0.2676 -1.7241 -0.8791
 1143SOL    HW214892   1.014   2.914  10.714  1.5845 -0.2863 -0.7828
 1144SOL     OW14893   2.402   1.904   9.680  0.2149  0.5387 -0.7254
 1144SOL    HW114894   2.394   1.816   9.716 -1.4973  0.5639 -1.0685
 1144SOL    HW214895   2.384   1.888   9.587 -1.6655 -2.8875  0.2310
 1145SOL     OW14896   1.821   0.640   7.421 -0.1299  0.6677  0.0734
 1145SOL    HW114897   1.877   0.632   7.344  1.6672  2.2701  1.2142
 1145SOL    HW214898   1.748   0.580   7.403  0.9801 -0.6616 -0.0356
 1146SOL     OW14899   2.884   0.512   5.580  0.8153 -0.5277 -0.3081
 1146SOL    HW114900   2.933   0.567   5.641 -0.0005  1.3745 -1.3706
 1146SOL    HW214901   2.810   0.570   5.565  1.5055  0.4101 -0.0641
 1147SOL     OW14902   2.448   0.604   5.920 -0.0439  0.2865  0.2302
 1147SOL    HW114903   2.436   0.688   5.877  0.8019  1.3455  2.0655
 1147SOL    HW214904   2.510   0.564   5.858  2.0943  0.3087  2.3209
 1148SOL     OW14905   1.130   3.803  15.065  0.6732  0.1563  0.6836
 1148SOL    HW114906   1.188   3.843  15.130  1.3527  0.0537  0.1418
 1148SOL    HW214907   1.173   3.719  15.046  0.4908 -0.1773  1.7352
 1149SOL     OW14908   3.322   4.162   3.912 -0.1329 -0.2976 -0.0938
 1149SOL    HW114909   3.233   4.138   3.939  0.7795 -0.6810  2.5085
 1149SOL    HW214910   3.313   4.252   3.883  1.8868  0.3014  1.1180
 1150SOL     OW14911   1.953   3.172   5.376  0.5138 -0.1017  0.7093
 1150SOL    HW114912   1.876   3.184   5.321  0.8719  1.3609  0.5255
 1150SOL    HW214913   2.009   3.116   5.322 -1.0327 -1.6976  0.7392
 1151SOL     OW14914   1.028   0.327  13.081  0.1777  0.3627 -0.5726
 1151SOL    HW114915   0.953   0.275  13.111  1.4046  0.5696  2.8093
 1151SOL    HW214916   1.093   0.257  13.072  0.6465  0.9709 -1.8983
 1152SOL     OW14917   2.104   3.026   5.239  0.0468  0.2881  0.1170
 1152SOL    HW114918   2.165   2.966   5.282 -1.8309 -0.7296  1.3794
 1152SOL    HW214919   2.165   3.072   5.181  0.5088 -0.4273  0.0317
 1153SOL     OW14920   4.599   2.570   5.270  0.5663 -0.2685  0.1550
 1153SOL    HW114921   4.520   2.544   5.222 -0.1831  2.4984 -0.1196
 1153SOL    HW214922   4.662   2.590   5.201  1.3048  0.4803  1.0395
 1154SOL     OW14923   2.789   3.188  11.525 -0.1721  0.4340  0.7190
 1154SOL    HW114924   2.751   3.198  11.612 -1.1359 -0.1899  0.3628
 1154SOL    HW214925   2.883   3.184  11.544 -0.2648 -0.4589  0.9949
 1155SOL     OW14926   2.947   2.193  14.311  0.5828 -0.3244  0.4006
 1155SOL    HW114927   2.880   2.215  14.248  1.1803  1.6917  0.4812
 1155SOL    HW214928   3.007   2.268  14.305 -1.0735  0.9017 -0.5262
 1156SOL     OW14929   2.593   3.805   0.767  0.3446 -0.4436 -0.1558
 1156SOL    HW114930   2.650   3.882   0.773 -0.6693  0.3607 -0.9122
 1156SOL    HW214931   2.509   3.851   0.758 -0.6369 -2.3881 -0.7429
 1157SOL     OW14932   2.873   3.683   3.530  0.6132 -0.1686  0.1396
 1157SOL    HW114933   2.794   3.718   3.572  1.1609  0.4793  0.6417
 1157SOL    HW214934   2.925   3.763   3.529 -0.7714  0.7486  1.1481
 1158SOL     OW14935   2.315   1.755   6.334 -0.0348 -0.1230 -0.1420
 1158SOL    HW114936   2.381   1.796   6.390  0.9018  1.4898 -2.4561
 1158SOL    HW214937   2.365   1.780   6.256 -1.1986  0.0647 -0.8247
 1159SOL     OW14938   4.226   2.934   3.880  0.0985 -0.0975  0.1653
 1159SOL    HW114939   4.156   2.870   3.873 -1.1500  1.3240 -0.4453
 1159SOL    HW214940   4.170   3.002   3.918 -0.5165 -0.1742 -0.6123
 1160SOL     OW14941   0.517   3.426   7.796  0.3693 -0.2356 -0.4369
 1160SOL    HW114942   0.441   3.421   7.738 -1.1817 -3.4258  1.8732
 1160SOL    HW214943   0.476   3.363   7.855  2.4619 -0.3512  0.9150
 1161SOL     OW14944   0.626   3.700   4.655  0.9175 -0.7702  0.1105
 1161SOL    HW114945   0.678   3.630   4.616  1.1048 -0.9518  0.6862
 1161SOL    HW214946   0.621   3.757   4.578  3.3223  0.0054  0.5338
 1162SOL     OW14947   0.301   1.310   5.714 -0.1766 -0.4024  0.2555
 1162SOL    HW114948   0.280   1.272   5.800  0.1218 -2.8853 -0.7459
 1162SOL    HW214949   0.218   1.307   5.667  1.4945  2.8231 -2.9359
 1163SOL     OW14950   0.326   0.633   0.981  0.2383 -1.1129 -0.4990
 1163SOL    HW114951   0.232   0.650   0.970 -0.1581 -2.0534  1.4184
 1163SOL    HW214952   0.352   0.675   1.063 -2.3327 -1.2643  0.4150
 1164SOL     OW14953   3.639   1.051  12.138  0.3078  0.0207 -0.5649
 1164SOL    HW114954   3.703   0.998  12.091  1.2599  0.0344  0.7026
 1164SOL    HW214955   3.579   0.983  12.168  2.3344 -1.3749  0.3070
 1165SOL     OW14956   0.858   2.371  14.226 -0.0086 -0.2688 -0.3289
 1165SOL    HW114957   0.811   2.288  14.222  0.4996 -0.6049  0.7496
 1165SOL    HW214958   0.941   2.363  14.178 -0.3868 -0.9037 -0.8786
 1166SOL     OW14959   1.536   3.229   3.298 -0.5307  0.5021  0.0802
 1166SOL    HW114960   1.519   3.245   3.390  2.5780  1.7223  0.4598
 1166SOL    HW214961   1.465   3.167   3.280  1.2091 -0.8483 -2.2430
 1167SOL     OW14962   1.352   1.269   8.310 -0.2255  0.2147  0.4736
 1167SOL    HW114963   1.257   1.257   8.308 -0.2597  0.4272  1.0052
 1167SOL    HW214964   1.370   1.295   8.400 -1.1876  2.1887  0.0974
 1168SOL     OW14965   1.769   2.092   9.291 -0.0357 -0.3457 -0.1116
 1168SOL    HW114966   1.798   2.054   9.207 -1.7081 -0.4125 -0.6634
 1168SOL    HW214967   1.824   2.057   9.361  0.3234  3.3133  1.3987
 1169SOL     OW14968   1.902   4.194   8.384  0.0378  0.1391  0.1072
 1169SOL    HW114969   1.929   4.283   8.406 -0.2017  0.1684  0.2903
 1169SOL    HW214970   1.807   4.208   8.374  0.1370  0.6297 -0.1466
 1170SOL     OW14971   0.328   4.247   3.382  0.5766  0.3443 -1.0576
 1170SOL    HW114972   0.371   4.272   3.463 -1.3327  1.4981 -0.4003
 1170SOL    HW214973   0.295   4.162   3.411  0.1934  1.2260  1.0202
 1171SOL     OW14974   0.013   0.074   3.023 -0.5956 -0.0352 -0.0220
 1171SOL    HW114975   0.106   0.049   3.029 -0.6265 -0.0332  0.4624
 1171SOL    HW214976   0.022   0.158   2.979  1.9898 -0.7409 -0.9041
 1172SOL     OW14977   2.061   2.624   0.969  0.0083 -0.3897  0.2415
 1172SOL    HW114978   2.084   2.535   0.939  0.7980  0.2379 -1.0254
 1172SOL    HW214979   2.142   2.650   1.012 -1.6615  0.9400  2.5264
 1173SOL     OW14980   4.472   0.743   2.337  0.1321  0.4174 -0.2448
 1173SOL    HW114981   4.416   0.761   2.412 -1.4691  1.4100 -1.6664
 1173SOL    HW214982   4.415   0.775   2.267 -3.0511  0.9342  2.5886
 1174SOL     OW14983   2.534   2.011   4.483 -0.1558 -0.2197 -0.5702
 1174SOL    HW114984   2.495   1.925   4.469 -2.0771  0.0529  2.9243
 1174SOL    HW214985   2.483   2.056   4.415  0.2404 -1.5479 -1.7434
 1175SOL     OW14986   3.512   0.956   4.951  0.0850  0.1304  0.0101
 1175SOL    HW114987   3.470   0.879   4.913  0.2715  0.0186  0.0275
 1175SOL    HW214988   3.491   0.932   5.041  3.0309  2.0776  1.2257
 1176SOL     OW14989   2.744   1.700   5.647  0.2616 -0.2360  0.4139
 1176SOL    HW114990   2.790   1.706   5.563 -0.6506  2.5054  0.0985
 1176SOL    HW214991   2.708   1.611   5.641 -0.2332  0.0648 -1.0674
 1177SOL     OW14992   3.611   4.056  15.205 -0.6478 -0.0801  0.4161
 1177SOL    HW114993   3.703   4.083  15.200  0.3559 -3.6062 -0.5063
 1177SOL    HW214994   3.619   3.961  15.212 -1.8377 -0.0974  1.4385
 1178SOL     OW14995   1.838   0.129  11.588 -0.0570 -0.0718  0.5503
 1178SOL    HW114996   1.751   0.149  11.554  0.2480  0.8008  0.2806
 1178SOL    HW214997   1.895   0.204  11.570  0.1988 -0.2977  0.4132
 1179SOL     OW14998   1.999   2.741   7.288  0.2973  0.1377  0.5372
 1179SOL    HW114999   2.006   2.765   7.380  0.2405  1.7812  0.1036
 1179SOL    HW215000   2.085   2.700   7.283  0.6893  1.1054 -0.5055
 1180SOL     OW15001   1.118   0.475   4.028 -0.2315  0.1511 -0.0300
 1180SOL    HW115002   1.120   0.393   4.077 -2.3217 -1.2885 -2.3158
 1180SOL    HW215003   1.161   0.452   3.946  2.7105 -2.5087  2.2931
 1181SOL     OW15004   1.576   2.173   8.630 -0.0901  0.3658  0.1101
 1181SOL    HW115005   1.640   2.114   8.669 -0.9325 -0.3545  0.4119
 1181SOL    HW215006   1.569   2.229   8.708  1.2556 -0.4747  0.8358
 1182SOL     OW15007   3.179   0.303  13.716  0.2378  0.4054 -0.0128
 1182SOL    HW115008   3.230   0.359  13.775  1.4964 -0.7922  0.0400
 1182SOL    HW215009   3.188   0.221  13.765 -1.3059  0.9419  1.1620
 1183SOL     OW15010   1.002   1.701   8.929 -0.1376  0.0257 -0.0251
 1183SOL    HW115011   0.979   1.616   8.890  3.0826 -0.7555 -0.1954
 1183SOL    HW215012   0.964   1.700   9.017 -2.9073  0.9387 -1.2253
 1184SOL     OW15013   2.943   1.899  15.713 -0.1272  0.1948  0.1560
 1184SOL    HW115014   2.879   1.840  15.672  1.4651  0.0219 -2.0968
 1184SOL    HW215015   2.971   1.844  15.785  1.7842  1.5714  0.4687
 1185SOL     OW15016   4.490   1.068  15.761 -0.1074 -0.2176  0.1717
 1185SOL    HW115017   4.444   1.117  15.693 -1.4834 -0.7287  0.7509
 1185SOL    HW215018   4.583   1.083  15.740 -0.0209  1.3588  1.6332
 1186SOL     OW15019   0.851   3.665   7.503 -0.0559 -0.1584 -0.2406
 1186SOL    HW115020   0.770   3.663   7.453 -0.0384  0.2300 -0.2849
 1186SOL    HW215021   0.819   3.626   7.584  0.8791 -1.2883 -0.4180
 1187SOL     OW15022   1.779   1.600  11.777 -0.3054  0.0225 -0.2688
 1187SOL    HW115023   1.873   1.609  11.793 -0.5229  0.8406  0.5738
 1187SOL    HW215024   1.747   1.661  11.845  2.5323  0.4207  0.7089
 1188SOL     OW15025   4.115   2.522  17.024  0.2502 -0.1412 -0.3045
 1188SOL    HW115026   4.062   2.559  17.095  2.2180  0.6510  0.7583
 1188SOL    HW215027   4.067   2.562  16.951 -1.2299  0.8903  1.2313
 1189SOL     OW15028   4.690   3.213   8.590 -0.2958  0.1822 -0.6507
 1189SOL    HW115029   4.695   3.303   8.622 -2.1449  0.4755 -1.1777
 1189SOL    HW215030   4.626   3.177   8.652  1.4496  0.4666  1.3343
 1190SOL     OW15031   4.150   0.528   7.547 -0.1479 -0.1845  0.0588
 1190SOL    HW115032   4.066   0.488   7.569  0.5070 -0.5897  1.8195
 1190SOL    HW215033   4.129   0.598   7.485  0.4855 -3.2669 -3.6462
 1191SOL     OW15034   4.061   0.908   4.374  0.2473  0.2138 -0.0018
 1191SOL    HW115035   4.096   0.977   4.430  1.1028 -1.8026  1.9647
 1191SOL    HW215036   4.119   0.836   4.400  0.2157 -0.1578 -0.9484
 1192SOL     OW15037   2.072   3.995  14.214 -0.2165  0.7780 -0.6041
 1192SOL    HW115038   2.105   4.059  14.151  0.0039  1.4121  0.1642
 1192SOL    HW215039   2.104   3.920  14.163 -1.8378  0.9556 -1.8624
 1193SOL     OW15040   0.750   3.662  15.919 -0.5403 -0.4695 -0.3088
 1193SOL    HW115041   0.753   3.758  15.924  0.6305 -0.5231 -0.0525
 1193SOL    HW215042   0.669   3.640  15.965 -0.5740  2.4340  1.0567
 1194SOL     OW15043   0.633   3.307   9.773  0.8373 -0.1500 -0.4802
 1194SOL    HW115044   0.614   3.346   9.688 -0.8088  0.4046  0.1469
 1194SOL    HW215045   0.715   3.264   9.748 -0.0182 -0.0409 -3.5172
 1195SOL     OW15046   1.246   1.425   8.985 -0.0134  0.0799  0.6679
 1195SOL    HW115047   1.228   1.414   9.078  1.9703 -1.9085  0.8324
 1195SOL    HW215048   1.159   1.451   8.955  0.5480  3.5156  2.0290
 1196SOL     OW15049   2.295   0.336   3.446 -0.3991  0.1146  0.0671
 1196SOL    HW115050   2.325   0.284   3.372 -0.4390  0.8198 -0.4484
 1196SOL    HW215051   2.336   0.295   3.522 -0.2535 -0.9476 -0.5869
 1197SOL     OW15052   4.694   4.424   3.059  0.1722 -0.0653  0.7196
 1197SOL    HW115053   0.000   4.449   2.971  2.1608 -0.0187  1.3339
 1197SOL    HW215054   0.046   4.372   3.093  1.2414  0.6856 -0.3898
 1198SOL     OW15055   1.063   2.361   2.107  0.1938  0.5173 -0.3887
 1198SOL    HW115056   1.087   2.425   2.174  0.9956 -0.3521  0.1458
 1198SOL    HW215057   1.084   2.279   2.152 -1.1973 -0.2262 -1.1065
 1199SOL     OW15058   1.862   0.591   4.506  0.0507  0.7074  0.1336
 1199SOL    HW115059   1.925   0.520   4.498 -0.1531  0.5481 -0.0530
 1199SOL    HW215060   1.776   0.554   4.527  0.1352 -0.9249 -2.4135
 1200SOL     OW15061   1.336   2.096   4.316  0.2277  0.0391 -0.0875
 1200SOL    HW115062   1.328   2.019   4.260 -1.0200  0.0565  0.0703
 1200SOL    HW215063   1.266   2.150   4.280 -1.0809 -1.3125  0.4412
 1201SOL     OW15064   0.624   1.261   0.381 -0.4292 -0.5004 -0.6474
 1201SOL    HW115065   0.618   1.356   0.378 -2.2898 -0.5837  0.6392
 1201SOL    HW215066   0.639   1.241   0.473  2.4775  0.5938 -0.9016
 1202SOL     OW15067   4.701   2.444   3.433 -0.1287 -0.3211 -0.0513
 1202SOL    HW115068   0.008   2.377   3.370  0.2036 -2.0935  1.9826
 1202SOL    HW215069   0.018   2.399   3.508  0.5401  0.0978 -0.1425
 1203SOL     OW15070   1.098   0.283   9.817 -0.1217  0.1569  0.2914
 1203SOL    HW115071   1.030   0.295   9.883  1.3474  2.1431  1.4518
 1203SOL    HW215072   1.179   0.292   9.868  1.4979 -0.6564 -2.1097
 1204SOL     OW15073   1.768   3.724   9.815 -0.4372 -0.3809 -0.1470
 1204SOL    HW115074   1.679   3.735   9.848 -1.4532 -5.4405 -1.2562
 1204SOL    HW215075   1.772   3.629   9.821 -0.6438 -0.4161 -0.5295
 1205SOL     OW15076   0.523   1.713  11.493 -0.3288  0.4520 -0.5518
 1205SOL    HW115077   0.517   1.784  11.428  3.8965  1.4233  0.1024
 1205SOL    HW215078   0.614   1.687  11.473  0.9705  2.6309  2.5434
 1206SOL     OW15079   1.264   4.497   8.346 -0.4591 -0.4004 -0.2008
 1206SOL    HW115080   1.263   4.584   8.306  1.1362 -0.7819 -1.1070
 1206SOL    HW215081   1.188   4.519   8.399 -0.7173 -1.9935  0.1002
 1207SOL     OW15082   2.864   2.304   8.405  0.5201  0.2818  0.1806
 1207SOL    HW115083   2.850   2.215   8.439 -0.9277 -0.0341 -1.2870
 1207SOL    HW215084   2.931   2.281   8.340 -1.3118 -1.4172 -1.0999
 1208SOL     OW15085   3.993   0.965   4.094  0.2870  0.4090  0.4056
 1208SOL    HW115086   4.019   0.941   4.183  0.1192 -0.3939  0.2406
 1208SOL    HW215087   4.035   0.892   4.049  0.9246  1.4953 -0.7701
 1209SOL     OW15088   3.719   4.325   6.935 -0.0172  0.3606  0.0266
 1209SOL    HW115089   3.743   4.417   6.946 -1.4708  0.5530  1.6143
 1209SOL    HW215090   3.803   4.295   6.901  0.1547  0.5566  0.2762
 1210SOL     OW15091   0.783   1.827   4.668 -0.0503  0.0229  0.4219
 1210SOL    HW115092   0.727   1.753   4.689 -0.8541  0.3282 -0.5944
 1210SOL    HW215093   0.822   1.794   4.587 -0.9956  0.4842 -0.2381
 1211SOL     OW15094   3.047   0.211  10.624 -0.6928 -0.5670 -0.1875
 1211SOL    HW115095   3.028   0.141  10.685  1.6264  0.0466  1.2063
 1211SOL    HW215096   3.082   0.273  10.688  1.2338 -0.2659 -1.5413
 1212SOL     OW15097   0.701   2.753   1.723  0.0279  0.4727 -0.0284
 1212SOL    HW115098   0.682   2.712   1.638  0.0414  1.6305 -0.5953
 1212SOL    HW215099   0.705   2.844   1.692  0.6675  0.1698 -0.8462
 1213SOL     OW15100   4.178   2.237   7.781  0.1971 -0.2980 -0.2050
 1213SOL    HW115101   4.186   2.332   7.782  1.1803 -0.3686 -0.8380
 1213SOL    HW215102   4.216   2.208   7.864 -1.5967 -2.7392 -0.2476
 1214SOL     OW15103   3.531   4.235   5.530 -0.5247  0.7175 -1.0035
 1214SOL    HW115104   3.593   4.170   5.497 -3.1670 -2.6861  0.7155
 1214SOL    HW215105   3.447   4.188   5.531  0.0679 -0.3396 -0.7416
 1215SOL     OW15106   1.365   2.702   4.928 -1.3042  0.8634  0.7569
 1215SOL    HW115107   1.318   2.730   5.006  0.8336 -0.2238  2.4467
 1215SOL    HW215108   1.441   2.761   4.932 -1.3788  0.8614  2.1250
 1216SOL     OW15109   0.389   1.635   3.423 -0.3216 -0.7464 -0.3371
 1216SOL    HW115110   0.394   1.575   3.497 -2.2040  0.5072  0.7990
 1216SOL    HW215111   0.332   1.582   3.367  0.0249 -1.3711 -0.1004
 1217SOL     OW15112   3.041   3.724   4.692 -0.8124  0.1639  0.1076
 1217SOL    HW115113   3.118   3.771   4.725  0.3601 -1.6821  0.0132
 1217SOL    HW215114   3.057   3.706   4.600 -3.2210  0.5477 -0.4009
 1218SOL     OW15115   2.498   0.404   2.508 -0.6352 -0.0005  0.0960
 1218SOL    HW115116   2.557   0.477   2.528 -0.5819  0.0598 -0.2661
 1218SOL    HW215117   2.453   0.441   2.431  2.2912 -2.6876 -2.8837
 1219SOL     OW15118   2.165   2.759   3.018  0.5779 -0.1842  0.2178
 1219SOL    HW115119   2.216   2.837   2.997  1.8589 -2.0421 -3.6058
 1219SOL    HW215120   2.168   2.716   2.933  2.0203  0.9340 -0.2890
 1220SOL     OW15121   0.549   1.975   1.223 -0.1937  0.0743  0.4381
 1220SOL    HW115122   0.580   1.935   1.141 -2.7283 -2.9089  0.9222
 1220SOL    HW215123   0.609   1.938   1.288  0.0777 -1.1982 -0.5346
 1221SOL     OW15124   2.802   4.368   3.720 -0.2871 -0.1047 -0.4950
 1221SOL    HW115125   2.872   4.382   3.656 -1.1359  1.4050 -1.0845
 1221SOL    HW215126   2.741   4.439   3.700 -0.7963 -0.6388 -0.8578
 1222SOL     OW15127   3.107   1.346   6.295 -0.0606  0.2327  0.5296
 1222SOL    HW115128   3.082   1.382   6.210  2.8438  0.0791 -0.3670
 1222SOL    HW215129   3.172   1.406   6.333  1.3705 -1.1903  0.2984
 1223SOL     OW15130   4.370   1.874  13.850 -0.1777 -0.5173 -0.2513
 1223SOL    HW115131   4.446   1.821  13.876 -1.3166 -1.9009  0.2786
 1223SOL    HW215132   4.305   1.844  13.914  1.5308 -2.5840  0.5418
 1224SOL     OW15133   3.303   3.409   0.270 -0.5336  0.5763 -0.1210
 1224SOL    HW115134   3.320   3.346   0.200 -0.4987  2.1313 -1.4994
 1224SOL    HW215135   3.381   3.393   0.323 -1.4162  0.2952  1.1159
 1225SOL     OW15136   2.240   3.999  15.712  0.5062  0.0885 -0.2159
 1225SOL    HW115137   2.234   3.911  15.673  1.3339 -0.2494  0.4176
 1225SOL    HW215138   2.180   3.998  15.786  0.6558 -0.3482 -0.0962
 1226SOL     OW15139   4.434   2.774   8.679  0.3081 -0.4392 -0.6176
 1226SOL    HW115140   4.432   2.817   8.594  0.4779  0.8921  0.0566
 1226SOL    HW215141   4.341   2.758   8.691  0.1341  2.1370  1.4788
 1227SOL     OW15142   3.607   4.307   0.072 -0.2720  0.2126 -0.5535
 1227SOL    HW115143   3.523   4.264   0.061  0.6246 -1.6637 -0.0876
 1227SOL    HW215144   3.599   4.398   0.044  1.5034  1.3428  2.5241
 1228SOL     OW15145   0.947   0.864  14.608  0.0889 -0.4078  0.0139
 1228SOL    HW115146   0.860   0.903  14.619  0.0014 -0.1502 -1.5518
 1228SOL    HW215147   1.000   0.943  14.617  0.0429 -0.2785 -0.8161
 1229SOL     OW15148   3.796   1.674   9.329 -0.1116 -0.6740  0.4468
 1229SOL    HW115149   3.752   1.619   9.393 -2.1845 -0.7375 -1.0407
 1229SOL    HW215150   3.866   1.714   9.382  0.8877 -0.6693 -0.8611
 1230SOL     OW15151   1.218   0.727   7.263  0.3336  0.3598 -0.2992
 1230SOL    HW115152   1.209   0.720   7.168 -0.0155  0.4521 -0.2740
 1230SOL    HW215153   1.286   0.794   7.258  0.6624 -0.1269 -2.3904
 1231SOL     OW15154   4.275   2.554   6.577  0.2734  0.6063 -0.3527
 1231SOL    HW115155   4.358   2.597   6.599  0.1785 -0.6171  2.3204
 1231SOL    HW215156   4.309   2.465   6.588  2.0121  1.4820  1.4152
 1232SOL     OW15157   0.506   2.230   1.938 -0.0124 -0.2112  0.7214
 1232SOL    HW115158   0.562   2.274   2.002  1.6010 -1.6559  0.2880
 1232SOL    HW215159   0.565   2.164   1.903 -1.5432 -0.3693 -1.5907
 1233SOL     OW15160   1.505   2.196   3.226  0.2506 -0.6612  0.0148
 1233SOL    HW115161   1.590   2.233   3.252  0.2440  0.5120 -1.6079
 1233SOL    HW215162   1.449   2.250   3.282  0.9567 -0.3534  0.4371
 1234SOL     OW15163   0.013   3.255   8.077 -0.3784  0.4894  0.3359
 1234SOL    HW115164   4.682   3.177   8.058 -0.4624  0.4281  0.7985
 1234SOL    HW215165   4.668   3.323   8.087 -1.4625 -0.5506  0.2507
 1235SOL     OW15166   0.300   2.419  13.918  0.2472 -0.1802  0.3238
 1235SOL    HW115167   0.327   2.332  13.888  0.6449 -0.6528  2.1026
 1235SOL    HW215168   0.251   2.458  13.845  0.7767  0.5723  0.3770
 1236SOL     OW15169   4.646   0.747   8.054 -0.2111  0.1290  0.3117
 1236SOL    HW115170   4.688   0.828   8.027 -1.1850  0.2637 -0.8291
 1236SOL    HW215171   4.561   0.765   8.014 -0.4212 -0.7635  0.3392
 1237SOL     OW15172   0.757   2.940   4.568  0.3300  0.4987 -0.1820
 1237SOL    HW115173   0.702   2.958   4.644 -1.5708 -1.4094 -1.1071
 1237SOL    HW215174   0.816   2.869   4.593 -0.3748 -0.0408 -0.0448
 1238SOL     OW15175   3.856   4.395  11.392  0.0879 -0.6284  0.1109
 1238SOL    HW115176   3.788   4.393  11.459  1.0423 -1.8374  1.0386
 1238SOL    HW215177   3.844   4.307  11.356 -3.9172  0.2263 -0.6648
 1239SOL     OW15178   2.209   1.078   8.951  0.5548 -0.8049  0.4658
 1239SOL    HW115179   2.297   1.071   8.914  1.3222 -1.4734  2.4158
 1239SOL    HW215180   2.170   0.999   8.912 -0.0969 -0.8875  1.3021
 1240SOL     OW15181   3.072   4.378   1.557  0.0983 -0.0279  0.4317
 1240SOL    HW115182   3.148   4.363   1.500 -0.1115 -1.6453  0.5938
 1240SOL    HW215183   3.096   4.326   1.633 -0.3139  0.7455  1.0879
 1241SOL     OW15184   3.795   0.122   9.511 -0.6675  0.0651 -0.0241
 1241SOL    HW115185   3.822   0.168   9.591 -2.8954 -0.1536  0.8466
 1241SOL    HW215186   3.866   0.146   9.452  0.9715 -1.7285  1.1933
 1242SOL     OW15187   3.953   3.115   5.610  0.6147  0.2333  0.4181
 1242SOL    HW115188   3.994   3.104   5.524  0.6681  0.7774  0.3718
 1242SOL    HW215189   4.016   3.075   5.670 -0.2653 -0.1136  1.1155
 1243SOL     OW15190   1.981   4.015  12.728 -0.6303 -0.4101 -0.9401
 1243SOL    HW115191   1.977   3.922  12.707  0.1805 -0.7342  0.4264
 1243SOL    HW215192   1.957   4.005  12.820 -0.3467 -1.5931 -1.0028
 1244SOL     OW15193   2.044   0.963   3.953 -0.3059 -0.4833 -0.0414
 1244SOL    HW115194   2.038   0.912   3.872 -1.0071 -0.0671 -0.2601
 1244SOL    HW215195   1.998   1.041   3.920 -1.1056  0.3104  2.8802
 1245SOL     OW15196   3.427   2.444   4.380  0.0655 -0.7115  0.3360
 1245SOL    HW115197   3.512   2.475   4.410  0.3496  0.8048 -2.0360
 1245SOL    HW215198   3.377   2.517   4.345 -0.1288 -2.0208 -2.1381
 1246SOL     OW15199   1.290   0.285  10.724 -0.3668 -0.4866 -0.2446
 1246SOL    HW115200   1.230   0.225  10.767 -1.8531 -0.8318 -2.7815
 1246SOL    HW215201   1.369   0.278  10.778  0.8025 -1.1376 -2.0389
 1247SOL     OW15202   4.420   4.065  17.272  0.0775 -0.2316 -0.1965
 1247SOL    HW115203   4.357   4.116  17.323 -0.9759  0.3181 -2.0277
 1247SOL    HW215204   4.396   4.088  17.182 -2.0783 -0.3642  0.3522
 1248SOL     OW15205   1.291   4.170   5.552 -0.8720  0.3865 -0.0745
 1248SOL    HW115206   1.383   4.196   5.540 -0.3827 -1.7973 -1.0986
 1248SOL    HW215207   1.302   4.079   5.579 -0.7390  0.5886  0.5474
 1249SOL     OW15208   3.486   1.845   6.849 -0.4101 -0.0177  0.2546
 1249SOL    HW115209   3.494   1.753   6.825 -0.0544 -0.6463  2.8639
 1249SOL    HW215210   3.479   1.868   6.756  1.0681  2.8774  0.8632
 1250SOL     OW15211   0.400   4.537   3.933 -0.5020 -0.1652  0.2338
 1250SOL    HW115212   0.326   4.503   3.882 -1.3051 -0.9623  1.9199
 1250SOL    HW215213   0.367   4.607   3.990 -0.6461  0.1730 -0.2620
 1251SOL     OW15214   1.835   2.730   2.925 -0.2294  0.2715 -0.1005
 1251SOL    HW115215   1.807   2.783   3.000  0.8405 -0.1024  0.5577
 1251SOL    HW215216   1.899   2.675   2.971  0.5268 -0.6767 -2.3152
 1252SOL     OW15217   2.005   2.840  10.225 -0.8786  0.4192 -0.3038
 1252SOL    HW115218   2.051   2.758  10.207  0.1985  0.6729  1.3357
 1252SOL    HW215219   2.029   2.886  10.144 -0.7417 -2.3182 -1.8455
 1253SOL     OW15220   3.726   1.255   5.983 -0.3576 -0.1119 -0.5891
 1253SOL    HW115221   3.704   1.327   5.924 -0.9522  1.5520  1.6535
 1253SOL    HW215222   3.641   1.230   6.017 -0.8165  1.2468 -0.7302
 1254SOL     OW15223   4.281   1.408   7.547  0.1650  0.8088  0.2319
 1254SOL    HW115224   4.218   1.473   7.577 -0.8918  0.9313 -2.2174
 1254SOL    HW215225   4.358   1.461   7.524 -0.3508  1.0557 -0.8911
 1255SOL     OW15226   4.055   4.645   8.224  0.1377 -0.3998  0.0872
 1255SOL    HW115227   4.114   4.619   8.153  1.3782 -0.3535  1.1092
 1255SOL    HW215228   4.071   4.575   8.287  1.1329  0.2693  0.5738
 1256SOL     OW15229   1.496   4.717   5.706 -0.1769  0.3806 -0.1552
 1256SOL    HW115230   1.473   4.629   5.677  1.2545  0.3407 -1.1710
 1256SOL    HW215231   1.425   0.046   5.666  0.2537 -1.3276 -3.1016
 1257SOL     OW15232   4.259   4.460   4.828 -0.7108 -0.1757  0.0773
 1257SOL    HW115233   4.209   4.386   4.794 -1.7827  0.7846 -0.4301
 1257SOL    HW215234   4.250   4.524   4.757  0.0840  0.4758  0.5550
 1258SOL     OW15235   2.074   1.240   7.308 -0.7057  0.4288 -0.6321
 1258SOL    HW115236   2.036   1.280   7.386 -1.2599  0.6133 -0.9938
 1258SOL    HW215237   2.050   1.311   7.248  0.1909  1.3399  0.0893
 1259SOL     OW15238   1.445   2.135   7.495 -0.1043 -0.8675 -0.0051
 1259SOL    HW115239   1.388   2.114   7.421  0.7406 -1.6380 -0.4478
 1259SOL    HW215240   1.517   2.076   7.470  0.7562 -0.4052  1.4013
 1260SOL     OW15241   1.581   4.700  10.675  0.0657  0.3612  0.1772
 1260SOL    HW115242   1.560   4.669  10.763  0.6704 -2.2097 -0.5631
 1260SOL    HW215243   1.495   4.696  10.633  0.4821  2.8507 -0.9125
 1261SOL     OW15244   1.047   3.617   4.456 -0.1651 -0.2780  0.6517
 1261SOL    HW115245   1.113   3.630   4.524  0.2641 -0.6533  0.3073
 1261SOL    HW215246   0.977   3.588   4.514 -0.0714  0.8027  1.3229
 1262SOL     OW15247   4.119   0.941  10.875 -0.0525  0.4082  0.0351
 1262SOL    HW115248   4.038   0.966  10.832  1.1891 -1.0168 -3.0898
 1262SOL    HW215249   4.160   1.025  10.896  2.7952 -0.5801 -1.6540
 1263SOL     OW15250   4.207   4.565  10.516  0.2379 -0.0488  0.1541
 1263SOL    HW115251   4.255   4.535  10.594 -0.8072  2.5139  1.7779
 1263SOL    HW215252   4.133   4.609  10.557  0.7762  1.9119 -0.9586
 1264SOL     OW15253   1.747   2.699   2.069 -0.2763  0.4724  0.6412
 1264SOL    HW115254   1.842   2.684   2.072 -0.6905 -1.9834  1.7533
 1264SOL    HW215255   1.737   2.604   2.069 -2.7868  0.7531 -0.7326
 1265SOL     OW15256   4.593   2.857   3.592  0.2286  0.4006  0.0758
 1265SOL    HW115257   4.574   2.933   3.648  0.8378  0.0304  0.7756
 1265SOL    HW215258   4.506   2.816   3.592  0.2332  0.3979  0.9008
 1266SOL     OW15259   0.178   3.062   4.445  0.0783  0.3913 -0.3364
 1266SOL    HW115260   0.096   3.023   4.414  0.3059  0.8508 -1.5328
 1266SOL    HW215261   0.153   3.147   4.409 -1.1021  0.2818  0.2127
 1267SOL     OW15262   3.009   4.423   3.283 -0.0881 -0.0462 -0.0524
 1267SOL    HW115263   2.996   4.348   3.225  0.5108 -0.3170  0.1646
 1267SOL    HW215264   2.945   4.486   3.249 -0.3905 -1.4378 -2.1284
 1268SOL     OW15265   1.754   3.208   3.643  0.1543  0.9053 -0.0807
 1268SOL    HW115266   1.808   3.284   3.665 -0.4701  1.3767 -0.1834
 1268SOL    HW215267   1.667   3.244   3.656 -1.5313 -2.5211 -1.9901
 1269SOL     OW15268   1.716   3.024  10.419  0.9181 -0.1614 -0.6433
 1269SOL    HW115269   1.659   3.098  10.438  2.9711  0.8409  1.6255
 1269SOL    HW215270   1.739   3.006  10.510 -0.0945 -1.8029 -0.7114
 1270SOL     OW15271   1.891   0.897   6.184 -0.3003  0.2936 -0.2551
 1270SOL    HW115272   1.967   0.890   6.127 -0.6080 -1.7937 -0.3996
 1270SOL    HW215273   1.917   0.840   6.257 -0.4840  2.2620  1.3628
 1271SOL     OW15274   3.443   2.634   5.304  0.2423  0.3002 -0.1690
 1271SOL    HW115275   3.474   2.703   5.246  1.5235 -0.7012 -0.6788
 1271SOL    HW215276   3.372   2.682   5.346  1.2709  1.2981  0.4352
 1272SOL     OW15277   4.460   3.234   4.654  0.1329  0.3624 -0.2281
 1272SOL    HW115278   4.489   3.279   4.575  0.1365 -0.2519 -0.5740
 1272SOL    HW215279   4.387   3.290   4.680 -1.2438 -1.1028 -0.9643
 1273SOL     OW15280   4.040   4.478  16.564  0.6327 -0.3130  0.4343
 1273SOL    HW115281   4.118   4.505  16.516  0.4874 -1.2366 -0.3280
 1273SOL    HW215282   3.987   4.457  16.487 -0.0818  0.9903  0.5693
 1274SOL     OW15283   0.467   2.829   5.509 -0.1954  0.4064 -0.3674
 1274SOL    HW115284   0.400   2.878   5.461 -1.2517 -0.3182  0.3770
 1274SOL    HW215285   0.551   2.875   5.503 -1.3943  2.7969  1.1334
 1275SOL     OW15286   2.104   1.397  12.763 -0.9026 -0.2279 -0.0148
 1275SOL    HW115287   2.134   1.485  12.739  0.5127 -0.9134 -0.7663
 1275SOL    HW215288   2.173   1.354  12.712 -1.4897 -1.7949  0.5389
 1276SOL     OW15289   3.911   3.805   2.175 -0.7593  0.2437  0.7520
 1276SOL    HW115290   3.853   3.730   2.163 -0.4406  0.2477 -0.8744
 1276SOL    HW215291   3.852   3.880   2.168  2.1273  2.3720 -1.2646
 1277SOL     OW15292   2.633   4.062  12.227 -0.6297 -0.2015  0.0547
 1277SOL    HW115293   2.576   4.100  12.295 -1.6457 -0.8424 -0.4368
 1277SOL    HW215294   2.717   4.084  12.267 -0.4644 -1.6520  0.5056
 1278SOL     OW15295   0.469   4.175   6.690  0.5769 -0.3689 -0.2100
 1278SOL    HW115296   0.561   4.200   6.700  0.1344  0.9560  0.4991
 1278SOL    HW215297   0.459   4.165   6.595 -3.0311  1.6171 -0.0320
 1279SOL     OW15298   2.789   1.990  11.833  0.0034  0.3895 -0.0825
 1279SOL    HW115299   2.793   1.966  11.741 -1.1772 -0.0789 -0.0146
 1279SOL    HW215300   2.805   2.083  11.819 -0.2946  0.7777  2.1447
 1280SOL     OW15301   2.637   1.452  14.113  0.5373  0.1338 -0.0157
 1280SOL    HW115302   2.653   1.516  14.044  1.6344 -1.7297 -1.4856
 1280SOL    HW215303   2.546   1.427  14.097 -0.4497  2.5005  1.9646
 1281SOL     OW15304   1.527   3.942   8.427  0.0905 -0.3159  0.8440
 1281SOL    HW115305   1.530   3.947   8.332  0.2579 -1.4873  0.7884
 1281SOL    HW215306   1.517   4.031   8.460  0.3987  0.0323 -0.0099
 1282SOL     OW15307   4.439   1.525   1.365 -0.1393  0.3559 -0.5592
 1282SOL    HW115308   4.393   1.496   1.444  0.4921 -0.9696 -0.6674
 1282SOL    HW215309   4.504   1.585   1.402 -0.0997 -0.5574  0.8812
 1283SOL     OW15310   1.428   1.124   1.900  0.3545 -0.2363 -0.7741
 1283SOL    HW115311   1.477   1.196   1.863 -1.5953  1.5770  0.1190
 1283SOL    HW215312   1.358   1.102   1.839  0.4104  0.6468 -1.1576
 1284SOL     OW15313   3.477   3.260  13.329 -0.7797 -0.0110  0.2372
 1284SOL    HW115314   3.547   3.318  13.359 -1.5585  0.4538  1.1738
 1284SOL    HW215315   3.463   3.209  13.409  1.2692  0.7151  1.0571
 1285SOL     OW15316   0.026   4.252  13.247 -0.1667 -0.1136 -0.3203
 1285SOL    HW115317   4.654   4.236  13.262 -0.1317 -1.6055 -1.6353
 1285SOL    HW215318   0.051   4.187  13.181 -3.4388 -1.2789 -0.3878
 1286SOL     OW15319   0.919   4.196  10.485  0.0208 -0.5124  0.2106
 1286SOL    HW115320   0.922   4.154  10.399 -1.1189 -1.8589  0.8195
 1286SOL    HW215321   0.925   4.289  10.463  0.5129  0.0024  2.4530
 1287SOL     OW15322   3.704   4.672   5.511 -0.1037  0.4350  0.0147
 1287SOL    HW115323   3.711   0.039   5.475  2.4204  1.0817  2.0964
 1287SOL    HW215324   3.787   4.631   5.485 -0.6620 -1.5262  1.2824
 1288SOL     OW15325   3.785   4.429   3.180  0.7741 -0.3058  0.0364
 1288SOL    HW115326   3.775   4.508   3.127 -3.2332 -0.8928 -0.1180
 1288SOL    HW215327   3.880   4.422   3.190  0.5736 -0.5065  1.7203
 1289SOL     OW15328   1.938   3.284   0.761 -0.0422  0.5271  0.3409
 1289SOL    HW115329   1.954   3.288   0.855 -1.4089 -2.1269  0.6735
 1289SOL    HW215330   1.928   3.191   0.738 -1.6591  0.4377  1.3786
 1290SOL     OW15331   1.056   1.421   3.377  0.0871  0.1289 -0.1317
 1290SOL    HW115332   1.116   1.481   3.332  1.5726 -0.5250  0.9911
 1290SOL    HW215333   1.022   1.481   3.443  0.9310 -1.8469  2.1001
 1291SOL     OW15334   1.632   2.638   4.682 -0.1176 -0.6907  0.0191
 1291SOL    HW115335   1.618   2.714   4.738 -1.9528 -1.5053  0.6692
 1291SOL    HW215336   1.591   2.657   4.597 -1.3531 -0.4074  0.6733
 1292SOL     OW15337   2.527   3.520   3.539 -0.2802  0.6348  0.0442
 1292SOL    HW115338   2.442   3.478   3.552 -0.3578  0.8427  0.2126
 1292SOL    HW215339   2.501   3.610   3.519 -0.3295  0.5830 -0.1187
 1293SOL     OW15340   1.033   4.088   8.662 -0.2326  0.4697 -0.3951
 1293SOL    HW115341   1.055   4.010   8.611 -1.9983  0.5223 -1.2203
 1293SOL    HW215342   0.990   4.142   8.596  3.8750  2.0680 -1.8084
 1294SOL     OW15343   2.004   3.310   6.296  1.3537  0.1488 -0.5834
 1294SOL    HW115344   2.066   3.377   6.328  1.1379 -0.3691  0.9182
 1294SOL    HW215345   2.071   3.251   6.262  0.4178 -0.2955 -1.6274
 1295SOL     OW15346   1.849   4.139   7.287 -0.3914  0.0030  0.3690
 1295SOL    HW115347   1.759   4.163   7.310 -1.1027 -2.8079  0.5366
 1295SOL    HW215348   1.839   4.129   7.193  1.8732  1.6809 -0.0507
 1296SOL     OW15349   3.984   1.376   5.369  0.5135  0.5646  0.0844
 1296SOL    HW115350   3.930   1.300   5.388 -0.2441  0.8733 -0.8844
 1296SOL    HW215351   4.006   1.346   5.280  1.9288  2.2607 -0.1353
 1297SOL     OW15352   4.450   0.201   2.872  0.4693  0.0614  0.5272
 1297SOL    HW115353   4.523   0.225   2.814 -2.4941  2.4172 -2.2335
 1297SOL    HW215354   4.398   0.281   2.880 -0.9094 -0.6693 -0.9843
 1298SOL     OW15355   0.079   2.902   6.234  0.4144 -0.4682 -0.5184
 1298SOL    HW115356   0.125   2.856   6.304  0.9765  1.2956  0.2674
 1298SOL    HW215357   0.121   2.987   6.222 -0.8062  0.0932 -0.8589
 1299SOL     OW15358   0.019   4.577   8.830 -0.4895 -0.6665  0.5245
 1299SOL    HW115359   0.029   4.671   8.847 -0.1931 -0.9206  1.7293
 1299SOL    HW215360   0.086   4.565   8.763 -1.1609 -2.2742  0.1605
 1300SOL     OW15361   1.633   2.862   4.474 -0.2470  0.3323  0.0005
 1300SOL    HW115362   1.677   2.839   4.392 -0.0982  3.0253 -0.6670
 1300SOL    HW215363   1.703   2.860   4.540 -0.5954  1.9811  0.4187
 1301SOL     OW15364   1.522   2.824   3.170  0.1074 -0.5029  0.3752
 1301SOL    HW115365   1.607   2.866   3.162 -1.3124  2.2930  0.2045
 1301SOL    HW215366   1.544   2.739   3.131  0.7822  1.0890 -2.6613
 1302SOL     OW15367   4.191   0.045  10.310  0.4542  0.1962  0.2534
 1302SOL    HW115368   4.286   0.055  10.304  0.6162 -0.6880  1.3529
 1302SOL    HW215369   4.191   4.706  10.385 -0.0014 -1.6972 -1.2549
 1303SOL     OW15370   0.511   0.027   6.565 -0.0944 -0.4806  0.0648
 1303SOL    HW115371   0.416   0.021   6.559 -0.0138  0.8734 -2.5710
 1303SOL    HW215372   0.516   0.116   6.531 -1.0002 -0.3882  0.1626
 1304SOL     OW15373   4.638   3.556   0.425  0.5518 -0.1494 -0.2057
 1304SOL    HW115374   4.585   3.494   0.376  1.8949 -2.3505  1.1101
 1304SOL    HW215375   4.698   3.586   0.357 -2.0990 -0.2102 -2.5611
 1305SOL     OW15376   1.749   4.265  16.129 -0.1696  0.1476 -0.1074
 1305SOL    HW115377   1.825   4.321  16.143 -1.9272  2.5802 -0.3070
 1305SOL    HW215378   1.703   4.254  16.213  1.2406 -0.7284  0.5454
 1306SOL     OW15379   3.765   3.051   3.371 -0.0994  0.6965 -0.0649
 1306SOL    HW115380   3.723   3.011   3.295  0.8179 -1.7555  0.7363
 1306SOL    HW215381   3.855   3.048   3.338  0.5724  0.7217  1.7834
 1307SOL     OW15382   2.728   4.070   2.839 -0.2343 -0.5318 -0.4274
 1307SOL    HW115383   2.764   4.152   2.871 -2.9472  0.5274 -0.0429
 1307SOL    HW215384   2.807   4.021   2.817 -0.8124 -2.3777  1.5859
 1308SOL     OW15385   2.058   0.220  16.408  0.1081  0.1964 -0.4315
 1308SOL    HW115386   2.053   0.234  16.313 -2.2138  0.2580 -0.3000
 1308SOL    HW215387   2.008   0.139  16.413 -1.4115  1.3103  2.1905
 1309SOL     OW15388   2.651   4.289   6.403  0.5720  0.1575 -0.7267
 1309SOL    HW115389   2.738   4.256   6.382  1.0977  0.3793  1.1330
 1309SOL    HW215390   2.598   4.211   6.385 -1.4734  1.0001  1.5944
 1310SOL     OW15391   2.917   1.967  11.465 -0.3144  0.6844 -0.3233
 1310SOL    HW115392   2.947   1.979  11.375 -0.7123 -0.3248 -0.5931
 1310SOL    HW215393   2.985   1.905  11.492  0.5879  1.0882 -1.6879
 1311SOL     OW15394   1.760   1.213   3.401 -0.7632 -0.0136  0.2006
 1311SOL    HW115395   1.772   1.119   3.393 -1.0465 -0.1558  1.4954
 1311SOL    HW215396   1.840   1.236   3.353  1.3832  0.5342  4.0172
 1312SOL     OW15397   3.710   2.930   5.448 -0.1448 -0.0255 -0.0604
 1312SOL    HW115398   3.790   2.969   5.482 -0.0576 -1.7342  1.7328
 1312SOL    HW215399   3.738   2.838   5.444  1.7510  0.4048  2.8507
 1313SOL     OW15400   0.245   1.732   7.587 -0.1767 -0.2011  0.1132
 1313SOL    HW115401   0.179   1.789   7.627 -1.1778 -1.5185  0.3309
 1313SOL    HW215402   0.282   1.701   7.670 -1.5772  0.6692  1.0696
 1314SOL     OW15403   3.775   0.178   7.982 -0.4258  0.0995 -0.1512
 1314SOL    HW115404   3.821   0.137   8.056 -0.4185  3.5404  1.8150
 1314SOL    HW215405   3.819   0.264   7.976  1.8914 -0.8470  2.9728
 1315SOL     OW15406   3.248   2.967   6.329  0.2013 -0.0967  0.0343
 1315SOL    HW115407   3.241   2.933   6.418 -0.8284  1.5726  0.5884
 1315SOL    HW215408   3.241   2.891   6.271  1.2217 -1.7275  2.0289
 1316SOL     OW15409   0.520   0.138   7.618  0.0735 -0.2125  0.0690
 1316SOL    HW115410   0.576   0.071   7.578  1.3503  0.8854  0.0566
 1316SOL    HW215411   0.448   0.132   7.554 -0.6628  0.1558  0.8689
 1317SOL     OW15412   1.998   3.857  11.710 -0.2318 -0.0800 -0.1387
 1317SOL    HW115413   2.086   3.850  11.747  0.5948  2.7341 -1.5175
 1317SOL    HW215414   1.948   3.790  11.757 -2.0243  0.7947 -0.7862
 1318SOL     OW15415   3.465   1.434  14.307  0.2197  0.6454 -0.0756
 1318SOL    HW115416   3.494   1.361  14.253 -0.1692 -0.5798  1.3486
 1318SOL    HW215417   3.454   1.495  14.234 -1.0430  1.4810  0.8028
 1319SOL     OW15418   1.573   0.544  14.150 -0.3637  0.5624  0.2861
 1319SOL    HW115419   1.503   0.564  14.211 -1.4916 -2.6514  0.0583
 1319SOL    HW215420   1.547   0.609  14.085 -1.3415 -2.5276 -2.4338
 1320SOL     OW15421   2.563   3.595  17.625 -0.0981  0.0515  0.6941
 1320SOL    HW115422   2.510   3.601   0.017 -0.8457  1.8090  0.0620
 1320SOL    HW215423   2.642   3.639  17.654 -2.3556  3.1276  2.2151
 1321SOL     OW15424   1.749   0.250   6.439 -0.1324 -0.1292 -0.3572
 1321SOL    HW115425   1.670   0.210   6.474 -1.4195  2.4129 -0.3410
 1321SOL    HW215426   1.798   0.170   6.418  1.6552  0.3082  2.0800
 1322SOL     OW15427   3.030   0.237  14.689  0.1477  0.6269 -0.3310
 1322SOL    HW115428   3.081   0.242  14.770 -2.0209  2.7641  0.9087
 1322SOL    HW215429   3.085   0.172  14.644  0.3495  0.9753 -0.5828
 1323SOL     OW15430   2.582   3.036  15.260  0.5908  0.3027  0.6559
 1323SOL    HW115431   2.491   3.063  15.254 -0.4397 -3.2856  0.3645
 1323SOL    HW215432   2.597   3.044  15.355  4.5482  1.6952 -0.0498
 1324SOL     OW15433   3.273   0.396   5.777  0.0024  0.3065  0.2084
 1324SOL    HW115434   3.203   0.413   5.840 -1.1284 -1.2825 -0.6130
 1324SOL    HW215435   3.233   0.422   5.695  0.9046  0.3788 -0.2069
 1325SOL     OW15436   3.888   0.174   2.617  0.5646  0.3501 -0.2828
 1325SOL    HW115437   3.969   0.128   2.593  1.1051  1.7700 -1.1743
 1325SOL    HW215438   3.910   0.265   2.596 -1.5817  0.3139 -2.6545
 1326SOL     OW15439   0.811   3.290   0.191  0.1846 -0.0871  0.6085
 1326SOL    HW115440   0.866   3.218   0.162 -0.7897 -1.4647  2.1831
 1326SOL    HW215441   0.863   3.370   0.181  0.1744 -0.1133  0.3471
 1327SOL     OW15442   3.499   1.420   2.162  0.2190  0.0498 -1.0133
 1327SOL    HW115443   3.463   1.388   2.079 -1.7368  1.0925 -0.5587
 1327SOL    HW215444   3.511   1.337   2.209 -0.4469  0.6876  0.2812
 1328SOL     OW15445   1.117   4.277   6.387 -0.3793 -0.0061  0.0553
 1328SOL    HW115446   1.031   4.251   6.420  0.0375  0.3593  1.4639
 1328SOL    HW215447   1.089   4.333   6.315  0.2129  0.8175  0.4749
 1329SOL     OW15448   1.034   1.299   5.333 -0.1065  0.1749  0.3439
 1329SOL    HW115449   1.054   1.305   5.426  2.3072  2.5560 -0.3315
 1329SOL    HW215450   1.054   1.206   5.320  0.5993  0.1626  1.6247
 1330SOL     OW15451   0.576   1.884   2.125  0.3267  0.5531  0.3918
 1330SOL    HW115452   0.571   1.795   2.159  0.6713  0.2057 -0.4578
 1330SOL    HW215453   0.637   1.933   2.180  1.0146 -1.1401  1.1079
 1331SOL     OW15454   1.974   2.109   4.414 -0.8059  0.4413 -0.2486
 1331SOL    HW115455   2.047   2.101   4.475 -0.5359 -1.0598 -0.7718
 1331SOL    HW215456   2.009   2.182   4.363 -0.5358 -0.5849 -1.5203
 1332SOL     OW15457   0.774   0.152   6.146 -0.4132  0.1924 -0.1072
 1332SOL    HW115458   0.764   0.147   6.241  0.4658 -0.0246 -0.0220
 1332SOL    HW215459   0.850   0.209   6.135  0.6781 -1.4560 -1.1478
 1333SOL     OW15460   0.522   0.627   7.931  0.6655 -0.2641 -0.2059
 1333SOL    HW115461   0.459   0.692   7.963 -0.9579 -2.0210  0.1278
 1333SOL    HW215462   0.593   0.634   7.995  0.8646  2.9003 -0.7485
 1334SOL     OW15463   0.653   0.567   9.789 -0.8196 -0.2347 -1.1035
 1334SOL    HW115464   0.594   0.499   9.821  0.0220 -1.1541 -1.5184
 1334SOL    HW215465   0.683   0.611   9.868 -1.1580 -0.5019 -0.8259
 1335SOL     OW15466   3.051   3.016   9.680 -0.0627 -0.0692 -0.4162
 1335SOL    HW115467   2.956   3.011   9.667 -0.1852  0.4797  0.2417
 1335SOL    HW215468   3.066   3.057   9.765 -0.0985 -0.9822  0.0195
 1336SOL     OW15469   4.132   4.109   4.528  0.0745  0.6600 -0.4609
 1336SOL    HW115470   4.200   4.051   4.564 -1.3364 -0.7337 -0.0275
 1336SOL    HW215471   4.050   4.059   4.533 -0.1376  1.0119 -0.4631
 1337SOL     OW15472   3.915   2.391  12.618  0.2983  0.2909  0.3363
 1337SOL    HW115473   3.969   2.398  12.539 -2.2616  0.0040 -1.4255
 1337SOL    HW215474   3.978   2.434  12.677  0.7762  0.2361 -0.1345
 1338SOL     OW15475   2.750   3.353   0.802 -0.0584  0.0263  0.6165
 1338SOL    HW115476   2.674   3.402   0.771  0.3245 -1.3912 -2.5385
 1338SOL    HW215477   2.712   3.267   0.818 -1.3567  0.8316  1.9146
 1339SOL     OW15478   4.452   4.188   3.199 -0.3059 -0.0838  0.5084
 1339SOL    HW115479   4.413   4.195   3.285 -0.3723 -2.1782  0.6444
 1339SOL    HW215480   4.379   4.162   3.143 -0.2228  1.0340 -0.1196
 1340SOL     OW15481   4.370   4.253  13.687 -0.7676 -0.0543 -0.4016
 1340SOL    HW115482   4.361   4.348  13.679 -1.6525  0.0415  1.8363
 1340SOL    HW215483   4.366   4.230  13.780 -0.8906  1.1749 -0.1001
 1341SOL     OW15484   4.002   0.034  12.108 -0.2549 -0.1348  0.5652
 1341SOL    HW115485   4.003   0.108  12.047  0.5022  0.1223  0.8951
 1341SOL    HW215486   4.077   0.052  12.164  0.1990  1.0928 -0.4381
 1342SOL     OW15487   4.577   4.593   9.213  0.0274  0.0716  0.1165
 1342SOL    HW115488   4.576   4.560   9.123 -0.0111  0.1266  0.0968
 1342SOL    HW215489   4.499   4.554   9.252  0.8627 -2.1224 -0.4396
 1343SOL     OW15490   2.483   0.136   2.615 -0.1379  0.4971 -0.1679
 1343SOL    HW115491   2.514   0.194   2.684 -1.0044  0.5342  0.1804
 1343SOL    HW215492   2.452   0.200   2.551  0.9194 -1.7620 -2.9349
 1344SOL     OW15493   3.981   3.385   5.017  0.3316 -0.3241  0.2803
 1344SOL    HW115494   4.018   3.308   4.974  2.0271  0.4110  0.4129
 1344SOL    HW215495   4.008   3.378   5.109  0.8053 -2.0351  0.0196
 1345SOL     OW15496   3.524   0.410   2.266 -0.3756  0.0462 -0.0993
 1345SOL    HW115497   3.513   0.335   2.208  1.6871  1.4935 -2.3552
 1345SOL    HW215498   3.503   0.374   2.352 -0.0737 -0.8358 -0.3981
 1346SOL     OW15499   0.772   1.634   8.710  0.1692  0.7852  0.4224
 1346SOL    HW115500   0.702   1.569   8.722  1.8266 -0.8233  1.3259
 1346SOL    HW215501   0.816   1.610   8.628 -2.3510  1.0707 -1.0432
 1347SOL     OW15502   2.813   1.979   4.949 -0.6348 -0.5159 -0.0754
 1347SOL    HW115503   2.856   2.060   4.975 -1.9862 -0.1594  1.0321
 1347SOL    HW215504   2.726   2.016   4.962 -0.1749  0.4911  0.0824
 1348SOL     OW15505   1.050   1.531   6.351 -0.5366 -0.1938 -0.3689
 1348SOL    HW115506   1.039   1.626   6.362  1.3344 -0.0073 -0.0965
 1348SOL    HW215507   1.026   1.526   6.258  0.5143 -3.6839 -0.4404
 1349SOL     OW15508   1.639   0.792  11.033 -0.2122 -0.1010 -0.4432
 1349SOL    HW115509   1.605   0.882  11.033  0.9006  0.3251  0.2467
 1349SOL    HW215510   1.609   0.760  11.118  1.6948  0.4935  0.4510
 1350SOL     OW15511   0.679   4.458  16.329 -0.2583  0.0639 -0.2552
 1350SOL    HW115512   0.638   4.545  16.324  1.7214  0.8819 -2.0340
 1350SOL    HW215513   0.698   4.446  16.236 -0.8050 -2.8100  0.0071
 1351SOL     OW15514   2.055   1.880   1.508  0.6100 -0.2884  0.1563
 1351SOL    HW115515   1.969   1.915   1.528  0.7397  0.7563 -1.1255
 1351SOL    HW215516   2.067   1.895   1.414  1.2363  2.9209  0.7312
 1352SOL     OW15517   2.371   2.375  16.125  0.1847 -0.1809 -0.2359
 1352SOL    HW115518   2.411   2.337  16.204  0.3414  3.1007  1.2545
 1352SOL    HW215519   2.322   2.446  16.168  1.5196 -0.0073  0.9929
 1353SOL     OW15520   3.554   1.181   0.202 -0.2216  0.3715  0.3445
 1353SOL    HW115521   3.637   1.135   0.213 -0.4505 -0.5031 -1.6332
 1353SOL    HW215522   3.558   1.244   0.274  0.6073  1.0149 -0.2727
 1354SOL     OW15523   1.762   2.095   2.053  0.1577 -0.0453  0.1753
 1354SOL    HW115524   1.849   2.077   2.089  1.0531 -1.8170 -2.8368
 1354SOL    HW215525   1.708   2.057   2.122  1.0155 -0.5025  0.5943
 1355SOL     OW15526   2.161   3.606   0.514 -0.1786 -0.1397  0.2774
 1355SOL    HW115527   2.066   3.592   0.511 -0.2144  0.0629  0.4464
 1355SOL    HW215528   2.162   3.690   0.467  1.8259  0.9052  2.1642
 1356SOL     OW15529   0.509   1.383  17.602 -0.2085  0.2415 -0.2199
 1356SOL    HW115530   0.478   1.305  17.649  0.2335 -0.2321 -0.7126
 1356SOL    HW215531   0.603   1.382  17.617 -0.3330  0.4153  0.5818
 1357SOL     OW15532   4.145   1.271   8.763  0.3378 -0.3751  0.4770
 1357SOL    HW115533   4.166   1.324   8.840  2.0628 -1.6936  0.9240
 1357SOL    HW215534   4.172   1.335   8.697  0.5572 -0.2017  0.7309
 1358SOL     OW15535   2.456   4.014   2.805 -0.0363  0.5587  0.2371
 1358SOL    HW115536   2.548   4.036   2.819  0.5214 -2.2791  1.1905
 1358SOL    HW215537   2.456   3.982   2.715 -2.0081  2.4970 -0.4550
 1359SOL     OW15538   0.048   1.525  15.544  0.5373  0.6255  0.0213
 1359SOL    HW115539   0.034   1.431  15.549  0.3332  0.7016  0.9080
 1359SOL    HW215540   4.706   1.545  15.614  3.2553  3.2351  1.7477
 1360SOL     OW15541   0.218   3.166   6.243 -0.0093 -0.2307 -0.2028
 1360SOL    HW115542   0.256   3.192   6.327 -0.3328  2.7010 -0.9743
 1360SOL    HW215543   0.296   3.165   6.188 -1.0552 -1.2691 -1.6596
 1361SOL     OW15544   1.719   2.542  15.291  0.6008 -0.0609 -0.4514
 1361SOL    HW115545   1.625   2.546  15.270  0.4175  0.9085  0.5777
 1361SOL    HW215546   1.749   2.602  15.223 -0.6159 -1.1067 -1.9291
 1362SOL     OW15547   2.421   4.138   8.208 -0.0966 -0.3842  0.6213
 1362SOL    HW115548   2.478   4.090   8.268 -0.5898 -3.0187 -1.0328
 1362SOL    HW215549   2.406   4.223   8.250 -1.2758 -0.8797  1.2006
 1363SOL     OW15550   0.526   3.422  14.893  0.5272  0.1239  0.0300
 1363SOL    HW115551   0.566   3.505  14.920 -1.5683  1.2834 -0.4212
 1363SOL    HW215552   0.539   3.358  14.963  1.3121 -0.7936 -0.9546
 1364SOL     OW15553   1.907   1.770   1.156 -0.1065  0.4826  0.2755
 1364SOL    HW115554   1.914   1.692   1.101 -1.8888 -0.0661  0.8374
 1364SOL    HW215555   1.817   1.761   1.185  0.4850 -2.1065  1.2372
 1365SOL     OW15556   4.222   3.006   6.447  0.9176  0.0700 -0.2536
 1365SOL    HW115557   4.317   3.012   6.456  1.0215 -0.0789 -1.1926
 1365SOL    HW215558   4.199   3.062   6.521  0.6541 -0.5906  0.1684
 1366SOL     OW15559   0.726   4.609   6.382  0.5211  0.2446  0.1518
 1366SOL    HW115560   0.685   4.651   6.457 -0.5082 -0.6411  0.0960
 1366SOL    HW215561   0.815   4.643   6.377  1.1460 -1.4302 -0.0957
 1367SOL     OW15562   2.617   2.168   1.114 -0.5078  0.3897 -0.2690
 1367SOL    HW115563   2.635   2.262   1.107  2.7044 -0.1447  0.6992
 1367SOL    HW215564   2.606   2.164   1.209 -0.8298  0.3784 -0.3071
 1368SOL     OW15565   4.705   2.953   2.934  0.3871 -0.4351 -0.1991
 1368SOL    HW115566   4.699   3.043   2.965  2.7999 -0.5609  0.6407
 1368SOL    HW215567   0.003   2.905   3.015 -1.4701  0.1788  0.6206
 1369SOL     OW15568   4.643   1.520   3.396 -0.3464  0.9286 -0.1044
 1369SOL    HW115569   4.679   1.576   3.327  0.2531  0.0953 -0.4786
 1369SOL    HW215570   4.718   1.528   3.455 -0.3976 -2.1249  0.3844
 1370SOL     OW15571   4.096   4.670  14.888  0.1865  0.2298 -0.4117
 1370SOL    HW115572   4.050   4.613  14.825 -2.1603  0.2967  1.2427
 1370SOL    HW215573   4.165   4.606  14.906 -0.6287  0.5975  3.9549
 1371SOL     OW15574   0.891   1.625   7.529 -0.2522  1.1008  0.0393
 1371SOL    HW115575   0.797   1.635   7.546 -0.0471  3.5930 -0.1863
 1371SOL    HW215576   0.893   1.530   7.540  0.5297  1.0120 -0.8702
 1372SOL     OW15577   1.594   4.029   8.846 -0.1867  0.1461 -0.1383
 1372SOL    HW115578   1.688   4.016   8.848 -0.4186 -1.4447  0.0560
 1372SOL    HW215579   1.571   4.052   8.937  0.8040 -0.5679  0.2975
 1373SOL     OW15580   0.214   2.996   0.205 -0.5306  0.5668  0.3991
 1373SOL    HW115581   0.228   3.084   0.170  0.4754  1.0154  1.9535
 1373SOL    HW215582   0.157   3.018   0.279  1.0803 -0.6491  2.0078
 1374SOL     OW15583   3.045   1.868   5.101  0.0230  0.0479  0.1210
 1374SOL    HW115584   2.992   1.825   5.033  0.1800 -1.6730  1.0954
 1374SOL    HW215585   3.015   1.959   5.091  0.1605  0.0618 -0.1832
 1375SOL     OW15586   3.566   4.559  16.635 -0.6009 -0.0098  0.8140
 1375SOL    HW115587   3.566   4.613  16.556  3.3373  1.1752  1.6513
 1375SOL    HW215588   3.578   4.618  16.709  0.9916 -2.1911  2.2995
 1376SOL     OW15589   2.235   3.559   1.670 -0.1015  0.0128 -0.0311
 1376SOL    HW115590   2.289   3.615   1.725 -1.4997  0.8535  0.4866
 1376SOL    HW215591   2.175   3.620   1.627 -0.8658 -0.5212  0.2793
 1377SOL     OW15592   2.997   1.143   6.696 -0.6229 -0.5221 -0.0760
 1377SOL    HW115593   2.995   1.238   6.696  1.1843 -0.4736 -0.7893
 1377SOL    HW215594   3.081   1.128   6.652  0.2336  1.4516  0.8857
 1378SOL     OW15595   1.112   0.074   5.450  0.3328  0.2588 -0.7644
 1378SOL    HW115596   1.044   0.117   5.501 -1.2397 -1.2385 -1.5882
 1378SOL    HW215597   1.060   0.011   5.400  1.5410 -0.0981 -1.5768
 1379SOL     OW15598   2.715   2.923   4.076  0.3135 -0.7868  0.7410
 1379SOL    HW115599   2.800   2.899   4.039 -0.2862  0.0173 -1.1583
 1379SOL    HW215600   2.692   2.849   4.132 -0.2440 -0.0254  1.5037
 1380SOL     OW15601   1.052   2.122   8.106  0.0740 -0.8112 -0.0549
 1380SOL    HW115602   1.145   2.111   8.085  0.1641  0.0757 -0.1129
 1380SOL    HW215603   1.055   2.195   8.167  0.3211  1.1763 -2.4285
 1381SOL     OW15604   1.471   0.599   7.164 -0.4209 -0.7749  0.5166
 1381SOL    HW115605   1.494   0.550   7.244  1.1809 -2.1010 -0.7711
 1381SOL    HW215606   1.476   0.689   7.196 -2.4153 -0.3048 -0.5251
 1382SOL     OW15607   0.195   1.512   3.234 -0.0965  0.0086  0.2368
 1382SOL    HW115608   0.109   1.534   3.197 -0.5606 -0.1693  1.2130
 1382SOL    HW215609   0.200   1.419   3.210  2.6371  0.5302 -1.1748
 1383SOL     OW15610   0.271   3.390   9.203 -1.2479 -0.0682 -0.0438
 1383SOL    HW115611   0.343   3.349   9.154 -0.7432 -1.5444  1.9103
 1383SOL    HW215612   0.232   3.312   9.241 -0.8260  0.5379  1.6322
 1384SOL     OW15613   3.362   0.325  10.302 -0.3692  0.4754 -0.8045
 1384SOL    HW115614   3.273   0.360  10.308 -0.8117 -0.8200  0.2894
 1384SOL    HW215615   3.359   0.278  10.386 -3.4099 -0.1398 -1.2456
 1385SOL     OW15616   2.690   2.500  12.078  0.2398 -0.3834 -0.5060
 1385SOL    HW115617   2.670   2.417  12.034 -0.4114 -0.8918  0.7428
 1385SOL    HW215618   2.618   2.559  12.056 -1.6594 -1.8531  1.7194
 1386SOL     OW15619   0.599   3.132   1.980 -0.1200 -0.2177 -0.3800
 1386SOL    HW115620   0.549   3.139   2.062  0.2558 -1.4255 -0.0459
 1386SOL    HW215621   0.528   3.159   1.922 -0.9542  0.9181  1.1743
 1387SOL     OW15622   0.612   0.865   4.469  0.3020 -0.3067  0.3964
 1387SOL    HW115623   0.618   0.946   4.418 -2.8700  0.9064  1.9091
 1387SOL    HW215624   0.604   0.904   4.556  1.6837 -0.5789  0.6318
 1388SOL     OW15625   0.553   2.731  12.114  0.0241 -0.2363 -0.4206
 1388SOL    HW115626   0.542   2.655  12.171  2.1736 -0.8407 -0.7990
 1388SOL    HW215627   0.471   2.780  12.105 -0.2483 -0.5974  0.0785
 1389SOL     OW15628   4.121   2.729   9.811 -0.1187 -0.3384  0.0765
 1389SOL    HW115629   4.190   2.721   9.746 -2.1968  1.2077 -2.2836
 1389SOL    HW215630   4.087   2.639   9.810 -0.9214 -0.0341  0.1006
 1390SOL     OW15631   3.398   3.554  14.889  0.1888  0.2044 -0.1393
 1390SOL    HW115632   3.426   3.592  14.806 -2.1018  0.8277 -0.6444
 1390SOL    HW215633   3.415   3.618  14.959 -1.1402  1.6065 -1.0955
 1391SOL     OW15634   3.546   0.112   7.846  0.1779 -0.0916  0.0026
 1391SOL    HW115635   3.510   0.028   7.874 -0.0989 -0.5641 -1.7488
 1391SOL    HW215636   3.621   0.127   7.904 -1.1059  0.0409  1.6315
 1392SOL     OW15637   3.759   1.311   3.142  0.0996 -0.0108 -0.3718
 1392SOL    HW115638   3.789   1.228   3.106  1.7158  0.8465 -0.9898
 1392SOL    HW215639   3.830   1.340   3.199 -0.7100  0.0092  0.6310
 1393SOL     OW15640   0.903   1.882  14.038  0.3086  0.2638  0.1236
 1393SOL    HW115641   0.813   1.849  14.043  0.9352 -1.1936  1.8404
 1393SOL    HW215642   0.941   1.835  14.112 -3.3352 -3.5644 -0.3974
 1394SOL     OW15643   3.986   1.383   3.295 -0.9715 -0.0751 -0.6235
 1394SOL    HW115644   4.065   1.391   3.349 -0.7092  0.9297 -1.1649
 1394SOL    HW215645   3.925   1.367   3.367 -0.0962  0.3728  0.2212
 1395SOL     OW15646   2.954   2.231   4.043  0.2706  0.2531  0.2430
 1395SOL    HW115647   2.871   2.240   3.997 -1.4086 -1.9222  2.8467
 1395SOL    HW215648   3.003   2.213   3.963 -0.9508  1.3384 -0.7539
 1396SOL     OW15649   1.905   2.856   5.135 -0.3853 -0.1390  0.3740
 1396SOL    HW115650   1.850   2.855   5.213  0.8030  1.4866  1.2246
 1396SOL    HW215651   1.968   2.926   5.149  0.2788 -0.1008 -2.8580
 1397SOL     OW15652   3.188   2.999  13.349  0.2791 -0.0349  0.0155
 1397SOL    HW115653   3.268   3.022  13.396 -0.2072  1.1495  0.2536
 1397SOL    HW215654   3.123   3.053  13.393  1.6722  1.4370  0.2759
 1398SOL     OW15655   1.075   4.198   6.782 -0.2948 -0.3641  0.4909
 1398SOL    HW115656   1.091   4.144   6.860  1.0262 -1.7539 -0.7323
 1398SOL    HW215657   1.014   4.262   6.817 -0.3487 -1.0190  1.6109
 1399SOL     OW15658   2.865   0.513  12.790 -0.0034 -0.4390  0.1563
 1399SOL    HW115659   2.829   0.434  12.829 -1.1838  0.1629  0.2718
 1399SOL    HW215660   2.848   0.484  12.700  1.0990  2.5658 -1.0480
 1400SOL     OW15661   4.138   2.280   4.127  0.1285  0.1226  0.4009
 1400SOL    HW115662   4.198   2.301   4.199 -0.7669 -0.0855  1.2095
 1400SOL    HW215663   4.153   2.187   4.111 -1.9288 -0.1230 -0.0556
 1401SOL     OW15664   1.929   4.104   0.747  0.3024 -0.5819  0.9574
 1401SOL    HW115665   1.931   4.199   0.734 -0.8098 -0.6527  0.1574
 1401SOL    HW215666   1.865   4.078   0.680  1.6300  0.2493 -0.6115
 1402SOL     OW15667   2.724   0.970   2.018  0.2297 -0.2690  0.4450
 1402SOL    HW115668   2.690   0.891   1.977 -0.0249 -0.7138  1.5271
 1402SOL    HW215669   2.792   0.996   1.955  0.0190 -2.6755 -0.7862
 1403SOL     OW15670   3.064   1.707   9.586 -0.0912  0.2246 -0.2786
 1403SOL    HW115671   3.069   1.798   9.560 -0.8001  0.4417  0.3525
 1403SOL    HW215672   3.073   1.701   9.681  2.2333  0.1450 -0.4896
 1404SOL     OW15673   1.315   1.355   4.647 -0.0516 -0.1723 -0.8229
 1404SOL    HW115674   1.242   1.399   4.691 -0.0754 -0.2984 -0.7387
 1404SOL    HW215675   1.372   1.332   4.720 -1.5303 -2.6531 -0.4518
 1405SOL     OW15676   1.853   2.432  16.057 -0.1681  0.2911 -0.3606
 1405SOL    HW115677   1.882   2.406  16.144 -0.8143 -1.1280 -0.5704
 1405SOL    HW215678   1.905   2.382  15.994  0.4461  1.1473 -0.5417
 1406SOL     OW15679   2.810   4.167  12.416  0.8583  0.1980 -0.5417
 1406SOL    HW115680   2.732   4.192  12.464  1.0404 -1.6380  0.7124
 1406SOL    HW215681   2.871   4.230  12.454  0.7881 -2.2254  3.5525
 1407SOL     OW15682   1.357   2.332   0.670 -0.1996 -0.1305  0.4711
 1407SOL    HW115683   1.418   2.354   0.599 -1.9333  3.7234  0.1623
 1407SOL    HW215684   1.290   2.400   0.674  0.4832  0.7855 -3.2385
 1408SOL     OW15685   2.623   0.852  11.407  0.0533  0.1344 -0.3486
 1408SOL    HW115686   2.556   0.897  11.354 -0.9678 -0.4973  0.4145
 1408SOL    HW215687   2.566   0.826  11.479  2.2913 -0.3010  1.2854
 1409SOL     OW15688   2.540   3.281   1.325 -0.6450 -0.1187  0.1861
 1409SOL    HW115689   2.602   3.320   1.387 -0.4992 -1.0762  0.6401
 1409SOL    HW215690   2.572   3.310   1.240  0.1347 -2.0366 -0.1665
 1410SOL     OW15691   1.102   1.863  17.172 -0.6102  0.0778  0.1464
 1410SOL    HW115692   1.038   1.791  17.168  0.9321 -1.4353  2.5869
 1410SOL    HW215693   1.133   1.857  17.263  0.6957 -3.5971 -0.5171
 1411SOL     OW15694   0.822   3.272   6.521  0.4946 -0.0525  0.4668
 1411SOL    HW115695   0.748   3.311   6.474  0.5255 -0.8128 -0.2059
 1411SOL    HW215696   0.895   3.294   6.462  0.7674  1.1165  1.2413
 1412SOL     OW15697   3.831   2.838   4.313  0.5289 -0.1038  0.1691
 1412SOL    HW115698   3.922   2.867   4.306  0.4284  0.0597 -0.5299
 1412SOL    HW215699   3.791   2.915   4.273 -0.9173 -0.4195  1.0183
 1413SOL     OW15700   0.476   2.326  11.115 -0.9171  0.1348 -0.0278
 1413SOL    HW115701   0.519   2.319  11.200 -1.5185  0.7262  0.3215
 1413SOL    HW215702   0.383   2.339  11.133 -1.1590  0.8814 -1.8168
 1414SOL     OW15703   4.461   2.444   3.992  0.2876 -0.3353  0.4959
 1414SOL    HW115704   4.514   2.522   3.978 -0.4087 -0.1591 -1.2198
 1414SOL    HW215705   4.372   2.476   4.004  0.4998 -0.0175  1.1958
 1415SOL     OW15706   2.208   0.441   4.782  0.0120  0.3239 -0.1343
 1415SOL    HW115707   2.144   0.511   4.775 -0.6895 -0.2813  0.2252
 1415SOL    HW215708   2.226   0.455   4.874 -2.1775 -0.0481  0.3499
 1416SOL     OW15709   3.549   3.766   9.692  0.1039 -0.2202  0.6069
 1416SOL    HW115710   3.457   3.778   9.669  0.6542  0.5686 -1.1536
 1416SOL    HW215711   3.581   3.706   9.625 -1.1501  0.4176 -0.5412
 1417SOL     OW15712   3.761   1.587   1.685  0.0673 -0.3926 -0.1269
 1417SOL    HW115713   3.685   1.576   1.628 -0.9071 -0.0356  1.1092
 1417SOL    HW215714   3.817   1.641   1.628  1.0647 -1.0090  0.2606
 1418SOL     OW15715   1.121   1.702   6.564  0.1750  0.2066  0.0784
 1418SOL    HW115716   1.148   1.749   6.643  2.7236 -1.1529  0.0088
 1418SOL    HW215717   1.055   1.642   6.600 -0.5862 -0.2677 -2.1177
 1419SOL     OW15718   0.931   3.292  15.273 -0.0988  0.1564 -0.7522
 1419SOL    HW115719   1.001   3.336  15.322 -2.5162  2.1228  0.9621
 1419SOL    HW215720   0.964   3.203  15.263  0.0619  0.1327  0.0212
 1420SOL     OW15721   0.941   3.472   3.775  0.2454 -0.6611  0.3768
 1420SOL    HW115722   0.989   3.408   3.722 -0.0126  1.5753 -2.5552
 1420SOL    HW215723   0.943   3.435   3.864 -1.2300 -1.6034  0.0289
 1421SOL     OW15724   1.789   2.183   4.158 -0.0370  0.2899  0.2292
 1421SOL    HW115725   1.878   2.190   4.123  0.8946 -0.2348  2.5435
 1421SOL    HW215726   1.743   2.233   4.090 -0.3588  0.7845  0.8138
 1422SOL     OW15727   3.225   1.717   6.377  0.5828  0.4658  0.4182
 1422SOL    HW115728   3.207   1.654   6.307  1.2417  0.2619  0.4351
 1422SOL    HW215729   3.262   1.793   6.333  1.1823  0.3689  0.7610
 1423SOL     OW15730   4.420   2.266   2.620  0.9407 -0.2572 -0.1753
 1423SOL    HW115731   4.341   2.227   2.582 -0.5130  1.2286  1.3338
 1423SOL    HW215732   4.394   2.357   2.633  0.5704  0.0514 -2.9472
 1424SOL     OW15733   2.825   4.152   3.388  0.0646 -0.0483 -1.0082
 1424SOL    HW115734   2.784   4.237   3.372 -1.1170 -0.2732  0.8830
 1424SOL    HW215735   2.765   4.118   3.454 -0.1993  0.8397 -0.7825
 1425SOL     OW15736   4.198   3.219  10.501  0.1474  0.0196 -0.2442
 1425SOL    HW115737   4.118   3.167  10.507 -0.6864  1.3759  0.3977
 1425SOL    HW215738   4.191   3.222  10.406 -0.9107 -2.4136 -0.2312
 1426SOL     OW15739   4.276   2.008   7.935  0.3004  0.1107  0.3880
 1426SOL    HW115740   4.338   2.071   7.898 -0.9958  0.5412 -1.0596
 1426SOL    HW215741   4.240   2.059   8.008 -1.2597 -0.2159 -0.1521
 1427SOL     OW15742   2.110   2.253  16.337 -0.1675 -0.2656  0.6851
 1427SOL    HW115743   2.133   2.215  16.252  0.9352 -1.1498  1.3788
 1427SOL    HW215744   2.150   2.190  16.396  0.0609  0.1291  0.9560
 1428SOL     OW15745   1.400   0.318   2.360  0.4393  0.2103 -0.1969
 1428SOL    HW115746   1.376   0.411   2.363 -1.9016 -0.3518 -0.9854
 1428SOL    HW215747   1.483   0.322   2.312  0.8085  1.1603  0.5279
 1429SOL     OW15748   3.095   0.633   2.765 -0.3113 -0.1130  0.5166
 1429SOL    HW115749   3.002   0.609   2.769 -0.1281 -0.7542  0.9981
 1429SOL    HW215750   3.099   0.675   2.851 -0.4225 -0.2075  0.5687
 1430SOL     OW15751   4.493   4.084  12.520  0.3123 -0.2904  0.1783
 1430SOL    HW115752   4.555   4.047  12.458 -0.5185 -0.2401 -0.7001
 1430SOL    HW215753   4.516   4.037  12.600  1.1336 -0.1885  0.0023
 1431SOL     OW15754   3.504   1.804   3.379 -0.2219  0.2957  0.0055
 1431SOL    HW115755   3.428   1.849   3.343 -1.3058 -1.2670  0.3588
 1431SOL    HW215756   3.570   1.873   3.374  1.5111 -1.2228  1.9587
 1432SOL     OW15757   0.580   3.617  16.353 -0.6049  0.1590 -0.4649
 1432SOL    HW115758   0.528   3.548  16.310  1.3790 -2.2387  0.9694
 1432SOL    HW215759   0.522   3.693  16.343 -1.6181 -0.6795 -0.9890
 1433SOL     OW15760   1.413   3.995  13.875 -0.8652 -0.3439  0.3803
 1433SOL    HW115761   1.407   3.905  13.907 -1.2796 -0.9249 -1.3421
 1433SOL    HW215762   1.372   3.985  13.789  1.4857  1.0649 -0.9176
 1434SOL     OW15763   0.554   0.446  13.671 -0.3261  0.0326 -0.1508
 1434SOL    HW115764   0.507   0.501  13.610 -0.5970  0.5484  0.5188
 1434SOL    HW215765   0.644   0.479  13.665 -0.9453  1.7516  0.0827
 1435SOL     OW15766   3.883   1.662   4.115 -0.1981 -0.9607  0.4431
 1435SOL    HW115767   3.914   1.750   4.093 -1.2893 -0.6716  0.1083
 1435SOL    HW215768   3.845   1.684   4.200 -0.2940 -2.2878  0.7492
 1436SOL     OW15769   0.824   3.691   3.952 -0.2605 -0.4006  0.4473
 1436SOL    HW115770   0.894   3.672   4.014  1.1837  1.0642 -0.7707
 1436SOL    HW215771   0.747   3.682   4.009  0.0634  0.2553  0.9781
 1437SOL     OW15772   4.042   2.955   4.185 -0.0283 -0.6590  0.3223
 1437SOL    HW115773   4.041   2.993   4.097  0.2775 -1.2971  0.0397
 1437SOL    HW215774   4.047   3.026   4.249  0.0109  0.2875 -0.7272
 1438SOL     OW15775   4.391   1.397   3.319  0.4107  0.8706 -0.3343
 1438SOL    HW115776   4.484   1.420   3.317  0.6893 -0.3040 -0.3146
 1438SOL    HW215777   4.362   1.417   3.230 -0.5719  0.1106 -0.1837
 1439SOL     OW15778   2.834   4.317   5.249  0.0084  0.0547 -0.2658
 1439SOL    HW115779   2.906   4.257   5.270  1.0423  1.2004 -0.5705
 1439SOL    HW215780   2.765   4.251   5.235  2.3431 -2.1959 -1.1966
 1440SOL     OW15781   1.490   1.474  10.520  0.3221  0.3887 -0.2019
 1440SOL    HW115782   1.543   1.407  10.563 -2.5819 -1.3319  0.7002
 1440SOL    HW215783   1.546   1.551  10.523  1.2379 -0.2611 -0.7535
 1441SOL     OW15784   0.098   2.063   2.697  0.0781  0.0678 -0.4221
 1441SOL    HW115785   0.018   2.081   2.647 -1.2030 -0.3754  1.4665
 1441SOL    HW215786   0.150   2.001   2.645  1.4258  1.6458 -0.9339
 1442SOL     OW15787   0.077   2.624   4.153  0.4682  0.2430 -0.7827
 1442SOL    HW115788   0.087   2.594   4.243 -0.1737  2.3858 -0.0217
 1442SOL    HW215789   0.066   2.542   4.104  2.8177 -1.7118  2.0171
 1443SOL     OW15790   2.184   3.142   6.535 -0.2156 -0.0339 -0.1721
 1443SOL    HW115791   2.139   3.109   6.457  1.9269 -0.4036 -1.2823
 1443SOL    HW215792   2.115   3.197   6.571  1.1721  1.8132 -0.3177
 1444SOL     OW15793   1.585   4.318   7.686  0.2899  0.4102 -0.2626
 1444SOL    HW115794   1.648   4.317   7.615  2.3748 -0.1464  1.6159
 1444SOL    HW215795   1.616   4.243   7.736  1.7090  0.1010 -1.6119
 1445SOL     OW15796   0.832   1.893   8.232  0.0015  0.0974 -0.0546
 1445SOL    HW115797   0.856   1.984   8.214 -3.1899  0.3821 -3.0093
 1445SOL    HW215798   0.912   1.851   8.263  1.1132  1.4566 -1.0893
 1446SOL     OW15799   0.301   3.476   2.806 -0.1909  0.1190 -0.0950
 1446SOL    HW115800   0.341   3.397   2.843  1.3661  1.2866  0.6575
 1446SOL    HW215801   0.337   3.547   2.859 -2.1329  1.6881 -0.8857
 1447SOL     OW15802   3.017   1.647   5.956  0.2376 -0.0838 -0.2386
 1447SOL    HW115803   3.083   1.696   6.006 -0.5931  2.4263 -1.6003
 1447SOL    HW215804   3.051   1.657   5.867 -0.6235 -1.3285 -0.7016
 1448SOL     OW15805   0.980   3.508  16.005 -0.0316 -0.3117 -0.8145
 1448SOL    HW115806   1.001   3.460  15.925 -2.1216  1.6739 -2.5631
 1448SOL    HW215807   0.904   3.560  15.978  0.3101 -0.1251 -1.4078
 1449SOL     OW15808   1.239   1.410   9.798  0.6112 -0.5403 -0.0370
 1449SOL    HW115809   1.226   1.472   9.870  1.8950 -2.0370  1.4695
 1449SOL    HW215810   1.153   1.408   9.755  2.2067 -2.1101 -3.1526
 1450SOL     OW15811   1.280   2.646   3.871 -0.3413 -0.2631 -0.4476
 1450SOL    HW115812   1.190   2.647   3.905  0.9699 -2.6473  3.1341
 1450SOL    HW215813   1.268   2.652   3.776  2.3391 -2.8600 -0.9521
 1451SOL     OW15814   3.684   0.298  12.062 -0.2555  0.3973  0.6754
 1451SOL    HW115815   3.746   0.317  12.133  0.9904 -1.4959  0.1224
 1451SOL    HW215816   3.617   0.240  12.098  0.8717  0.0271  2.2077
 1452SOL     OW15817   0.701   3.312   0.423  0.0085  0.1649 -0.3527
 1452SOL    HW115818   0.714   3.309   0.328  0.6973 -0.8841 -0.2283
 1452SOL    HW215819   0.607   3.331   0.435 -0.0690 -1.0322  0.9204
 1453SOL     OW15820   2.840   2.571   9.868  0.0086 -0.8470 -0.5248
 1453SOL    HW115821   2.826   2.666   9.866 -2.2476 -1.0978  3.3352
 1453SOL    HW215822   2.754   2.537   9.894  0.2254 -0.3273  0.8842
 1454SOL     OW15823   3.500   4.128   1.447  0.1705  0.3024  0.4954
 1454SOL    HW115824   3.466   4.039   1.451 -2.8572  1.4542  0.6170
 1454SOL    HW215825   3.414   4.168   1.435  1.0510  2.1519  0.2893
 1455SOL     OW15826   0.032   2.478   3.750  0.1287  1.2256 -0.1434
 1455SOL    HW115827   4.715   2.406   3.699  1.0638  1.1328 -0.7135
 1455SOL    HW215828   0.059   2.435   3.831  2.2673 -0.6124 -1.7946
 1456SOL     OW15829   0.973   1.460   2.361  0.0697 -0.1218  0.1568
 1456SOL    HW115830   0.922   1.518   2.305  0.7230  0.8998  0.6153
 1456SOL    HW215831   1.037   1.519   2.400 -0.8169  1.5229 -0.9114
 1457SOL     OW15832   0.295   3.810   8.135 -0.3074 -0.3896  0.1534
 1457SOL    HW115833   0.236   3.779   8.067 -1.0677  0.0964  0.5971
 1457SOL    HW215834   0.239   3.880   8.169 -0.0525  0.1561 -0.5466
 1458SOL     OW15835   1.504   3.365   3.577 -0.7568  0.0119 -0.4969
 1458SOL    HW115836   1.519   3.443   3.523  2.6412 -0.5249 -0.3335
 1458SOL    HW215837   1.454   3.397   3.652  1.7184  1.9241  0.3315
 1459SOL     OW15838   4.195   1.972   7.260  0.4946 -0.2821  0.0856
 1459SOL    HW115839   4.193   1.995   7.167 -1.9319  0.4724  0.3173
 1459SOL    HW215840   4.107   1.936   7.275 -0.0786  0.4598 -1.4419
 1460SOL     OW15841   1.923   1.015   9.957  0.2810  0.2234  0.6706
 1460SOL    HW115842   1.864   1.035  10.030  1.6276  5.6510  0.2617
 1460SOL    HW215843   1.913   0.921   9.975  0.5830 -0.1053 -0.8736
 1461SOL     OW15844   4.435   3.403   7.242 -0.2762  0.7173 -0.5109
 1461SOL    HW115845   4.384   3.343   7.296  1.1581 -0.3229 -0.3175
 1461SOL    HW215846   4.470   3.462   7.309 -1.8639  1.2351 -0.1411
 1462SOL     OW15847   2.038   1.854   0.193  0.0398  0.0597 -0.0744
 1462SOL    HW115848   2.025   1.766   0.228  1.8470  0.6445  2.0694
 1462SOL    HW215849   1.993   1.908   0.257 -1.3516 -0.0971 -0.9327
 1463SOL     OW15850   0.577   4.551  10.770  0.0059 -0.1420  0.4331
 1463SOL    HW115851   0.505   4.500  10.807 -0.7590  1.6102  1.3228
 1463SOL    HW215852   0.647   4.489  10.750  0.9272  0.1483  2.7423
 1464SOL     OW15853   1.578   4.158  16.344  0.4552 -0.5158 -0.3994
 1464SOL    HW115854   1.603   4.065  16.340  1.0122 -0.3892  0.1372
 1464SOL    HW215855   1.540   4.153  16.431  0.2363  0.7026 -0.4244
 1465SOL     OW15856   4.375   3.721  16.148  1.1324  0.5328 -0.3109
 1465SOL    HW115857   4.303   3.783  16.153 -0.4231 -1.2707 -0.2544
 1465SOL    HW215858   4.359   3.660  16.220 -1.3749  2.3039  0.6092
 1466SOL     OW15859   0.586   1.333   4.357  0.0136 -0.0639  0.0071
 1466SOL    HW115860   0.633   1.348   4.275  0.5366 -1.2120  0.1073
 1466SOL    HW215861   0.547   1.250   4.331  0.8185  0.2095 -2.0923
 1467SOL     OW15862   3.837   2.409  15.689 -0.2420  0.0048  0.0898
 1467SOL    HW115863   3.824   2.416  15.594  1.1156  0.4647 -0.0609
 1467SOL    HW215864   3.917   2.461  15.697  0.3623 -1.2881  2.2284
 1468SOL     OW15865   0.459   4.648  10.525  0.0047 -0.1601 -0.0921
 1468SOL    HW115866   0.415   4.563  10.524  1.0836 -0.7345  1.2314
 1468SOL    HW215867   0.475   4.652  10.620  0.4566  0.0060 -0.1720
 1469SOL     OW15868   4.069   0.903   3.764  0.2954  0.1006  0.5289
 1469SOL    HW115869   3.978   0.928   3.746  0.4065  0.4896  0.5063
 1469SOL    HW215870   4.076   0.948   3.849  0.9889  0.8457  0.0759
 1470SOL     OW15871   4.231   3.027   0.792  0.0071  0.7500 -0.3734
 1470SOL    HW115872   4.168   3.098   0.784 -0.1138  0.6199 -0.5908
 1470SOL    HW215873   4.314   3.070   0.812  0.3869 -0.4471  0.6414
 1471SOL     OW15874   2.671   3.194   3.904 -0.1766 -0.3584 -0.9216
 1471SOL    HW115875   2.600   3.207   3.841  0.4118  0.8765 -1.3277
 1471SOL    HW215876   2.681   3.098   3.903  1.0387 -0.2557  1.8265
 1472SOL     OW15877   0.641   3.467   2.838  0.1927 -0.3366 -0.0763
 1472SOL    HW115878   0.605   3.379   2.855  1.6672 -0.5281  2.0440
 1472SOL    HW215879   0.647   3.503   2.926  2.5520 -2.0715  0.4891
 1473SOL     OW15880   0.082   4.367   4.454 -0.1694  0.0544  0.1389
 1473SOL    HW115881   0.164   4.318   4.465  0.9391  1.4379 -1.8770
 1473SOL    HW215882   0.066   4.402   4.541 -1.1711  0.1197 -0.0700
 1474SOL     OW15883   4.669   1.270   8.698  0.4350  0.2238 -0.0553
 1474SOL    HW115884   0.006   1.227   8.761 -0.3268  0.4771  0.8274
 1474SOL    HW215885   4.659   1.355   8.742 -0.8661 -0.7438  1.5167
 1475SOL     OW15886   2.609   0.390  16.290 -0.4603 -0.1792  0.5373
 1475SOL    HW115887   2.546   0.408  16.360  0.8744  1.7578  1.2465
 1475SOL    HW215888   2.647   0.303  16.303 -0.7908 -0.7061 -2.0010
 1476SOL     OW15889   1.540   2.756  12.561  0.1384 -0.9174 -0.2105
 1476SOL    HW115890   1.606   2.771  12.628 -1.5452  0.3631  1.1535
 1476SOL    HW215891   1.456   2.740  12.603  1.1841 -1.6351  1.5973
 1477SOL     OW15892   2.069   2.378   2.100 -0.4038  0.4669  0.0934
 1477SOL    HW115893   2.038   2.464   2.071 -0.4903  0.2563 -0.4493
 1477SOL    HW215894   2.089   2.345   2.012 -0.2395  0.6276  0.0708
 1478SOL     OW15895   4.234   2.990  11.759  0.1708 -0.5541  0.4709
 1478SOL    HW115896   4.207   3.040  11.682 -0.8071  0.1041  1.2480
 1478SOL    HW215897   4.329   3.000  11.747 -0.2659  2.0008 -0.9739
 1479SOL     OW15898   2.047   0.547   3.619  0.3344  0.0032  0.6802
 1479SOL    HW115899   2.045   0.499   3.702  1.1688 -1.8504 -0.3741
 1479SOL    HW215900   2.121   0.607   3.628 -0.7855  1.5212 -0.2958
 1480SOL     OW15901   2.692   0.525   2.031 -0.0140  0.3074 -0.6143
 1480SOL    HW115902   2.756   0.554   1.965  0.4717  1.0534  0.1883
 1480SOL    HW215903   2.739   0.531   2.114  3.1406 -1.5716 -2.2398
 1481SOL     OW15904   0.924   3.219  12.252 -0.5063 -0.1662  0.5017
 1481SOL    HW115905   0.837   3.239  12.218  1.1384  1.8094 -2.6244
 1481SOL    HW215906   0.975   3.295  12.225  0.0051 -0.6972 -0.0403
 1482SOL     OW15907   0.056   0.640   7.046 -0.0287 -0.3894  0.0805
 1482SOL    HW115908   0.131   0.659   7.102  0.5332 -0.3429 -0.6963
 1482SOL    HW215909   4.713   0.594   7.101 -0.3964 -0.2497 -0.2373
 1483SOL     OW15910   0.207   4.508   3.719 -0.3532  0.2618 -0.1042
 1483SOL    HW115911   0.118   4.475   3.714 -1.3279  2.4881  2.3032
 1483SOL    HW215912   0.217   4.534   3.628  1.4392 -1.0029 -0.2868
 1484SOL     OW15913   1.379   1.780   5.641 -0.1005  0.3028 -0.1555
 1484SOL    HW115914   1.408   1.706   5.587  0.4694 -0.0090  0.5755
 1484SOL    HW215915   1.425   1.852   5.598 -0.1943  0.8205  0.6044
 1485SOL     OW15916   1.304   1.524  15.328  0.1137  0.1266 -0.0924
 1485SOL    HW115917   1.300   1.428  15.334  1.0762  0.1645  1.0321
 1485SOL    HW215918   1.270   1.550  15.413  1.4764  3.4916 -0.5848
 1486SOL     OW15919   0.283   1.692  12.975  0.0829 -0.0428 -0.2569
 1486SOL    HW115920   0.205   1.669  12.924 -2.0244  1.8581  2.1517
 1486SOL    HW215921   0.345   1.699  12.903  1.3907  1.4013  1.0228
 1487SOL     OW15922   0.682   2.462   3.506 -0.2679 -0.4391  0.3372
 1487SOL    HW115923   0.687   2.466   3.601 -2.3022 -0.7010  0.4580
 1487SOL    HW215924   0.587   2.469   3.496 -0.1445 -0.4458 -0.9017
 1488SOL     OW15925   3.487   2.715  13.181 -0.2325 -0.3595 -0.1161
 1488SOL    HW115926   3.506   2.765  13.102  1.2317  0.5654  0.8237
 1488SOL    HW215927   3.498   2.624  13.151  3.9807  0.3004 -0.5842
 1489SOL     OW15928   0.004   0.121   8.878 -0.1400  0.0083 -0.9243
 1489SOL    HW115929   0.036   0.159   8.960  1.1760  0.8179 -1.8144
 1489SOL    HW215930   4.633   0.142   8.863  0.1099  1.4582 -0.3668
 1490SOL     OW15931   0.627   0.450   5.065  0.2276  0.0676 -0.1247
 1490SOL    HW115932   0.695   0.436   5.000  1.1285 -0.2411  0.8762
 1490SOL    HW215933   0.544   0.439   5.020 -0.4885  1.8411  0.7582
 1491SOL     OW15934   4.196   3.658   9.712 -0.4887 -0.4977  0.1958
 1491SOL    HW115935   4.158   3.669   9.625  0.8482 -0.3103 -0.3567
 1491SOL    HW215936   4.151   3.735   9.746  1.1148 -0.0323  1.2649
 1492SOL     OW15937   2.722   4.524   5.352  0.3380 -0.7350  0.0527
 1492SOL    HW115938   2.682   4.556   5.271 -0.4181 -1.1215  0.2773
 1492SOL    HW215939   2.797   4.472   5.325  1.5939  1.8283 -1.3939
 1493SOL     OW15940   0.028   1.232   1.595 -0.2265  0.2173 -0.7349
 1493SOL    HW115941   0.089   1.305   1.598 -0.2168  0.2005 -0.5278
 1493SOL    HW215942   0.080   1.177   1.536 -1.6343 -0.3935 -1.4215
 1494SOL     OW15943   0.679   1.242  10.157 -0.3371  0.7357  0.6091
 1494SOL    HW115944   0.647   1.308  10.219  0.3958 -0.3506  2.1401
 1494SOL    HW215945   0.667   1.164  10.211 -1.6822 -0.3691 -1.2792
 1495SOL     OW15946   0.568   1.116   8.180  0.0524 -0.0061 -0.0798
 1495SOL    HW115947   0.606   1.050   8.239 -0.3272  0.5412  0.7739
 1495SOL    HW215948   0.513   1.160   8.245  1.4476  0.5845  0.7066
 1496SOL     OW15949   0.096   1.979   8.523 -0.0013 -0.1042  0.4712
 1496SOL    HW115950   0.132   1.972   8.612  0.7896 -0.0032  0.1532
 1496SOL    HW215951   0.002   1.989   8.539  0.3203  1.9402  1.0187
 1497SOL     OW15952   1.070   2.065   6.100  0.1291 -0.1270  0.5265
 1497SOL    HW115953   0.994   2.007   6.113  0.3013 -0.3085  0.7215
 1497SOL    HW215954   1.045   2.133   6.162 -0.1848 -0.3461  0.6428
 1498SOL     OW15955   1.609   1.338   6.543 -0.2169  0.2397  0.3213
 1498SOL    HW115956   1.671   1.347   6.616 -0.9284  0.4844  0.8911
 1498SOL    HW215957   1.526   1.342   6.591  0.2289 -1.3351  1.2342
 1499SOL     OW15958   0.387   2.108   7.949  0.1148 -0.0383  0.4859
 1499SOL    HW115959   0.447   2.133   8.019  1.4223 -1.5413 -0.0857
 1499SOL    HW215960   0.376   2.014   7.964 -1.7257  0.2549  0.9978
 1500SOL     OW15961   4.444   4.372   2.994  0.1779  0.9998  0.2053
 1500SOL    HW115962   4.522   4.420   3.022  0.8787 -0.0467  0.0356
 1500SOL    HW215963   4.449   4.306   3.063  1.2684  0.7293 -0.1303
 1501SOL     OW15964   2.271   3.586   7.616 -0.7286  0.2920 -0.0871
 1501SOL    HW115965   2.241   3.565   7.528  0.7582 -1.9665 -0.0643
 1501SOL    HW215966   2.360   3.549   7.617 -1.2311 -0.9510 -2.1515
 1502SOL     OW15967   2.162   2.698   5.090 -0.1843  0.1605  0.0803
 1502SOL    HW115968   2.090   2.736   5.140 -1.0617  0.0721 -1.1159
 1502SOL    HW215969   2.113   2.656   5.019 -1.9577 -1.2507  2.1381
 1503SOL     OW15970   2.488   0.850   8.169  0.6917  0.2314 -0.3035
 1503SOL    HW115971   2.536   0.909   8.227 -1.1038 -0.3055  1.7241
 1503SOL    HW215972   2.480   0.910   8.095 -1.7462 -0.0450 -0.2676
 1504SOL     OW15973   4.122   3.288   8.444  0.0195  0.1634  0.2689
 1504SOL    HW115974   4.208   3.265   8.480 -0.3401  1.6579  2.1324
 1504SOL    HW215975   4.130   3.383   8.433 -0.6708 -0.0064 -1.5602
 1505SOL     OW15976   0.190   0.377   1.962 -0.0596  0.3578 -0.6178
 1505SOL    HW115977   0.148   0.459   1.989  2.4295  1.2385  0.5334
 1505SOL    HW215978   0.245   0.414   1.893  1.4306 -0.4033  0.1892
 1506SOL     OW15979   4.706   3.305   8.951  0.0827 -0.2929  0.0103
 1506SOL    HW115980   4.689   3.319   9.045  2.7206  1.1228  0.2771
 1506SOL    HW215981   4.624   3.316   8.904 -0.9925  0.3168  2.0092
 1507SOL     OW15982   0.660   2.760  14.114  0.1073 -0.0222  0.1306
 1507SOL    HW115983   0.704   2.717  14.188 -0.4931 -1.4940 -0.3551
 1507SOL    HW215984   0.585   2.701  14.107  0.7707 -0.7194 -1.1899
 1508SOL     OW15985   3.409   4.720  11.814  0.6275  0.3357  0.2109
 1508SOL    HW115986   3.440   4.683  11.897 -0.8223 -0.4446  0.4217
 1508SOL    HW215987   3.365   4.649  11.767  0.0195 -0.3043  1.7431
 1509SOL     OW15988   3.995   3.489  10.613 -0.2569  1.0016 -0.3856
 1509SOL    HW115989   4.046   3.412  10.637 -1.0816  1.2610  2.1256
 1509SOL    HW215990   3.948   3.510  10.693 -2.5936  0.6587 -1.6833
 1510SOL     OW15991   2.848   0.208   4.369 -0.0844  0.2546 -0.1496
 1510SOL    HW115992   2.934   0.248   4.383 -0.6324  1.4541 -0.2545
 1510SOL    HW215993   2.872   0.128   4.321 -3.4668 -0.5634 -0.4594
 1511SOL     OW15994   3.641   2.389   5.103  0.5653 -0.0896 -0.0756
 1511SOL    HW115995   3.620   2.296   5.115 -0.0949  0.0805  0.0444
 1511SOL    HW215996   3.626   2.397   5.009 -0.8644  0.1999  0.1852
 1512SOL     OW15997   3.263   0.769  11.190  0.4412 -0.3956  0.1792
 1512SOL    HW115998   3.210   0.827  11.244  1.2558  0.8517 -0.3552
 1512SOL    HW215999   3.327   0.741  11.255  2.8033 -0.8840 -2.3294
 1513SOL     OW16000   3.643   1.910   8.593  0.4528 -0.4263  0.1368
 1513SOL    HW116001   3.713   1.954   8.545  0.0040 -0.1350 -0.2630
 1513SOL    HW216002   3.578   1.980   8.586  2.8994  2.0584  2.1437
 1514SOL     OW16003   4.422   3.801   5.992 -0.5237 -0.0389 -0.1504
 1514SOL    HW116004   4.330   3.786   6.015 -0.6825  1.7425  0.4013
 1514SOL    HW216005   4.429   3.895   6.008  1.2693 -0.6458  2.7412
 1515SOL     OW16006   4.441   4.420  11.923  0.3790  0.0056  0.7788
 1515SOL    HW116007   4.367   4.476  11.900  0.6436  0.5585  1.2545
 1515SOL    HW216008   4.511   4.481  11.950 -2.9732  3.3340  1.9966
 1516SOL     OW16009   1.727   1.742   4.053  0.0277 -0.3911 -0.1909
 1516SOL    HW116010   1.723   1.806   3.982 -1.6943 -0.8617 -0.5294
 1516SOL    HW216011   1.752   1.796   4.128 -0.5213 -2.1716  1.2521
 1517SOL     OW16012   0.240   2.149  16.517 -0.3487  0.2936 -0.2645
 1517SOL    HW116013   0.207   2.230  16.477 -2.3805 -0.8671 -0.9259
 1517SOL    HW216014   0.310   2.129  16.455 -0.3944 -2.0623  0.4547
 1518SOL     OW16015   3.198   3.438   5.499  0.5516 -0.0467  0.2302
 1518SOL    HW116016   3.232   3.352   5.525  0.0110 -0.0482  0.9030
 1518SOL    HW216017   3.254   3.495   5.551 -0.6090  0.9434  0.3859
 1519SOL     OW16018   1.341   2.252   3.589 -0.1478 -0.5066 -0.3606
 1519SOL    HW116019   1.303   2.266   3.502 -1.0716  1.7865  0.3984
 1519SOL    HW216020   1.281   2.313   3.632  3.1190  2.5678 -0.0977
 1520SOL     OW16021   0.049   1.304   4.431 -0.1537  0.1606  0.0053
 1520SOL    HW116022   0.002   1.341   4.505 -0.8550  2.1330 -1.4419
 1520SOL    HW216023   4.705   1.253   4.383  0.1354  0.8837 -1.1397
 1521SOL     OW16024   0.936   2.428   6.700  0.2139 -0.1127  0.1471
 1521SOL    HW116025   0.922   2.487   6.626 -0.1700  0.1948  0.4665
 1521SOL    HW216026   0.925   2.491   6.771  2.6493  0.6786 -0.1631
 1522SOL     OW16027   2.948   0.819   4.092 -0.8244  0.0905  0.3237
 1522SOL    HW116028   2.898   0.745   4.128  2.3554 -1.5370  1.3866
 1522SOL    HW216029   2.975   0.793   4.004  0.2192  0.0341  0.6658
 1523SOL     OW16030   1.839   4.152   5.667  0.0764 -0.7929 -0.3118
 1523SOL    HW116031   1.870   4.111   5.748  0.6291  0.7716  0.2771
 1523SOL    HW216032   1.919   4.197   5.639 -0.0864  0.0378  0.5655
 1524SOL     OW16033   2.985   3.546   7.810  0.1588 -0.0781  0.0256
 1524SOL    HW116034   3.019   3.633   7.787 -1.0390  0.0967 -1.0813
 1524SOL    HW216035   2.984   3.553   7.905  0.7241  1.5189 -0.0757
 1525SOL     OW16036   3.299   0.592   4.161  0.0009  0.1622  0.3719
 1525SOL    HW116037   3.273   0.501   4.176  1.5144  0.3762  4.1682
 1525SOL    HW216038   3.364   0.618   4.226  0.6742 -3.0759  1.0070
 1526SOL     OW16039   4.202   0.757   9.536  0.5748 -0.0481  0.1487
 1526SOL    HW116040   4.187   0.823   9.603 -1.5887 -0.3683 -0.0180
 1526SOL    HW216041   4.149   0.691   9.580 -0.5515  1.5368  1.1477
 1527SOL     OW16042   0.305   4.220   4.468  0.4345  0.2525 -0.3002
 1527SOL    HW116043   0.374   4.283   4.491  1.0959  0.7932 -3.7625
 1527SOL    HW216044   0.323   4.208   4.374 -0.7966  2.5425 -0.8295
 1528SOL     OW16045   2.940   2.215   9.941 -0.1674  0.2957 -0.4187
 1528SOL    HW116046   2.937   2.177  10.029 -0.4092  1.8174  0.2181
 1528SOL    HW216047   2.984   2.139   9.902  0.8346 -1.5524  4.3168
 1529SOL     OW16048   4.256   4.224   8.214 -0.0250 -0.1267 -0.3588
 1529SOL    HW116049   4.326   4.289   8.226  1.8336 -1.9045 -1.5623
 1529SOL    HW216050   4.288   4.138   8.240  0.4685 -0.3042 -1.5750
 1530SOL     OW16051   4.203   1.369   8.293 -0.1351  0.5756  0.3285
 1530SOL    HW116052   4.117   1.380   8.334 -0.0896 -1.1300  0.8879
 1530SOL    HW216053   4.170   1.389   8.205 -3.4315 -2.3805  0.8906
 1531SOL     OW16054   3.442   1.683  16.895  0.7357  0.0495 -0.1017
 1531SOL    HW116055   3.416   1.656  16.983 -1.3387  1.5513 -0.2592
 1531SOL    HW216056   3.454   1.595  16.859  0.0629 -0.2573  0.4126
 1532SOL     OW16057   2.358   2.818   5.297  0.5123  0.2780 -0.3470
 1532SOL    HW116058   2.279   2.816   5.350  0.6639  0.4539 -0.1138
 1532SOL    HW216059   2.373   2.724   5.283 -0.0386 -0.0004  0.9696
 1533SOL     OW16060   1.361   4.557   5.975 -0.0672  0.2871 -0.1385
 1533SOL    HW116061   1.413   4.638   5.971  0.5848 -0.1247 -0.0723
 1533SOL    HW216062   1.288   4.577   5.917 -0.8717  0.0184  0.7986
 1534SOL     OW16063   4.604   0.233   2.118 -0.2369  0.1647  0.1042
 1534SOL    HW116064   4.564   0.146   2.117 -0.7022  0.3903 -1.0535
 1534SOL    HW216065   4.537   0.293   2.086 -0.0343  0.1113 -0.4234
 1535SOL     OW16066   0.954   2.770   3.505  0.5371  0.3494  0.4933
 1535SOL    HW116067   1.027   2.830   3.521  1.6092 -0.9055  0.3259
 1535SOL    HW216068   0.888   2.822   3.458  0.5497  1.8581  2.1659
 1536SOL     OW16069   3.171   4.520   1.065 -0.3157 -0.3730  0.5611
 1536SOL    HW116070   3.167   4.586   1.135  1.2973  0.0460  0.2597
 1536SOL    HW216071   3.185   4.444   1.122 -0.1813  0.4056  1.5751
 1537SOL     OW16072   0.697   2.682   9.445  0.1554  0.1301 -0.1304
 1537SOL    HW116073   0.711   2.695   9.539 -0.5235 -2.3807  0.3253
 1537SOL    HW216074   0.623   2.741   9.432  0.4855  0.7051  0.5951
 1538SOL     OW16075   1.326   1.230   9.225 -0.0520  0.1788  0.1401
 1538SOL    HW116076   1.386   1.210   9.153 -0.1855  1.8873 -0.4251
 1538SOL    HW216077   1.385   1.242   9.299  1.1383  0.3421 -0.8297
 1539SOL     OW16078   0.040   2.122   6.020 -0.0541 -0.5136 -0.0752
 1539SOL    HW116079   0.132   2.150   6.028 -0.4562  0.6245  0.4963
 1539SOL    HW216080   0.008   2.171   5.944  0.7890  2.0827  1.2406
 1540SOL     OW16081   0.385   2.714   4.393  0.0358 -0.0346  0.2530
 1540SOL    HW116082   0.479   2.700   4.382 -0.0949 -0.9268  0.2289
 1540SOL    HW216083   0.384   2.809   4.382  0.5099 -0.2374 -1.4577
 1541SOL     OW16084   1.407   2.382   3.013 -0.5175  0.6476  0.1224
 1541SOL    HW116085   1.322   2.389   2.970  0.7971  1.1629 -2.3957
 1541SOL    HW216086   1.393   2.305   3.068  0.9535  0.4665  0.2384
 1542SOL     OW16087   1.218   0.540  13.037  0.4071  0.3934  0.4054
 1542SOL    HW116088   1.150   0.604  13.016 -1.3322 -1.7511 -0.5038
 1542SOL    HW216089   1.171   0.458  13.026  0.3310  0.4006  0.6684
 1543SOL     OW16090   3.134   3.607   0.334  0.5433  0.0238 -0.0600
 1543SOL    HW116091   3.205   3.549   0.308  2.5207  2.3968 -0.0047
 1543SOL    HW216092   3.115   3.566   0.418  0.3979 -0.9613 -0.5824
 1544SOL     OW16093   2.912   1.657   9.024  0.1242 -0.3107  0.0736
 1544SOL    HW116094   2.947   1.733   9.070 -3.3301  1.3173 -0.0349
 1544SOL    HW216095   2.846   1.626   9.086 -1.3735 -0.2804 -1.5112
 1545SOL     OW16096   2.732   3.926   7.086  0.6948 -0.0185 -0.2688
 1545SOL    HW116097   2.678   4.004   7.071 -0.0390 -0.0276  2.2240
 1545SOL    HW216098   2.771   3.911   7.000  1.5736  0.1778  0.0988
 1546SOL     OW16099   3.442   3.661   8.038  0.0716 -0.1122  0.4917
 1546SOL    HW116100   3.476   3.683   8.125  1.1761 -3.6294  0.9411
 1546SOL    HW216101   3.388   3.582   8.043  0.2064 -0.3257 -1.5269
 1547SOL     OW16102   3.783   3.450   7.303  0.4646 -0.3783 -0.6968
 1547SOL    HW116103   3.823   3.378   7.254  1.8971  0.5078 -0.8437
 1547SOL    HW216104   3.857   3.510   7.311 -0.5637  0.6126  1.2470
 1548SOL     OW16105   2.529   4.052   6.321 -0.0385  0.0155 -0.7563
 1548SOL    HW116106   2.518   4.007   6.405  1.4580  1.7715  0.3673
 1548SOL    HW216107   2.555   3.972   6.275  0.8117 -1.0632  1.5449
 1549SOL     OW16108   0.163   2.537   4.407 -0.0689 -0.4208  0.1603
 1549SOL    HW116109   0.248   2.567   4.376 -0.0033 -0.8033 -0.0289
 1549SOL    HW216110   0.162   2.564   4.499 -2.1797 -0.3597  0.1133
 1550SOL     OW16111   0.087   3.472   3.854 -0.4643 -0.6029  0.1656
 1550SOL    HW116112   0.100   3.556   3.900  2.3314 -0.3375 -1.1132
 1550SOL    HW216113   0.045   3.414   3.918 -0.7019  1.0788  1.5537
 1551SOL     OW16114   3.283   3.858   4.603  0.1608 -1.0544  0.1120
 1551SOL    HW116115   3.302   3.860   4.697  1.2166 -2.5231 -0.0836
 1551SOL    HW216116   3.292   3.945   4.564  3.4293 -2.2137 -1.6890
 1552SOL     OW16117   4.461   3.858   8.791 -0.7830 -0.2663 -0.4801
 1552SOL    HW116118   4.526   3.865   8.722  0.0974  0.5856  0.4300
 1552SOL    HW216119   4.389   3.900   8.744 -1.8591 -1.5660 -0.0002
 1553SOL     OW16120   4.355   3.173   8.731  0.3324 -0.1774  0.8034
 1553SOL    HW116121   4.371   3.250   8.785 -0.3726 -0.3460  1.2441
 1553SOL    HW216122   4.322   3.114   8.798 -1.9477  0.0557 -0.1379
 1554SOL     OW16123   3.093   1.357   2.026 -0.2384  0.3179 -0.4081
 1554SOL    HW116124   3.056   1.290   1.970  1.3061  0.7810 -1.9806
 1554SOL    HW216125   3.154   1.291   2.061  0.2246  1.6046  1.2144
 1555SOL     OW16126   3.587   1.179  16.912 -0.6812 -0.4108  0.5458
 1555SOL    HW116127   3.595   1.221  16.997  0.6976  2.7514 -1.1329
 1555SOL    HW216128   3.558   1.260  16.869  0.7627  0.4687  1.2371
 1556SOL     OW16129   1.009   4.476   6.221  0.0663 -0.8012  0.1942
 1556SOL    HW116130   1.030   4.562   6.184  1.3034 -1.4646 -0.6375
 1556SOL    HW216131   0.951   4.440   6.154 -0.1175 -0.5216  0.2045
 1557SOL     OW16132   0.556   1.678  13.171 -0.0694  1.0104  0.6568
 1557SOL    HW116133   0.593   1.590  13.171 -1.3513  0.4690 -1.4028
 1557SOL    HW216134   0.525   1.684  13.081  0.0777  0.5766  0.5779
 1558SOL     OW16135   0.924   0.980   8.493  0.2779  0.0295 -0.1560
 1558SOL    HW116136   1.015   0.960   8.514 -0.5575 -1.9455  1.5816
 1558SOL    HW216137   0.950   1.028   8.414 -1.2460 -2.8090 -2.3777
 1559SOL     OW16138   1.743   2.333   3.285  0.0194 -0.2231  0.2921
 1559SOL    HW116139   1.830   2.294   3.290 -0.1733 -0.7314 -0.3754
 1559SOL    HW216140   1.755   2.405   3.347 -2.4682 -0.1009  0.6454
 1560SOL     OW16141   3.688   4.425  15.124 -0.2395  0.5209  0.2480
 1560SOL    HW116142   3.650   4.496  15.073 -1.0309 -1.0458 -1.3316
 1560SOL    HW216143   3.612   4.371  15.147  0.4593 -1.0150 -1.0280
 1561SOL     OW16144   1.996   0.006   3.221 -0.0357  0.1314  0.1350
 1561SOL    HW116145   1.910   0.040   3.196 -0.8523 -1.2145  1.0861
 1561SOL    HW216146   2.055   0.079   3.202  1.9690 -1.5528 -0.0889
 1562SOL     OW16147   2.337   3.879   2.145 -0.2087  0.0033  0.1811
 1562SOL    HW116148   2.343   3.888   2.050  0.5769  2.1561  0.4157
 1562SOL    HW216149   2.416   3.924   2.175  0.3345 -1.4985  0.9691
 1563SOL     OW16150   2.769   1.533   9.218  0.1539 -1.1049 -0.4104
 1563SOL    HW116151   2.679   1.550   9.246 -0.2548 -1.5844 -1.4449
 1563SOL    HW216152   2.738   1.474   9.149  0.6460  0.4487 -1.9581
 1564SOL     OW16153   3.565   1.816   1.707 -0.2162 -0.3425  0.1662
 1564SOL    HW116154   3.595   1.730   1.737 -3.0141 -1.7787 -1.2172
 1564SOL    HW216155   3.569   1.810   1.612 -0.3419 -1.3142  0.2213
 1565SOL     OW16156   2.397   2.927   2.010 -0.0893  0.0844 -0.1696
 1565SOL    HW116157   2.335   2.904   1.941  1.3996  0.4371 -1.6469
 1565SOL    HW216158   2.442   3.002   1.972 -1.6030 -0.0376 -2.1892
 1566SOL     OW16159   4.051   0.074   7.833  0.3634  0.2296  0.5017
 1566SOL    HW116160   4.011   0.002   7.882  0.7902  1.1773  2.2396
 1566SOL    HW216161   4.100   0.117   7.903  1.0670  2.1556 -1.1591
 1567SOL     OW16162   2.927   4.565  15.727  0.3350 -0.6382  0.1161
 1567SOL    HW116163   3.015   4.594  15.704  0.0845  0.5556  0.6712
 1567SOL    HW216164   2.912   4.480  15.685 -0.4889 -1.0920  1.3003
 1568SOL     OW16165   1.582   0.237   5.245  0.0316  0.4279 -0.3638
 1568SOL    HW116166   1.645   0.307   5.263  1.2240 -0.6312 -0.4358
 1568SOL    HW216167   1.516   0.304   5.228  1.6245  1.3561 -2.8397
 1569SOL     OW16168   3.772   3.784   1.649 -0.1718 -0.3620 -0.1432
 1569SOL    HW116169   3.730   3.703   1.621  1.0561 -1.2693  0.6313
 1569SOL    HW216170   3.698   3.843   1.635  0.7060  0.8988  0.6002
 1570SOL     OW16171   1.003   2.418   7.375  0.2370 -0.4426 -0.1372
 1570SOL    HW116172   0.955   2.488   7.333 -0.0442 -1.7660 -2.0245
 1570SOL    HW216173   0.988   2.351   7.309  0.9849 -1.3689  0.6098
 1571SOL     OW16174   4.377   3.162   3.393  0.0324  0.5078 -0.0660
 1571SOL    HW116175   4.317   3.205   3.333 -0.4527  1.2704  0.9630
 1571SOL    HW216176   4.358   3.071   3.373 -1.2051  0.5150  1.1207
 1572SOL     OW16177   1.165   2.832   7.674  0.2401 -0.4044 -0.4437
 1572SOL    HW116178   1.200   2.853   7.587 -1.9418  0.1841 -1.1655
 1572SOL    HW216179   1.113   2.755   7.652  1.1612 -0.7194 -1.5150
 1573SOL     OW16180   4.284   1.063   0.944  0.1735 -0.1610  0.0152
 1573SOL    HW116181   4.286   1.001   0.872 -0.3817 -1.2181  0.9033
 1573SOL    HW216182   4.208   1.113   0.914 -0.3269 -1.8132 -1.4395
 1574SOL     OW16183   1.076   2.729  13.152  0.8177  0.0036 -0.1189
 1574SOL    HW116184   1.142   2.687  13.097  2.4678  0.5743  1.4243
 1574SOL    HW216185   1.126   2.782  13.214 -0.8705  1.8035 -0.3001
 1575SOL     OW16186   1.556   4.052  16.594  0.1901 -0.0330  0.0771
 1575SOL    HW116187   1.595   4.131  16.632  1.0039 -0.7270  0.6915
 1575SOL    HW216188   1.616   3.983  16.622 -1.4681 -1.6871 -0.4364
 1576SOL     OW16189   3.347   2.678   8.746 -0.0328 -0.4587 -0.1217
 1576SOL    HW116190   3.274   2.719   8.793  1.1890  0.1839  1.2095
 1576SOL    HW216191   3.369   2.749   8.684  0.0124 -0.8093 -0.5062
 1577SOL     OW16192   1.567   2.216  17.146  0.0669  0.0348 -0.3618
 1577SOL    HW116193   1.522   2.264  17.215  0.0883 -0.4060 -0.0352
 1577SOL    HW216194   1.540   2.268  17.071 -1.4210  2.4138  1.8418
 1578SOL     OW16195   1.880   0.348  12.398 -0.0257 -0.4529  0.4249
 1578SOL    HW116196   1.883   0.412  12.470 -0.8806  0.0370  0.0177
 1578SOL    HW216197   1.796   0.369  12.359  0.2069 -1.1821 -0.4794
 1579SOL     OW16198   0.275   3.457   8.506 -0.2304 -0.8569  0.2611
 1579SOL    HW116199   0.220   3.513   8.451  2.4106  2.4835  0.9917
 1579SOL    HW216200   0.356   3.508   8.501 -0.0620 -1.0330  1.1670
 1580SOL     OW16201   2.526   3.541   0.766 -0.1039  0.0141  0.4935
 1580SOL    HW116202   2.560   3.631   0.769  2.1407 -0.8490  0.8051
 1580SOL    HW216203   2.481   3.534   0.850 -0.9338 -0.5077  0.0100
 1581SOL     OW16204   4.308   3.297   7.437 -0.0987  0.1056 -0.0769
 1581SOL    HW116205   4.213   3.282   7.435  0.0662 -1.2306  1.7254
 1581SOL    HW216206   4.322   3.304   7.531  1.5182  3.4954 -0.5863
 1582SOL     OW16207   3.939   0.350  12.273  0.5316 -0.3107 -0.1695
 1582SOL    HW116208   4.007   0.335  12.339  0.1564 -1.8583 -0.1394
 1582SOL    HW216209   3.873   0.288  12.302 -0.2925  0.1214 -1.1316
 1583SOL     OW16210   1.748   1.768   5.650  0.3897 -0.9112  0.0848
 1583SOL    HW116211   1.788   1.693   5.606  0.6623 -0.7109 -0.0096
 1583SOL    HW216212   1.793   1.767   5.734  1.9358  0.6186 -0.7170
 1584SOL     OW16213   3.832   3.004  15.055  0.4719  0.5505  0.3636
 1584SOL    HW116214   3.814   2.983  14.963 -1.5871  0.4790  0.7780
 1584SOL    HW216215   3.885   2.930  15.086  2.3666  2.8963  2.6734
 1585SOL     OW16216   4.401   2.705  10.977 -0.0139  0.0199  0.2259
 1585SOL    HW116217   4.325   2.723  10.923  0.3524 -0.6033 -0.4967
 1585SOL    HW216218   4.351   2.696  11.058  1.2056  1.1914  1.1069
 1586SOL     OW16219   2.418   1.147  12.472 -0.2187  0.0293  0.2482
 1586SOL    HW116220   2.499   1.115  12.510 -0.5002 -1.6396 -0.5684
 1586SOL    HW216221   2.357   1.077  12.493  0.7592 -0.0618  2.7425
 1587SOL     OW16222   3.088   3.633   0.070 -0.0678 -0.5515  0.4177
 1587SOL    HW116223   3.088   3.624   0.165 -0.2158 -0.3217  0.4387
 1587SOL    HW216224   3.126   3.549   0.044  1.4590  1.6353 -4.5017
 1588SOL     OW16225   3.468   0.212   7.546 -0.4680  0.3801  0.7308
 1588SOL    HW116226   3.375   0.197   7.533 -0.9912  1.4605  3.2402
 1588SOL    HW216227   3.489   0.152   7.617  0.0841 -1.8537 -1.3271
 1589SOL     OW16228   0.772   3.403   8.467  0.0788  0.3429  0.6020
 1589SOL    HW116229   0.766   3.312   8.496 -1.2410  0.6041  1.1558
 1589SOL    HW216230   0.839   3.423   8.533  1.9432 -0.7770 -0.9670
 1590SOL     OW16231   4.370   4.157   1.035 -0.3655 -0.0188 -0.2320
 1590SOL    HW116232   4.392   4.073   1.075 -0.1232 -0.3741 -1.0994
 1590SOL    HW216233   4.309   4.187   1.102 -2.0493 -0.4190 -1.5722
 1591SOL     OW16234   4.303   3.838  10.471 -0.4926 -0.4411  0.8738
 1591SOL    HW116235   4.218   3.795  10.465 -0.2469 -1.2061  2.9097
 1591SOL    HW216236   4.269   3.927  10.467  1.9834  0.4538 -0.7299
 1592SOL     OW16237   2.533   1.348   3.053 -0.4891 -0.1117 -0.8415
 1592SOL    HW116238   2.531   1.418   2.988  2.4708  1.3922  0.7008
 1592SOL    HW216239   2.440   1.339   3.074 -0.5882  0.5994 -0.9858
 1593SOL     OW16240   3.498   0.407   6.599 -0.2103 -0.1352  0.1943
 1593SOL    HW116241   3.410   0.433   6.572 -0.1135 -0.8434 -0.7987
 1593SOL    HW216242   3.522   0.482   6.654  3.8101 -1.5531  0.4004
 1594SOL     OW16243   2.007   1.994   4.959  0.0188  0.0392 -0.4264
 1594SOL    HW116244   1.937   1.949   4.912  2.6568 -1.8818 -2.5028
 1594SOL    HW216245   2.051   1.919   5.001 -1.3692 -1.0803 -0.9791
 1595SOL     OW16246   2.413   0.715   7.870  0.3601 -0.0880 -0.3933
 1595SOL    HW116247   2.344   0.742   7.930 -1.1592  1.6237 -2.9176
 1595SOL    HW216248   2.362   0.697   7.791 -1.6495  0.0580  0.8775
 1596SOL     OW16249   2.852   2.772  10.954  1.0062 -0.1845  0.0528
 1596SOL    HW116250   2.888   2.744  10.870  2.3408 -0.0128  0.5720
 1596SOL    HW216251   2.929   2.801  11.003 -0.0771  3.2732 -0.2896
 1597SOL     OW16252   1.834   1.129  12.843 -0.6566 -0.0155  0.1153
 1597SOL    HW116253   1.895   1.189  12.885 -0.8614 -0.0781  0.5061
 1597SOL    HW216254   1.821   1.082  12.925 -1.6338  0.3105  0.1540
 1598SOL     OW16255   3.927   2.351  11.398 -0.1044 -0.2471 -0.1795
 1598SOL    HW116256   3.990   2.374  11.466 -1.2980 -0.4021  0.9878
 1598SOL    HW216257   3.930   2.429  11.343 -0.6269  0.8267  1.3029
 1599SOL     OW16258   1.882   0.901  14.720 -0.1196 -0.7756  0.5944
 1599SOL    HW116259   1.843   0.919  14.805 -2.8334 -2.0397 -0.3757
 1599SOL    HW216260   1.938   0.830  14.751 -2.2439 -2.9201 -0.4995
 1600SOL     OW16261   0.942   0.934   0.598  0.1912  0.0299  0.0998
 1600SOL    HW116262   0.851   0.964   0.594  0.9193  2.4463  2.4476
 1600SOL    HW216263   0.985   1.012   0.562  2.1479 -0.3826  1.5690
 1601SOL     OW16264   0.776   1.899   8.740 -0.2318 -0.1008 -0.0094
 1601SOL    HW116265   0.684   1.897   8.767 -0.8927 -1.2027 -2.2758
 1601SOL    HW216266   0.774   1.804   8.730 -1.4875 -0.0614 -0.1448
 1602SOL     OW16267   2.806   3.202   6.046  0.0339 -0.1978 -0.0483
 1602SOL    HW116268   2.835   3.292   6.057  3.6551 -1.2476 -0.8830
 1602SOL    HW216269   2.775   3.185   6.135 -0.1631  0.9438  0.0981
 1603SOL     OW16270   0.738   4.205   5.562 -0.1223  0.2670  0.4071
 1603SOL    HW116271   0.656   4.158   5.548 -0.0513  0.5780 -1.0170
 1603SOL    HW216272   0.759   4.216   5.470 -1.1754  2.1155  0.3928
 1604SOL     OW16273   3.807   1.202   5.155 -0.7695  0.3844  0.2609
 1604SOL    HW116274   3.861   1.177   5.081 -1.6380 -2.1758  0.4703
 1604SOL    HW216275   3.825   1.130   5.216 -1.1658  0.0675  0.0086
 1605SOL     OW16276   1.425   0.860  15.552  0.0095  0.3224 -0.4040
 1605SOL    HW116277   1.496   0.920  15.530  0.4581  0.3514  1.1718
 1605SOL    HW216278   1.445   0.836  15.642 -0.4448  3.0237  0.3971
 1606SOL     OW16279   1.979   3.890   9.927  0.0202  0.0975  0.2930
 1606SOL    HW116280   1.933   3.834   9.865 -0.1909 -0.0292  0.5632
 1606SOL    HW216281   1.924   3.968   9.924  2.3668  1.8479  2.7932
 1607SOL     OW16282   4.692   1.080   9.274  0.1048 -0.1771  0.3948
 1607SOL    HW116283   4.617   1.134   9.299 -0.5040 -1.0800  0.5151
 1607SOL    HW216284   4.689   1.090   9.179 -2.3623 -0.5704  0.4400
 1608SOL     OW16285   2.944   3.478   2.434  0.0495 -0.3676 -0.2869
 1608SOL    HW116286   2.888   3.410   2.473  1.1263 -3.4678 -4.1206
 1608SOL    HW216287   3.030   3.444   2.456 -0.0921 -1.0761 -0.7957
 1609SOL     OW16288   4.348   3.972   7.459 -0.0443  0.1062 -0.7452
 1609SOL    HW116289   4.357   3.997   7.367  1.3436  2.1864 -0.0658
 1609SOL    HW216290   4.400   3.891   7.458 -2.2298 -1.2859 -0.7791
 1610SOL     OW16291   1.363   3.131   2.681  0.2333  0.6685 -0.3785
 1610SOL    HW116292   1.381   3.137   2.587  1.2472 -1.8993 -0.3522
 1610SOL    HW216293   1.373   3.224   2.703 -1.2290  0.2331  2.1637
 1611SOL     OW16294   2.109   2.602  10.149  0.1558 -0.3736  0.5527
 1611SOL    HW116295   2.170   2.535  10.181  0.1355 -0.2823  0.7808
 1611SOL    HW216296   2.155   2.623  10.068 -0.0705 -2.1191 -0.0384
 1612SOL     OW16297   1.799   4.425  17.661  0.4451 -0.0764  0.1244
 1612SOL    HW116298   1.758   4.422   0.060 -2.7124  1.0278 -1.3183
 1612SOL    HW216299   1.804   4.518  17.640  0.4517 -0.6140 -2.3051
 1613SOL     OW16300   1.116   0.243   2.829 -0.4221  0.0643  0.3312
 1613SOL    HW116301   1.186   0.179   2.844  0.8849  1.1949 -0.9488
 1613SOL    HW216302   1.164   0.277   2.754  1.3899 -1.5461  0.7435
 1614SOL     OW16303   4.295   0.432   5.784  0.4367 -0.1476 -0.3684
 1614SOL    HW116304   4.311   0.447   5.690 -1.1304  2.2703 -0.2379
 1614SOL    HW216305   4.236   0.358   5.772 -0.6708  0.9201 -1.5156
 1615SOL     OW16306   4.584   4.197  14.806  0.3074  0.1949  0.1283
 1615SOL    HW116307   4.516   4.256  14.773  0.6081 -0.6147 -1.9381
 1615SOL    HW216308   4.664   4.234  14.769  0.7803 -0.1769  0.7815
 1616SOL     OW16309   4.150   3.582   6.911 -0.1479  0.2222  0.4125
 1616SOL    HW116310   4.124   3.512   6.852 -0.5794  0.6263  0.1205
 1616SOL    HW216311   4.178   3.536   6.990 -0.7272 -1.0429 -0.1216
 1617SOL     OW16312   1.335   1.032   2.146 -0.6703 -0.0766 -0.2516
 1617SOL    HW116313   1.370   1.065   2.063  0.2093  2.0513  0.9754
 1617SOL    HW216314   1.337   1.103   2.210  3.4499 -1.2746  0.9114
 1618SOL     OW16315   1.598   4.349   3.074 -0.1825 -0.4661 -0.2573
 1618SOL    HW116316   1.617   4.412   3.004 -3.0673  1.6809  0.9169
 1618SOL    HW216317   1.681   4.322   3.114 -0.1418  0.6386  0.4029
 1619SOL     OW16318   0.336   1.095   5.210  0.0082 -0.0797 -0.0347
 1619SOL    HW116319   0.254   1.059   5.175  0.7436  0.9427 -2.8215
 1619SOL    HW216320   0.339   1.042   5.290  0.3635  0.1373  0.0959
 1620SOL     OW16321   2.103   3.975   6.970  0.6215  0.3934  0.0739
 1620SOL    HW116322   2.163   4.009   7.036  0.4020  1.1149 -0.0971
 1620SOL    HW216323   2.097   3.881   6.987 -0.7411  0.8511  2.0073
 1621SOL     OW16324   1.563   2.449   2.512  1.1641  0.3656 -0.3542
 1621SOL    HW116325   1.500   2.521   2.513 -1.5308 -2.0376  1.4641
 1621SOL    HW216326   1.637   2.498   2.476  2.0917 -0.2043  0.7714
 1622SOL     OW16327   1.238   3.552   6.162  0.0554  0.3530 -0.1657
 1622SOL    HW116328   1.152   3.509   6.162  0.6858 -0.8835 -0.3908
 1622SOL    HW216329   1.212   3.627   6.216  1.7271  0.8034 -0.0089
 1623SOL     OW16330   3.065   3.350   4.778  1.0198  0.1238 -0.1842
 1623SOL    HW116331   3.006   3.356   4.853  0.8076  1.5242 -0.4641
 1623SOL    HW216332   3.068   3.256   4.759 -0.3441 -0.1432  0.9169
 1624SOL     OW16333   4.109   0.971  13.377  0.6500  0.2936  0.6834
 1624SOL    HW116334   4.166   1.047  13.369  0.1917  0.6806  1.0918
 1624SOL    HW216335   4.026   0.993  13.334  1.0946  0.4682 -0.0710
 1625SOL     OW16336   3.132   2.475   4.243  0.4058  0.4476  0.1065
 1625SOL    HW116337   3.201   2.538   4.265 -0.5008  1.0386  1.2831
 1625SOL    HW216338   3.179   2.392   4.240 -1.6466 -0.7776  2.7927
 1626SOL     OW16339   4.138   2.283   8.687  0.0880 -0.1835 -0.3676
 1626SOL    HW116340   4.052   2.317   8.663 -0.8696 -2.9306 -0.8396
 1626SOL    HW216341   4.142   2.221   8.614  3.1115  2.0288 -2.0713
 1627SOL     OW16342   0.573   0.855   6.405 -0.2580  0.0740  0.2206
 1627SOL    HW116343   0.618   0.937   6.383  0.1437 -0.4241 -0.7856
 1627SOL    HW216344   0.487   0.866   6.365  0.6357 -0.6583 -1.8410
 1628SOL     OW16345   1.262   2.433  12.217 -0.1494 -0.1741  0.0894
 1628SOL    HW116346   1.345   2.471  12.247 -0.3301 -1.5023  2.2548
 1628SOL    HW216347   1.298   2.388  12.140  1.6315 -0.9925  1.3872
 1629SOL     OW16348   3.002   3.893   5.307 -0.0544 -0.1166  0.1168
 1629SOL    HW116349   2.917   3.892   5.350 -0.8363 -0.9010 -1.4346
 1629SOL    HW216350   3.020   3.986   5.311 -2.8476  0.4638 -0.9383
 1630SOL     OW16351   4.002   3.331   7.491 -0.3730  0.6052 -0.0228
 1630SOL    HW116352   3.993   3.298   7.581 -0.1341 -0.1592 -0.2830
 1630SOL    HW216353   3.925   3.284   7.460 -0.1543  0.1442  0.1278
 1631SOL     OW16354   0.396   0.802   5.810  0.0925 -0.3833 -0.1891
 1631SOL    HW116355   0.424   0.714   5.835  0.8577 -0.6396 -1.9264
 1631SOL    HW216356   0.302   0.789   5.823  0.3861 -0.3717  1.8845
 1632SOL     OW16357   1.110   2.205   6.666  0.3035 -0.2408  0.0567
 1632SOL    HW116358   1.046   2.272   6.642 -0.1531 -0.2519  1.2303
 1632SOL    HW216359   1.055   2.127   6.672  0.2371 -0.2418 -0.6237
 1633SOL     OW16360   3.101   4.490   2.030  0.5251 -0.0660  0.1294
 1633SOL    HW116361   3.145   4.542   1.962  0.6462  0.0113  0.2676
 1633SOL    HW216362   3.083   4.552   2.101 -0.3113  0.3440 -0.4390
 1634SOL     OW16363   0.137   3.686  13.278 -0.3961  0.0253 -0.0249
 1634SOL    HW116364   0.094   3.770  13.259  0.5753 -0.1253 -2.7739
 1634SOL    HW216365   0.222   3.723  13.302 -0.4027  0.4762 -0.6839
 1635SOL     OW16366   3.762   4.321   8.378 -0.0756 -0.0884  0.5147
 1635SOL    HW116367   3.780   4.344   8.469  0.5546 -0.2579  0.4392
 1635SOL    HW216368   3.853   4.301   8.357  0.7282  4.5232 -0.3442
 1636SOL     OW16369   1.786   3.136   2.498 -0.2079 -0.8260 -0.7221
 1636SOL    HW116370   1.783   3.116   2.591  1.1494 -1.3987 -0.8042
 1636SOL    HW216371   1.878   3.162   2.503 -0.6150  0.5215 -0.3193
 1637SOL     OW16372   1.807   2.996  15.135 -0.1172  0.4863  0.5122
 1637SOL    HW116373   1.851   3.063  15.082  2.1562 -0.4632  1.2274
 1637SOL    HW216374   1.729   3.047  15.159  0.2024  1.4795 -0.5665
 1638SOL     OW16375   1.912   0.359   5.962  0.0226 -0.1048  0.8858
 1638SOL    HW116376   1.915   0.295   5.891 -0.4432 -0.5654  1.2771
 1638SOL    HW216377   2.004   0.376   5.979 -0.6490  1.9706  2.4935
 1639SOL     OW16378   0.089   3.643  16.149 -0.6243 -0.3191 -0.2251
 1639SOL    HW116379   0.004   3.606  16.174  0.0461 -1.9120 -0.3432
 1639SOL    HW216380   0.062   3.720  16.098  1.0891  0.1944 -0.3672
 1640SOL     OW16381   0.056   4.252  12.080  0.2799 -0.6833  0.4278
 1640SOL    HW116382   0.076   4.337  12.121 -1.6967 -0.3729  0.7838
 1640SOL    HW216383   0.056   4.189  12.151  0.5398 -0.0971  0.9489
 1641SOL     OW16384   3.487   1.413   3.500 -0.2179  0.2580 -0.5429
 1641SOL    HW116385   3.557   1.465   3.461  0.1223  0.9513  1.0038
 1641SOL    HW216386   3.519   1.325   3.520  0.5712  1.0344  1.6232
 1642SOL     OW16387   1.838   4.047   7.040  0.0295  0.1707 -0.4586
 1642SOL    HW116388   1.826   3.954   7.058  0.2246 -0.0378 -1.4299
 1642SOL    HW216389   1.918   4.042   6.989 -0.0565 -0.5733 -0.5239
 1643SOL     OW16390   2.383   3.774  11.283 -0.0945 -0.2499 -0.1683
 1643SOL    HW116391   2.322   3.809  11.348 -0.5479 -1.0463 -0.1598
 1643SOL    HW216392   2.388   3.680  11.303 -0.6239 -0.6045 -1.7229
 1644SOL     OW16393   2.509   2.783  14.933 -0.1963  0.0400  0.3451
 1644SOL    HW116394   2.570   2.855  14.918 -1.1291  0.5951 -0.7844
 1644SOL    HW216395   2.515   2.780  15.029 -1.1105  0.6452  0.4271
 1645SOL     OW16396   1.071   2.765   4.197 -0.4383 -0.2976 -0.4611
 1645SOL    HW116397   1.069   2.814   4.279  0.3169  4.6425 -3.3845
 1645SOL    HW216398   1.165   2.758   4.180 -0.7742  1.0028 -2.7913
 1646SOL     OW16399   1.036   4.195  11.043  0.4964 -0.5858 -0.3383
 1646SOL    HW116400   0.983   4.273  11.026  0.3197 -0.8358 -0.9349
 1646SOL    HW216401   1.090   4.181  10.966  1.0539 -0.4240  0.0241
 1647SOL     OW16402   3.215   3.160  15.987 -0.1049 -0.2564 -0.0870
 1647SOL    HW116403   3.171   3.142  15.904  0.3586  2.1652 -0.8687
 1647SOL    HW216404   3.274   3.232  15.963  1.8578 -1.3546  1.5182
 1648SOL     OW16405   3.103   3.273   1.444  0.0492  0.3375 -0.5585
 1648SOL    HW116406   3.033   3.308   1.499 -0.9327 -2.4076 -0.0719
 1648SOL    HW216407   3.053   3.214   1.388 -0.2452 -1.2152  1.3392
 1649SOL     OW16408   3.089   2.679   8.586 -0.7863  0.0743 -0.1752
 1649SOL    HW116409   3.096   2.608   8.650 -1.7009  1.3592  1.3509
 1649SOL    HW216410   3.119   2.625   8.513 -0.7504  0.5787 -0.5401
 1650SOL     OW16411   1.944   3.159  13.474 -0.6259 -0.2990 -0.3989
 1650SOL    HW116412   1.921   3.251  13.488 -0.7002 -0.7681  2.4674
 1650SOL    HW216413   2.026   3.168  13.425  0.9180  1.0180  2.4645
 1651SOL     OW16414   1.988   2.430  15.389  1.0340 -0.4707 -0.2940
 1651SOL    HW116415   1.953   2.454  15.304  2.1546  1.2661 -0.2739
 1651SOL    HW216416   2.048   2.505  15.395 -0.0060  0.2934  0.5142
 1652SOL     OW16417   2.854   0.541  14.396  0.5065  0.1619 -0.8228
 1652SOL    HW116418   2.867   0.447  14.379 -0.0890 -0.3601  1.5205
 1652SOL    HW216419   2.772   0.552  14.349 -0.1521 -0.7648  0.1286
 1653SOL     OW16420   2.270   3.299   0.803 -0.0702  0.0014  0.0386
 1653SOL    HW116421   2.216   3.309   0.724 -0.3046  0.6038  0.2786
 1653SOL    HW216422   2.221   3.364   0.853  0.1185  0.0797  0.1252
 1654SOL     OW16423   4.256   0.082   7.444  0.2714  0.1198  0.7411
 1654SOL    HW116424   4.251   0.016   7.513 -0.9714 -1.9969 -1.3670
 1654SOL    HW216425   4.168   0.117   7.431  0.0253 -0.7853  0.0392
 1655SOL     OW16426   0.814   0.742  11.431  0.4519  0.1700 -0.4299
 1655SOL    HW116427   0.877   0.688  11.478 -1.8061 -1.7420  0.4143
 1655SOL    HW216428   0.853   0.746  11.343 -1.3583  0.5889 -1.2209
 1656SOL     OW16429   0.823   0.417   4.895  0.3321  0.1743  0.7267
 1656SOL    HW116430   0.912   0.438   4.924  0.6401 -0.2917  0.1055
 1656SOL    HW216431   0.818   0.478   4.821 -0.7628  1.0914  1.5495
 1657SOL     OW16432   1.545   0.996   2.953  0.2064  0.3248 -0.1212
 1657SOL    HW116433   1.461   1.039   2.966 -0.3837 -0.8393 -0.0719
 1657SOL    HW216434   1.604   1.063   2.986 -0.6414  0.7779  0.4583
 1658SOL     OW16435   3.485   1.351  13.488 -0.1686  0.3596  0.2068
 1658SOL    HW116436   3.476   1.257  13.474 -2.4108  0.6164 -0.0694
 1658SOL    HW216437   3.575   1.353  13.456 -1.0950  0.1550 -2.4248
 1659SOL     OW16438   3.320   4.421   2.620  0.1535  0.4768  0.0474
 1659SOL    HW116439   3.228   4.429   2.645 -0.2734  1.2690 -1.7911
 1659SOL    HW216440   3.352   4.510   2.603 -2.2375  1.5819  1.2530
 1660SOL     OW16441   4.358   4.236   7.848 -0.0597 -0.0936 -0.1388
 1660SOL    HW116442   4.449   4.257   7.826  0.5734 -0.2713  2.3103
 1660SOL    HW216443   4.352   4.272   7.936 -1.9033 -0.7249 -0.0093
 1661SOL     OW16444   0.039   3.126   0.640 -0.1925 -0.2346  0.1196
 1661SOL    HW116445   0.070   3.133   0.549 -2.3907  1.8772 -0.4911
 1661SOL    HW216446   4.677   3.082   0.626  1.7421 -4.1189  0.9157
 1662SOL     OW16447   2.238   0.448   5.056  0.2600 -0.5404  0.5876
 1662SOL    HW116448   2.170   0.381   5.053  0.3514 -0.5122 -1.7619
 1662SOL    HW216449   2.283   0.415   5.134  0.7116 -0.3488  0.4087
 1663SOL     OW16450   2.481   2.937  10.649 -0.6341 -0.3567 -0.2528
 1663SOL    HW116451   2.444   2.899  10.570 -1.5998  2.3282 -1.0817
 1663SOL    HW216452   2.466   2.867  10.713  0.2015  2.2194  2.7450
 1664SOL     OW16453   3.388   2.965   7.312 -0.4785  0.1799  0.4949
 1664SOL    HW116454   3.302   2.957   7.270  0.0298 -2.6111 -0.0419
 1664SOL    HW216455   3.381   2.888   7.370  0.8669 -0.0449  0.3471
 1665SOL     OW16456   2.506   2.507   3.822 -0.2277 -0.1094  0.5544
 1665SOL    HW116457   2.558   2.588   3.824  1.0966 -0.9502  0.6270
 1665SOL    HW216458   2.433   2.524   3.881  0.4591  1.8351  0.8369
 1666SOL     OW16459   3.999   4.568   2.587 -0.0078 -0.3475  0.1615
 1666SOL    HW116460   4.044   4.612   2.514  0.0769 -0.7382 -0.0207
 1666SOL    HW216461   3.914   4.547   2.550  0.3997  1.1494 -1.6520
 1667SOL     OW16462   2.174   0.482  16.562  0.3389  0.6332 -0.0654
 1667SOL    HW116463   2.080   0.475  16.582  0.4044 -0.5761 -0.1882
 1667SOL    HW216464   2.173   0.465  16.468 -0.3901 -0.9537  0.2252
 1668SOL     OW16465   2.080   0.990   3.598 -0.1935 -0.0683  0.4999
 1668SOL    HW116466   2.044   1.062   3.651 -1.6231 -0.4285  0.0090
 1668SOL    HW216467   2.023   0.921   3.631 -0.8274  0.3401  0.2671
 1669SOL     OW16468   0.913   3.522   6.690  0.2866 -0.0686 -0.1765
 1669SOL    HW116469   0.913   3.562   6.603 -2.6361  0.9788  0.3171
 1669SOL    HW216470   0.908   3.428   6.672 -0.7766  0.0394 -0.4610
 1670SOL     OW16471   2.855   4.477  13.159  0.6547  0.0032 -0.2546
 1670SOL    HW116472   2.909   4.443  13.231 -0.2230  1.2299  0.9841
 1670SOL    HW216473   2.834   4.405  13.099 -0.9440  0.3022 -0.0612
 1671SOL     OW16474   4.044   0.257   4.253  0.2042 -0.5923 -0.4150
 1671SOL    HW116475   4.044   0.224   4.343  3.5043  1.5529  0.3846
 1671SOL    HW216476   4.040   0.178   4.200  0.1300 -1.4469  0.8776
 1672SOL     OW16477   2.928   1.300   7.859 -0.1251 -0.5934 -0.3062
 1672SOL    HW116478   2.856   1.340   7.811 -0.1522  1.3841  1.3762
 1672SOL    HW216479   2.896   1.302   7.949  0.5911 -1.0709 -0.0409
 1673SOL     OW16480   1.402   3.145   9.829 -0.4203  0.0317  0.3421
 1673SOL    HW116481   1.430   3.056   9.807 -2.5374 -1.0928  2.2754
 1673SOL    HW216482   1.372   3.126   9.918  0.3502 -0.2421  0.5389
 1674SOL     OW16483   4.465   3.755   9.028 -0.0232 -0.2407  0.0875
 1674SOL    HW116484   4.466   3.788   8.939 -1.6097 -1.7983 -0.5109
 1674SOL    HW216485   4.370   3.753   9.041  0.1663  1.2510  1.6603
 1675SOL     OW16486   2.796   1.838   5.871  0.3454  0.0248 -0.6244
 1675SOL    HW116487   2.780   1.769   5.806 -2.3096  0.4530 -0.4519
 1675SOL    HW216488   2.868   1.795   5.917 -1.5579 -0.6547  1.7277
 1676SOL     OW16489   4.658   0.399   6.295 -0.4397 -0.0063 -0.1205
 1676SOL    HW116490   4.668   0.347   6.374 -0.6722  1.3997  0.8224
 1676SOL    HW216491   4.648   0.483   6.340 -2.4490 -1.0129  1.3217
 1677SOL     OW16492   4.293   2.796  11.293 -0.3421  0.0421  0.4475
 1677SOL    HW116493   4.303   2.803  11.388 -2.7178  0.2165  0.6868
 1677SOL    HW216494   4.206   2.833  11.276 -1.3241 -2.8838 -0.9140
 1678SOL     OW16495   0.380   4.283   5.868 -0.0048 -0.3509  0.9283
 1678SOL    HW116496   0.311   4.313   5.927  1.3254  0.5637  2.0279
 1678SOL    HW216497   0.457   4.300   5.922 -0.4749  0.9406  1.1972
 1679SOL     OW16498   0.768   3.568   5.165 -0.5358 -0.7070 -0.3489
 1679SOL    HW116499   0.771   3.596   5.073 -1.7426  1.3994  0.2458
 1679SOL    HW216500   0.856   3.532   5.177 -0.3068 -1.3724 -3.8472
 1680SOL     OW16501   3.993   4.343   2.185  0.3280  1.0846 -0.0637
 1680SOL    HW116502   4.033   4.351   2.271  0.6845  0.6984 -0.1974
 1680SOL    HW216503   3.925   4.408   2.201  0.4515  1.5447 -1.3779
 1681SOL     OW16504   4.518   0.718   9.926 -0.0452 -0.4728 -0.3267
 1681SOL    HW116505   4.583   0.745   9.861  0.6372  2.3332  1.5347
 1681SOL    HW216506   4.584   0.685   9.988  0.1105 -0.4050 -0.4576
 1682SOL     OW16507   0.639   0.588   9.033  0.5027  0.6893  0.0957
 1682SOL    HW116508   0.700   0.661   9.021 -0.2270  0.8940 -2.3618
 1682SOL    HW216509   0.561   0.634   9.003  0.6361  0.9260  0.1114
 1683SOL     OW16510   4.030   3.335   6.788 -0.8358  0.1510 -0.2706
 1683SOL    HW116511   3.946   3.364   6.823  0.5663  2.5666  1.1293
 1683SOL    HW216512   4.048   3.259   6.843  1.8198  0.6549 -0.4134
 1684SOL     OW16513   3.127   2.751   2.319 -0.3356 -0.0166 -0.4380
 1684SOL    HW116514   3.063   2.817   2.345 -0.6110  0.1446 -1.5466
 1684SOL    HW216515   3.094   2.691   2.387  1.4364 -0.2451  0.2244
 1685SOL     OW16516   3.390   3.034   2.522  0.1030 -0.2353 -0.4364
 1685SOL    HW116517   3.404   3.128   2.523 -1.9555  0.0874 -2.8461
 1685SOL    HW216518   3.325   3.014   2.589 -0.0436 -3.0586 -1.3801
 1686SOL     OW16519   1.014   2.978   5.101 -0.2785  0.2473 -0.1871
 1686SOL    HW116520   1.057   3.064   5.103 -2.4379  1.3413 -0.6149
 1686SOL    HW216521   1.048   2.935   5.180 -1.7654 -0.1561  0.2381
 1687SOL     OW16522   1.657   2.779   6.409 -0.1167 -0.0218 -0.6242
 1687SOL    HW116523   1.648   2.754   6.317 -0.0589 -2.0644 -0.0895
 1687SOL    HW216524   1.627   2.869   6.404 -0.3585  0.0680  2.3894
 1688SOL     OW16525   3.747   1.564   2.544  0.0831 -0.1239 -0.2395
 1688SOL    HW116526   3.820   1.621   2.522  0.6319 -0.5230  0.5380
 1688SOL    HW216527   3.762   1.477   2.508 -0.2392 -0.7091  1.0417
 1689SOL     OW16528   0.666   4.695   7.093  0.2463  0.0859 -0.4337
 1689SOL    HW116529   0.651   4.696   6.999  1.9247 -0.6801 -0.7081
 1689SOL    HW216530   0.734   0.040   7.104  0.7249 -0.7187  1.5832
 1690SOL     OW16531   4.289   3.923   0.815 -0.0732 -0.0559 -0.5803
 1690SOL    HW116532   4.212   3.946   0.761 -1.1627  0.0353  1.0162
 1690SOL    HW216533   4.350   3.993   0.791 -3.0789  1.9565 -2.4086
 1691SOL     OW16534   2.459   2.215   5.885  0.0753  0.6756  0.5360
 1691SOL    HW116535   2.407   2.201   5.806 -0.4059 -1.7867  1.2982
 1691SOL    HW216536   2.408   2.224   5.966 -0.1233 -3.4806  0.8659
 1692SOL     OW16537   2.917   3.438   6.060  0.0415  0.0737  0.1838
 1692SOL    HW116538   2.957   3.437   5.974 -0.1325 -0.9661  0.1148
 1692SOL    HW216539   2.946   3.526   6.087 -3.4229  0.8073  1.4622
 1693SOL     OW16540   1.922   4.423   3.604  0.2172 -0.3476 -0.0444
 1693SOL    HW116541   1.959   4.380   3.681  0.4165 -5.4630 -2.9779
 1693SOL    HW216542   1.987   4.392   3.541  2.3227  1.4747  1.2012
 1694SOL     OW16543   4.691   2.232   8.110  0.2711  0.8005 -0.5848
 1694SOL    HW116544   0.043   2.220   8.171  1.1071  0.1686 -1.7124
 1694SOL    HW216545   4.702   2.147   8.068 -1.6639 -0.4007  1.3157
 1695SOL     OW16546   4.618   3.751  17.107 -0.0352 -0.1719 -0.3754
 1695SOL    HW116547   4.684   3.761  17.037 -0.2450  2.0175 -0.2537
 1695SOL    HW216548   4.658   3.674  17.150 -1.9877 -1.7995 -1.4960
 1696SOL     OW16549   2.846   1.547   1.852 -0.1306  0.1377 -0.0971
 1696SOL    HW116550   2.774   1.586   1.901 -1.3811 -0.9836 -1.0337
 1696SOL    HW216551   2.880   1.629   1.817  2.2526 -1.3635 -1.2766
 1697SOL     OW16552   1.910   0.096   2.013  0.5836  0.2764  0.1002
 1697SOL    HW116553   1.874   0.083   2.101  0.3833  1.5846  0.2093
 1697SOL    HW216554   1.969   0.021   2.003  0.1613 -0.2720  1.6664
 1698SOL     OW16555   2.658   1.749   1.871 -0.2979  0.3179  0.4011
 1698SOL    HW116556   2.724   1.771   1.806 -0.5991 -0.6702 -0.2382
 1698SOL    HW216557   2.583   1.741   1.812 -0.6926 -0.5019  1.0120
 1699SOL     OW16558   2.580   3.080  11.255 -0.0189 -0.0316 -0.1645
 1699SOL    HW116559   2.519   3.015  11.221  0.1142 -1.1449  1.7659
 1699SOL    HW216560   2.644   3.094  11.185  3.5004 -3.3933  2.3999
 1700SOL     OW16561   3.865   2.369   8.689  0.0860 -0.9482 -0.2375
 1700SOL    HW116562   3.857   2.345   8.782  0.5690  0.6173  0.2099
 1700SOL    HW216563   3.796   2.430   8.667  0.2201  0.2529  2.6636
 1701SOL     OW16564   0.688   1.494   5.511  0.2242 -0.0465  0.1844
 1701SOL    HW116565   0.643   1.495   5.595 -3.2709 -1.7861 -1.6852
 1701SOL    HW216566   0.767   1.545   5.532 -0.4752  1.8354 -1.7276
 1702SOL     OW16567   3.836   3.816   9.300 -0.3550  0.7308 -0.7627
 1702SOL    HW116568   3.774   3.757   9.341 -1.1228  0.4793 -2.2830
 1702SOL    HW216569   3.886   3.844   9.377  0.3127 -2.3756 -0.0686
 1703SOL     OW16570   1.273   1.982  12.634  0.2183  0.5173  0.3723
 1703SOL    HW116571   1.347   1.943  12.587 -1.4341 -0.6042 -1.3145
 1703SOL    HW216572   1.209   2.014  12.570  0.8934  0.5209 -0.3023
 1704SOL     OW16573   1.920   1.433   6.314 -0.6009  0.0470  0.1579
 1704SOL    HW116574   1.924   1.344   6.278 -0.0295  0.0210  0.2878
 1704SOL    HW216575   2.004   1.436   6.360 -0.2091  1.0742 -0.6311
 1705SOL     OW16576   2.195   2.525  11.579  0.1764  0.2332  0.6902
 1705SOL    HW116577   2.121   2.545  11.636 -0.4210 -1.2633  0.4430
 1705SOL    HW216578   2.259   2.582  11.621  0.4495  0.7121 -0.3885
 1706SOL     OW16579   0.293   0.564   8.447  0.1632  0.2575 -0.0884
 1706SOL    HW116580   0.287   0.571   8.543  1.0215 -0.9735  0.0531
 1706SOL    HW216581   0.203   0.583   8.419 -0.5140  0.6733  2.3172
 1707SOL     OW16582   3.725   4.228  15.988  0.9020  0.0773 -0.0546
 1707SOL    HW116583   3.647   4.242  16.042  0.7446 -0.3923 -0.1615
 1707SOL    HW216584   3.695   4.273  15.909 -0.0542 -1.0079 -0.3057
 1708SOL     OW16585   2.650   3.687   1.659 -0.0655  0.3565  0.2561
 1708SOL    HW116586   2.681   3.737   1.734 -0.6217  0.5542  0.3529
 1708SOL    HW216587   2.632   3.758   1.597 -1.4024 -0.8334 -0.7336
 1709SOL     OW16588   3.506   1.611   2.365  0.2364  0.5748  0.4323
 1709SOL    HW116589   3.590   1.613   2.410 -1.0541  1.6917  2.8380
 1709SOL    HW216590   3.508   1.537   2.305  1.4328 -0.0450  1.2412
 1710SOL     OW16591   2.189   2.864   8.249 -0.1523  0.4496  0.0120
 1710SOL    HW116592   2.109   2.915   8.265  0.4839  1.4600  0.0023
 1710SOL    HW216593   2.167   2.789   8.304  0.8176  0.2752  0.1484
 1711SOL     OW16594   0.454   1.443   9.320 -0.0383  0.0039 -0.1427
 1711SOL    HW116595   0.370   1.405   9.347 -1.1591  3.7122  1.5716
 1711SOL    HW216596   0.440   1.538   9.317  0.6685  0.1162  0.2991
 1712SOL     OW16597   2.332   1.322   4.437  0.4922 -0.1619 -0.3676
 1712SOL    HW116598   2.247   1.279   4.440 -0.3863  1.4560 -2.5410
 1712SOL    HW216599   2.336   1.370   4.520  1.0887  1.7239 -1.5039
 1713SOL     OW16600   3.384   3.618  16.198 -0.2311  0.4479 -0.2460
 1713SOL    HW116601   3.401   3.574  16.282  0.9259  0.8538 -0.2671
 1713SOL    HW216602   3.333   3.555  16.147  1.5032 -0.2267 -1.1400
 1714SOL     OW16603   0.277   1.618  14.921 -0.9984 -0.1408  0.0818
 1714SOL    HW116604   0.215   1.682  14.885 -2.2849 -1.5432 -0.1624
 1714SOL    HW216605   0.220   1.574  14.983  1.7248 -0.7435  2.1496
 1715SOL     OW16606   0.030   2.678  11.359  0.0641 -0.1176 -0.1337
 1715SOL    HW116607   0.051   2.627  11.281 -1.8642 -0.1699 -0.5995
 1715SOL    HW216608   0.115   2.696  11.400  0.8494  0.0900 -1.8780
 1716SOL     OW16609   1.119   0.425   3.739 -0.0886 -0.0760  0.2014
 1716SOL    HW116610   1.035   0.386   3.716  0.1681 -0.8614  0.6007
 1716SOL    HW216611   1.104   0.518   3.720 -1.6043  0.2691  2.9706
 1717SOL     OW16612   3.835   0.767   4.910 -0.0175  0.1953 -0.2773
 1717SOL    HW116613   3.768   0.700   4.924 -0.7276  0.8655 -0.4681
 1717SOL    HW216614   3.863   0.797   4.997 -1.2235 -0.9423  0.5107
 1718SOL     OW16615   0.360   3.220   6.505  0.6911  0.2209  0.0349
 1718SOL    HW116616   0.376   3.230   6.599 -2.8882 -1.0570  0.7954
 1718SOL    HW216617   0.383   3.128   6.492 -0.8286  0.2844 -2.9162
 1719SOL     OW16618   4.042   3.868  12.298 -0.1542 -0.2568  0.1870
 1719SOL    HW116619   4.081   3.919  12.227  2.0054 -1.1829  0.7126
 1719SOL    HW216620   4.103   3.857  12.371 -1.9019 -1.0245  1.5280
 1720SOL     OW16621   3.471   2.247  14.135  0.4725 -0.1363 -0.7458
 1720SOL    HW116622   3.551   2.292  14.165  0.0108 -0.5675  1.1349
 1720SOL    HW216623   3.435   2.319  14.084 -1.4061 -0.1995  0.4974
 1721SOL     OW16624   2.344   2.134  11.343 -0.9248 -0.2083  0.1502
 1721SOL    HW116625   2.276   2.068  11.354  0.3171 -1.2524  1.4467
 1721SOL    HW216626   2.361   2.150  11.436  0.7175  1.6873 -0.4665
 1722SOL     OW16627   0.282   2.139  16.146 -0.2178  0.2924 -0.7971
 1722SOL    HW116628   0.347   2.110  16.210 -0.1557 -1.8088 -1.8132
 1722SOL    HW216629   0.271   2.063  16.088 -1.0009  1.1528 -1.7918
 1723SOL     OW16630   2.520   4.030  15.717  0.0480  0.6581  0.8788
 1723SOL    HW116631   2.530   4.125  15.708 -0.7560  0.4864 -1.7837
 1723SOL    HW216632   2.426   4.025  15.699  0.8005  1.1007 -3.0891
 1724SOL     OW16633   3.754   4.526   4.899 -0.1737  0.2715 -0.1087
 1724SOL    HW116634   3.708   4.520   4.983 -1.6928 -0.6284 -1.0048
 1724SOL    HW216635   3.774   4.434   4.886  0.9632  0.4420  0.4166
 1725SOL     OW16636   2.314   1.250  12.241  0.5663 -0.4755  0.2271
 1725SOL    HW116637   2.365   1.218  12.316  0.3802 -1.0652  0.0968
 1725SOL    HW216638   2.385   1.275  12.181  1.5567  0.2838  1.7034
 1726SOL     OW16639   0.579   3.684   1.618 -0.4596 -0.2516  0.6520
 1726SOL    HW116640   0.518   3.637   1.561  0.0731 -0.6986  0.4499
 1726SOL    HW216641   0.666   3.647   1.603 -0.0567 -0.0484  2.5654
 1727SOL     OW16642   1.767   1.933   4.261  0.2739 -0.4768 -0.0813
 1727SOL    HW116643   1.772   1.968   4.350 -1.6405 -1.5066  0.4365
 1727SOL    HW216644   1.763   2.011   4.205  1.3756 -0.2216  0.2015
 1728SOL     OW16645   3.281   1.808  16.699 -0.0532 -0.4729 -0.7060
 1728SOL    HW116646   3.320   1.774  16.618  1.4192  0.8070 -0.5380
 1728SOL    HW216647   3.328   1.757  16.765  0.9473  0.6633 -0.5446
 1729SOL     OW16648   3.699   2.817   2.923  0.1875  0.5389 -0.0819
 1729SOL    HW116649   3.767   2.790   2.861 -1.1224 -1.9722 -0.4468
 1729SOL    HW216650   3.650   2.873   2.864  0.3591 -0.9510 -1.6352
 1730SOL     OW16651   1.413   1.305   0.642 -0.2906 -0.1892  0.2494
 1730SOL    HW116652   1.364   1.278   0.719 -2.0200 -0.3849 -0.9246
 1730SOL    HW216653   1.454   1.384   0.678  0.7671  0.1443 -1.7120
 1731SOL     OW16654   1.371   0.135   6.153 -0.1867 -0.3295  0.2727
 1731SOL    HW116655   1.353   0.161   6.062  1.6581  1.4057  0.4045
 1731SOL    HW216656   1.454   0.089   6.140 -0.9014 -1.7936  0.9295
 1732SOL     OW16657   0.510   1.241   5.078 -0.8835 -0.2229 -0.2897
 1732SOL    HW116658   0.443   1.197   5.130 -0.1203 -0.4256  0.5147
 1732SOL    HW216659   0.549   1.296   5.146  0.2366  1.9577 -2.7103
 1733SOL     OW16660   0.407   3.356  17.488 -0.3201 -0.3060  0.0372
 1733SOL    HW116661   0.478   3.331  17.548 -0.9429 -0.7171  0.6071
 1733SOL    HW216662   0.449   3.364  17.403  1.6513 -2.8701  0.7333
 1734SOL     OW16663   0.270   3.625   2.248 -0.1962  0.0940  0.4499
 1734SOL    HW116664   0.289   3.583   2.332 -0.3291  0.1332  0.4999
 1734SOL    HW216665   0.184   3.584   2.240 -0.2463  0.2062  0.4127
 1735SOL     OW16666   4.139   3.010   8.231  0.0711  0.0308 -0.1019
 1735SOL    HW116667   4.151   3.052   8.146  0.1697  0.1455 -0.0314
 1735SOL    HW216668   4.221   2.960   8.231 -0.7741 -1.3662  1.1569
 1736SOL     OW16669   2.833   3.797  14.248  0.3802  0.1769  0.2455
 1736SOL    HW116670   2.800   3.714  14.215  0.0607  0.4237 -0.0621
 1736SOL    HW216671   2.841   3.776  14.341 -1.2048 -0.1769  0.3070
 1737SOL     OW16672   0.757   3.117   6.877  0.7683 -0.2947 -0.3601
 1737SOL    HW116673   0.802   3.116   6.961 -1.7614  0.1468  1.0224
 1737SOL    HW216674   0.707   3.036   6.885 -0.0084  0.5832  3.5896
 1738SOL     OW16675   0.605   2.652   6.616  0.6817  0.1190 -0.0446
 1738SOL    HW116676   0.604   2.659   6.520  1.4809 -0.1211 -0.0708
 1738SOL    HW216677   0.685   2.704   6.626  1.2356 -0.6912 -0.2690
 1739SOL     OW16678   0.909   3.249   8.797  0.4868 -0.1781  0.1194
 1739SOL    HW116679   0.836   3.227   8.739  0.1495  1.5573 -0.1052
 1739SOL    HW216680   0.934   3.340   8.781 -2.1526  0.5989  0.3414
 1740SOL     OW16681   2.627   2.972   1.644 -0.1490 -0.5833  0.4738
 1740SOL    HW116682   2.628   2.992   1.550 -0.0240  0.3215  0.6667
 1740SOL    HW216683   2.593   2.882   1.643 -0.9517 -0.2670 -0.3255
 1741SOL     OW16684   0.416   2.576   3.092 -0.1390 -0.2925 -0.2154
 1741SOL    HW116685   0.465   2.495   3.103  1.3972  0.5463 -0.9274
 1741SOL    HW216686   0.376   2.587   3.179 -0.3338 -3.5721  0.0764
 1742SOL     OW16687   3.297   3.667   7.079  0.5777  0.1210 -0.0457
 1742SOL    HW116688   3.242   3.662   7.000  2.4021 -0.0473 -1.3085
 1742SOL    HW216689   3.372   3.705   7.033  0.6100  1.1916  0.9170
 1743SOL     OW16690   4.495   4.656   0.530  0.1368 -0.1195  0.1196
 1743SOL    HW116691   4.527   0.002   0.471  1.4213  0.9008  1.9743
 1743SOL    HW216692   4.548   4.679   0.606 -0.5407 -0.4200  0.6922
 1744SOL     OW16693   4.293   0.521   9.897  0.0539  0.4884 -0.4202
 1744SOL    HW116694   4.383   0.552   9.891 -0.6470  2.0599 -2.7945
 1744SOL    HW216695   4.273   0.556   9.983 -1.9615 -1.8714  0.0974
 1745SOL     OW16696   3.559   0.683  17.353 -0.7162 -0.2789 -0.8267
 1745SOL    HW116697   3.529   0.611  17.408  1.8078 -0.3733  0.4069
 1745SOL    HW216698   3.627   0.641  17.299  0.3147 -2.0650  1.8716
 1746SOL     OW16699   0.858   1.581   8.463 -0.1535 -0.0411 -0.2432
 1746SOL    HW116700   0.942   1.541   8.486 -1.0035 -0.3308  2.4039
 1746SOL    HW216701   0.833   1.565   8.373  1.5235  1.3658 -0.9704
 1747SOL     OW16702   4.272   0.522   8.105 -0.1951  0.1216 -0.0098
 1747SOL    HW116703   4.236   0.438   8.077  1.6580 -0.4307 -0.7548
 1747SOL    HW216704   4.254   0.514   8.199  0.9176 -0.1231  0.1847
 1748SOL     OW16705   4.056   1.471  11.281  0.0404 -0.7209  0.4287
 1748SOL    HW116706   4.028   1.445  11.193  2.7859 -0.3859 -0.5738
 1748SOL    HW216707   3.976   1.520  11.297 -0.2580 -1.0585 -0.0143
 1749SOL     OW16708   4.256   1.787   2.579 -0.5291 -0.8480  0.1907
 1749SOL    HW116709   4.260   1.842   2.501 -0.8299 -1.2642 -0.1141
 1749SOL    HW216710   4.218   1.707   2.543  0.1339 -1.0560 -0.0659
 1750SOL     OW16711   4.497   4.381   3.687 -0.1562 -0.3542  0.3861
 1750SOL    HW116712   4.567   4.377   3.752  1.2811  2.6536 -0.9947
 1750SOL    HW216713   4.487   4.475   3.702 -1.9531 -0.7338  1.4884
 1751SOL     OW16714   4.710   2.770   7.130  0.7095  0.8279  0.1758
 1751SOL    HW116715   0.008   2.718   7.208  2.9540  1.4554  0.0446
 1751SOL    HW216716   4.640   2.714   7.098  1.0646  0.1974  0.5004
 1752SOL     OW16717   4.359   4.012   2.781 -0.5279  0.3194  0.1806
 1752SOL    HW116718   4.389   4.102   2.767  0.1355  0.0308 -0.2493
 1752SOL    HW216719   4.445   3.981   2.811 -0.7958 -1.3561 -0.7654
 1753SOL     OW16720   1.789   4.196   5.384 -0.6102  0.6943  0.1348
 1753SOL    HW116721   1.831   4.190   5.469 -3.4245 -1.8030  1.3310
 1753SOL    HW216722   1.855   4.233   5.325 -1.2034  0.9180 -0.3924
 1754SOL     OW16723   0.965   0.015   2.835 -0.1167 -0.3206  0.2947
 1754SOL    HW116724   1.034   0.075   2.860  1.0651 -0.9812 -1.3667
 1754SOL    HW216725   0.890   0.066   2.866 -2.2424 -3.0029 -0.3246
 1755SOL     OW16726   4.449   2.751   7.697  0.1548  0.2676  0.1059
 1755SOL    HW116727   4.479   2.672   7.742 -1.4461 -1.0463 -1.1255
 1755SOL    HW216728   4.522   2.810   7.716  0.5454 -0.1183 -0.2045
 1756SOL     OW16729   4.567   3.858   0.881  0.4462  0.0612  0.9971
 1756SOL    HW116730   4.485   3.851   0.832 -0.8391 -0.6054  3.1988
 1756SOL    HW216731   4.528   3.854   0.969  1.3168 -0.8448  1.3500
 1757SOL     OW16732   4.417   1.205   6.694  0.2885 -0.6008  0.0153
 1757SOL    HW116733   4.383   1.121   6.663  1.3666 -0.1092 -2.5223
 1757SOL    HW216734   4.464   1.174   6.771  2.0267 -1.0099 -1.2028
 1758SOL     OW16735   2.003   1.786   3.135  0.5306 -0.3445 -0.2296
 1758SOL    HW116736   1.931   1.830   3.180  1.3255 -0.5066  1.1975
 1758SOL    HW216737   2.059   1.858   3.105 -1.6252  1.7237  0.6534
 1759SOL     OW16738   0.108   1.640   3.565  0.1869  0.3737 -0.1567
 1759SOL    HW116739   0.202   1.660   3.574  0.9248 -2.4442 -1.6041
 1759SOL    HW216740   0.074   1.727   3.547  1.1148  0.6477 -0.5775
 1760SOL     OW16741   0.974   3.506   8.640  0.2699  0.1855  0.6943
 1760SOL    HW116742   1.053   3.458   8.615  0.3584  0.3982  0.5648
 1760SOL    HW216743   1.008   3.570   8.702 -0.7426 -0.3363  1.7856
 1761SOL     OW16744   2.247   0.880  11.834 -0.1655 -0.1663  0.1499
 1761SOL    HW116745   2.282   0.880  11.923  0.7854 -1.0992 -0.2212
 1761SOL    HW216746   2.212   0.969  11.833  0.6618  0.1471 -0.5214
 1762SOL     OW16747   1.624   3.688   5.233 -0.2035  0.1863  0.3833
 1762SOL    HW116748   1.631   3.676   5.139  2.2952 -0.0614  0.5848
 1762SOL    HW216749   1.716   3.698   5.261 -0.5657  1.6901  1.0519
 1763SOL     OW16750   3.347   2.673   4.253 -0.2253 -0.3844 -0.3043
 1763SOL    HW116751   3.431   2.683   4.209 -0.1635  0.0361 -0.0985
 1763SOL    HW216752   3.329   2.766   4.265  0.2920 -0.9328  4.5503
 1764SOL     OW16753   0.674   2.994   5.449  0.1744  0.0222  0.0103
 1764SOL    HW116754   0.660   3.079   5.406 -4.0348 -0.6026  0.1829
 1764SOL    HW216755   0.765   2.994   5.480 -0.0047  1.8553  0.5753
 1765SOL     OW16756   1.628   2.737   6.957 -0.4059  0.5659  0.0022
 1765SOL    HW116757   1.649   2.791   6.881  0.0930  0.2152 -0.1147
 1765SOL    HW216758   1.704   2.678   6.960 -0.0785  0.9660 -0.3585
 1766SOL     OW16759   1.544   4.026  16.081  0.2295 -0.2392  0.2105
 1766SOL    HW116760   1.546   4.060  16.171 -2.0646  1.0462 -0.2078
 1766SOL    HW216761   1.519   4.102  16.029 -1.3833  1.8068  3.9023
 1767SOL     OW16762   3.690   1.763   4.758 -0.4073  0.0614  0.2683
 1767SOL    HW116763   3.785   1.770   4.751 -0.3344 -0.7630  0.4971
 1767SOL    HW216764   3.687   1.668   4.757 -0.2492  0.0636 -0.3564
 1768SOL     OW16765   3.959   4.058  10.319  0.3611 -0.8944  0.5853
 1768SOL    HW116766   3.999   4.032  10.402 -0.1770 -1.3547  0.6985
 1768SOL    HW216767   3.934   4.144  10.353  0.3233 -1.6567  2.5472
 1769SOL     OW16768   4.720   2.501   5.898  0.3393  0.1878 -0.3483
 1769SOL    HW116769   4.647   2.528   5.843  1.0740 -1.6203 -2.2093
 1769SOL    HW216770   0.032   2.427   5.848 -1.9392 -0.6721 -0.5778
 1770SOL     OW16771   3.545   2.664   9.011 -0.2615 -0.1460  0.3038
 1770SOL    HW116772   3.456   2.689   9.034 -0.0642  1.5308 -0.7910
 1770SOL    HW216773   3.575   2.746   8.972 -1.8837  0.7844  1.0027
 1771SOL     OW16774   2.432   4.045   3.562 -0.7550  0.1209 -0.3457
 1771SOL    HW116775   2.353   4.066   3.613 -0.4878 -1.8699  0.8663
 1771SOL    HW216776   2.427   4.101   3.484  1.1752 -0.6145 -0.9827
 1772SOL     OW16777   1.155   2.469   9.271 -0.0303 -0.1756 -0.0095
 1772SOL    HW116778   1.097   2.532   9.313 -1.3217  0.1231 -2.2232
 1772SOL    HW216779   1.171   2.400   9.335  0.5765 -0.1936 -0.1749
 1773SOL     OW16780   3.919   1.922   1.693 -0.2930  0.0140 -0.0897
 1773SOL    HW116781   3.892   1.858   1.627 -1.3506 -2.8582  3.1734
 1773SOL    HW216782   4.007   1.944   1.660  0.4009 -2.9503 -0.1822
 1774SOL     OW16783   4.558   1.964   4.465  0.1178 -0.0905  0.0395
 1774SOL    HW116784   4.491   1.927   4.408  1.8509 -2.0561 -0.7201
 1774SOL    HW216785   4.610   2.023   4.410 -1.5085  1.8469  0.5886
 1775SOL     OW16786   0.217   1.757   4.257  0.3635 -0.3924  0.0151
 1775SOL    HW116787   0.304   1.793   4.277  0.2071 -0.4025  0.7202
 1775SOL    HW216788   0.237   1.711   4.176  0.9482  0.8068 -0.5196
 1776SOL     OW16789   0.958   2.590   6.086  0.8029  0.4498  0.2718
 1776SOL    HW116790   0.961   2.626   5.997  1.0491  0.1153  0.1465
 1776SOL    HW216791   0.948   2.495   6.083  1.9595  0.4054 -2.5412
 1777SOL     OW16792   0.045   1.881   7.719 -0.5952  0.7474 -0.6944
 1777SOL    HW116793   4.673   1.874   7.700 -0.6358 -1.4554  0.3773
 1777SOL    HW216794   0.053   1.819   7.791  2.8920  2.9725  0.8580
 1778SOL     OW16795   2.474   4.143  14.896  0.1173 -0.2801  0.3113
 1778SOL    HW116796   2.429   4.169  14.816  0.8692  2.1906  0.6905
 1778SOL    HW216797   2.437   4.055  14.911 -0.4876  0.0118  0.5731
 1779SOL     OW16798   0.548   2.862   6.007 -0.6009  0.0928  0.0989
 1779SOL    HW116799   0.603   2.805   6.062 -0.0673 -1.0298 -1.5948
 1779SOL    HW216800   0.506   2.797   5.950  0.0936  0.1718 -0.4983
 1780SOL     OW16801   2.024   0.696   5.924 -0.8117 -0.0466  1.1655
 1780SOL    HW116802   2.093   0.632   5.907 -1.7635 -0.7050 -0.2672
 1780SOL    HW216803   2.066   0.780   5.940 -0.7311  0.4133 -1.3890
 1781SOL     OW16804   0.817   4.045  13.991 -0.2348 -0.2767 -0.3127
 1781SOL    HW116805   0.880   4.057  13.919 -0.6810  2.0940 -0.3253
 1781SOL    HW216806   0.840   4.114  14.053 -0.3931  0.2741 -0.8678
 1782SOL     OW16807   0.299   0.126  10.637  0.6124  0.5149  0.4185
 1782SOL    HW116808   0.236   0.175  10.584 -0.3877 -1.0487  0.1519
 1782SOL    HW216809   0.356   0.098  10.566 -2.2701 -1.5881 -1.0855
 1783SOL     OW16810   1.192   0.198  13.361 -0.1149  0.2647  0.5580
 1783SOL    HW116811   1.229   0.157  13.438 -0.1877 -0.8933 -0.0277
 1783SOL    HW216812   1.183   0.125  13.300 -0.3237  0.5567  0.2337
 1784SOL     OW16813   0.085   0.549   9.028 -0.0287  0.5560 -0.2380
 1784SOL    HW116814   0.047   0.581   9.110  0.0743  2.7121 -1.0365
 1784SOL    HW216815   0.123   0.468   9.061 -1.1764  0.1257  0.0418
 1785SOL     OW16816   1.473   1.551  15.134  0.1647  0.6004 -0.0935
 1785SOL    HW116817   1.453   1.469  15.090  2.1929  0.2430 -0.3677
 1785SOL    HW216818   1.410   1.562  15.205 -0.3281 -1.3053 -0.2465
 1786SOL     OW16819   1.700   0.739   7.934  0.1068  0.3219 -0.4801
 1786SOL    HW116820   1.721   0.822   7.890  1.2192  0.8283  1.0169
 1786SOL    HW216821   1.647   0.696   7.867  1.7532 -0.7440 -1.0824
 1787SOL     OW16822   3.464   3.061   9.112 -0.6590 -0.4880  0.3371
 1787SOL    HW116823   3.420   3.084   9.030  0.9341  1.3448 -0.0205
 1787SOL    HW216824   3.439   3.130   9.173  0.1256 -0.5590  0.7413
 1788SOL     OW16825   0.993   0.695   3.927  0.1160 -0.1955  0.1756
 1788SOL    HW116826   1.034   0.713   3.843 -0.3580 -1.8510 -0.4083
 1788SOL    HW216827   1.060   0.647   3.975  0.7628 -0.1676 -0.7153
 1789SOL     OW16828   0.051   2.066   4.297 -0.0215 -0.5309  0.1089
 1789SOL    HW116829   0.126   2.024   4.340 -1.8102 -4.2980 -0.4618
 1789SOL    HW216830   0.040   2.020   4.214 -2.3608  0.0045  0.1293
 1790SOL     OW16831   4.158   1.812   5.690  0.3077 -0.7317 -0.3567
 1790SOL    HW116832   4.095   1.882   5.705  1.1766 -0.4131  1.8645
 1790SOL    HW216833   4.111   1.764   5.622  0.1453  0.5930 -1.1762
 1791SOL     OW16834   2.650   0.964   3.587 -0.1421 -0.1640 -0.0719
 1791SOL    HW116835   2.685   1.016   3.660 -1.9625 -0.6513  1.1409
 1791SOL    HW216836   2.725   0.957   3.527 -1.9728  2.6731 -2.6951
 1792SOL     OW16837   2.964   0.048   8.143 -0.2617 -0.1557  0.0247
 1792SOL    HW116838   3.015   4.721   8.208 -1.1569  0.6749  1.3556
 1792SOL    HW216839   2.923   4.696   8.097  1.9835 -2.2074  1.3142
 1793SOL     OW16840   1.072   0.261   8.501 -0.7329 -0.2758 -0.2390
 1793SOL    HW116841   1.033   0.176   8.482 -0.3331 -0.8003  1.3140
 1793SOL    HW216842   1.065   0.252   8.596  0.4054  3.1245  0.1839
 1794SOL     OW16843   2.421   1.320   7.660  0.0617 -0.0222  0.1351
 1794SOL    HW116844   2.362   1.288   7.729  0.9376 -1.3479  0.2621
 1794SOL    HW216845   2.354   1.310   7.592  0.3593  0.9218 -0.2936
 1795SOL     OW16846   3.835   2.949   9.182  0.0266  0.1374 -0.4593
 1795SOL    HW116847   3.922   2.990   9.186  1.4644 -2.9849  0.6072
 1795SOL    HW216848   3.821   2.915   9.271  2.4632  1.5059  0.4829
 1796SOL     OW16849   1.738   3.612   2.917  0.8080  0.7238 -0.1142
 1796SOL    HW116850   1.670   3.677   2.934 -1.8094 -2.0518  0.1159
 1796SOL    HW216851   1.700   3.550   2.855  0.2577  0.2854  0.6612
 1797SOL     OW16852   3.420   3.313  15.207 -0.2498  0.2562 -0.2674
 1797SOL    HW116853   3.416   3.403  15.238 -2.2578 -0.4224  1.4245
 1797SOL    HW216854   3.352   3.316  15.140  1.6761 -0.8715 -2.2445
 1798SOL     OW16855   3.160   3.250   7.303  0.3173  0.3356  0.0357
 1798SOL    HW116856   3.077   3.209   7.277  1.0789 -0.7542 -0.6902
 1798SOL    HW216857   3.126   3.335   7.331  0.8313 -0.2134  2.3470
 1799SOL     OW16858   3.779   3.523  17.220  0.2712 -0.0950  0.2007
 1799SOL    HW116859   3.872   3.508  17.202  0.2784 -0.7158  0.7145
 1799SOL    HW216860   3.785   3.601  17.275 -0.6170 -0.2985  0.5908
 1800SOL     OW16861   2.842   2.306  15.161  0.1360 -0.3831  0.6592
 1800SOL    HW116862   2.850   2.377  15.097 -2.4276 -1.5091 -0.9075
 1800SOL    HW216863   2.756   2.287  15.125 -0.2525  0.0326  1.3703
 1801SOL     OW16864   3.561   2.870  16.740  0.2158 -0.4746  0.7776
 1801SOL    HW116865   3.510   2.894  16.818 -0.1334  0.9212  0.1070
 1801SOL    HW216866   3.587   2.959  16.716 -2.4159 -0.3585 -1.5232
 1802SOL     OW16867   3.521   2.499  12.883 -0.3135 -0.3785 -0.4356
 1802SOL    HW116868   3.591   2.446  12.845 -1.1359 -2.6764  1.3210
 1802SOL    HW216869   3.523   2.567  12.815 -0.1891  2.0002  1.9512
 1803SOL     OW16870   3.344   3.155   8.879  0.2383  0.6494  0.0878
 1803SOL    HW116871   3.413   3.153   8.812 -0.5103 -0.0097 -0.6628
 1803SOL    HW216872   3.264   3.130   8.833 -0.7452  0.9301  1.6614
 1804SOL     OW16873   2.123   1.670   5.920 -0.1505  0.1207  0.0355
 1804SOL    HW116874   2.076   1.629   5.993 -0.6522 -0.3786 -0.5681
 1804SOL    HW216875   2.118   1.761   5.946  2.0897 -0.4063  2.3380
 1805SOL     OW16876   3.169   2.482   5.971  0.2567 -0.2007 -0.1391
 1805SOL    HW116877   3.110   2.419   5.930 -0.4192 -0.4961  1.3003
 1805SOL    HW216878   3.222   2.438   6.037 -1.0871  0.3444  1.3081
 1806SOL     OW16879   2.772   1.687   6.663  0.3598 -0.5449 -0.0250
 1806SOL    HW116880   2.864   1.696   6.639  0.4417  1.6419  1.0356
 1806SOL    HW216881   2.750   1.779   6.681 -0.0117 -0.7848  0.7575
 1807SOL     OW16882   1.871   4.019   0.483 -0.1111 -0.5012 -0.0261
 1807SOL    HW116883   1.849   4.112   0.495 -2.4613 -1.1756  0.9544
 1807SOL    HW216884   1.795   3.987   0.433 -0.9277  0.0372  0.8572
 1808SOL     OW16885   0.313   4.448   7.829  0.2564 -0.7963 -0.2901
 1808SOL    HW116886   0.384   4.385   7.846  0.2567 -0.4643  0.9400
 1808SOL    HW216887   0.327   4.475   7.738 -0.3677  0.1623 -0.0967
 1809SOL     OW16888   4.173   2.018   4.057 -0.5805 -0.2883  0.0549
 1809SOL    HW116889   4.258   2.037   4.017 -1.2101  0.9245 -0.7055
 1809SOL    HW216890   4.160   1.927   4.029  0.0921 -0.1029 -0.8482
 1810SOL     OW16891   0.221   0.046  13.437 -0.8459 -0.3382  0.1690
 1810SOL    HW116892   0.190   0.116  13.494 -0.4291 -0.5234  0.6163
 1810SOL    HW216893   0.223   4.698  13.502  0.3647  0.3440  0.8530
 1811SOL     OW16894   3.684   3.625  16.963  0.2118  0.0727 -0.1963
 1811SOL    HW116895   3.693   3.601  17.055 -1.5026  0.1687 -0.0036
 1811SOL    HW216896   3.747   3.696  16.949  0.4377  0.1270  1.0860
 1812SOL     OW16897   2.240   1.058   0.923  0.2546 -0.4322 -0.1534
 1812SOL    HW116898   2.318   1.014   0.957 -0.4340 -1.1065  0.5931
 1812SOL    HW216899   2.186   0.991   0.881 -0.4826 -0.4213  0.7534
 1813SOL     OW16900   2.008   0.561   7.252 -0.2919 -0.4550  0.3516
 1813SOL    HW116901   2.062   0.491   7.288  1.8662  0.0798 -1.7650
 1813SOL    HW216902   2.042   0.551   7.162 -2.0415 -3.2481  0.0126
 1814SOL     OW16903   0.862   0.864   2.352  0.2106  0.0415 -0.0248
 1814SOL    HW116904   0.954   0.840   2.354  0.3122  0.5814  1.5682
 1814SOL    HW216905   0.863   0.955   2.322  0.9961 -0.5472 -1.7983
 1815SOL     OW16906   1.331   4.380  14.881  0.5950 -0.1740 -0.2175
 1815SOL    HW116907   1.310   4.472  14.867  1.4891 -0.0824 -0.9316
 1815SOL    HW216908   1.425   4.384  14.865  0.4201  2.2839 -0.6569
 1816SOL     OW16909   3.748   4.606  13.656 -0.5236  0.4682  0.0374
 1816SOL    HW116910   3.763   4.517  13.621  0.6224  0.8583 -0.4819
 1816SOL    HW216911   3.782   4.651  13.579  0.1263 -1.0069 -0.5366
 1817SOL     OW16912   2.902   0.445   8.366  0.2299  0.4145 -0.4614
 1817SOL    HW116913   2.996   0.429   8.357  0.1984  1.2227 -2.2713
 1817SOL    HW216914   2.864   0.363   8.334 -0.8621  0.5507  0.4737
 1818SOL     OW16915   0.987   4.714   8.667 -0.8128  0.3155  0.3053
 1818SOL    HW116916   1.075   4.678   8.656 -0.7333  1.0100 -1.2653
 1818SOL    HW216917   0.936   4.635   8.651 -1.1575  0.2250  1.8177
 1819SOL     OW16918   3.428   2.098   8.526 -0.4800 -0.5890  0.0015
 1819SOL    HW116919   3.362   2.159   8.558  0.1823 -0.4771  1.1538
 1819SOL    HW216920   3.377   2.018   8.532 -1.2755  0.0302  1.4749
 1820SOL     OW16921   1.793   2.233   9.548 -0.6560 -0.6195 -0.2499
 1820SOL    HW116922   1.716   2.180   9.527 -1.0639 -1.4254  3.3038
 1820SOL    HW216923   1.759   2.308   9.597  0.5199 -0.6413  0.5743
 1821SOL     OW16924   4.002   4.640   6.779  0.2464 -0.0955  0.1259
 1821SOL    HW116925   4.004   4.554   6.736  0.6681  0.3394 -0.7213
 1821SOL    HW216926   4.060   4.622   6.853  0.7024  0.2514 -0.1458
 1822SOL     OW16927   1.380   0.461   3.757 -0.4330 -0.0144 -0.1431
 1822SOL    HW116928   1.414   0.389   3.705 -0.5352 -1.4952  1.8235
 1822SOL    HW216929   1.288   0.445   3.738 -0.5472  0.0759  0.3176
 1823SOL     OW16930   2.657   0.418  10.456 -0.1279 -0.3921  0.0754
 1823SOL    HW116931   2.744   0.432  10.492 -0.4382 -1.3287  1.1848
 1823SOL    HW216932   2.633   0.344  10.511 -0.9410 -0.1157  0.0855
 1824SOL     OW16933   3.734   3.402   6.873 -0.2481 -0.3011  0.0473
 1824SOL    HW116934   3.734   3.364   6.785 -0.1175 -0.2649  0.0324
 1824SOL    HW216935   3.661   3.354   6.914 -0.0468 -2.2917 -1.9217
 1825SOL     OW16936   1.859   2.855   5.878  0.2800  0.1941 -0.2486
 1825SOL    HW116937   1.940   2.896   5.847  0.1719  0.4681 -0.1660
 1825SOL    HW216938   1.867   2.769   5.836 -0.8712  0.2326 -0.5371
 1826SOL     OW16939   2.204   3.698  13.600 -0.1791 -0.5402 -0.1465
 1826SOL    HW116940   2.186   3.685  13.693 -1.8519 -3.0775 -0.8167
 1826SOL    HW216941   2.264   3.625  13.584 -1.6752 -2.3137  2.1475
 1827SOL     OW16942   1.872   1.690   2.013  0.6177  0.1434  0.2788
 1827SOL    HW116943   1.955   1.681   1.966  0.1627 -0.3176 -0.4408
 1827SOL    HW216944   1.903   1.706   2.102 -1.8937 -0.9794  1.3522
 1828SOL     OW16945   0.016   1.143  16.713  0.0813  0.6335 -0.3424
 1828SOL    HW116946   0.064   1.081  16.658  0.5491  0.2881  0.4474
 1828SOL    HW216947   0.075   1.160  16.786  0.3887  0.1137 -0.4685
 1829SOL     OW16948   1.719   3.491   7.201 -0.3234 -0.4587  0.2183
 1829SOL    HW116949   1.669   3.532   7.131 -1.5609 -1.0779  0.7312
 1829SOL    HW216950   1.657   3.446   7.259 -0.7472  1.0440  0.9183
 1830SOL     OW16951   3.592   0.165   6.127 -0.1767  0.3539 -0.7921
 1830SOL    HW116952   3.526   0.232   6.107 -1.0681 -0.2944 -0.0204
 1830SOL    HW216953   3.582   0.102   6.056  0.0474 -1.4187  0.7576
 1831SOL     OW16954   3.636   4.005  17.165 -0.3911  0.4108  0.6217
 1831SOL    HW116955   3.681   3.938  17.216 -2.1617 -1.2311  0.0324
 1831SOL    HW216956   3.705   4.071  17.163  0.2791 -0.3010  0.0699
 1832SOL     OW16957   0.653   4.035  10.911  0.0867  0.8530 -0.4822
 1832SOL    HW116958   0.665   4.069  10.823  1.9653  1.3524 -0.0199
 1832SOL    HW216959   0.726   3.975  10.927 -0.7354 -0.2006 -0.6723
 1833SOL     OW16960   0.920   1.707   3.126 -0.2101  0.1325 -0.0932
 1833SOL    HW116961   0.956   1.637   3.181  0.1702  0.2037 -0.2510
 1833SOL    HW216962   0.936   1.666   3.041 -1.5081  1.4766 -0.9926
 1834SOL     OW16963   2.084   0.396   1.579  0.2679  0.6828 -0.6107
 1834SOL    HW116964   2.078   0.422   1.671  0.8698 -1.5846  0.0909
 1834SOL    HW216965   2.081   0.480   1.535 -0.3323 -0.1004 -2.0644
 1835SOL     OW16966   0.232   4.437  13.106  0.8813  0.5781 -0.0111
 1835SOL    HW116967   0.173   4.378  13.155  0.3298 -0.1840 -1.6128
 1835SOL    HW216968   0.164   4.497  13.074  1.9341  0.8947 -1.6053
 1836SOL     OW16969   2.279   1.546   0.074  0.0736  1.0269 -0.5130
 1836SOL    HW116970   2.355   1.580   0.026 -0.0152  1.0742 -0.6201
 1836SOL    HW216971   2.300   1.453   0.072 -1.6337  0.6366 -0.0371
 1837SOL     OW16972   0.203   2.513   7.193  0.8282 -0.4315 -0.3633
 1837SOL    HW116973   0.129   2.513   7.254  2.3458 -0.8268  1.4810
 1837SOL    HW216974   0.227   2.422   7.204 -0.2266 -0.7926 -1.0240
 1838SOL     OW16975   3.390   0.369   8.546  0.1165 -0.3426  0.5522
 1838SOL    HW116976   3.304   0.367   8.503  0.9772 -2.8174 -1.0552
 1838SOL    HW216977   3.371   0.368   8.640  1.0039 -1.2944  0.7189
 1839SOL     OW16978   2.980   0.760  16.096  1.1822  0.5036  0.4722
 1839SOL    HW116979   3.053   0.713  16.137 -0.2574 -2.5720 -0.5142
 1839SOL    HW216980   3.016   0.797  16.016 -1.2349 -1.5221 -1.5349
 1840SOL     OW16981   3.248   3.261  14.107 -0.1314  0.7213 -0.2403
 1840SOL    HW116982   3.315   3.229  14.047  0.6204  0.2479  0.8684
 1840SOL    HW216983   3.299   3.308  14.172 -0.5639 -0.5898  1.0557
 1841SOL     OW16984   1.114   2.856   1.731 -0.0444 -0.3141 -0.1045
 1841SOL    HW116985   1.065   2.774   1.729  0.4466 -0.6505  1.6554
 1841SOL    HW216986   1.090   2.902   1.651 -0.6827  1.3016  1.0070
 1842SOL     OW16987   4.323   4.486  10.729  0.0206  0.0859 -0.4173
 1842SOL    HW116988   4.251   4.426  10.749 -0.1590 -0.1282 -1.6870
 1842SOL    HW216989   4.378   4.447  10.797 -1.0427 -0.2777  0.2312
 1843SOL     OW16990   0.089   4.631  12.773 -0.0843  0.7154 -0.3486
 1843SOL    HW116991   0.109   0.001  12.793 -0.6387  0.8857 -0.5728
 1843SOL    HW216992   0.082   4.593  12.860 -1.6926  2.5944  0.3499
 1844SOL     OW16993   3.019   4.410   0.844  0.2047 -0.5456 -0.1969
 1844SOL    HW116994   2.945   4.469   0.825  0.4866 -0.0944  0.0955
 1844SOL    HW216995   3.080   4.468   0.890  0.2853 -0.0458 -0.9330
 1845SOL     OW16996   1.568   2.233   6.921  0.4161  0.8091 -0.0668
 1845SOL    HW116997   1.564   2.150   6.969 -2.5050  2.1775  2.0149
 1845SOL    HW216998   1.476   2.251   6.902 -0.0496 -2.4135 -0.7366
 1846SOL     OW16999   2.420   2.098   0.265  0.8075 -0.3388  0.5804
 1846SOL    HW117000   2.392   2.091   0.174  0.0459  1.0113  0.6989
 1846SOL    HW217001   2.378   2.181   0.288 -1.8485 -1.4659 -0.2135
 1847SOL     OW17002   1.364   3.937   6.268 -0.3937 -0.3471  0.1266
 1847SOL    HW117003   1.360   4.027   6.235  1.5500 -0.4163 -0.3577
 1847SOL    HW217004   1.425   3.942   6.342  3.5885 -2.0487 -3.0360
 1848SOL     OW17005   0.671   3.161  12.410 -0.1145 -0.0295  0.0587
 1848SOL    HW117006   0.665   3.256  12.401 -0.1599 -0.0517 -0.1421
 1848SOL    HW217007   0.662   3.140  12.317  2.6100  0.9323 -0.4163
 1849SOL     OW17008   3.338   2.627   6.411 -0.1492  0.5003  0.6861
 1849SOL    HW117009   3.432   2.617   6.393 -0.1571  1.2750  0.2234
 1849SOL    HW217010   3.306   2.685   6.342  2.1930  1.5452  0.4684
 1850SOL     OW17011   1.771   0.456   6.251  0.3590 -0.2155  0.9402
 1850SOL    HW117012   1.781   0.510   6.330  3.9623 -0.2939  0.5413
 1850SOL    HW217013   1.748   0.371   6.289  0.2458 -1.2276 -1.4292
 1851SOL     OW17014   4.550   3.714   8.185 -0.7135 -0.5707 -0.0664
 1851SOL    HW117015   4.531   3.641   8.126  0.2947 -1.5723  0.8487
 1851SOL    HW217016   4.481   3.775   8.160  1.2599  1.7253  0.1983
 1852SOL     OW17017   3.275   2.056  12.607 -0.2017 -0.1053  0.0806
 1852SOL    HW117018   3.357   2.092  12.640  1.0654 -1.4666 -1.5709
 1852SOL    HW217019   3.214   2.108  12.660  0.7775 -1.9895  3.0426
 1853SOL     OW17020   1.811   2.266  11.240 -0.1482  0.4337  0.2033
 1853SOL    HW117021   1.855   2.348  11.218 -0.9953  0.7742 -0.2313
 1853SOL    HW217022   1.823   2.211  11.163  1.7736  0.6494  0.3501
 1854SOL     OW17023   4.307   0.016  12.456 -0.4139 -0.0082 -0.2105
 1854SOL    HW117024   4.301   0.088  12.393 -1.8959 -0.0477 -0.1093
 1854SOL    HW217025   4.394   0.046  12.481 -0.7826  0.4282  0.5181
 1855SOL     OW17026   4.291   1.765   3.997 -0.3787 -0.0908 -0.2203
 1855SOL    HW117027   4.293   1.669   3.998  1.6857 -0.0243  1.0496
 1855SOL    HW217028   4.353   1.770   3.924 -1.1646 -1.9763 -1.0354
 1856SOL     OW17029   3.919   0.403   7.606 -0.3615  0.3346 -0.4718
 1856SOL    HW117030   3.911   0.313   7.574  1.4697  1.0284 -2.8718
 1856SOL    HW217031   3.827   0.424   7.622 -0.2285  0.6436 -0.1087
 1857SOL     OW17032   2.265   1.888   0.414 -0.4971 -0.1141  0.1860
 1857SOL    HW117033   2.309   1.940   0.348  0.7762 -0.2701  0.9053
 1857SOL    HW217034   2.342   1.863   0.466 -0.7392  1.5796  1.3656
 1858SOL     OW17035   0.214   1.178   6.245 -0.3196 -0.5053  0.3843
 1858SOL    HW117036   0.133   1.185   6.194 -1.4683  1.0258  2.4048
 1858SOL    HW217037   0.184   1.126   6.320 -2.1219 -0.5374 -0.3646
 1859SOL     OW17038   0.020   1.090   3.255  0.1289 -0.6590  0.2002
 1859SOL    HW117039   0.027   1.071   3.161  1.7373 -3.0551  0.8092
 1859SOL    HW217040   0.086   1.156   3.274 -0.8548  0.5839 -0.7251
 1860SOL     OW17041   4.375   2.272   6.538 -0.4450 -0.3279 -0.6435
 1860SOL    HW117042   4.469   2.257   6.543 -0.2919  1.8576  2.9421
 1860SOL    HW217043   4.349   2.209   6.605 -1.2989 -1.5332 -2.1147
 1861SOL     OW17044   2.928   0.443  15.234  0.3783  0.7580 -0.3222
 1861SOL    HW117045   2.939   0.461  15.141 -0.3029  1.6850 -0.2224
 1861SOL    HW217046   3.016   0.436  15.271  0.8307 -0.5603 -1.6276
 1862SOL     OW17047   1.927   4.350   1.130  0.2287 -0.1780  0.1506
 1862SOL    HW117048   1.847   4.388   1.094  0.8111  0.7109 -0.1915
 1862SOL    HW217049   1.892   4.306   1.208  0.2780 -0.2046  0.1578
 1863SOL     OW17050   0.904   3.366   4.022  0.1103 -0.2646 -0.2206
 1863SOL    HW117051   0.914   3.394   4.113 -1.7505 -0.0608 -0.0667
 1863SOL    HW217052   0.809   3.372   4.015 -0.1189 -0.5528  2.5553
 1864SOL     OW17053   2.479   0.576   6.609  0.5208  0.5411 -0.1360
 1864SOL    HW117054   2.554   0.596   6.553  2.6835  0.1892  2.6030
 1864SOL    HW217055   2.450   0.666   6.624 -0.3737  0.3126 -0.5129
 1865SOL     OW17056   0.333   2.887   5.775  0.8762 -0.1027  0.2943
 1865SOL    HW117057   0.270   2.826   5.815  0.3659  0.6551  0.6439
 1865SOL    HW217058   0.397   2.823   5.744 -1.4236 -1.0107 -2.5201
 1866SOL     OW17059   3.851   4.368   8.643  0.3858  0.0685 -0.3504
 1866SOL    HW117060   3.852   4.290   8.699  0.5784  1.2592  1.2982
 1866SOL    HW217061   3.920   4.423   8.680  1.2797 -0.9197 -0.5430
 1867SOL     OW17062   3.603   1.956   7.404 -0.1376 -0.0525 -0.5663
 1867SOL    HW117063   3.680   2.002   7.438 -0.7520  0.8608 -0.3904
 1867SOL    HW217064   3.572   2.019   7.340  0.7646 -1.9532 -2.8503
 1868SOL     OW17065   0.840   4.485   5.284  0.0873  0.0987  0.1879
 1868SOL    HW117066   0.934   4.466   5.273 -0.0767 -1.2589  1.0723
 1868SOL    HW217067   0.813   4.393   5.292 -3.5915  1.3574  2.2578
 1869SOL     OW17068   0.395   3.975   6.885 -0.5738  0.2094 -0.4341
 1869SOL    HW117069   0.444   4.046   6.842  0.5389 -0.8143 -0.8336
 1869SOL    HW217070   0.462   3.924   6.929 -1.4305 -1.7068 -1.3655
 1870SOL     OW17071   0.291   3.536   6.390 -0.1259  0.5048 -0.1479
 1870SOL    HW117072   0.205   3.578   6.388 -1.5851 -2.3840  1.1249
 1870SOL    HW217073   0.271   3.449   6.426  1.3934  1.1852  2.3457
 1871SOL     OW17074   3.287   4.037   5.802  0.2780 -0.1794  0.3194
 1871SOL    HW117075   3.377   4.044   5.836  0.0998  1.2970  0.5159
 1871SOL    HW217076   3.241   4.097   5.861  1.9311  0.3063  1.1181
 1872SOL     OW17077   1.160   0.967   4.417  0.2273 -0.2702  0.1332
 1872SOL    HW117078   1.174   1.033   4.349 -0.5792 -1.2141 -0.9660
 1872SOL    HW217079   1.105   1.015   4.479 -0.3662  1.2238 -1.5508
 1873SOL     OW17080   1.558   4.376  12.271  0.1015  0.2262 -0.0505
 1873SOL    HW117081   1.579   4.320  12.346  0.4774 -1.2624 -1.2624
 1873SOL    HW217082   1.633   4.355  12.215 -1.0639 -0.8756 -1.1950
 1874SOL     OW17083   2.840   1.390   4.176 -0.3185  0.0613 -0.0908
 1874SOL    HW117084   2.913   1.435   4.134  0.7066 -0.7315  0.8349
 1874SOL    HW217085   2.826   1.320   4.112 -1.2363  0.3139 -0.1672
 1875SOL     OW17086   2.020   4.252  14.426 -0.4396  0.0410  0.2345
 1875SOL    HW117087   1.981   4.323  14.476 -1.4638 -1.3750  1.4396
 1875SOL    HW217088   2.090   4.219  14.483  0.1946  1.3509  0.2133
 1876SOL     OW17089   2.334   4.546   8.700 -0.7111  0.1079 -0.1588
 1876SOL    HW117090   2.366   4.458   8.679  1.2608  0.8579 -0.2759
 1876SOL    HW217091   2.239   4.536   8.714 -1.0244 -2.1784 -4.0889
 1877SOL     OW17092   0.264   0.917  15.810  0.6105 -0.4946 -0.1938
 1877SOL    HW117093   0.273   0.958  15.896 -0.2391  1.6735 -1.1531
 1877SOL    HW217094   0.182   0.869  15.823 -0.4669  1.2742 -0.5433
 1878SOL     OW17095   0.146   0.217   5.043  0.4206 -0.2919 -0.1070
 1878SOL    HW117096   0.153   0.134   5.089 -3.3647  1.1755  3.1769
 1878SOL    HW217097   0.207   0.269   5.096 -0.3887  0.3446  0.2114
 1879SOL     OW17098   2.570   1.488   7.497 -0.0459  0.0836 -0.1457
 1879SOL    HW117099   2.514   1.439   7.557 -1.2206 -0.6282 -1.8298
 1879SOL    HW217100   2.555   1.579   7.523  0.4787  0.2112 -0.2806
 1880SOL     OW17101   2.123   0.868   7.282  0.7069  0.1658  0.2014
 1880SOL    HW117102   2.129   0.893   7.374 -0.7675  2.2337 -0.2557
 1880SOL    HW217103   2.102   0.775   7.281 -3.0621  1.0235  0.9440
 1881SOL     OW17104   1.165   0.500  11.730  0.2029  0.3072 -0.1965
 1881SOL    HW117105   1.202   0.494  11.818  0.3738  1.7664 -0.1717
 1881SOL    HW217106   1.245   0.495  11.676 -0.7413 -0.4066 -1.5409
 1882SOL     OW17107   4.016   0.478   0.671 -0.3155  0.1425  0.3571
 1882SOL    HW117108   4.006   0.401   0.727 -0.6386  0.1892  0.3663
 1882SOL    HW217109   3.926   0.489   0.640 -0.0033 -1.1786 -1.0017
 1883SOL     OW17110   2.491   4.222  13.730 -0.3126  0.5208 -0.2809
 1883SOL    HW117111   2.493   4.262  13.817  2.2027  0.9762 -0.5603
 1883SOL    HW217112   2.434   4.277  13.676 -1.8317 -1.3839 -0.6524
 1884SOL     OW17113   3.296   1.156   9.549  0.4312  0.3699 -0.3994
 1884SOL    HW117114   3.379   1.205   9.545  0.6879 -0.1779 -1.7897
 1884SOL    HW217115   3.321   1.071   9.512  0.4328 -1.1258  3.0413
 1885SOL     OW17116   4.404   2.959   8.170 -0.0331  0.0165  0.0899
 1885SOL    HW117117   4.439   2.961   8.081 -1.7221  3.8389 -0.4862
 1885SOL    HW217118   4.453   3.026   8.218  0.2555 -1.3331  1.6872
 1886SOL     OW17119   2.211   0.993   0.210  0.0612  0.3045  0.1688
 1886SOL    HW117120   2.194   1.030   0.297  0.9233 -0.0395  0.4866
 1886SOL    HW217121   2.306   1.004   0.206  0.2493 -1.7925 -0.8530
 1887SOL     OW17122   3.386   3.335   6.657  0.0783 -0.0581  0.2035
 1887SOL    HW117123   3.338   3.377   6.586 -1.2776 -1.3559  0.3624
 1887SOL    HW217124   3.470   3.331   6.611  0.0215  0.6459  0.0388
 1888SOL     OW17125   1.611   0.529   4.925  0.5618  0.0859 -0.1376
 1888SOL    HW117126   1.636   0.605   4.978  0.4833  1.3185 -1.8717
 1888SOL    HW217127   1.700   0.515   4.893  1.4808  3.0180  1.0684
 1889SOL     OW17128   1.682   1.558   6.000 -0.3019 -0.1309  0.1163
 1889SOL    HW117129   1.671   1.497   6.073 -1.1419 -1.1120 -0.8101
 1889SOL    HW217130   1.607   1.616   6.005 -1.0830 -1.2672  1.7882
 1890SOL     OW17131   4.411   3.962  14.850 -0.2287  0.3858  0.0738
 1890SOL    HW117132   4.438   3.874  14.876 -0.1170 -0.1645 -1.8557
 1890SOL    HW217133   4.481   4.027  14.857  0.9417 -0.8650 -0.0199
 1891SOL     OW17134   0.672   2.357  15.113  0.8527 -0.2733 -0.0332
 1891SOL    HW117135   0.624   2.440  15.110  0.3756 -0.6475 -2.6048
 1891SOL    HW217136   0.677   2.338  15.020  1.7127 -0.7289  0.1107
 1892SOL     OW17137   1.788   4.655   1.178 -0.2186  0.2440 -0.0731
 1892SOL    HW117138   1.801   4.708   1.099  1.0470 -0.6019 -0.4253
 1892SOL    HW217139   1.761   4.568   1.147 -0.6956  0.5718 -0.5791
 1893SOL     OW17140   2.103   0.750   6.305  0.2542 -0.2938  0.4287
 1893SOL    HW117141   2.066   0.680   6.251 -0.5793 -0.8878  1.7637
 1893SOL    HW217142   2.192   0.725   6.330  1.0324  0.4904 -1.6024
 1894SOL     OW17143   0.879   3.333   2.155 -0.1775  0.3020  0.1286
 1894SOL    HW117144   0.933   3.304   2.229 -1.4719 -0.5389  0.7374
 1894SOL    HW217145   0.863   3.253   2.106 -0.0350 -0.7595  1.8253
 1895SOL     OW17146   1.778   3.724   3.495 -0.0584 -0.4654 -0.2259
 1895SOL    HW117147   1.873   3.717   3.504  0.2667 -0.0295 -3.1535
 1895SOL    HW217148   1.776   3.809   3.451 -0.0514 -0.2977  0.1015
 1896SOL     OW17149   4.029   0.711  14.736 -0.2675 -0.1674  0.7001
 1896SOL    HW117150   3.933   0.717  14.728 -0.1947  0.5315  0.3747
 1896SOL    HW217151   4.059   0.723  14.646 -0.8660 -0.0317  0.5138
 1897SOL     OW17152   3.828   1.473   5.583  0.2275  0.0746 -0.4446
 1897SOL    HW117153   3.895   1.434   5.528  0.1404  0.3297 -0.7322
 1897SOL    HW217154   3.787   1.393   5.614  2.3990 -0.4668  0.9888
 1898SOL     OW17155   1.285   2.556   4.426 -0.1704  0.1548  0.4706
 1898SOL    HW117156   1.270   2.501   4.503 -1.1472  0.8335  0.7612
 1898SOL    HW217157   1.371   2.524   4.400  1.0172  0.2341  4.2828
 1899SOL     OW17158   0.152   4.524   8.584  0.0554 -0.1801  0.3978
 1899SOL    HW117159   0.075   4.560   8.541  0.5669 -0.3522 -0.6528
 1899SOL    HW217160   0.216   4.594   8.577  1.9502 -1.9095  0.4771
 1900SOL     OW17161   2.536   1.001   6.926  0.4407 -0.2012 -0.1030
 1900SOL    HW117162   2.585   1.034   7.001  0.0314 -0.7360  0.4014
 1900SOL    HW217163   2.579   1.029   6.846 -0.6062 -2.7491 -1.5673
 1901SOL     OW17164   2.048   2.247   9.807  0.3231  0.5343 -0.1692
 1901SOL    HW117165   2.063   2.220   9.898  0.8290 -0.4949 -0.5525
 1901SOL    HW217166   2.135   2.280   9.785  1.7036 -1.7474  1.8129
 1902SOL     OW17167   3.973   1.582   9.140 -0.1633 -0.3946 -0.2845
 1902SOL    HW117168   3.889   1.574   9.185 -0.2881 -0.6839 -0.5775
 1902SOL    HW217169   3.966   1.660   9.085  1.0905 -0.9821 -1.2699
 1903SOL     OW17170   1.963   2.781   6.474 -0.0580  0.0325 -0.4822
 1903SOL    HW117171   2.033   2.743   6.527  0.0955 -0.6797 -1.2071
 1903SOL    HW217172   1.909   2.822   6.542  1.1740  1.0625 -0.1307
 1904SOL     OW17173   2.600   4.528   0.288  0.3264 -0.5355 -0.0526
 1904SOL    HW117174   2.622   4.443   0.248  1.0717  0.8169 -2.4944
 1904SOL    HW217175   2.674   4.544   0.347 -0.4726 -1.2238  1.1276
 1905SOL     OW17176   2.158   4.522   3.305 -0.4717 -0.3299 -0.2253
 1905SOL    HW117177   2.145   4.452   3.242  0.0482  0.5265 -1.2781
 1905SOL    HW217178   2.080   4.577   3.295  0.4492  0.7370 -1.3740
 1906SOL     OW17179   1.849   0.439   3.456 -0.1394 -0.0377  0.6706
 1906SOL    HW117180   1.909   0.451   3.530  2.2361  0.3055 -1.3237
 1906SOL    HW217181   1.860   0.517   3.401 -0.8985 -1.3632 -1.3596
 1907SOL     OW17182   1.148   0.049   9.695 -0.6908 -0.2367 -0.3380
 1907SOL    HW117183   1.114   4.702   9.753 -0.6681  0.2749  0.2869
 1907SOL    HW217184   1.114   0.129   9.736  0.2639 -0.7712  1.4942
 1908SOL     OW17185   2.171   0.698   2.918  0.4112 -0.4505 -0.1488
 1908SOL    HW117186   2.076   0.697   2.930  0.6526  0.5566  1.7475
 1908SOL    HW217187   2.196   0.612   2.884  0.8159 -0.5550  0.4092
 1909SOL     OW17188   0.951   1.390   4.266  0.0161 -0.3729 -0.1653
 1909SOL    HW117189   0.975   1.466   4.213 -0.9574 -0.7968 -1.2434
 1909SOL    HW217190   1.015   1.390   4.336  1.0174  2.5635 -1.0752
 1910SOL     OW17191   0.894   1.649   4.447  0.0966  0.3866 -0.3356
 1910SOL    HW117192   0.933   1.626   4.362  1.8110  1.0670  0.2732
 1910SOL    HW217193   0.941   1.732   4.453  0.5259  0.0562  0.8097
 1911SOL     OW17194   1.569   4.541  16.567  0.1339 -0.6665  0.4576
 1911SOL    HW117195   1.547   4.622  16.612  0.9956 -1.7064  2.7575
 1911SOL    HW217196   1.543   4.482  16.638 -0.2210 -1.5751 -0.4214
 1912SOL     OW17197   4.664   3.492   6.555 -0.0859 -0.3426 -0.1664
 1912SOL    HW117198   4.598   3.533   6.611 -0.1583  0.9618 -1.2168
 1912SOL    HW217199   4.714   3.459   6.630 -0.1865  2.5559  1.2016
 1913SOL     OW17200   4.462   1.411   6.214  0.2126 -0.9425 -0.4923
 1913SOL    HW117201   4.439   1.502   6.235  0.2413 -0.8770 -0.7360
 1913SOL    HW217202   4.388   1.392   6.155  0.4908  0.9859 -1.4663
 1914SOL     OW17203   3.799   2.577  12.897  0.3810 -0.0266 -0.1633
 1914SOL    HW117204   3.835   2.651  12.946  0.5513  1.7350 -2.9644
 1914SOL    HW217205   3.714   2.609  12.867  0.7256  1.7313  0.6883
 1915SOL     OW17206   2.409   0.502   3.219  0.1296 -0.3227  0.1726
 1915SOL    HW117207   2.442   0.459   3.140  0.6655  1.0907 -0.3787
 1915SOL    HW217208   2.390   0.425   3.272 -0.1028 -1.5231 -1.6659
 1916SOL     OW17209   0.836   2.302   1.743 -0.2980 -0.5078  0.6545
 1916SOL    HW117210   0.895   2.367   1.781  1.1978 -0.2515 -2.1269
 1916SOL    HW217211   0.897   2.230   1.723  1.0379  0.9561 -0.5225
 1917SOL     OW17212   4.699   0.734   6.076  0.6641  0.3737  0.1626
 1917SOL    HW117213   4.714   0.803   6.141  1.1963 -1.8489  2.4241
 1917SOL    HW217214   4.605   0.724   6.092  1.2928 -1.5011  2.7144
 1918SOL     OW17215   0.263   2.655   7.401 -0.2977 -0.5194 -0.0560
 1918SOL    HW117216   0.296   2.607   7.325 -1.4665 -1.7741  0.2282
 1918SOL    HW217217   0.170   2.632   7.407 -0.2258 -1.4104 -2.3370
 1919SOL     OW17218   0.130   3.019   2.716 -0.0064  0.5126  0.4572
 1919SOL    HW117219   0.061   3.043   2.653 -0.4101 -3.0216 -0.4242
 1919SOL    HW217220   0.079   3.009   2.796 -0.1220 -0.0702  0.3098
 1920SOL     OW17221   0.637   3.047  14.449  0.3057  0.3914 -0.1569
 1920SOL    HW117222   0.566   3.023  14.508  0.8358  0.3953  0.4917
 1920SOL    HW217223   0.640   3.142  14.444 -0.9087  0.4370  0.0384
 1921SOL     OW17224   3.510   3.692  15.801 -0.1018  0.4064  0.1641
 1921SOL    HW117225   3.571   3.619  15.800 -1.5094 -0.7430 -0.3114
 1921SOL    HW217226   3.517   3.730  15.889  0.2946 -0.2754  0.4257
 1922SOL     OW17227   3.047   0.537   1.118  0.5483  0.1775 -0.7357
 1922SOL    HW117228   3.138   0.529   1.148 -0.0037 -0.0616  0.9222
 1922SOL    HW217229   3.043   0.461   1.060  1.6322  0.4354 -1.1512
 1923SOL     OW17230   0.222   3.187   8.458 -0.5004 -0.1537 -0.7378
 1923SOL    HW117231   0.256   3.277   8.462  0.2002 -0.4994  1.2735
 1923SOL    HW217232   0.131   3.204   8.483 -0.6909 -0.4248 -1.2461
 1924SOL     OW17233   1.655   2.939  15.984  0.6478  0.4399  0.0311
 1924SOL    HW117234   1.645   2.861  16.040  0.5031 -1.3727 -2.5254
 1924SOL    HW217235   1.621   2.910  15.899  1.1675 -0.7387  0.2174
 1925SOL     OW17236   1.117   4.436   5.301 -0.2624  0.2047  0.5967
 1925SOL    HW117237   1.131   4.460   5.393  0.2383 -2.8847  1.3055
 1925SOL    HW217238   1.129   4.342   5.307 -2.0911  0.0520  1.5832
 1926SOL     OW17239   3.847   0.386   5.802 -0.2896  0.2876  0.2706
 1926SOL    HW117240   3.906   0.460   5.785  1.5433 -1.2671 -0.1249
 1926SOL    HW217241   3.796   0.395   5.721  2.5390 -1.3160 -1.6972
 1927SOL     OW17242   0.162   1.281   3.570  0.1721 -0.3910  0.1977
 1927SOL    HW117243   0.067   1.279   3.584  0.3062 -1.0052  1.0519
 1927SOL    HW217244   0.183   1.203   3.622 -1.1742  0.5715  2.1752
 1928SOL     OW17245   2.635   3.906   4.672 -0.3965 -0.1527  0.4990
 1928SOL    HW117246   2.545   3.927   4.696 -0.3293  0.8868 -0.1472
 1928SOL    HW217247   2.668   3.874   4.756  0.1677 -1.3217 -0.1562
 1929SOL     OW17248   3.149   0.440   3.802  0.2465 -0.3080 -0.3251
 1929SOL    HW117249   3.244   0.436   3.800  0.1453 -2.9673 -0.0386
 1929SOL    HW217250   3.138   0.431   3.708 -1.6823  1.1805 -0.2375
 1930SOL     OW17251   2.129   3.767  11.463 -0.1999  0.8584  0.1282
 1930SOL    HW117252   2.070   3.765  11.387  1.6367 -3.7429 -1.1963
 1930SOL    HW217253   2.081   3.819  11.527 -1.0793 -1.1280  1.0900
 1931SOL     OW17254   0.691   1.142   0.948  0.3480 -0.2291 -0.9675
 1931SOL    HW117255   0.783   1.127   0.924  0.9223  0.4706  0.7994
 1931SOL    HW217256   0.686   1.235   0.925  1.6438 -0.5243 -2.4803
 1932SOL     OW17257   1.244   4.480  16.887  0.2328 -0.3137 -0.1362
 1932SOL    HW117258   1.286   4.550  16.936 -1.6827  0.1314  0.8565
 1932SOL    HW217259   1.239   4.509  16.796 -1.0527  0.2696  0.1269
 1933SOL     OW17260   3.866   4.320   4.265  0.1128  0.3579 -0.1264
 1933SOL    HW117261   3.783   4.287   4.298  0.3521 -0.1047  0.0118
 1933SOL    HW217262   3.880   4.369   4.346 -0.6726  2.9750 -1.5897
 1934SOL     OW17263   0.220   4.554  14.118  0.6628 -0.1028  0.3327
 1934SOL    HW117264   0.276   4.546  14.040 -2.0815 -2.1230 -1.4190
 1934SOL    HW217265   0.169   4.631  14.093  0.4991  0.6025  2.8397
 1935SOL     OW17266   1.267   1.936  16.437 -0.1677 -0.4335  0.0964
 1935SOL    HW117267   1.235   1.910  16.351  0.2144  0.7145 -0.3856
 1935SOL    HW217268   1.249   2.029  16.435 -0.7467 -0.5416  0.3904
 1936SOL     OW17269   3.122   3.696   6.111  0.8319 -0.0424  0.3871
 1936SOL    HW117270   3.129   3.730   6.022  2.9358 -4.0076 -0.9198
 1936SOL    HW217271   3.089   3.774   6.157  0.7957  0.0841  0.1487
 1937SOL     OW17272   3.128   1.405   7.596 -0.5125 -0.2680 -0.2945
 1937SOL    HW117273   3.110   1.432   7.686  0.1907 -0.5906 -0.0604
 1937SOL    HW217274   3.040   1.412   7.558 -0.3629 -1.5931 -0.9240
 1938SOL     OW17275   0.784   3.696   2.405 -0.4068  0.1261  0.5026
 1938SOL    HW117276   0.692   3.724   2.404 -0.1645  0.8704 -0.8561
 1938SOL    HW217277   0.789   3.646   2.486 -2.0626  0.0492  0.5577
 1939SOL     OW17278   3.223   3.484  16.433  0.8681  0.1108  0.4527
 1939SOL    HW117279   3.221   3.465  16.527  0.1270  1.1899  0.6466
 1939SOL    HW217280   3.196   3.575  16.422 -1.0576 -0.5701 -0.5195
 1940SOL     OW17281   3.588   3.521   2.350 -0.3647  0.1215  0.2094
 1940SOL    HW117282   3.601   3.583   2.278 -1.2619 -1.2244 -1.1243
 1940SOL    HW217283   3.536   3.450   2.312  0.7399  0.7561 -2.5028
 1941SOL     OW17284   2.175   0.136   1.599 -0.0701 -0.1713 -0.0575
 1941SOL    HW117285   2.127   0.159   1.679  1.0488 -0.0031  0.5666
 1941SOL    HW217286   2.197   0.223   1.566 -0.3177 -0.6563 -1.4925
 1942SOL     OW17287   0.862   1.738   1.524  0.1118  0.3391 -0.2848
 1942SOL    HW117288   0.883   1.780   1.607 -1.0804  0.4585 -0.0471
 1942SOL    HW217289   0.948   1.725   1.485  0.1685 -0.2853  0.0507
 1943SOL     OW17290   3.699   0.566   3.680 -0.1805 -0.0876  0.3616
 1943SOL    HW117291   3.779   0.525   3.648 -0.9363 -1.1402 -0.2011
 1943SOL    HW217292   3.688   0.551   3.774 -1.2870 -0.7259  0.1284
 1944SOL     OW17293   1.676   3.645  12.968 -0.2406  0.4055 -0.6773
 1944SOL    HW117294   1.685   3.554  12.996 -0.3984  0.7448  0.4980
 1944SOL    HW217295   1.768   3.665  12.984 -0.7873  1.3948  1.3614
 1945SOL     OW17296   4.567   1.800   9.072 -0.3098  0.1735  0.6658
 1945SOL    HW117297   4.592   1.815   8.981 -0.1709  0.1385  0.6988
 1945SOL    HW217298   4.473   1.792   9.057  0.2293  0.6064 -2.9478
 1946SOL     OW17299   1.870   3.639   4.610 -0.0113 -0.0162 -0.2529
 1946SOL    HW117300   1.860   3.670   4.520  1.6004  2.8933  0.6009
 1946SOL    HW217301   1.894   3.722   4.649 -1.4685  0.4282 -0.2957
 1947SOL     OW17302   2.550   0.879   5.013  0.5513  0.5548 -0.0122
 1947SOL    HW117303   2.609   0.839   4.949  0.8718  1.8813 -0.5386
 1947SOL    HW217304   2.471   0.827   5.000  0.7813  0.2311 -0.1297
 1948SOL     OW17305   4.288   2.560   3.266 -0.3185 -0.3404  0.3550
 1948SOL    HW117306   4.360   2.497   3.257  0.3315  0.5446 -0.5467
 1948SOL    HW217307   4.313   2.636   3.214 -0.8097 -0.4242 -0.0132
 1949SOL     OW17308   4.621   2.887  11.449  0.5277 -0.8478 -0.0126
 1949SOL    HW117309   4.592   2.913  11.361  0.8049 -2.7932 -0.6816
 1949SOL    HW217310   4.663   2.805  11.422 -1.6474 -1.5164 -1.3698
 1950SOL     OW17311   3.766   4.215   7.389 -0.0857 -0.1709  0.3645
 1950SOL    HW117312   3.801   4.235   7.476  2.0777 -2.6811  0.0967
 1950SOL    HW217313   3.757   4.305   7.360 -0.4295 -0.2337  0.2734
 1951SOL     OW17314   2.448   3.111   7.219 -0.1122 -0.0025 -0.2994
 1951SOL    HW117315   2.528   3.077   7.260 -1.6587 -2.0188  1.0900
 1951SOL    HW217316   2.444   3.057   7.140  2.3135 -0.9570  0.2259
 1952SOL     OW17317   2.338   2.784   0.641  0.4318 -0.0149 -0.3501
 1952SOL    HW117318   2.275   2.800   0.570  0.2844 -0.5442 -0.3372
 1952SOL    HW217319   2.415   2.759   0.589  0.5232  1.1035 -0.7425
 1953SOL     OW17320   4.530   3.190   0.052 -0.1448  0.1791  0.5787
 1953SOL    HW117321   4.487   3.104   0.056  3.4910 -1.7843 -2.2245
 1953SOL    HW217322   4.523   3.213  17.647 -0.0730 -0.7074  0.3487
 1954SOL     OW17323   2.562   1.918   2.810  0.5144  0.3031 -0.1934
 1954SOL    HW117324   2.657   1.906   2.805  0.8434  2.3983  1.1692
 1954SOL    HW217325   2.543   1.953   2.723 -0.1912  1.6573  0.5070
 1955SOL     OW17326   2.954   2.726  11.860 -0.2350  0.4426 -0.2552
 1955SOL    HW117327   2.928   2.706  11.950 -0.0859 -0.5763 -0.4427
 1955SOL    HW217328   3.049   2.716  11.868 -0.4084 -0.9337  0.0654
 1956SOL     OW17329   2.579   3.573   0.233 -0.1713  0.2978 -0.3011
 1956SOL    HW117330   2.544   3.602   0.317 -0.8140  0.8261 -0.7542
 1956SOL    HW217331   2.670   3.602   0.237 -0.7676  2.1412 -0.4119
 1957SOL     OW17332   3.970   3.413   8.030  0.1386 -0.5087 -0.1161
 1957SOL    HW117333   3.929   3.350   8.090 -0.8109  0.6344  0.4106
 1957SOL    HW217334   3.904   3.426   7.962  1.5971 -0.3900 -1.5075
 1958SOL     OW17335   0.381   2.688  11.119 -0.3459  0.0035  0.0166
 1958SOL    HW117336   0.466   2.646  11.135  0.2824  1.2813 -0.0017
 1958SOL    HW217337   0.312   2.623  11.133 -1.8474  1.6060 -0.0573
 1959SOL     OW17338   1.906   2.642   4.153  0.0450 -0.1276  0.2970
 1959SOL    HW117339   1.855   2.720   4.131  0.0741  0.3821  2.0210
 1959SOL    HW217340   1.905   2.656   4.248 -3.8524 -1.8149  0.4705
 1960SOL     OW17341   1.783   2.176  14.797 -0.0768  0.3362 -0.2164
 1960SOL    HW117342   1.699   2.217  14.775 -1.1123 -0.7147  1.7984
 1960SOL    HW217343   1.845   2.246  14.815 -0.0283  0.7180 -1.8870
 1961SOL     OW17344   3.577   0.916   6.504  0.2115  0.2079  0.0132
 1961SOL    HW117345   3.655   0.967   6.484  0.4130 -0.5742 -1.2433
 1961SOL    HW217346   3.578   0.860   6.426 -2.4419  0.2813 -0.0756
 1962SOL     OW17347   0.873   0.480   4.343 -0.4233  0.3985 -0.3350
 1962SOL    HW117348   0.780   0.462   4.357 -0.2794 -1.9634 -2.2831
 1962SOL    HW217349   0.892   0.447   4.255 -1.3361 -0.1011 -0.3450
 1963SOL     OW17350   4.018   1.844  10.369 -0.3232 -0.1563  0.2181
 1963SOL    HW117351   4.093   1.809  10.321 -0.8372  0.3857 -0.9577
 1963SOL    HW217352   3.950   1.790  10.330 -3.2722  0.9947  3.7247
 1964SOL     OW17353   3.722   1.772   8.049 -0.2290  0.3679  0.1442
 1964SOL    HW117354   3.775   1.696   8.070 -0.0418  0.1203 -1.2093
 1964SOL    HW217355   3.739   1.822   8.129  3.8707 -0.9196  0.0529
 1965SOL     OW17356   4.069   3.698  10.435  0.5000  0.1374 -0.5513
 1965SOL    HW117357   4.043   3.617  10.479  1.7142  1.5579  2.8055
 1965SOL    HW217358   3.980   3.733  10.432 -0.2222 -1.3712  3.0313
 1966SOL     OW17359   0.565   0.670  17.208 -0.5078 -0.4319  0.1856
 1966SOL    HW117360   0.643   0.684  17.155 -0.8298 -0.7690 -0.3713
 1966SOL    HW217361   0.608   0.676  17.294  0.0770  1.9118 -0.2709
 1967SOL     OW17362   3.257   1.175   4.728  0.2475 -0.1772 -0.1516
 1967SOL    HW117363   3.189   1.232   4.764 -1.2656 -3.4383  2.1661
 1967SOL    HW217364   3.204   1.142   4.655  0.4118  0.1601 -0.4212
 1968SOL     OW17365   3.311   4.405   3.213 -0.1679  0.2802  0.1345
 1968SOL    HW117366   3.319   4.374   3.303 -0.4606  0.6153  0.2791
 1968SOL    HW217367   3.215   4.402   3.219 -0.0074 -3.1965  1.0007
 1969SOL     OW17368   2.815   0.258   8.222 -0.6750  0.2190 -0.5056
 1969SOL    HW117369   2.746   0.232   8.162 -1.4990 -2.3067  1.5752
 1969SOL    HW217370   2.877   0.185   8.226 -1.2187 -0.1891  0.3799
 1970SOL     OW17371   4.259   4.192  15.759 -0.3090  0.1440 -0.4994
 1970SOL    HW117372   4.215   4.115  15.722 -0.9558  0.3895 -0.2422
 1970SOL    HW217373   4.178   4.232  15.790  1.3263  3.3490 -0.4141
 1971SOL     OW17374   4.615   0.797   8.698 -0.0300  0.1626  0.2014
 1971SOL    HW117375   4.582   0.713   8.666  0.2351 -0.7254  2.2571
 1971SOL    HW217376   4.582   0.848   8.625  5.4553  1.4213 -1.3769
 1972SOL     OW17377   3.695   4.519   6.573 -0.0487  0.4658  0.1398
 1972SOL    HW117378   3.678   4.584   6.504 -0.8747  1.6555  1.4610
 1972SOL    HW217379   3.683   4.576   6.649  0.6359  2.5221 -1.2707
 1973SOL     OW17380   0.079   2.000   8.062 -0.0219  0.1016 -0.3904
 1973SOL    HW117381   0.035   1.985   7.978 -2.5790 -1.4853  1.2512
 1973SOL    HW217382   0.045   1.934   8.122 -0.4627  2.3309  1.7999
 1974SOL     OW17383   3.501   1.089  13.451  0.3862  0.1412 -0.7468
 1974SOL    HW117384   3.534   1.059  13.535  1.5371 -0.1562 -1.2944
 1974SOL    HW217385   3.577   1.062  13.399 -0.0985 -0.2972 -1.2288
 1975SOL     OW17386   2.346   4.554  15.443 -0.1638  0.3279  0.2985
 1975SOL    HW117387   2.252   4.563  15.459  0.1136  1.7330  1.2057
 1975SOL    HW217388   2.361   4.469  15.484 -1.3509 -0.7691 -1.5352
 1976SOL     OW17389   1.015   4.064   7.364 -0.5210 -0.5486  0.0812
 1976SOL    HW117390   1.083   4.128   7.384 -0.5180 -0.6858  0.5044
 1976SOL    HW217391   1.074   3.990   7.347 -1.7976 -1.7847  1.0476
 1977SOL     OW17392   3.564   3.396  11.881  0.0307 -0.5405  0.0519
 1977SOL    HW117393   3.589   3.316  11.927  1.8456  1.2114  2.1124
 1977SOL    HW217394   3.476   3.377  11.848 -0.3712  1.6179 -0.1006
 1978SOL     OW17395   3.376   4.508   4.113  0.4178 -0.1877 -0.0283
 1978SOL    HW117396   3.372   4.521   4.018  0.8968 -2.2679 -0.3350
 1978SOL    HW217397   3.447   4.445   4.120  1.4946  0.9104 -1.0766
 1979SOL     OW17398   4.056   3.391   4.014  0.0691 -0.0981 -0.3457
 1979SOL    HW117399   4.110   3.426   3.943 -2.7223  2.8252 -1.0134
 1979SOL    HW217400   3.967   3.422   3.996 -0.8270 -2.3831  0.1746
 1980SOL     OW17401   0.880   3.771  16.160 -0.2306  0.0564  0.6200
 1980SOL    HW117402   0.946   3.793  16.094 -1.4892 -0.7118 -0.8775
 1980SOL    HW217403   0.809   3.814  16.112  1.1376  1.3390 -0.2414
 1981SOL     OW17404   3.833   2.327   3.020  0.1264  0.0884 -0.5008
 1981SOL    HW117405   3.742   2.332   3.048 -0.1746  1.3131 -1.7228
 1981SOL    HW217406   3.824   2.241   2.979 -1.7243  0.5935 -1.1506
 1982SOL     OW17407   4.139   1.504   4.022 -0.0463  0.2274 -0.4048
 1982SOL    HW117408   4.056   1.547   4.043  0.6693  0.9040  1.0366
 1982SOL    HW217409   4.103   1.444   3.956 -0.5722  1.2652 -1.0633
 1983SOL     OW17410   1.430   3.676  16.744 -0.0919  0.3990 -0.2487
 1983SOL    HW117411   1.420   3.708  16.834  0.6935  1.5074 -0.5717
 1983SOL    HW217412   1.337   3.657  16.726 -0.2290 -0.7310  1.5886
 1984SOL     OW17413   4.621   2.057   9.177  0.0606 -0.2565  0.3869
 1984SOL    HW117414   4.576   1.975   9.155  0.5901  0.3598 -2.9802
 1984SOL    HW217415   4.584   2.072   9.264 -0.4042  1.3706 -0.0818
 1985SOL     OW17416   0.399   3.407  16.330 -0.2476  0.0092 -0.2427
 1985SOL    HW117417   0.446   3.328  16.302 -2.0817 -2.0537  2.4929
 1985SOL    HW217418   0.410   3.394  16.424 -3.0351 -0.6178 -0.0188
 1986SOL     OW17419   3.842   3.424   8.570  0.0626  0.0598  0.6457
 1986SOL    HW117420   3.797   3.357   8.622 -2.6197  1.0447 -0.4006
 1986SOL    HW217421   3.900   3.454   8.640  0.7662  0.6436 -0.2114
 1987SOL     OW17422   2.552   4.083   3.250  0.5625  0.1282 -0.1350
 1987SOL    HW117423   2.587   4.002   3.288  0.7805  0.2865  0.0089
 1987SOL    HW217424   2.629   4.124   3.210 -1.2194  1.8876 -1.7618
 1988SOL     OW17425   1.880   0.822  16.506 -0.3013 -0.6772  0.0110
 1988SOL    HW117426   1.785   0.827  16.493  0.0536  0.5590 -2.2013
 1988SOL    HW217427   1.910   0.892  16.447  1.3953  0.0589  1.7556
 1989SOL     OW17428   2.342   2.487   8.290  0.1583  0.7047  0.1845
 1989SOL    HW117429   2.271   2.438   8.248  0.1161  1.7057 -0.9033
 1989SOL    HW217430   2.314   2.499   8.380 -0.6075 -0.5651  0.1220
 1990SOL     OW17431   3.575   2.745  10.461  0.7796  0.0585 -0.0552
 1990SOL    HW117432   3.516   2.815  10.488 -0.8335 -1.4035  0.1955
 1990SOL    HW217433   3.556   2.685  10.533  1.3598  1.8375  1.5770
 1991SOL     OW17434   4.604   1.818  14.761  0.0067 -0.5088  0.2242
 1991SOL    HW117435   4.690   1.815  14.803  0.9913  0.6672 -1.7346
 1991SOL    HW217436   4.559   1.864  14.832 -0.1710 -1.7875  0.9417
 1992SOL     OW17437   4.129   2.222  10.653  0.3547 -0.2091  0.1031
 1992SOL    HW117438   4.049   2.170  10.657 -0.5391  1.0889 -1.3790
 1992SOL    HW217439   4.156   2.201  10.564 -0.4237  1.6086 -0.5534
 1993SOL     OW17440   1.227   4.365   6.642 -0.2712  0.1499 -0.1915
 1993SOL    HW117441   1.176   4.301   6.691 -0.4340 -0.7582 -1.5299
 1993SOL    HW217442   1.185   4.368   6.556 -1.1350 -2.7593  0.1206
 1994SOL     OW17443   2.257   1.651   5.486  0.4109 -0.4160 -0.0704
 1994SOL    HW117444   2.192   1.656   5.416  1.0040 -1.3173 -0.6789
 1994SOL    HW217445   2.284   1.743   5.492  0.2818 -0.6105  3.3181
 1995SOL     OW17446   1.125   0.848   5.296  0.3623  0.3784 -0.0479
 1995SOL    HW117447   1.063   0.916   5.322  0.4091  0.9355 -1.4401
 1995SOL    HW217448   1.135   0.868   5.203 -2.2310 -0.9033 -0.6088
 1996SOL     OW17449   1.021   1.328   8.139  0.3140  0.3026 -0.0521
 1996SOL    HW117450   1.011   1.420   8.164  0.8044  0.1391  0.7849
 1996SOL    HW217451   1.032   1.340   8.045  2.9116 -0.2492  0.1682
 1997SOL     OW17452   3.678   1.384   9.721 -0.9377  0.1371 -0.0474
 1997SOL    HW117453   3.747   1.447   9.700 -1.1658  0.6025  0.6130
 1997SOL    HW217454   3.712   1.302   9.684 -1.2626 -0.9100  1.9913
 1998SOL     OW17455   3.119   4.476   4.192  0.3241 -0.0515  0.0329
 1998SOL    HW117456   3.204   4.473   4.148  2.4467 -0.1198  4.1469
 1998SOL    HW217457   3.065   4.434   4.124  1.2666 -0.2330 -0.5995
 1999SOL     OW17458   0.661   1.051   8.488 -0.3314 -0.5855 -0.2945
 1999SOL    HW117459   0.750   1.016   8.497 -0.0615  0.2077  0.0815
 1999SOL    HW217460   0.680   1.144   8.501  0.5168 -0.8847  0.6895
 2000SOL     OW17461   3.334   2.290   4.139  0.0612 -0.1223  0.3789
 2000SOL    HW117462   3.284   2.275   4.059  1.8389  2.3776 -1.1549
 2000SOL    HW217463   3.425   2.291   4.111 -0.3305  2.6977 -0.7819
 2001SOL     OW17464   4.111   1.794   8.925  0.4394  0.1721 -0.1635
 2001SOL    HW117465   4.068   1.779   8.840  1.9982  0.7873 -1.0678
 2001SOL    HW217466   4.113   1.889   8.926 -2.0763  0.2565 -0.7431
 2002SOL     OW17467   4.032   2.542   9.128  0.0338 -0.9238 -0.0275
 2002SOL    HW117468   3.964   2.570   9.067 -0.2812  0.2574  0.8637
 2002SOL    HW217469   4.096   2.499   9.071 -1.7674 -0.5460 -2.3342
 2003SOL     OW17470   1.273   0.894   7.899 -0.3368 -0.0091 -0.7484
 2003SOL    HW117471   1.336   0.853   7.958 -1.0607 -0.0950 -0.0452
 2003SOL    HW217472   1.211   0.939   7.956 -1.1411  0.3740 -1.9026
 2004SOL     OW17473   4.027   2.596  15.685 -0.4341 -0.3359 -0.2268
 2004SOL    HW117474   4.097   2.640  15.733 -0.1766 -1.2219  0.2174
 2004SOL    HW217475   3.944   2.642  15.696  0.6586  0.8268  3.3856
 2005SOL     OW17476   4.025   2.750  16.124 -0.4064  0.3645  0.3828
 2005SOL    HW117477   4.099   2.726  16.178 -0.4660  0.0494  0.3247
 2005SOL    HW217478   3.961   2.687  16.158  2.4298 -2.4404  0.4411
 2006SOL     OW17479   0.174   1.658   6.294 -0.3981 -0.0214 -0.4846
 2006SOL    HW117480   0.246   1.598   6.271 -0.4921  1.1399 -3.8804
 2006SOL    HW217481   0.103   1.594   6.288 -0.1333 -0.4600  1.0200
 2007SOL     OW17482   2.304   0.015  11.256  0.5728  0.0688  0.1639
 2007SOL    HW117483   2.265   0.025  11.169  0.2214 -1.7204  0.1128
 2007SOL    HW217484   2.301   0.107  11.281  2.6642  0.6277 -1.7232
 2008SOL     OW17485   4.575   2.784  14.356 -0.2793  0.4184 -0.1205
 2008SOL    HW117486   4.590   2.759  14.265 -2.7175  1.0696 -0.7035
 2008SOL    HW217487   4.503   2.844  14.335  1.6144  2.0943 -1.7054
 2009SOL     OW17488   2.413   0.371   8.202 -0.1690  0.3521 -0.4896
 2009SOL    HW117489   2.451   0.449   8.162  3.0602 -0.6877  0.4961
 2009SOL    HW217490   2.474   0.305   8.167  1.1427  1.4131 -0.1982
 2010SOL     OW17491   0.719   1.473   7.160  0.3422 -0.2686  0.3879
 2010SOL    HW117492   0.662   1.495   7.087  1.2136  1.0943  0.1297
 2010SOL    HW217493   0.654   1.448   7.227  0.9446 -0.5321  0.8746
 2011SOL     OW17494   4.486   2.399   8.102  0.4127  0.0581 -0.5808
 2011SOL    HW117495   4.503   2.440   8.187 -1.9791 -1.9396  0.8255
 2011SOL    HW217496   4.558   2.335   8.104  0.8739  0.6009  0.2285
 2012SOL     OW17497   2.214   3.212   7.683  0.2998 -0.0825  0.2400
 2012SOL    HW117498   2.230   3.117   7.677  0.2057 -0.1143  0.4902
 2012SOL    HW217499   2.294   3.244   7.642 -0.7165  1.4524 -0.5314
 2013SOL     OW17500   1.118   1.322   6.832 -0.3083 -0.3066 -0.2081
 2013SOL    HW117501   1.103   1.235   6.795  0.9532 -0.5527 -0.1623
 2013SOL    HW217502   1.101   1.304   6.924  1.7102 -0.2665  0.1698
 2014SOL     OW17503   4.147   3.788  11.945 -0.0489  0.1233  0.6299
 2014SOL    HW117504   4.140   3.718  12.010 -1.5706 -1.7925 -1.5644
 2014SOL    HW217505   4.066   3.772  11.897 -0.4931  1.7403  0.8480
 2015SOL     OW17506   4.115   1.199   5.720  0.0676 -0.7615 -0.6576
 2015SOL    HW117507   4.166   1.265   5.673 -1.4486 -0.2809 -1.6591
 2015SOL    HW217508   4.116   1.132   5.651 -2.1050 -1.3635 -0.0829
 2016SOL     OW17509   3.230   0.391   3.519 -0.2139 -0.1837 -0.0834
 2016SOL    HW117510   3.305   0.409   3.575 -0.0525 -0.1293 -0.3191
 2016SOL    HW217511   3.277   0.339   3.454 -2.7512 -0.6392 -1.5319
 2017SOL     OW17512   0.448   3.282  14.641  0.1778  0.2027 -0.2761
 2017SOL    HW117513   0.488   3.333  14.712  1.9258 -0.3804 -0.8426
 2017SOL    HW217514   0.360   3.319  14.640  0.0404 -0.0756  1.0085
 2018SOL     OW17515   1.582   4.027   4.760  0.1799  0.0575 -0.5254
 2018SOL    HW117516   1.555   4.066   4.677  1.8601 -0.4350 -1.3206
 2018SOL    HW217517   1.521   3.954   4.769 -0.4592  0.7181  0.4997
 2019SOL     OW17518   3.701   4.669   3.035 -0.1232 -0.3633 -0.0579
 2019SOL    HW117519   3.611   4.700   3.043  0.4263  0.6782  2.0243
 2019SOL    HW217520   3.700   4.652   2.941 -1.4001 -0.7257  0.0346
 2020SOL     OW17521   0.460   4.683   4.562 -0.9108 -0.4402  0.3679
 2020SOL    HW117522   0.388   4.709   4.506 -1.1300  2.7334  2.1479
 2020SOL    HW217523   0.456   0.038   4.619 -1.8839  0.1659 -0.5332
 2021SOL     OW17524   3.889   0.933  10.299  0.3882 -0.6375  0.3713
 2021SOL    HW117525   3.804   0.972  10.321  0.1321 -0.4590 -0.9579
 2021SOL    HW217526   3.869   0.842  10.280 -3.6764 -0.0699  1.9043
 2022SOL     OW17527   4.301   0.494   1.023  0.3269 -0.4411  0.1484
 2022SOL    HW117528   4.303   0.414   0.971  0.6658  0.5697 -1.3967
 2022SOL    HW217529   4.315   0.568   0.964  0.3086 -1.6926 -1.4390
 2023SOL     OW17530   3.666   4.352  14.520 -0.2101 -0.1190 -0.0286
 2023SOL    HW117531   3.605   4.394  14.461 -1.8614  0.0101  1.7689
 2023SOL    HW217532   3.632   4.384  14.604 -0.0566  1.6007 -0.6235
 2024SOL     OW17533   2.225   3.368   0.293  0.4875 -0.0832  0.2384
 2024SOL    HW117534   2.138   3.340   0.263 -0.4617  0.7152  2.3007
 2024SOL    HW217535   2.214   3.346   0.385  2.8527 -0.1156  0.5112
 2025SOL     OW17536   1.059   4.683   6.619 -0.1212 -0.2270  0.4237
 2025SOL    HW117537   1.146   4.661   6.651 -0.2106 -0.8145  0.2596
 2025SOL    HW217538   1.017   4.685   6.705 -0.7605 -1.5065  0.1413
 2026SOL     OW17539   2.114   1.134   4.378 -0.0080 -0.1556 -0.5230
 2026SOL    HW117540   2.029   1.139   4.334 -0.2933  0.1796  0.0550
 2026SOL    HW217541   2.161   1.068   4.328 -1.6642 -0.7036 -1.3554
 2027SOL     OW17542   4.261   0.892   7.541 -0.3995  0.2374 -0.0917
 2027SOL    HW117543   4.182   0.841   7.524 -0.0121 -0.7643  1.1517
 2027SOL    HW217544   4.231   0.983   7.533  3.5990  1.7015  2.0182
 2028SOL     OW17545   3.017   0.958  13.578 -0.7746 -0.2445 -0.4011
 2028SOL    HW117546   3.111   0.938  13.579 -0.6829  0.1149 -2.6998
 2028SOL    HW217547   3.004   0.973  13.672  2.2560  1.2476 -0.2398
 2029SOL     OW17548   3.037   4.692   2.755 -0.1549  0.0153  0.1100
 2029SOL    HW117549   3.064   4.600   2.764 -1.0619 -0.2803 -0.1489
 2029SOL    HW217550   3.051   4.720   2.845 -1.3923  1.0645 -0.0256
 2030SOL     OW17551   1.207   2.563  12.960  0.5001 -0.1709 -0.1649
 2030SOL    HW117552   1.193   2.490  12.900 -1.9826 -0.8283  1.2267
 2030SOL    HW217553   1.284   2.531  13.006 -0.9868 -2.1789  0.8918
 2031SOL     OW17554   1.852   0.363   0.655 -0.2282  0.2760  0.0751
 2031SOL    HW117555   1.763   0.391   0.635  0.1450  0.6679 -1.0428
 2031SOL    HW217556   1.908   0.435   0.624 -1.0696  1.6182  1.6739
 2032SOL     OW17557   0.357   0.874   6.207  0.1088  0.3679  0.1765
 2032SOL    HW117558   0.430   0.887   6.146 -1.1302  0.7331 -1.2446
 2032SOL    HW217559   0.322   0.789   6.181 -0.6630  0.4224  1.0243
 2033SOL     OW17560   1.066   1.807   3.822 -0.2406 -0.0062 -0.2051
 2033SOL    HW117561   0.994   1.818   3.885  0.3212  3.3565 -0.1894
 2033SOL    HW217562   1.115   1.734   3.860 -2.3882 -0.2472  2.1322
 2034SOL     OW17563   1.139   4.051   2.618  0.7150 -0.4558 -0.2287
 2034SOL    HW117564   1.098   4.112   2.556 -1.3657 -1.9686 -0.3278
 2034SOL    HW217565   1.232   4.074   2.611  0.3280  0.8611 -1.0646
 2035SOL     OW17566   1.648   2.348  14.153 -0.3963 -0.6208 -0.2029
 2035SOL    HW117567   1.718   2.400  14.113 -0.2344 -1.1948 -0.6810
 2035SOL    HW217568   1.623   2.417  14.214  3.2309 -0.0216  0.5912
 2036SOL     OW17569   0.118   1.867  12.060  0.2565  0.0007 -0.2198
 2036SOL    HW117570   0.084   1.781  12.085 -1.5726  0.7389 -0.1143
 2036SOL    HW217571   0.205   1.850  12.025  1.2890  2.1688  1.2999
 2037SOL     OW17572   2.161   4.149  13.419 -0.0196  0.1467  0.3252
 2037SOL    HW117573   2.208   4.226  13.385  0.0117  0.8044  1.8655
 2037SOL    HW217574   2.141   4.170  13.510 -1.0435  1.8342 -0.2891
 2038SOL     OW17575   4.339   0.512   5.529  0.0880 -0.1752  0.2446
 2038SOL    HW117576   4.318   0.429   5.485  0.1379  0.5855 -1.2343
 2038SOL    HW217577   4.345   0.584   5.466 -1.8051  0.1822  0.4607
 2039SOL     OW17578   0.654   4.703   7.802  0.2071 -0.2975 -0.3055
 2039SOL    HW117579   0.720   0.031   7.849  1.5111  1.8488 -4.3567
 2039SOL    HW217580   0.622   0.053   7.747  2.0634 -0.2175 -1.2730
 2040SOL     OW17581   1.345   4.531   7.295  0.2808  0.2845 -0.8909
 2040SOL    HW117582   1.322   4.621   7.274 -0.9623  0.3697  0.8295
 2040SOL    HW217583   1.440   4.539   7.289  0.3769 -0.1797  0.0034
 2041SOL     OW17584   4.489   4.098   0.539 -0.1784  0.0281 -0.2565
 2041SOL    HW117585   4.451   4.121   0.624  1.3154 -0.0285  0.4375
 2041SOL    HW217586   4.549   4.031   0.571 -0.2653  0.1257  0.1100
 2042SOL     OW17587   1.158   4.519   0.177  0.4206  0.1534 -0.3577
 2042SOL    HW117588   1.079   4.531   0.230 -0.2062 -0.0750 -1.2348
 2042SOL    HW217589   1.226   4.559   0.231  1.2644 -1.0629 -0.5273
 2043SOL     OW17590   2.662   0.606   7.852 -0.4010 -0.1242 -0.3842
 2043SOL    HW117591   2.580   0.654   7.859 -0.0965  0.0993  1.6220
 2043SOL    HW217592   2.712   0.647   7.922  1.2747 -3.0106  0.1252
 2044SOL     OW17593   2.415   0.332   1.557 -0.4360 -0.3553 -0.2143
 2044SOL    HW117594   2.480   0.391   1.596 -2.6144 -0.7199  3.9739
 2044SOL    HW217595   2.429   0.254   1.611  0.2274  0.1738  0.3842
 2045SOL     OW17596   2.244   4.359   5.382  0.0227  0.9797 -0.0715
 2045SOL    HW117597   2.312   4.334   5.445  0.3935 -0.6759 -1.1332
 2045SOL    HW217598   2.306   4.402   5.322  1.5994 -0.1478  0.7432
 2046SOL     OW17599   1.439   1.882   2.183 -0.1362 -0.1428 -0.3576
 2046SOL    HW117600   1.474   1.820   2.119 -0.7099  1.3187 -2.0815
 2046SOL    HW217601   1.517   1.876   2.238  2.2337 -0.5124 -3.7763
 2047SOL     OW17602   4.409   3.864   1.925 -0.2404 -0.2874  0.3020
 2047SOL    HW117603   4.347   3.841   1.994 -1.2364  2.8130  0.4271
 2047SOL    HW217604   4.413   3.775   1.890  0.8822 -0.3805  0.6925
 2048SOL     OW17605   3.513   2.865   5.671 -0.4104 -0.4986 -0.0089
 2048SOL    HW117606   3.431   2.905   5.644  0.4053 -0.2179 -2.0650
 2048SOL    HW217607   3.571   2.887   5.598  1.2207 -3.1614  0.4692
 2049SOL     OW17608   1.019   3.005   1.223  0.1969 -0.0205  0.0774
 2049SOL    HW117609   0.977   3.082   1.186  0.5024  1.1117  2.0946
 2049SOL    HW217610   1.112   3.021   1.209  0.1966  0.9791  1.2939
 2050SOL     OW17611   4.195   1.109   1.676  0.1670  0.4690  0.3564
 2050SOL    HW117612   4.232   1.127   1.590  0.8062 -1.4249  0.2388
 2050SOL    HW217613   4.273   1.069   1.713 -1.8001 -0.8480  3.1085
 2051SOL     OW17614   1.681   3.867   7.353 -0.1888 -0.7928  0.5732
 2051SOL    HW117615   1.775   3.857   7.346 -0.4153 -1.7910 -1.0588
 2051SOL    HW217616   1.645   3.811   7.285 -0.8186  1.9208 -1.3545
 2052SOL     OW17617   4.017   0.438  11.406 -0.2885  0.0030  0.2009
 2052SOL    HW117618   4.096   0.387  11.420  0.9006  2.1480  1.2021
 2052SOL    HW217619   4.048   0.515  11.358 -0.8922  1.3717  2.0020
 2053SOL     OW17620   0.322   4.322   8.702  0.3891 -0.4726 -0.5693
 2053SOL    HW117621   0.283   4.340   8.617  0.8621  2.4910 -0.1616
 2053SOL    HW217622   0.292   4.399   8.751  2.1373  0.1676 -0.5169
 2054SOL     OW17623   0.049   2.183   3.351  0.3803  0.1783  0.0058
 2054SOL    HW117624   0.131   2.136   3.338  0.3922 -0.4802  2.5800
 2054SOL    HW217625   4.711   2.140   3.289  0.1823 -0.4420  0.6301
 2055SOL     OW17626   4.092   2.124   5.285 -0.0180 -0.6140  0.0288
 2055SOL    HW117627   4.186   2.132   5.301 -0.0843  0.3752 -0.0596
 2055SOL    HW217628   4.066   2.034   5.303  1.8788 -1.4032 -1.1919
 2056SOL     OW17629   3.724   0.104   8.362  0.1143  0.0192 -0.1331
 2056SOL    HW117630   3.678   0.046   8.423  1.8366  0.1646  1.2868
 2056SOL    HW217631   3.801   0.048   8.366  0.2858  0.3201  0.7066
 2057SOL     OW17632   1.622   1.288   1.783  0.0470 -0.0203  0.5031
 2057SOL    HW117633   1.577   1.324   1.706  0.8288  3.0699  1.5017
 2057SOL    HW217634   1.653   1.372   1.816 -0.0645  0.2042  0.0422
 2058SOL     OW17635   1.174   1.275   6.064  0.0591 -0.5685 -0.0127
 2058SOL    HW117636   1.261   1.299   6.096  0.2519 -0.0085 -0.9534
 2058SOL    HW217637   1.193   1.207   5.999 -0.4018 -2.5535  1.9434
 2059SOL     OW17638   2.319   1.430   8.017  0.1353 -0.3446  0.0635
 2059SOL    HW117639   2.246   1.427   8.079  0.0976 -0.8068 -0.0061
 2059SOL    HW217640   2.283   1.478   7.942  0.6274 -1.1530 -0.6836
 2060SOL     OW17641   1.503   2.536   9.045 -0.1486  0.1222  0.0128
 2060SOL    HW117642   1.529   2.450   9.079  1.6826 -0.3721 -2.6368
 2060SOL    HW217643   1.590   2.569   9.022 -0.2459 -0.2745 -0.9226
 2061SOL     OW17644   1.705   2.080   8.392 -0.1763  0.0516  0.1560
 2061SOL    HW117645   1.644   2.111   8.460 -0.3985 -1.5419  0.6797
 2061SOL    HW217646   1.660   2.108   8.312 -1.8025 -0.5598  0.8501
 2062SOL     OW17647   1.032   0.540   1.143  0.0865 -0.1876  0.0257
 2062SOL    HW117648   0.941   0.517   1.124 -0.2068  0.4764  0.6354
 2062SOL    HW217649   1.018   0.625   1.185  0.1109 -0.0890 -0.1635
 2063SOL     OW17650   3.737   0.590   6.635  0.1236  0.1494  0.0677
 2063SOL    HW117651   3.781   0.662   6.588 -2.1628  1.1611 -0.5078
 2063SOL    HW217652   3.668   0.638   6.681  0.1036 -0.5365  0.7528
 2064SOL     OW17653   3.139   4.406   8.129  0.0741 -0.2117  0.3891
 2064SOL    HW117654   3.153   4.344   8.057  0.3749 -0.9418  1.0784
 2064SOL    HW217655   3.050   4.438   8.112  0.4474 -0.3326 -1.9000
 2065SOL     OW17656   4.026   2.842  12.566  0.1235 -0.0369 -0.8031
 2065SOL    HW117657   4.021   2.919  12.510 -0.8588 -0.2852 -1.0557
 2065SOL    HW217658   3.975   2.868  12.642  0.5868  1.6882 -1.0859
 2066SOL     OW17659   4.249   4.190   5.489 -0.1690  0.1904 -0.1370
 2066SOL    HW117660   4.197   4.233   5.422 -1.1442  0.1403  0.5980
 2066SOL    HW217661   4.246   4.102   5.451  1.7059 -0.2248  0.6750
 2067SOL     OW17662   4.455   0.072   5.407 -0.0610 -0.1343 -0.4359
 2067SOL    HW117663   4.462   0.074   5.502 -1.3456 -1.3595 -0.3223
 2067SOL    HW217664   4.407   0.152   5.387 -0.1347 -0.1159 -0.1818
 2068SOL     OW17665   1.195   1.497   0.912  0.1932  0.4455 -0.0952
 2068SOL    HW117666   1.260   1.567   0.907 -0.5965  1.0863 -1.4138
 2068SOL    HW217667   1.234   1.412   0.890  0.3419  0.5969 -0.4109
 2069SOL     OW17668   3.527   3.084  17.353  0.0072 -0.2688 -0.0846
 2069SOL    HW117669   3.611   3.058  17.390 -0.3517 -1.5512 -0.1646
 2069SOL    HW217670   3.533   3.180  17.356  0.8226 -0.3544  0.6214
 2070SOL     OW17671   4.490   1.253  12.203  0.1599  0.2165 -0.8029
 2070SOL    HW117672   4.514   1.171  12.246  2.7884  1.4516  0.0470
 2070SOL    HW217673   4.574   1.271  12.161  1.6337 -1.1880  1.5660
 2071SOL     OW17674   1.832   3.736   4.358  0.4535 -0.0411 -0.3004
 2071SOL    HW117675   1.826   3.831   4.368 -0.1951 -0.3282  1.9629
 2071SOL    HW217676   1.763   3.713   4.296 -1.1887  1.9650  0.7422
 2072SOL     OW17677   2.730   3.393   8.121 -0.0134  0.4557  0.4440
 2072SOL    HW117678   2.669   3.450   8.074  0.1100 -0.6173 -0.9993
 2072SOL    HW217679   2.689   3.307   8.123  0.5053  0.1704 -1.3132
 2073SOL     OW17680   4.226   2.698   8.339  0.6934 -0.0516  0.2011
 2073SOL    HW117681   4.183   2.683   8.423 -1.9202  4.1076 -0.3902
 2073SOL    HW217682   4.276   2.775   8.367 -0.1908  0.8314 -0.6282
 2074SOL     OW17683   2.724   1.537   2.282 -0.1123 -0.3808  0.0222
 2074SOL    HW117684   2.717   1.585   2.365  1.2276  0.1987 -0.2009
 2074SOL    HW217685   2.812   1.566   2.259 -1.2957  3.0201 -0.3205
 2075SOL     OW17686   3.294   1.490   3.674  0.3691 -0.2972 -0.2072
 2075SOL    HW117687   3.362   1.462   3.613 -0.3868 -0.1548 -1.1110
 2075SOL    HW217688   3.344   1.515   3.752 -0.0974 -2.7011  0.8536
 2076SOL     OW17689   1.267   1.853   6.765 -0.3672 -0.3349 -0.0385
 2076SOL    HW117690   1.318   1.873   6.686  0.6547  0.3439  0.7967
 2076SOL    HW217691   1.304   1.772   6.798  1.8465  1.4229  1.7550
 2077SOL     OW17692   3.498   0.661   4.346  0.2579 -0.0929 -0.2723
 2077SOL    HW117693   3.589   0.638   4.327  0.0339  0.1109 -1.5707
 2077SOL    HW217694   3.518   0.742   4.393  0.1679 -0.3255  0.1705
 2078SOL     OW17695   2.572   2.955   7.620 -0.7267  0.1528 -0.1430
 2078SOL    HW117696   2.635   3.015   7.580 -1.0263  0.1433 -0.6217
 2078SOL    HW217697   2.613   2.925   7.701  1.4447  2.8270 -0.2546
 2079SOL     OW17698   1.884   2.531   7.597  0.4289  0.0459  1.0548
 2079SOL    HW117699   1.973   2.497   7.596 -0.1291 -1.3596 -0.4285
 2079SOL    HW217700   1.835   2.452   7.576 -0.0969  0.6630 -0.0352
 2080SOL     OW17701   2.343   3.787   1.760 -0.4715  1.0259  0.0745
 2080SOL    HW117702   2.426   3.832   1.776 -0.6721  1.0061  1.1439
 2080SOL    HW217703   2.283   3.856   1.731 -2.0567  0.2263  1.4344
 2081SOL     OW17704   0.196   0.824   2.561 -0.1482 -0.1819  0.0931
 2081SOL    HW117705   0.230   0.766   2.493 -0.4913 -0.7350  0.3939
 2081SOL    HW217706   0.102   0.805   2.556 -0.2483 -0.1824  1.8504
 2082SOL     OW17707   0.983   2.807   3.204  0.6397  1.2637 -0.2384
 2082SOL    HW117708   1.071   2.810   3.166  0.9750  2.0840  0.6004
 2082SOL    HW217709   0.995   2.870   3.275  2.9014 -0.3501  0.7968
 2083SOL     OW17710   1.853   0.772  16.111 -0.1980 -0.1500  0.3995
 2083SOL    HW117711   1.879   0.782  16.019  0.7234 -0.0454  0.6731
 2083SOL    HW217712   1.866   0.857  16.151 -0.0908 -0.0162  0.0792
 2084SOL     OW17713   1.549   0.986   3.512  0.1183  0.5137 -0.7605
 2084SOL    HW117714   1.608   0.991   3.437 -0.2647  1.2164 -1.0180
 2084SOL    HW217715   1.492   1.058   3.483 -0.0341  1.2695  1.3859
 2085SOL     OW17716   0.671   0.209   0.106 -0.2219  0.1716 -0.7121
 2085SOL    HW117717   0.630   0.124   0.090  2.6867 -1.6259  1.2846
 2085SOL    HW217718   0.598   0.266   0.128 -0.4259  0.9801 -3.5851
 2086SOL     OW17719   0.025   2.152   2.064 -0.7018 -0.0703 -0.4453
 2086SOL    HW117720   0.054   2.206   2.138 -1.5420 -0.5142  0.2128
 2086SOL    HW217721   0.043   2.216   1.995 -1.0374 -0.6582 -1.0804
 2087SOL     OW17722   4.253   3.044   7.867 -0.0572  0.2398  0.0384
 2087SOL    HW117723   4.296   3.100   7.802 -0.0226  1.1542  0.8402
 2087SOL    HW217724   4.203   3.112   7.913 -1.6366 -0.4807 -0.6490
 2088SOL     OW17725   3.318   0.915   6.597  0.1466  0.4418  0.2666
 2088SOL    HW117726   3.400   0.891   6.554  0.5268  1.0039  0.6785
 2088SOL    HW217727   3.306   1.003   6.559  2.1193 -0.0021 -1.4429
 2089SOL     OW17728   1.061   1.914   5.510  0.0591  0.1151 -0.3689
 2089SOL    HW117729   0.999   1.856   5.555  1.3177  1.1082  2.5748
 2089SOL    HW217730   1.086   1.850   5.443  1.3997 -0.1550  0.4120
 2090SOL     OW17731   2.957   2.506   5.284 -0.8483  0.4310 -0.5859
 2090SOL    HW117732   2.890   2.469   5.227 -4.0682  2.2658  2.0308
 2090SOL    HW217733   3.013   2.560   5.229  1.8882 -0.9647  0.8265
 2091SOL     OW17734   4.671   0.422   2.348  0.1049 -0.2960 -0.2916
 2091SOL    HW117735   4.664   0.348   2.287  0.7122  1.5745 -2.6201
 2091SOL    HW217736   4.579   0.444   2.356  0.3563  0.9213 -0.7092
 2092SOL     OW17737   2.260   1.528   8.297 -0.6160 -0.6237  0.0891
 2092SOL    HW117738   2.190   1.477   8.258 -1.2924  0.1748  0.2634
 2092SOL    HW217739   2.231   1.619   8.292  1.7045  0.1528  0.6613
 2093SOL     OW17740   0.336   3.441   7.342  1.3127  0.0870 -0.2158
 2093SOL    HW117741   0.375   3.527   7.352  0.5031  0.3056  1.1441
 2093SOL    HW217742   0.407   3.380   7.364  0.5484 -0.8228 -0.2580
 2094SOL     OW17743   4.160   3.881  16.107 -0.7740 -0.0269 -0.2899
 2094SOL    HW117744   4.147   3.973  16.088  4.8511  0.7869 -0.0750
 2094SOL    HW217745   4.177   3.852  16.017 -0.7554  0.5637 -0.4746
 2095SOL     OW17746   2.224   4.698   9.505 -0.5267  0.1065 -0.0962
 2095SOL    HW117747   2.300   4.677   9.451 -0.8157 -0.9646 -0.0988
 2095SOL    HW217748   2.165   4.625   9.483  0.8978 -1.4551  1.2563
 2096SOL     OW17749   1.822   0.660   5.037 -0.2685  0.1604 -0.4023
 2096SOL    HW117750   1.870   0.612   4.970  1.0874  0.9683  0.0048
 2096SOL    HW217751   1.888   0.661   5.105 -1.3845 -0.0714  0.6902
 2097SOL     OW17752   0.804   2.923   4.969  0.2527 -0.5663  0.9618
 2097SOL    HW117753   0.893   2.927   5.004  0.1360 -0.0888  1.1963
 2097SOL    HW217754   0.759   2.839   4.984  0.2305 -1.2332 -2.9239
 2098SOL     OW17755   4.669   1.863   1.471  0.0214 -0.3314 -0.2187
 2098SOL    HW117756   4.613   1.881   1.548  1.4057  2.2783  0.1741
 2098SOL    HW217757   4.691   1.770   1.482  0.4707  0.1662  3.2967
 2099SOL     OW17758   3.661   2.504  15.984 -0.0176 -0.3424  0.0104
 2099SOL    HW117759   3.719   2.557  16.038 -0.2522  3.7509 -3.7933
 2099SOL    HW217760   3.704   2.507  15.899  0.4469  0.0295  0.2557
 2100SOL     OW17761   1.698   2.038  14.407  0.0005  0.1265 -0.0211
 2100SOL    HW117762   1.725   1.953  14.373 -2.2440 -0.3629 -0.5659
 2100SOL    HW217763   1.779   2.086  14.392  1.6504 -3.3581 -2.3138
 2101SOL     OW17764   1.793   2.062   7.632  0.0845 -0.0607  0.3857
 2101SOL    HW117765   1.849   1.984   7.629  0.9584  0.6031 -0.4815
 2101SOL    HW217766   1.759   2.052   7.721 -1.2416 -1.1755 -0.2407
 2102SOL     OW17767   1.025   2.098   5.090  0.2705  0.5370  0.1060
 2102SOL    HW117768   1.119   2.111   5.085  0.1915  0.0182 -2.5504
 2102SOL    HW217769   0.999   2.044   5.015  0.1246  1.9292 -0.8531
 2103SOL     OW17770   3.261   3.445   8.061 -0.8450  0.3695  0.3276
 2103SOL    HW117771   3.265   3.432   8.155  0.1775 -0.3123  0.1879
 2103SOL    HW217772   3.174   3.484   8.053 -1.0320  0.4649  3.0058
 2104SOL     OW17773   1.004   1.967   4.848 -0.1071 -1.0081  0.4072
 2104SOL    HW117774   1.085   1.924   4.820 -0.8747 -0.7850 -2.1694
 2104SOL    HW217775   0.939   1.909   4.808 -1.4414  0.0118  1.0948
 2105SOL     OW17776   1.598   1.407   8.259  0.2446 -0.0115  0.4525
 2105SOL    HW117777   1.595   1.372   8.170 -0.1849 -1.0663  0.8790
 2105SOL    HW217778   1.524   1.355   8.292 -1.2128  1.5781 -0.3564
 2106SOL     OW17779   2.090   0.943   7.886 -0.0655  0.4067 -0.2298
 2106SOL    HW117780   2.130   0.858   7.868 -2.0427 -0.7100  0.6711
 2106SOL    HW217781   2.009   0.907   7.921  0.5960 -0.1301  0.7420
 2107SOL     OW17782   2.314   2.352   1.214  0.4941  0.0429 -0.1525
 2107SOL    HW117783   2.383   2.340   1.279  2.3413  0.4491 -2.0244
 2107SOL    HW217784   2.263   2.432   1.228 -2.0869 -1.1597 -2.5027
 2108SOL     OW17785   3.279   2.282   6.821  0.1400 -0.1060  0.2640
 2108SOL    HW117786   3.340   2.338   6.868 -0.7446  0.7675  0.3729
 2108SOL    HW217787   3.257   2.334   6.744 -4.7798 -2.0138  0.3337
 2109SOL     OW17788   2.131   4.066   3.415  0.0162  0.4692  0.3639
 2109SOL    HW117789   2.142   3.979   3.453 -4.2141 -0.0068  0.5786
 2109SOL    HW217790   2.063   4.093   3.477 -0.3946 -0.7391  0.4440
 2110SOL     OW17791   2.920   0.596   8.083  0.5604 -0.1903 -0.0266
 2110SOL    HW117792   2.856   0.534   8.118 -0.7955  1.6917  0.8429
 2110SOL    HW217793   2.880   0.680   8.107  3.5116  1.3684 -0.6946
 2111SOL     OW17794   0.283   0.047   2.772 -0.2030 -0.1948  0.6473
 2111SOL    HW117795   0.368   0.006   2.781 -0.3425 -0.6975 -0.2922
 2111SOL    HW217796   0.309   0.139   2.766  0.5853 -0.5384 -1.3368
 2112SOL     OW17797   0.215   4.211   9.180 -0.3393 -0.5741  0.2577
 2112SOL    HW117798   0.254   4.298   9.175  0.5315 -1.0637 -1.5228
 2112SOL    HW217799   0.126   4.223   9.214 -0.0334  0.0219  0.8352
 2113SOL     OW17800   2.238   2.171   6.058 -0.1878  0.2860  0.2686
 2113SOL    HW117801   2.172   2.115   6.018 -0.4429  1.3687 -0.8291
 2113SOL    HW217802   2.206   2.183   6.147  0.6022  0.1345  0.5726
 2114SOL     OW17803   0.561   4.088   3.097  0.3734  0.6613  0.4150
 2114SOL    HW117804   0.593   4.152   3.161  1.2408 -1.2639  1.9234
 2114SOL    HW217805   0.528   4.157   3.040 -2.6130  0.4965  1.9726
 2115SOL     OW17806   3.617   3.399   5.427 -0.0578 -0.1000 -0.5447
 2115SOL    HW117807   3.688   3.390   5.491 -1.3335  1.0969  1.0398
 2115SOL    HW217808   3.543   3.362   5.476 -0.4195  0.2250 -0.8534
 2116SOL     OW17809   2.107   2.155   9.448  0.5781 -0.0521 -0.1122
 2116SOL    HW117810   2.188   2.161   9.499 -0.4493  4.2975  1.0539
 2116SOL    HW217811   2.054   2.099   9.505  0.3815  0.9303  0.6934
 2117SOL     OW17812   4.429   2.138   7.326  0.3922  0.0784  0.1395
 2117SOL    HW117813   4.360   2.072   7.321  1.9034 -1.4210 -0.9547
 2117SOL    HW217814   4.415   2.153   7.419  1.6316 -0.5167  0.4107
 2118SOL     OW17815   3.614   2.223   4.286 -0.7743 -0.4296 -0.1914
 2118SOL    HW117816   3.535   2.250   4.333 -1.3019 -1.3959 -0.5262
 2118SOL    HW217817   3.595   2.239   4.194  1.4912 -2.3759 -1.0113
 2119SOL     OW17818   1.958   2.776   9.901 -0.2935 -0.2011  0.0322
 2119SOL    HW117819   1.873   2.746   9.870  0.1459 -1.3801 -0.0078
 2119SOL    HW217820   2.004   2.694   9.888  0.9286  0.6016 -0.7393
 2120SOL     OW17821   0.561   2.544   8.176 -0.1974  0.4721 -0.7250
 2120SOL    HW117822   0.487   2.524   8.234  0.0497  2.1347  0.1676
 2120SOL    HW217823   0.623   2.475   8.200 -0.4329  0.1039 -1.1666
 2121SOL     OW17824   4.539   3.817   5.134 -0.3264  0.1157  0.4233
 2121SOL    HW117825   4.510   3.738   5.088 -0.8334  1.2024 -1.1536
 2121SOL    HW217826   4.560   3.787   5.222  2.0570 -1.3367 -0.6458
 2122SOL     OW17827   2.987   0.201   2.614 -0.3772 -0.1162  0.1664
 2122SOL    HW117828   3.008   0.117   2.656  0.2923 -1.0384 -1.9959
 2122SOL    HW217829   2.900   0.185   2.576  0.6543 -1.0051 -1.8475
 2123SOL     OW17830   2.144   0.255  11.840  0.1810  0.5984  0.9761
 2123SOL    HW117831   2.106   0.186  11.785 -0.6621  1.8178  0.0460
 2123SOL    HW217832   2.183   0.316  11.777 -1.6185 -0.0389 -0.7431
 2124SOL     OW17833   2.992   0.585   3.481 -0.0841 -0.5962  0.0596
 2124SOL    HW117834   3.016   0.602   3.390 -0.0142 -0.9012  0.0220
 2124SOL    HW217835   3.060   0.520   3.502  0.1826  0.3157  1.9789
 2125SOL     OW17836   2.831   3.852   2.351 -0.3214  0.0156 -0.3532
 2125SOL    HW117837   2.844   3.946   2.366 -1.5041  0.1905 -0.3796
 2125SOL    HW217838   2.779   3.853   2.271  0.7948  2.9854 -1.0465
 2126SOL     OW17839   3.895   2.283   4.509 -0.6582  0.2022  0.6567
 2126SOL    HW117840   3.824   2.312   4.451  0.9470  0.3565 -1.2350
 2126SOL    HW217841   3.834   2.267   4.581 -2.7866  3.2506 -0.5027
 2127SOL     OW17842   1.065   0.756  12.954  0.0878 -0.1033 -0.1965
 2127SOL    HW117843   1.031   0.781  13.039 -0.5233 -0.9516 -0.1902
 2127SOL    HW217844   0.993   0.783  12.897  2.1392 -1.4893 -3.4804
 2128SOL     OW17845   4.377   4.087  16.755  0.6615 -0.1494 -0.8081
 2128SOL    HW117846   4.413   4.169  16.721  0.1214 -0.5709 -2.3821
 2128SOL    HW217847   4.416   4.023  16.696  1.9838  0.4794 -0.6212
 2129SOL     OW17848   3.886   1.736   1.483  0.2165  0.1519 -0.2948
 2129SOL    HW117849   3.971   1.752   1.442 -0.4528  0.7841 -1.4240
 2129SOL    HW217850   3.844   1.763   1.401 -1.1533 -1.4259 -0.1150
 2130SOL     OW17851   1.196   2.419   2.656 -0.0943  0.1727 -0.8122
 2130SOL    HW117852   1.178   2.472   2.733  2.0481 -1.4218  0.8006
 2130SOL    HW217853   1.272   2.461   2.616  1.8384 -2.1611  0.3656
 2131SOL     OW17854   4.095   3.741  11.285 -0.5581 -0.0425 -0.5957
 2131SOL    HW117855   4.095   3.647  11.303  0.6930 -0.5657 -3.3596
 2131SOL    HW217856   4.009   3.741  11.244 -0.9405 -1.1839  0.2031
 2132SOL     OW17857   1.422   0.510   6.722 -0.4897  0.2220 -0.4619
 2132SOL    HW117858   1.371   0.459   6.784 -1.6303 -0.0143 -1.5949
 2132SOL    HW217859   1.478   0.556   6.785  0.4196 -0.5775 -0.6876
 2133SOL     OW17860   2.813   3.254   2.509  0.0072  0.0423 -0.3354
 2133SOL    HW117861   2.721   3.258   2.534 -0.0969 -1.6456 -0.4621
 2133SOL    HW217862   2.809   3.246   2.413  1.2023 -1.2409 -0.2730
 2134SOL     OW17863   0.678   3.187   5.845 -0.3569  0.0604 -0.0510
 2134SOL    HW117864   0.593   3.215   5.812 -0.5259 -1.6821 -1.1163
 2134SOL    HW217865   0.648   3.129   5.915 -1.2012  1.5096  0.7749
 2135SOL     OW17866   3.169   4.289  10.005  0.0576  0.0317  0.3497
 2135SOL    HW117867   3.213   4.370   9.978  0.9417 -1.0220 -1.3144
 2135SOL    HW217868   3.076   4.313  10.009  0.1080  0.7458 -3.2618
 2136SOL     OW17869   4.017   4.404   7.291  0.1964  0.4865  0.2342
 2136SOL    HW117870   4.067   4.342   7.237  1.2722 -0.0499  1.8325
 2136SOL    HW217871   4.023   4.477   7.229  0.7303  0.9975  0.9013
 2137SOL     OW17872   0.636   2.816   2.601  0.0326 -0.1571 -0.6937
 2137SOL    HW117873   0.715   2.844   2.554 -0.2846  0.0030 -1.1446
 2137SOL    HW217874   0.581   2.894   2.588  1.5600  1.1474  0.8421
 2138SOL     OW17875   1.381   0.391  11.622 -0.1293 -0.5807  0.0366
 2138SOL    HW117876   1.391   0.296  11.618  0.1661 -0.5096 -0.7135
 2138SOL    HW217877   1.457   0.415  11.675  1.8285 -1.9143 -2.1636
 2139SOL     OW17878   0.430   4.564   8.533 -0.3531 -0.1305  0.2421
 2139SOL    HW117879   0.352   4.525   8.494 -1.4664  0.4528  1.8467
 2139SOL    HW217880   0.474   4.594   8.454 -1.9254  1.3338 -0.0762
 2140SOL     OW17881   4.491   1.054   4.335  0.6958 -0.2772  0.3243
 2140SOL    HW117882   4.448   0.983   4.288  0.6699 -0.7976  1.1344
 2140SOL    HW217883   4.542   1.091   4.263  0.7729  0.6294  0.8405
 2141SOL     OW17884   3.740   3.821   8.900 -0.3455  0.1138  0.1156
 2141SOL    HW117885   3.768   3.882   8.968  0.6465 -0.6575  0.3886
 2141SOL    HW217886   3.658   3.854   8.861  0.4323  1.4016 -0.4489
 2142SOL     OW17887   2.198   2.855  16.147  0.2093 -0.3676 -0.1718
 2142SOL    HW117888   2.243   2.917  16.089  2.0113 -0.3086  1.3156
 2142SOL    HW217889   2.216   2.895  16.232  1.1565 -1.3645  0.0856
 2143SOL     OW17890   2.073   1.865   6.230 -0.0016 -0.7555  0.6451
 2143SOL    HW117891   2.029   1.782   6.215 -0.8434 -0.0370 -0.8720
 2143SOL    HW217892   2.143   1.842   6.290 -0.3755  2.6946  2.4426
 2144SOL     OW17893   4.439   1.003   9.147  0.3815  0.0497  0.2512
 2144SOL    HW117894   4.440   1.027   9.054  1.0543  0.1272  0.2835
 2144SOL    HW217895   4.422   1.088   9.188 -1.6513  0.2052 -0.8858
 2145SOL     OW17896   4.695   2.702  13.806 -0.0296 -0.2798  0.5673
 2145SOL    HW117897   4.679   2.795  13.817  0.1406 -0.1428 -0.3655
 2145SOL    HW217898   4.635   2.655  13.865 -0.7236 -3.4692 -2.6988
 2146SOL     OW17899   3.226   1.247   1.144  0.5125  0.2087 -0.1835
 2146SOL    HW117900   3.144   1.218   1.184 -0.6796  2.6796 -0.8453
 2146SOL    HW217901   3.283   1.176   1.174  0.1531  0.5645  1.3674
 2147SOL     OW17902   4.403   0.232   8.222  0.3176  0.3749  0.5413
 2147SOL    HW117903   4.491   0.237   8.185  0.6402 -1.1745  1.1193
 2147SOL    HW217904   4.419   0.244   8.316  1.5192  1.7663  0.1625
 2148SOL     OW17905   4.045   0.005  15.328  0.4747  0.1053 -0.3047
 2148SOL    HW117906   3.984   0.071  15.295  0.3847  0.9855  1.5908
 2148SOL    HW217907   3.983   4.654  15.322  1.3176 -0.4684 -2.2563
 2149SOL     OW17908   2.681   1.889  10.370  0.4224 -0.3654 -0.6367
 2149SOL    HW117909   2.645   1.801  10.363  0.3522 -0.4017  0.1817
 2149SOL    HW217910   2.676   1.893  10.465  1.0504  0.7773 -0.6439
 2150SOL     OW17911   0.970   2.850   6.627  0.0025  0.5461 -0.2192
 2150SOL    HW117912   0.915   2.909   6.574  0.4348  1.9992  0.9335
 2150SOL    HW217913   1.045   2.854   6.568  0.3032 -1.7876  0.0143
 2151SOL     OW17914   1.357   1.053   6.617 -0.5549 -0.0583 -0.6992
 2151SOL    HW117915   1.405   1.063   6.535  0.6512  1.4021  0.1642
 2151SOL    HW217916   1.377   0.966   6.650 -0.1718  1.3482  2.8153
 2152SOL     OW17917   3.594   2.021   4.731  0.0118  0.0208  0.3402
 2152SOL    HW117918   3.516   2.008   4.786 -2.2495  1.7895 -2.4463
 2152SOL    HW217919   3.611   1.931   4.702 -0.2052  0.5177 -1.3272
 2153SOL     OW17920   4.296   2.703   5.988  0.8672  0.6542  1.2850
 2153SOL    HW117921   4.255   2.731   6.070 -0.6599  1.2591  0.3036
 2153SOL    HW217922   4.326   2.785   5.950  0.5274  0.4433  0.5658
 2154SOL     OW17923   3.539   1.826  12.775 -0.6452 -0.2474 -0.1380
 2154SOL    HW117924   3.605   1.769  12.815 -1.3806  0.0172  1.4504
 2154SOL    HW217925   3.460   1.771  12.777 -1.0089  0.3230  0.8619
 2155SOL     OW17926   1.010   1.636   4.164  0.3635 -0.0122 -0.1801
 2155SOL    HW117927   1.088   1.616   4.112  0.3561 -1.9690  0.5509
 2155SOL    HW217928   0.946   1.663   4.098  0.4893 -1.2687 -0.8173
 2156SOL     OW17929   3.297   0.250   7.890 -0.2817  0.0491  0.4436
 2156SOL    HW117930   3.311   0.308   7.815 -1.4505  3.1810  2.6371
 2156SOL    HW217931   3.352   0.174   7.873  1.8335  1.9507 -1.2265
 2157SOL     OW17932   1.006   1.413   0.226  0.3993 -0.0019 -0.4439
 2157SOL    HW117933   0.997   1.401   0.321 -1.7067 -0.0459 -0.6544
 2157SOL    HW217934   0.952   1.341   0.193 -0.1623  0.9976 -1.7009
 2158SOL     OW17935   4.588   0.318   9.278 -0.4628  0.3131  0.6792
 2158SOL    HW117936   4.573   0.391   9.218  2.5152 -0.5533 -1.0751
 2158SOL    HW217937   4.585   0.362   9.363  2.7949  0.4488  0.6932
 2159SOL     OW17938   1.962   3.692  13.065 -0.0157 -0.2815 -0.1035
 2159SOL    HW117939   2.047   3.679  13.024 -0.3195 -2.7771  0.0326
 2159SOL    HW217940   1.943   3.601  13.090 -0.2233 -0.2465 -0.1292
 2160SOL     OW17941   0.374   3.369   8.213 -0.4196 -0.6505 -0.1327
 2160SOL    HW117942   0.408   3.448   8.171  0.0593  0.1993  1.8703
 2160SOL    HW217943   0.291   3.404   8.248 -0.6295 -0.9607 -0.3220
 2161SOL     OW17944   1.075   0.500  15.841  0.4674  0.1047  0.0266
 2161SOL    HW117945   1.130   0.577  15.830  4.7020 -2.9848 -0.2080
 2161SOL    HW217946   1.094   0.481  15.933  1.2466 -0.6302 -0.2919
 2162SOL     OW17947   2.239   3.793   0.179 -0.2734 -0.1414 -0.0683
 2162SOL    HW117948   2.318   3.846   0.194 -1.5808  1.4530  1.1520
 2162SOL    HW217949   2.198   3.818   0.262  2.7002 -0.2904  1.4686
 2163SOL     OW17950   3.844   2.025   6.629  0.1509  0.8904 -0.2192
 2163SOL    HW117951   3.795   1.999   6.707 -0.0662 -0.3942 -0.7733
 2163SOL    HW217952   3.937   2.024   6.653  0.1919 -1.8312 -0.4160
 2164SOL     OW17953   3.001   3.921   3.519 -0.0906 -0.0972  0.4250
 2164SOL    HW117954   2.940   3.975   3.468 -1.4319 -0.9307  1.1432
 2164SOL    HW217955   3.084   3.924   3.472  0.1843 -1.3909  0.8294
 2165SOL     OW17956   2.679   2.730   2.389 -0.1076  0.1107  0.3317
 2165SOL    HW117957   2.730   2.690   2.319 -3.8918  0.6515 -2.7229
 2165SOL    HW217958   2.621   2.789   2.340 -0.8425 -1.1362 -0.2839
 2166SOL     OW17959   0.119   0.523   9.723 -0.5262 -0.3169  0.3917
 2166SOL    HW117960   0.155   0.603   9.761 -1.1125 -0.0936  0.4718
 2166SOL    HW217961   0.032   0.555   9.699 -0.1897 -1.3436 -2.1875
 2167SOL     OW17962   2.608   4.537   3.640  0.1430  0.1339  0.0215
 2167SOL    HW117963   2.521   4.550   3.679  0.7616  0.3869  1.3368
 2167SOL    HW217964   2.611   4.610   3.579  0.3775 -0.2907 -0.4741
 2168SOL     OW17965   3.903   4.565   6.254 -0.1910  0.3473  0.2889
 2168SOL    HW117966   3.956   4.631   6.210 -2.5189  3.6556  2.4369
 2168SOL    HW217967   3.925   4.487   6.203  0.6230  0.1165  0.9805
 2169SOL     OW17968   0.118   0.589  14.687 -0.0719 -0.2063 -0.6300
 2169SOL    HW117969   0.117   0.515  14.747 -0.0241  0.5478  0.3088
 2169SOL    HW217970   0.201   0.571  14.643  0.9334  1.3534  0.6072
 2170SOL     OW17971   3.831   3.875   4.837  0.1728  0.6653 -0.4836
 2170SOL    HW117972   3.862   3.787   4.815 -2.4797  0.0272 -1.7426
 2170SOL    HW217973   3.763   3.858   4.902  1.4851 -0.2072  0.6710
 2171SOL     OW17974   4.042   2.653   3.012  0.5495  0.4005  0.0879
 2171SOL    HW117975   4.071   2.740   2.985  1.9925 -0.4916 -1.2183
 2171SOL    HW217976   3.974   2.630   2.949  2.9946 -1.6143 -1.7830
 2172SOL     OW17977   1.701   0.002   1.412 -0.2828 -0.6989  0.3362
 2172SOL    HW117978   1.722   4.702   1.321  0.1291 -0.6028  0.4075
 2172SOL    HW217979   1.644   0.078   1.406  0.8440  0.0979 -0.3458
 2173SOL     OW17980   3.656   4.484  14.776  0.2093  0.0569 -0.5304
 2173SOL    HW117981   3.744   4.447  14.784 -1.0430 -2.7701  0.1989
 2173SOL    HW217982   3.654   4.548  14.846  0.8041  0.0049 -0.4616
 2174SOL     OW17983   1.845   1.767   7.991 -0.2219  0.2089  0.2562
 2174SOL    HW117984   1.751   1.775   8.007 -0.4821 -1.5640 -0.3400
 2174SOL    HW217985   1.870   1.747   8.082  0.5929 -0.1733 -0.0426
 2175SOL     OW17986   0.565   3.610   7.425 -0.4010 -0.4670 -0.0351
 2175SOL    HW117987   0.578   3.521   7.459  1.4225 -0.3168 -0.3219
 2175SOL    HW217988   0.492   3.640   7.479  0.3926 -0.2310  0.9148
 2176SOL     OW17989   2.376   3.753   7.809  0.3232 -0.0212 -0.1183
 2176SOL    HW117990   2.365   3.660   7.827 -0.2445  0.6978  3.2034
 2176SOL    HW217991   2.467   3.745   7.778  1.2170  0.2381  2.4830
 2177SOL     OW17992   1.559   3.264  10.075 -0.4477  0.3633  0.2818
 2177SOL    HW117993   1.503   3.234  10.146 -0.0072 -0.6445  0.1998
 2177SOL    HW217994   1.626   3.196  10.072  1.3639  2.0210  2.7242
 2178SOL     OW17995   0.670   2.358   7.954  0.3598  0.5693  0.0191
 2178SOL    HW117996   0.580   2.382   7.978  0.0358  0.4155 -1.0343
 2178SOL    HW217997   0.697   2.448   7.937 -0.4865  0.5003 -1.7919
 2179SOL     OW17998   0.606   1.281  11.001 -0.6549 -0.0642  0.0556
 2179SOL    HW117999   0.569   1.299  10.915 -1.7398 -0.9354  0.3432
 2179SOL    HW218000   0.648   1.364  11.028  0.3160  0.6903 -3.7698
 2180SOL     OW18001   0.010   2.058   6.272  0.3120  0.4577  0.1744
 2180SOL    HW118002   0.050   2.087   6.190  1.9602  0.1521  0.8636
 2180SOL    HW218003   4.643   2.045   6.239  0.7504 -0.4831 -0.6367
 2181SOL     OW18004   3.705   4.117  16.511  0.2976  0.3493  0.1000
 2181SOL    HW118005   3.624   4.098  16.463  0.9716 -1.6675 -0.2474
 2181SOL    HW218006   3.725   4.207  16.487 -0.4754  0.4477 -0.1687
 2182SOL     OW18007   2.157   3.926   4.445  0.0631  0.0763 -0.4943
 2182SOL    HW118008   2.153   3.934   4.349 -2.3000 -0.1477 -0.4207
 2182SOL    HW218009   2.206   3.844   4.444 -0.1995 -0.0876  2.9819
 2183SOL     OW18010   3.132   2.419   2.937 -0.4145  0.2966  0.0528
 2183SOL    HW118011   3.163   2.465   2.859 -0.5018 -0.0033 -0.1549
 2183SOL    HW218012   3.072   2.359   2.894  0.2677 -1.1930  1.1704
 2184SOL     OW18013   2.805   1.969   3.442  0.0027 -0.1065 -0.0227
 2184SOL    HW118014   2.753   1.898   3.479  0.9877  0.0201  1.6189
 2184SOL    HW218015   2.817   1.950   3.349  3.6056  2.1600 -0.0373
 2185SOL     OW18016   2.414   4.581  14.130 -0.5761 -0.0200 -0.3047
 2185SOL    HW118017   2.483   4.620  14.183  0.0966  2.4993 -2.9942
 2185SOL    HW218018   2.396   4.503  14.182 -2.0073  1.0203  0.7639
 2186SOL     OW18019   1.648   0.625  16.236 -0.3951  0.1833  0.2435
 2186SOL    HW118020   1.558   0.653  16.247 -0.1073  1.8674 -1.8102
 2186SOL    HW218021   1.692   0.681  16.172 -1.1689 -0.9330 -1.2633
 2187SOL     OW18022   4.686   3.469  15.530 -0.2734  0.1832 -0.0013
 2187SOL    HW118023   4.701   3.377  15.509 -0.0934  0.6366 -1.9042
 2187SOL    HW218024   0.028   3.479  15.601 -1.6916  0.0640  1.2913
 2188SOL     OW18025   3.988   3.172   6.565  0.6709  0.1251  0.4845
 2188SOL    HW118026   4.034   3.225   6.630  0.7617 -0.8137  1.1821
 2188SOL    HW218027   3.897   3.198   6.579  0.3512 -1.1511  0.7185
 2189SOL     OW18028   0.238   2.878   7.977  0.3496 -0.3789 -0.4725
 2189SOL    HW118029   0.312   2.819   7.989  2.3078  2.1658  0.0592
 2189SOL    HW218030   0.215   2.894   8.068  2.1282  2.4524 -0.5050
 2190SOL     OW18031   1.955   4.313   5.193  0.0040  0.0674  0.0848
 2190SOL    HW118032   2.011   4.251   5.146  2.3261  2.3644 -0.1895
 2190SOL    HW218033   1.936   4.375   5.122 -2.0118  0.8746  1.3409
 2191SOL     OW18034   2.991   4.174   3.145  0.0286 -0.2712 -0.3138
 2191SOL    HW118035   3.078   4.136   3.132  0.2200  0.2512 -0.5388
 2191SOL    HW218036   2.958   4.111   3.209  2.1602 -1.7466 -0.6744
 2192SOL     OW18037   2.474   3.210   0.935  0.4719  0.1022  0.5192
 2192SOL    HW118038   2.413   3.149   0.975  1.5561 -2.4576 -1.6973
 2192SOL    HW218039   2.411   3.254   0.878  1.3358 -0.6408 -1.0268
 2193SOL     OW18040   4.066   4.152   2.552  0.0897 -0.1918 -0.2445
 2193SOL    HW118041   4.075   4.089   2.480 -1.2153  1.0593 -1.4968
 2193SOL    HW218042   4.104   4.227   2.505  2.1116 -2.0028 -1.4911
 2194SOL     OW18043   4.320   2.029   0.322  0.5816  0.3386  0.2305
 2194SOL    HW118044   4.297   2.044   0.414 -2.4198  1.8541 -0.7530
 2194SOL    HW218045   4.287   2.107   0.276  0.8899  0.0119 -0.5390
 2195SOL     OW18046   0.975   0.612  12.644 -0.3135  0.1427  0.2461
 2195SOL    HW118047   1.055   0.627  12.593 -1.8063 -0.6434 -2.3644
 2195SOL    HW218048   0.981   0.681  12.710 -1.2256  0.3095  0.1480
 2196SOL     OW18049   3.474   2.972   9.382  0.6623 -0.2142 -0.6017
 2196SOL    HW118050   3.440   2.890   9.347 -1.2643  0.5485 -0.4919
 2196SOL    HW218051   3.544   2.939   9.438 -1.6604 -0.1309  2.3441
 2197SOL     OW18052   3.066   2.002   4.091  0.1057  0.0144  0.2490
 2197SOL    HW118053   3.028   2.088   4.073  1.0432  0.7916  2.0531
 2197SOL    HW218054   2.989   1.946   4.078 -1.2512  1.8929  0.2084
 2198SOL     OW18055   1.665   3.634   7.738  0.1093 -0.1991 -0.1787
 2198SOL    HW118056   1.726   3.593   7.799 -1.6079 -0.9567  1.0090
 2198SOL    HW218057   1.696   3.604   7.652  1.5610 -0.7871  0.5525
 2199SOL     OW18058   0.562   1.625  11.194  0.3519  0.2259  0.1309
 2199SOL    HW118059   0.531   1.694  11.252  1.3334  0.1604  0.7405
 2199SOL    HW218060   0.483   1.572  11.183  0.7953 -0.6787  1.1837
 2200SOL     OW18061   1.813   3.449   1.959  0.0361 -0.0532 -0.4546
 2200SOL    HW118062   1.841   3.498   1.882 -2.4162  3.6485  0.9893
 2200SOL    HW218063   1.749   3.515   1.986  0.3814  0.1474 -0.1223
 2201SOL     OW18064   3.251   1.678   9.883  0.2441  0.1509  0.4072
 2201SOL    HW118065   3.321   1.669   9.948 -0.0161 -1.5858  0.4448
 2201SOL    HW218066   3.171   1.687   9.934 -0.0058 -0.3277  0.1042
 2202SOL     OW18067   0.129   3.190  10.549  0.1494  0.9545 -0.2887
 2202SOL    HW118068   0.125   3.094  10.546 -0.9187  1.0054 -0.3845
 2202SOL    HW218069   0.185   3.208  10.473  2.0400 -2.0049  0.4085
 2203SOL     OW18070   2.464   0.148  17.310  0.0394  0.6766  0.3731
 2203SOL    HW118071   2.504   0.217  17.256  0.5135 -1.7644 -2.4293
 2203SOL    HW218072   2.510   0.073  17.272  1.5494  2.0761 -0.5505
 2204SOL     OW18073   1.787   3.669   2.514 -0.1207 -0.5721  0.1031
 2204SOL    HW118074   1.847   3.631   2.450  1.2131 -1.2395  1.7591
 2204SOL    HW218075   1.827   3.636   2.594  0.9563  1.8057  0.5688
 2205SOL     OW18076   0.905   1.689   9.220  0.1791  0.5442  0.0942
 2205SOL    HW118077   0.947   1.758   9.271 -0.5174  1.6336 -0.8001
 2205SOL    HW218078   0.816   1.693   9.255 -0.2125 -0.4541 -0.7745
 2206SOL     OW18079   2.968   2.720   6.054 -0.1235 -0.6954 -0.3284
 2206SOL    HW118080   2.914   2.798   6.042 -0.3929 -0.9789 -0.9740
 2206SOL    HW218081   2.939   2.677   5.974 -0.7519  1.1890 -1.1065
 2207SOL     OW18082   2.064   3.981  10.169  1.1344  0.2545  0.0498
 2207SOL    HW118083   2.044   3.891  10.194 -0.1579 -0.2739 -2.8965
 2207SOL    HW218084   2.035   3.986  10.078  2.2413  0.9052 -0.2723
 2208SOL     OW18085   4.450   1.256   7.685  0.2742 -0.2999  0.1523
 2208SOL    HW118086   4.362   1.289   7.667  0.3471  0.4540  1.1885
 2208SOL    HW218087   4.434   1.169   7.650 -0.6367  0.6430 -1.7981
 2209SOL     OW18088   0.800   0.235   6.565  0.2055 -0.0287 -0.1073
 2209SOL    HW118089   0.870   0.203   6.508  0.7983  0.8627  0.1158
 2209SOL    HW218090   0.768   0.305   6.508  0.7504  0.1251 -0.2339
 2210SOL     OW18091   2.612   2.991   6.059  0.3914  0.0127  0.3510
 2210SOL    HW118092   2.701   2.986   6.026  0.6085  0.4904  0.8604
 2210SOL    HW218093   2.573   2.903   6.049  0.2531 -0.0754  1.6075
 2211SOL     OW18094   3.801   1.091   5.437  0.5438  0.6122  0.2012
 2211SOL    HW118095   3.784   0.996   5.436 -0.5968  0.8150  0.0091
 2211SOL    HW218096   3.716   1.131   5.415 -0.2599 -0.3891  1.4863
 2212SOL     OW18097   0.351   2.650   2.001 -0.3978 -0.2502 -0.5366
 2212SOL    HW118098   0.282   2.702   1.959 -2.2034 -0.1319  2.6298
 2212SOL    HW218099   0.385   2.609   1.921 -0.9445 -0.7649 -0.5056
 2213SOL     OW18100   1.190   4.124   0.016 -0.1753  0.2530 -0.5133
 2213SOL    HW118101   1.111   4.106   0.067  1.3082 -1.3534  1.2129
 2213SOL    HW218102   1.228   4.036   0.020 -1.5432 -0.4585 -2.7900
 2214SOL     OW18103   4.032   1.809  15.219  0.2989 -0.1273  0.2687
 2214SOL    HW118104   3.971   1.815  15.145 -0.4907  0.7618  0.9816
 2214SOL    HW218105   4.088   1.885  15.205 -0.1011  0.0326 -0.4763
 2215SOL     OW18106   2.248   0.057  11.998  0.3688 -0.0685  0.2239
 2215SOL    HW118107   2.197   0.059  12.079 -0.3920  1.3882 -0.2840
 2215SOL    HW218108   2.239   0.142  11.954 -0.7299  0.1543  0.8845
 2216SOL     OW18109   0.655   1.437   9.110  0.2346  0.8655  0.2401
 2216SOL    HW118110   0.572   1.455   9.154  1.9616  3.2632  2.4720
 2216SOL    HW218111   0.715   1.429   9.183 -0.1291  0.6001  0.5108
 2217SOL     OW18112   3.452   3.925   6.135  0.0750 -0.0896  0.4076
 2217SOL    HW118113   3.413   3.932   6.222 -2.0831  2.2702 -0.7664
 2217SOL    HW218114   3.518   3.994   6.137  1.0505 -0.9867 -0.4437
 2218SOL     OW18115   1.157   4.417   6.941 -0.6700  0.4058  0.5011
 2218SOL    HW118116   1.159   4.479   6.867  4.3878  0.1911  0.4748
 2218SOL    HW218117   1.250   4.395   6.950 -0.4962  0.9510  0.0583
 2219SOL     OW18118   3.971   3.097   7.968 -0.4037 -0.0620 -0.0567
 2219SOL    HW118119   3.929   3.155   8.032 -0.9217 -1.2588  0.6819
 2219SOL    HW218120   3.914   3.021   7.982  1.0617 -1.2886 -0.7631
 2220SOL     OW18121   2.202   2.236   4.337  0.0562  0.0999 -0.0893
 2220SOL    HW118122   2.249   2.153   4.343  0.4122  0.2785 -0.4433
 2220SOL    HW218123   2.275   2.296   4.325 -0.4198  0.0989 -2.9004
 2221SOL     OW18124   4.632   4.124   3.869 -0.0373  0.3197  0.2170
 2221SOL    HW118125   4.583   4.090   3.794  0.6543  0.7239 -0.4068
 2221SOL    HW218126   4.563   4.136   3.935  0.2726  3.9612 -0.1174
 2222SOL     OW18127   2.615   0.977   9.507  0.2110  0.8209 -0.1690
 2222SOL    HW118128   2.638   0.958   9.598 -0.4663  0.7796 -0.0062
 2222SOL    HW218129   2.549   0.909   9.496 -0.7446  2.0890 -2.3135
 2223SOL     OW18130   2.467   3.971   4.438 -0.3486 -0.0903  0.1278
 2223SOL    HW118131   2.445   4.061   4.464 -0.5970  0.4110 -1.8568
 2223SOL    HW218132   2.432   3.917   4.509 -3.0289 -0.2206 -1.3072
 2224SOL     OW18133   0.953   1.365   0.501 -0.0161 -0.1966  0.2310
 2224SOL    HW118134   1.015   1.294   0.515 -0.7947 -0.5162  2.0321
 2224SOL    HW218135   0.954   1.411   0.585  0.1646 -0.2596  0.2635
 2225SOL     OW18136   0.082   0.887   6.269  0.3902 -0.0363  0.2531
 2225SOL    HW118137   0.073   0.950   6.340 -0.3422  0.2476 -0.0934
 2225SOL    HW218138   0.177   0.871   6.263  0.8638  3.2935 -0.8350
 2226SOL     OW18139   2.641   4.517  15.576  0.1474  0.0004  0.5561
 2226SOL    HW118140   2.714   4.499  15.517  0.5084 -0.5937  1.1864
 2226SOL    HW218141   2.616   4.602  15.541 -1.2806 -0.2192  1.0595
 2227SOL     OW18142   1.871   2.966   7.138 -0.4357  0.2673 -0.2584
 2227SOL    HW118143   1.828   2.993   7.219  3.4571  0.3387  1.8228
 2227SOL    HW218144   1.930   2.896   7.166 -1.9006  0.1987  2.6376
 2228SOL     OW18145   0.981   4.028   5.535 -0.6914 -0.0304  0.1225
 2228SOL    HW118146   1.000   4.077   5.615  1.8243 -0.5098 -0.2063
 2228SOL    HW218147   0.924   3.959   5.570 -0.4874  0.1900  0.9004
 2229SOL     OW18148   0.940   2.768   8.049  1.0877 -0.1452 -0.0808
 2229SOL    HW118149   0.888   2.842   8.017 -1.5192 -1.7604  0.4687
 2229SOL    HW218150   0.967   2.718   7.973  0.6468 -0.8074  0.2031
 2230SOL     OW18151   3.905   1.822  13.371  0.9154 -0.2967 -0.7693
 2230SOL    HW118152   3.816   1.803  13.400  2.0028 -0.6624  2.3637
 2230SOL    HW218153   3.921   1.890  13.437 -0.7884 -1.4974  0.8926
 2231SOL     OW18154   1.314   2.189   1.803  0.2284 -0.2838  0.7247
 2231SOL    HW118155   1.348   2.159   1.888  0.6861 -1.9488 -0.0338
 2231SOL    HW218156   1.331   2.283   1.805 -0.5189 -0.1495  0.6734
 2232SOL     OW18157   4.164   2.708   4.161 -0.0491  0.3945  0.7291
 2232SOL    HW118158   4.132   2.795   4.184  0.6022  0.8835 -0.2482
 2232SOL    HW218159   4.097   2.652   4.200  1.1086 -0.3369  1.6693
 2233SOL     OW18160   3.167   1.897   7.341  0.2952  0.0113 -0.0146
 2233SOL    HW118161   3.198   1.841   7.412  1.3162 -0.5866 -0.9081
 2233SOL    HW218162   3.234   1.964   7.355  0.9842 -0.7360  0.2673
 2234SOL     OW18163   1.889   1.120   2.105 -0.0277  0.3549  0.3578
 2234SOL    HW118164   1.879   1.196   2.161  2.3629  1.5386 -0.8364
 2234SOL    HW218165   1.858   1.153   2.021  0.3878 -0.2876 -0.0530
 2235SOL     OW18166   0.597   1.770   3.017  0.3166 -0.2924  0.1527
 2235SOL    HW118167   0.525   1.708   3.020  0.9039 -0.9814  0.0803
 2235SOL    HW218168   0.559   1.855   2.995 -1.3622 -0.6074  1.8351
 2236SOL     OW18169   1.749   0.074   0.882 -0.6881 -0.6891 -0.2390
 2236SOL    HW118170   1.772   0.093   0.791 -0.7421 -1.2301 -0.3689
 2236SOL    HW218171   1.655   0.059   0.880 -0.6997 -0.9703  2.5142
 2237SOL     OW18172   1.294   0.294   8.341  0.1521 -0.1373  0.4997
 2237SOL    HW118173   1.316   0.375   8.295 -0.7448 -0.8883 -1.2548
 2237SOL    HW218174   1.205   0.310   8.372  0.4537 -0.6906  1.6597
 2238SOL     OW18175   2.420   0.279  13.922  0.0643 -0.1277 -0.3837
 2238SOL    HW118176   2.361   0.215  13.960 -0.9987 -0.4278 -2.5573
 2238SOL    HW218177   2.373   0.362  13.924 -0.0321 -0.1628 -1.1503
 2239SOL     OW18178   3.182   3.430  16.176 -0.1475  0.2948  0.1254
 2239SOL    HW118179   3.187   3.445  16.270  0.7738 -1.8736  0.4164
 2239SOL    HW218180   3.159   3.338  16.159 -0.2520  0.4767 -0.7332
 2240SOL     OW18181   1.829   3.979   8.023 -0.5242  0.0268  0.2818
 2240SOL    HW118182   1.833   4.056   7.965 -0.6056  0.1264  0.4075
 2240SOL    HW218183   1.875   3.914   7.970 -1.0236  0.8376 -1.1356
 2241SOL     OW18184   0.109   2.879  12.971  0.6240  1.0033 -0.0533
 2241SOL    HW118185   0.152   2.887  13.056  1.4494 -0.5384 -0.3276
 2241SOL    HW218186   0.175   2.905  12.906  1.5926 -0.9930  0.1445
 2242SOL     OW18187   4.020   4.485   6.521 -0.1274  0.5385  1.0250
 2242SOL    HW118188   3.985   4.506   6.434  3.9375 -0.8035 -0.9222
 2242SOL    HW218189   3.955   4.414   6.523 -0.6147  0.9262 -1.6730
 2243SOL     OW18190   0.131   3.897  12.732  0.4903  0.3964 -0.7860
 2243SOL    HW118191   0.163   3.952  12.803 -1.6798  3.1410 -1.9108
 2243SOL    HW218192   0.178   3.816  12.747 -2.0880 -0.6338  1.7385
 2244SOL     OW18193   1.615   4.363  17.275 -0.2722  0.2632 -0.3630
 2244SOL    HW118194   1.537   4.347  17.328  1.0730 -1.5538  1.0489
 2244SOL    HW218195   1.584   4.325  17.192  0.3012 -0.6168 -0.1739
 2245SOL     OW18196   0.370   2.398  16.032  0.5509  0.1065  0.1693
 2245SOL    HW118197   0.351   2.307  16.057 -0.4031  0.3827  0.4376
 2245SOL    HW218198   0.281   2.430  16.046  1.0439  1.8911 -0.8125
 2246SOL     OW18199   1.747   2.147  16.459  0.0163 -0.2008 -0.2258
 2246SOL    HW118200   1.790   2.223  16.420  0.8504  1.6334  4.1887
 2246SOL    HW218201   1.655   2.174  16.458  0.1563  0.2672 -0.5144
 2247SOL     OW18202   4.108   2.296  16.565 -0.2658 -0.4439  0.0176
 2247SOL    HW118203   4.153   2.223  16.523 -0.1419 -0.7625  0.7163
 2247SOL    HW218204   4.023   2.259  16.590 -0.7224  1.4927  1.3045
 2248SOL     OW18205   4.610   0.824   7.673 -0.2035 -0.1974  0.1161
 2248SOL    HW118206   4.643   0.880   7.744  1.0927 -0.2491 -0.4449
 2248SOL    HW218207   4.544   0.772   7.719  1.5736 -1.5556  1.1278
 2249SOL     OW18208   1.388   1.627  16.482  0.0349  0.6795  0.7573
 2249SOL    HW118209   1.308   1.656  16.526  0.1601  1.2248  0.6241
 2249SOL    HW218210   1.450   1.678  16.535  0.9863  0.1748  0.1244
 2250SOL     OW18211   3.263   3.862   7.976  0.0722  0.1788 -0.6638
 2250SOL    HW118212   3.216   3.873   8.059  0.3091 -0.7641 -0.4054
 2250SOL    HW218213   3.348   3.825   8.000 -0.0287 -1.1805 -2.4360
 2251SOL     OW18214   1.265   0.312   4.418 -0.4231 -0.0719 -0.8694
 2251SOL    HW118215   1.310   0.230   4.437  0.8546  1.1011  1.1532
 2251SOL    HW218216   1.184   0.300   4.468  1.0666 -0.3177  1.4463
 2252SOL     OW18217   0.269   2.846   4.780 -0.7333  0.1505  0.1048
 2252SOL    HW118218   0.222   2.832   4.862 -3.8669  4.3196 -0.9573
 2252SOL    HW218219   0.237   2.931   4.749  0.0001  0.6638  0.7632
 2253SOL     OW18220   2.626   3.434   7.245 -0.1741  0.1407 -0.1184
 2253SOL    HW118221   2.668   3.514   7.213  0.3345 -0.1842 -0.2624
 2253SOL    HW218222   2.696   3.371   7.226  1.4991  0.7782  3.7862
 2254SOL     OW18223   0.071   2.686  10.738 -0.2869  0.3426  0.1296
 2254SOL    HW118224   0.127   2.609  10.737 -0.1297  0.4544  0.3766
 2254SOL    HW218225   0.035   2.691  10.827 -0.2665 -0.1106  0.1600
 2255SOL     OW18226   3.409   2.094   5.659 -0.0735 -0.1955  0.2246
 2255SOL    HW118227   3.495   2.135   5.650  0.0057 -0.8551 -2.1587
 2255SOL    HW218228   3.350   2.151   5.610 -0.3327 -0.9679 -0.3676
 2256SOL     OW18229   1.661   4.108   2.658  0.1201  0.2943 -0.1574
 2256SOL    HW118230   1.663   4.074   2.748 -0.5327 -1.9552 -1.0081
 2256SOL    HW218231   1.732   4.056   2.620 -0.5037  0.7587 -1.9220
 2257SOL     OW18232   0.962   3.436   4.292 -0.0426  0.5737 -0.1954
 2257SOL    HW118233   0.895   3.411   4.355  2.7507  1.6167  3.1999
 2257SOL    HW218234   1.008   3.503   4.342  0.2755  0.6428 -0.5816
 2258SOL     OW18235   4.720   0.076   3.429  0.1016 -0.4716 -0.5376
 2258SOL    HW118236   4.699   0.011   3.363 -1.3675 -1.0194  0.4512
 2258SOL    HW218237   0.004   0.026   3.511  0.1431 -1.8425 -1.3819
 2259SOL     OW18238   2.140   3.362   4.318  0.1703 -0.1000 -0.1294
 2259SOL    HW118239   2.088   3.366   4.238 -1.5317 -1.2996  0.9310
 2259SOL    HW218240   2.221   3.328   4.280 -0.1770 -1.0011 -0.0472
 2260SOL     OW18241   2.221   2.749   5.972  0.1200 -0.4572  0.2974
 2260SOL    HW118242   2.178   2.833   5.957 -0.5366 -0.4083  2.3815
 2260SOL    HW218243   2.220   2.718   5.882 -0.7977 -2.6081  1.0450
 2261SOL     OW18244   3.884   0.015  13.446  0.2714 -0.5966 -0.1710
 2261SOL    HW118245   3.958   4.698  13.400 -0.1955  0.4159 -1.7397
 2261SOL    HW218246   3.818   0.020  13.377  1.9003  0.9550 -1.5834
 2262SOL     OW18247   1.298   3.304   7.977  0.6923  0.3507  0.1395
 2262SOL    HW118248   1.301   3.242   7.904 -1.2640  1.6994 -1.1043
 2262SOL    HW218249   1.323   3.388   7.939  0.3610  1.1717  1.7641
 2263SOL     OW18250   1.141   0.695   4.738 -0.2385  0.1215  0.5566
 2263SOL    HW118251   1.132   0.606   4.773 -0.3568 -0.1325 -0.1224
 2263SOL    HW218252   1.053   0.724   4.716  0.3034  1.1814 -0.1939
 2264SOL     OW18253   0.355   0.653   2.965  0.3135  0.0028 -0.1740
 2264SOL    HW118254   0.422   0.720   2.950 -1.1061  1.8337  1.6331
 2264SOL    HW218255   0.303   0.671   2.887 -2.7609 -1.1885  1.5845
 2265SOL     OW18256   0.181   0.276   3.313  0.2215 -0.0697 -0.3210
 2265SOL    HW118257   0.246   0.260   3.381  0.0792  1.1450  0.1001
 2265SOL    HW218258   0.116   0.207   3.330  2.1950 -1.2735  2.4397
 2266SOL     OW18259   2.392   2.738   8.123  0.4392 -0.2715  0.1549
 2266SOL    HW118260   2.385   2.654   8.169 -2.7113 -0.6383 -0.9939
 2266SOL    HW218261   2.326   2.788   8.170  3.3150  2.1467  1.6014
 2267SOL     OW18262   4.178   1.019   2.355  0.6446  0.0897  0.3877
 2267SOL    HW118263   4.181   1.006   2.450  0.1443 -0.9185  0.2559
 2267SOL    HW218264   4.144   1.108   2.348  0.0982 -0.0086  1.8264
 2268SOL     OW18265   4.205   3.209  10.237  0.5117  0.3209  0.1644
 2268SOL    HW118266   4.286   3.200  10.186  0.2130 -0.1098 -0.2375
 2268SOL    HW218267   4.145   3.152  10.189 -0.3941  0.3985  1.2235
 2269SOL     OW18268   1.704   1.990   3.904 -0.6280  0.3153 -0.6630
 2269SOL    HW118269   1.792   1.998   3.866  0.8945 -0.4309  2.6684
 2269SOL    HW218270   1.686   2.083   3.912  3.4673  1.1288 -0.4773
 2270SOL     OW18271   2.548   0.856   5.515  0.0162 -0.6422 -0.0594
 2270SOL    HW118272   2.553   0.950   5.500 -0.1871 -0.8524 -1.4787
 2270SOL    HW218273   2.517   0.825   5.430 -2.5476  1.3291  0.1704
 2271SOL     OW18274   1.903   3.524   5.684 -0.1665 -0.2372  0.1658
 2271SOL    HW118275   1.977   3.477   5.721 -0.3334  0.6421  1.6133
 2271SOL    HW218276   1.937   3.529   5.595  2.3752  0.3564  1.1623
 2272SOL     OW18277   0.065   1.005   2.278 -0.4570  0.0748 -0.9349
 2272SOL    HW118278   0.087   1.098   2.271 -0.6884  0.2805  1.0197
 2272SOL    HW218279   0.107   0.978   2.197 -0.6421 -2.9104 -0.0231
 2273SOL     OW18280   1.097   0.435   4.941 -0.2073 -0.3622 -0.2431
 2273SOL    HW118281   1.076   0.422   5.033  0.1624  2.1433  0.1880
 2273SOL    HW218282   1.186   0.468   4.946  0.1644 -1.3828 -0.0110
 2274SOL     OW18283   3.663   3.244   3.523  0.4658  0.3825 -0.0679
 2274SOL    HW118284   3.696   3.164   3.483 -0.3261  1.4528 -2.8768
 2274SOL    HW218285   3.586   3.272   3.474  0.5545 -0.2561 -0.5760
 2275SOL     OW18286   3.168   1.859  11.048 -0.1372 -0.5305 -0.9789
 2275SOL    HW118287   3.104   1.793  11.021 -0.6082 -0.2065 -0.6486
 2275SOL    HW218288   3.247   1.853  10.995 -0.5897 -0.4184 -1.6730
 2276SOL     OW18289   2.925   2.870   4.779  0.1122 -0.2960 -0.2623
 2276SOL    HW118290   2.839   2.909   4.764  0.6699  0.9503 -0.1929
 2276SOL    HW218291   2.925   2.849   4.872  1.3031 -1.8782 -0.6228
 2277SOL     OW18292   2.791   2.023   6.990  0.4388  0.7638 -0.9302
 2277SOL    HW118293   2.856   2.052   7.054  0.7578 -3.6355  0.6998
 2277SOL    HW218294   2.769   1.931   7.003 -1.1070  1.3342  0.4988
 2278SOL     OW18295   3.019   2.154   5.095 -0.4765 -0.3049  0.3012
 2278SOL    HW118296   3.113   2.169   5.108 -0.9700  0.5924  2.7804
 2278SOL    HW218297   3.014   2.159   5.000 -2.6876 -2.7731  0.2798
 2279SOL     OW18298   0.919   4.336   4.980 -0.7593 -0.2949 -0.2570
 2279SOL    HW118299   0.902   4.246   5.005 -3.1358  0.7753  1.9030
 2279SOL    HW218300   0.890   4.332   4.889  1.2017  0.6484 -0.9215
 2280SOL     OW18301   2.528   4.240   1.281  0.5295  0.3555 -0.1150
 2280SOL    HW118302   2.503   4.298   1.353  2.1024  1.8588 -0.7764
 2280SOL    HW218303   2.452   4.243   1.222  0.0703  0.5651  0.4882
 2281SOL     OW18304   1.190   1.757   9.613  0.6275  0.0722 -0.3633
 2281SOL    HW118305   1.127   1.793   9.676 -0.8278 -0.1126 -1.7142
 2281SOL    HW218306   1.272   1.773   9.659 -1.3651  0.3892  3.1145
 2282SOL     OW18307   1.250   2.304   3.300  0.4175  0.2299  0.1817
 2282SOL    HW118308   1.210   2.391   3.308  0.6847  0.3261  0.4427
 2282SOL    HW218309   1.179   2.245   3.273  1.7607 -0.2667 -2.2391
 2283SOL     OW18310   3.644   2.599   7.483  0.5266 -0.1928  0.1794
 2283SOL    HW118311   3.554   2.630   7.497  0.7806  0.0634  1.2873
 2283SOL    HW218312   3.626   2.515   7.440 -2.1087  0.1002  0.6866
 2284SOL     OW18313   1.314   4.680   0.338 -0.3876  0.3269 -0.1217
 2284SOL    HW118314   1.306   0.048   0.305 -2.1317 -0.0120 -0.5990
 2284SOL    HW218315   1.350   4.692   0.426 -0.6908 -1.7438  0.2978
 2285SOL     OW18316   0.543   0.185  15.452  0.5095 -0.7167  0.1568
 2285SOL    HW118317   0.617   0.124  15.460  0.8175 -0.6020 -1.8099
 2285SOL    HW218318   0.600   0.260  15.432 -0.7575  0.0537 -0.5237
 2286SOL     OW18319   2.901   3.362   3.872  0.3754 -0.3170  0.4844
 2286SOL    HW118320   2.817   3.317   3.878  0.0706 -0.1115 -2.3055
 2286SOL    HW218321   2.918   3.389   3.962 -1.8212 -0.8386  1.0618
 2287SOL     OW18322   1.962   2.870   8.907 -0.3441 -0.4821 -0.3813
 2287SOL    HW118323   1.980   2.962   8.889  0.7885 -0.3198  1.5395
 2287SOL    HW218324   1.868   2.872   8.892 -0.3704 -0.6400 -0.2404
 2288SOL     OW18325   1.005   2.581  13.531  0.5738 -0.5040 -0.2028
 2288SOL    HW118326   1.023   2.657  13.586  2.3821  0.7720 -2.5606
 2288SOL    HW218327   1.072   2.566  13.464  0.8408 -0.5200  0.0678
 2289SOL     OW18328   2.527   4.369  10.023  0.3045 -0.5905 -0.3442
 2289SOL    HW118329   2.478   4.289  10.045 -1.9405  0.6917 -0.6926
 2289SOL    HW218330   2.599   4.364  10.086  1.4284  2.0582 -1.4114
 2290SOL     OW18331   2.875   0.930   5.490  0.7133  0.4083  0.0973
 2290SOL    HW118332   2.860   1.010   5.540 -0.4476  0.0804  0.2666
 2290SOL    HW218333   2.825   0.860   5.533  2.5241 -2.1152 -1.8553
 2291SOL     OW18334   1.262   0.677  15.780 -0.3924  0.1710 -0.2945
 2291SOL    HW118335   1.259   0.763  15.738 -1.2062  0.3017  0.0256
 2291SOL    HW218336   1.356   0.672  15.797 -0.4929  4.9809  1.4901
 2292SOL     OW18337   4.196   3.778   3.116 -0.1911  0.4547  0.1374
 2292SOL    HW118338   4.207   3.683   3.122 -1.2456  0.2725 -0.8096
 2292SOL    HW218339   4.115   3.787   3.065 -0.3851 -2.8924 -0.2008
 2293SOL     OW18340   1.650   4.039   5.998 -0.1602  0.3128 -0.1093
 2293SOL    HW118341   1.716   4.010   5.936  0.5816  3.1991 -0.6465
 2293SOL    HW218342   1.576   3.984   5.973  0.3004 -1.0889  1.6002
 2294SOL     OW18343   3.821   1.380   2.837  0.1689  0.0169 -0.6869
 2294SOL    HW118344   3.841   1.302   2.889  1.4590  1.3931  0.8961
 2294SOL    HW218345   3.773   1.342   2.763 -0.0546 -1.1377  0.0517
 2295SOL     OW18346   4.614   0.189   4.938 -0.0017  0.4840  0.4906
 2295SOL    HW118347   4.687   0.242   4.969  0.0105  0.8516 -0.1700
 2295SOL    HW218348   4.584   0.237   4.861 -1.6448 -2.0376 -0.4465
 2296SOL     OW18349   3.344   2.368   7.221 -0.2597  0.0690 -0.5696
 2296SOL    HW118350   3.283   2.404   7.286  2.5149  0.0941  2.0369
 2296SOL    HW218351   3.324   2.424   7.146  2.3578  2.1271  0.2618
 2297SOL     OW18352   1.147   3.200   2.250  0.0092 -0.4588 -0.0205
 2297SOL    HW118353   1.147   3.228   2.159  0.9371 -1.7910 -0.4188
 2297SOL    HW218354   1.231   3.156   2.239  0.5076 -0.0392  2.0764
 2298SOL     OW18355   1.611   3.034  12.362 -0.3783 -0.6046 -0.3272
 2298SOL    HW118356   1.611   3.007  12.454 -1.8155  0.1740 -0.1065
 2298SOL    HW218357   1.680   3.100  12.373 -0.3635 -1.0412  2.3408
 2299SOL     OW18358   0.550   0.907   6.011  0.5329  0.0916  0.0191
 2299SOL    HW118359   0.503   0.876   5.933  1.7233 -1.8631  0.0713
 2299SOL    HW218360   0.598   0.979   5.970 -0.2829  0.1934 -0.7672
 2300SOL     OW18361   3.417   1.306   2.453  0.1714 -0.3830  0.3406
 2300SOL    HW118362   3.397   1.393   2.487  1.7623 -0.6208  1.9238
 2300SOL    HW218363   3.441   1.261   2.535 -0.6330 -2.0420 -0.3370
 2301SOL     OW18364   0.766   3.121  16.665 -0.5287  0.1919  0.2156
 2301SOL    HW118365   0.858   3.100  16.681 -1.4644 -3.0831  1.1933
 2301SOL    HW218366   0.724   3.076  16.738  1.1986  2.6860  2.7869
 2302SOL     OW18367   2.474   0.203   4.276  0.3516  0.3168  0.3959
 2302SOL    HW118368   2.448   0.143   4.206 -0.2625  1.9055 -0.7296
 2302SOL    HW218369   2.417   0.279   4.267  0.4202  0.1823 -1.0559
 2303SOL     OW18370   3.788   4.299   1.988  0.7094 -0.7430  0.1235
 2303SOL    HW118371   3.770   4.366   2.054  1.0735 -0.3745 -0.1528
 2303SOL    HW218372   3.871   4.325   1.949  0.4366 -1.7211 -1.0864
 2304SOL     OW18373   2.705   0.010   1.128 -0.4150 -0.1057 -0.4519
 2304SOL    HW118374   2.713   4.640   1.099 -0.8600  0.5117 -2.5401
 2304SOL    HW218375   2.709   0.002   1.223  2.5240  0.5168 -0.5397
 2305SOL     OW18376   0.143   4.272   9.539  0.6394 -0.0899  0.7135
 2305SOL    HW118377   0.165   4.306   9.625 -1.6364 -0.1268  1.3009
 2305SOL    HW218378   0.230   4.272   9.499  0.2063 -1.3896 -0.2293
 2306SOL     OW18379   3.073   0.889  11.372  0.3139 -0.2700  0.1375
 2306SOL    HW118380   3.091   0.908  11.464 -0.3986 -1.7988  0.5944
 2306SOL    HW218381   3.013   0.962  11.358 -0.9299 -1.2115  0.6079
 2307SOL     OW18382   4.320   2.669  10.514  0.0111  0.3333 -0.2838
 2307SOL    HW118383   4.281   2.709  10.437  0.8935  1.5022 -0.1087
 2307SOL    HW218384   4.390   2.729  10.540  2.7246 -1.8521 -2.5424
 2308SOL     OW18385   3.480   0.430   1.855 -0.1042 -0.3913 -0.2154
 2308SOL    HW118386   3.422   0.363   1.820  0.3198 -1.1260  0.4812
 2308SOL    HW218387   3.488   0.489   1.780  0.5926 -1.7408 -1.2055
 2309SOL     OW18388   2.583   4.280   3.888 -0.1229 -0.2038  0.7385
 2309SOL    HW118389   2.664   4.290   3.838  0.7170 -3.0552  1.4911
 2309SOL    HW218390   2.514   4.332   3.847 -0.6012 -1.2074  0.2830
 2310SOL     OW18391   0.074   3.041   3.336 -0.2564  0.2910 -0.0142
 2310SOL    HW118392   4.710   3.017   3.300  0.0104 -0.0143 -0.4412
 2310SOL    HW218393   0.131   3.046   3.259 -0.1799  3.2370  0.2377
 2311SOL     OW18394   0.207   2.615  16.491  0.2095 -0.1610 -0.2165
 2311SOL    HW118395   0.255   2.536  16.464 -1.3159 -1.0684 -0.2937
 2311SOL    HW218396   0.128   2.572  16.525 -1.0564  1.8035 -0.7349
 2312SOL     OW18397   1.907   2.486  12.575 -0.8645 -0.1609 -0.3229
 2312SOL    HW118398   1.854   2.561  12.550 -0.3390  0.6481  1.0169
 2312SOL    HW218399   1.988   2.504  12.528 -1.2808  1.9825 -0.2037
 2313SOL     OW18400   0.795   1.091   5.036  0.1735  0.2127 -0.2016
 2313SOL    HW118401   0.880   1.112   4.997 -0.2438  1.3611 -0.5036
 2313SOL    HW218402   0.754   1.177   5.032 -0.4932 -0.1146 -0.3303
 2314SOL     OW18403   0.902   1.098   2.155 -0.0153 -0.4276  0.6885
 2314SOL    HW118404   0.970   1.164   2.144  0.6059 -1.0832  0.6212
 2314SOL    HW218405   0.950   1.024   2.118 -1.0618  0.0914 -1.7521
 2315SOL     OW18406   0.056   2.930  11.676 -0.0767 -0.0759  0.2587
 2315SOL    HW118407   0.144   2.893  11.661  0.0425  1.3385 -2.6583
 2315SOL    HW218408   0.031   2.956  11.587 -0.7534 -0.8857  0.2121
 2316SOL     OW18409   0.320   0.620   6.874 -0.1704  0.1615  0.2444
 2316SOL    HW118410   0.352   0.706   6.845 -1.8979  0.6575 -0.2065
 2316SOL    HW218411   0.281   0.635   6.960  1.9236  0.6753  1.0863
 2317SOL     OW18412   3.249   4.717  12.180  0.4800  0.2654 -0.0170
 2317SOL    HW118413   3.216   4.676  12.100  0.8710  0.8219 -0.4657
 2317SOL    HW218414   3.204   4.662  12.244  1.6391  1.2098  1.5853
 2318SOL     OW18415   0.757   0.087  10.741 -0.3493  0.3436  0.1174
 2318SOL    HW118416   0.697   0.012  10.736 -0.1053  0.2380 -1.3845
 2318SOL    HW218417   0.837   0.037  10.752 -1.0389 -0.4196  1.6225
 2319SOL     OW18418   4.604   1.757  13.916 -0.3361  0.1920 -0.2226
 2319SOL    HW118419   4.621   1.718  14.002  1.2691 -2.1599 -1.5879
 2319SOL    HW218420   4.614   1.680  13.859 -0.6690  0.7036 -0.9662
 2320SOL     OW18421   2.996   0.288  13.495 -0.0134 -0.3362 -0.0391
 2320SOL    HW118422   2.940   0.233  13.550  1.0091 -2.1517 -0.7749
 2320SOL    HW218423   3.071   0.301  13.554 -0.7594 -0.0552  0.8311
 2321SOL     OW18424   1.238   2.518   6.752  0.2685 -0.4975 -0.5819
 2321SOL    HW118425   1.142   2.520   6.761  0.5918 -0.6591  2.9230
 2321SOL    HW218426   1.270   2.565   6.829  0.2393 -0.7004 -0.4474
 2322SOL     OW18427   3.818   4.205  17.181  0.4305  0.2227  0.1957
 2322SOL    HW118428   3.899   4.250  17.158 -0.7759  2.6831  0.7455
 2322SOL    HW218429   3.852   4.179  17.266 -0.1142  0.1864  0.4003
 2323SOL     OW18430   3.716   4.409  10.674  0.1641 -0.0618 -0.8369
 2323SOL    HW118431   3.641   4.451  10.632 -0.0755  1.0206  0.6777
 2323SOL    HW218432   3.742   4.479  10.733 -0.2267 -1.3724  0.8896
 2324SOL     OW18433   2.024   0.645   4.762 -0.1035  0.2784 -0.4071
 2324SOL    HW118434   2.097   0.707   4.759 -0.9386  1.2364 -0.5615
 2324SOL    HW218435   1.945   0.690   4.735  0.2269  0.7405 -0.6079
 2325SOL     OW18436   2.895   2.930  11.627  0.4888  0.4976  0.1905
 2325SOL    HW118437   2.815   2.952  11.580 -0.4362 -0.7847  1.1629
 2325SOL    HW218438   2.928   2.850  11.586  0.6393  1.0251 -0.7103
 2326SOL     OW18439   2.275   1.913  10.989  0.0755 -0.2070  0.0745
 2326SOL    HW118440   2.200   1.944  10.939 -0.9406  1.4842  2.6254
 2326SOL    HW218441   2.309   1.995  11.026 -2.7177  0.7577  0.5317
 2327SOL     OW18442   3.039   0.488   7.025 -0.8748  0.5786  0.3431
 2327SOL    HW118443   2.956   0.472   6.981  1.4290 -3.1495 -2.6677
 2327SOL    HW218444   3.042   0.401   7.064 -1.1637 -0.0615 -1.0552
 2328SOL     OW18445   1.531   4.485  16.200 -0.2519  0.3665  0.3830
 2328SOL    HW118446   1.610   4.464  16.251  0.7163  0.2810 -1.1594
 2328SOL    HW218447   1.572   4.516  16.119  0.7236 -1.1045  0.3175
 2329SOL     OW18448   4.378   0.916   0.171 -0.6017  0.0989  0.4371
 2329SOL    HW118449   4.451   0.915   0.232 -0.0559  1.1011 -0.2157
 2329SOL    HW218450   4.427   0.897   0.091  2.5112 -0.4909  2.4904
 2330SOL     OW18451   1.889   3.973   5.858  0.0019 -0.2794  0.5491
 2330SOL    HW118452   1.983   3.955   5.857 -0.1414 -1.0096  0.3732
 2330SOL    HW218453   1.848   3.897   5.818  1.6545 -0.6406 -0.4345
 2331SOL     OW18454   4.057   0.750   8.037  0.0977  0.1441 -0.4623
 2331SOL    HW118455   4.116   0.687   7.997  0.2263  0.2864 -0.4971
 2331SOL    HW218456   4.030   0.709   8.119  0.6861 -0.6971 -0.6947
 2332SOL     OW18457   0.944   3.928   7.726 -0.4820  0.0725  0.2706
 2332SOL    HW118458   1.020   3.897   7.677  0.5673  1.3151  1.1226
 2332SOL    HW218459   0.993   3.975   7.794 -2.5418  0.5590  1.4230
 2333SOL     OW18460   1.789   2.720  15.101  0.2554 -0.0650 -0.1138
 2333SOL    HW118461   1.797   2.720  15.006  1.9249  0.3640  0.0261
 2333SOL    HW218462   1.810   2.811  15.120 -0.0094  0.2893 -1.4973
 2334SOL     OW18463   1.055   1.149   1.806 -0.0642 -0.4170  0.4312
 2334SOL    HW118464   1.135   1.150   1.753 -1.7599  0.1680 -2.1102
 2334SOL    HW218465   1.055   1.057   1.834 -0.4077  0.0368  1.9292
 2335SOL     OW18466   3.823   2.814  14.412 -0.6656  0.2633  0.2547
 2335SOL    HW118467   3.911   2.837  14.441  0.2953 -1.2790 -1.4752
 2335SOL    HW218468   3.851   2.753  14.344  1.8194 -0.7799  2.2075
 2336SOL     OW18469   3.237   1.032   3.103  0.8643  0.1973  0.4875
 2336SOL    HW118470   3.165   1.038   3.165 -0.7850  2.8385 -1.6744
 2336SOL    HW218471   3.313   1.047   3.158  2.1497 -0.6827 -1.0297
 2337SOL     OW18472   4.042   1.279   2.353 -0.0963  0.0757  0.2918
 2337SOL    HW118473   3.979   1.273   2.425 -0.1593 -0.2542  0.2098
 2337SOL    HW218474   3.983   1.269   2.278 -2.1065  0.4173  1.8148
 2338SOL     OW18475   1.341   1.190   3.619  0.3149  0.0975 -0.1123
 2338SOL    HW118476   1.394   1.201   3.698  0.7099 -1.0262 -0.2191
 2338SOL    HW218477   1.271   1.135   3.654 -0.3435  0.5885 -0.6497
 2339SOL     OW18478   2.937   1.657   4.025  0.2159 -0.0173 -0.1169
 2339SOL    HW118479   2.960   1.605   3.948  2.7719 -0.4171  0.9242
 2339SOL    HW218480   2.879   1.726   3.993 -1.2008 -1.0515  0.2103
 2340SOL     OW18481   1.992   1.539   1.406 -0.4584  0.2553  0.7868
 2340SOL    HW118482   2.058   1.568   1.343 -0.0555  0.0841  1.1376
 2340SOL    HW218483   1.993   1.446   1.385  1.7364  0.0996  1.6062
 2341SOL     OW18484   2.530   0.930  12.969 -0.3720 -0.0470 -0.0389
 2341SOL    HW118485   2.510   0.847  13.013 -2.4055  0.5821  0.2403
 2341SOL    HW218486   2.614   0.941  13.013  0.0300 -0.7556 -0.6346
 2342SOL     OW18487   3.695   4.546  12.481 -0.5561 -0.0148  0.7712
 2342SOL    HW118488   3.704   4.450  12.476  2.1210  0.3680 -1.7467
 2342SOL    HW218489   3.634   4.552  12.555 -0.8201 -2.5961  0.7830
 2343SOL     OW18490   2.084   3.076   6.870 -0.3641 -0.4451 -0.5667
 2343SOL    HW118491   2.005   3.071   6.814  0.1320  0.0905 -1.3126
 2343SOL    HW218492   2.120   2.987   6.874 -0.4897 -0.5527 -1.8054
 2344SOL     OW18493   3.902   4.151   6.290  0.0978  0.0650 -0.3418
 2344SOL    HW118494   3.848   4.212   6.240  0.7697  1.8192  1.0814
 2344SOL    HW218495   3.875   4.174   6.379 -0.4735 -2.7670  0.2209
 2345SOL     OW18496   1.935   4.114   3.019  0.0099 -0.2252  0.3153
 2345SOL    HW118497   1.980   4.030   3.026 -0.1224 -0.3045  0.2190
 2345SOL    HW218498   2.010   4.170   2.997 -0.2428 -0.5719 -1.4409
 2346SOL     OW18499   0.433   1.154   1.760 -0.2808  0.4744 -0.5217
 2346SOL    HW118500   0.395   1.184   1.842 -2.0244 -0.9711 -0.8039
 2346SOL    HW218501   0.525   1.154   1.786 -0.3501  0.6887 -0.2823
 2347SOL     OW18502   1.624   4.612   3.861 -0.2107 -0.6216 -0.3070
 2347SOL    HW118503   1.705   4.662   3.855  0.4371 -1.5112  0.8584
 2347SOL    HW218504   1.554   4.677   3.852  1.8747  1.5564 -0.9170
 2348SOL     OW18505   4.258   0.613  11.497  0.1530  0.3965 -0.4134
 2348SOL    HW118506   4.266   0.708  11.490  0.1114  0.4357  0.0315
 2348SOL    HW218507   4.272   0.591  11.405 -0.7352 -0.1266 -0.4265
 2349SOL     OW18508   1.932   1.170   6.236  0.2534  0.6677  0.2423
 2349SOL    HW118509   1.904   1.081   6.212 -0.4437 -0.1486  3.9873
 2349SOL    HW218510   1.915   1.173   6.330  1.4555  1.7087  0.4232
 2350SOL     OW18511   1.263   2.892   6.803  0.2113 -0.1883 -0.8130
 2350SOL    HW118512   1.266   2.982   6.834 -3.2983 -0.1561 -0.5851
 2350SOL    HW218513   1.167   2.887   6.796  0.0786  0.3653  0.8105
 2351SOL     OW18514   1.910   0.745   2.870  0.0477 -0.3980 -0.0235
 2351SOL    HW118515   1.866   0.721   2.788 -2.2915  0.0514  1.0928
 2351SOL    HW218516   1.856   0.696   2.933  0.3779 -0.0785  0.5056
 2352SOL     OW18517   2.743   2.608  11.687 -0.3090 -0.3770  0.3139
 2352SOL    HW118518   2.828   2.633  11.723 -0.0613 -2.2721  1.0466
 2352SOL    HW218519   2.756   2.606  11.592  0.7235  0.3842  0.4493
 2353SOL     OW18520   2.620   3.788  12.106  0.0435  0.0187  0.7066
 2353SOL    HW118521   2.674   3.754  12.177  0.2896  1.2274  1.1094
 2353SOL    HW218522   2.622   3.882  12.123  0.6824 -0.0426  0.9415
 2354SOL     OW18523   4.335   0.835   2.133 -0.0695 -0.4854 -0.0195
 2354SOL    HW118524   4.250   0.828   2.091 -0.6744 -0.0687  1.1522
 2354SOL    HW218525   4.350   0.928   2.115  1.9494 -0.5044  1.6008
 2355SOL     OW18526   0.596   3.362   7.479 -0.1487 -0.0740 -0.2044
 2355SOL    HW118527   0.668   3.361   7.417  0.2726  3.8279  0.2197
 2355SOL    HW218528   0.630   3.301   7.544  1.5040  2.2366  1.0757
 2356SOL     OW18529   3.809   3.177   7.092 -0.5388  0.0872  0.2425
 2356SOL    HW118530   3.892   3.182   7.139  0.7038 -0.8944 -1.8386
 2356SOL    HW218531   3.806   3.088   7.056 -0.5504 -1.6025  4.3811
 2357SOL     OW18532   0.245   0.637   6.159  0.1790  0.0634 -0.4431
 2357SOL    HW118533   0.260   0.546   6.136  2.2418  0.3798 -0.3682
 2357SOL    HW218534   0.156   0.645   6.123  0.0403  0.8935  0.0852
 2358SOL     OW18535   1.303   3.980  12.363 -0.0303  0.1924 -0.0641
 2358SOL    HW118536   1.225   4.027  12.333 -0.9108 -1.3109 -0.1557
 2358SOL    HW218537   1.362   4.027  12.305 -0.7421  1.3028  0.0974
 2359SOL     OW18538   2.202   4.030   3.737  0.1715  0.0044 -0.1564
 2359SOL    HW118539   2.131   3.970   3.756  1.0259 -1.3630 -1.3250
 2359SOL    HW218540   2.256   4.004   3.812 -0.4703  1.6103  0.8527
 2360SOL     OW18541   2.037   3.934  14.494  0.1727 -0.5195 -0.6172
 2360SOL    HW118542   2.012   3.901  14.580 -0.0106 -0.2768 -0.5779
 2360SOL    HW218543   2.100   4.001  14.519 -2.9416  1.5229  1.6523
 2361SOL     OW18544   4.599   1.300   2.812  0.1091 -0.3095 -0.1910
 2361SOL    HW118545   4.525   1.255   2.772  0.9249 -1.0994 -0.8281
 2361SOL    HW218546   4.642   1.318   2.728  0.4361  2.2236  0.5182
 2362SOL     OW18547   1.673   1.111   3.980 -0.5297  0.1873 -0.0433
 2362SOL    HW118548   1.695   1.074   3.894 -0.6113  0.1678 -0.0556
 2362SOL    HW218549   1.733   1.181   4.006  0.3228  0.0331 -1.5658
 2363SOL     OW18550   0.332   2.619   5.987 -0.0567  0.6596  0.5805
 2363SOL    HW118551   0.337   2.582   5.899  1.9163  3.4066 -0.4473
 2363SOL    HW218552   0.300   2.540   6.029  1.3626 -0.6977 -0.9045
 2364SOL     OW18553   0.629   1.151   2.206 -0.4034  0.0833  0.3035
 2364SOL    HW118554   0.723   1.144   2.187  0.0452  3.3773  1.1709
 2364SOL    HW218555   0.603   1.233   2.164 -0.8432 -0.8167 -1.1741
 2365SOL     OW18556   1.150   4.054   8.356  0.1111 -0.2764  0.1310
 2365SOL    HW118557   1.243   4.076   8.368  0.0914  0.2531 -0.6452
 2365SOL    HW218558   1.110   4.140   8.366 -1.2829 -1.0040  0.7994
 2366SOL     OW18559   4.188   4.646   4.318 -0.3253  0.4293  0.0775
 2366SOL    HW118560   4.116   4.700   4.285 -0.2716  0.9719  0.8435
 2366SOL    HW218561   4.219   4.716   4.376 -0.9049  0.3159  0.5262
 2367SOL     OW18562   0.317   1.731   1.447  0.1218  0.3115 -0.0008
 2367SOL    HW118563   0.332   1.681   1.526 -0.2339 -1.3160 -0.9583
 2367SOL    HW218564   0.381   1.685   1.392  1.3001 -0.3404  1.9130
 2368SOL     OW18565   3.816   1.694  10.221  0.3180  0.2296 -0.0434
 2368SOL    HW118566   3.768   1.623  10.262 -0.4277  0.9594  0.3651
 2368SOL    HW218567   3.816   1.665  10.129 -0.6375  1.3430 -0.4065
 2369SOL     OW18568   1.411   1.073   3.255 -0.3577  0.5840 -0.0432
 2369SOL    HW118569   1.316   1.081   3.254 -0.3324  0.8885 -0.0007
 2369SOL    HW218570   1.442   1.164   3.247  1.0642  0.1503  0.5581
 2370SOL     OW18571   1.644   2.524  14.532  0.6690 -0.1391 -0.3339
 2370SOL    HW118572   1.591   2.554  14.606 -2.1826 -1.9200 -1.6322
 2370SOL    HW218573   1.603   2.439  14.516  1.6060 -0.5998 -0.2202
 2371SOL     OW18574   2.044   3.499   9.869 -0.4437 -0.9227 -0.4932
 2371SOL    HW118575   2.108   3.432   9.895  1.1266 -0.1394 -2.3729
 2371SOL    HW218576   2.098   3.578   9.861 -0.2675 -0.8560  1.3773
 2372SOL     OW18577   0.756   0.003  13.663  0.1174  0.2782  0.0293
 2372SOL    HW118578   0.724   0.078  13.712  1.4595  0.2254  0.9775
 2372SOL    HW218579   0.689   0.008  13.594 -0.5256  1.3890  0.7435
 2373SOL     OW18580   1.227   0.510   6.095  0.4155 -0.6413 -0.1601
 2373SOL    HW118581   1.219   0.443   6.163 -0.4750 -1.3394 -0.9603
 2373SOL    HW218582   1.304   0.564   6.115  0.1315  0.1708 -1.2643
 2374SOL     OW18583   0.757   4.089  17.474  0.2602 -0.0590  0.2524
 2374SOL    HW118584   0.703   4.020  17.434 -0.7314  0.7548  0.1862
 2374SOL    HW218585   0.740   4.083  17.568 -0.8153  0.9810  0.1292
 2375SOL     OW18586   3.563   1.670   8.709 -0.5223  0.1532  0.2064
 2375SOL    HW118587   3.468   1.672   8.702 -0.6527  0.9507  2.0786
 2375SOL    HW218588   3.594   1.758   8.688 -0.8903  0.0547 -0.7193
 2376SOL     OW18589   1.472   3.326   6.195  0.0106  0.1386  0.0225
 2376SOL    HW118590   1.453   3.379   6.118  1.5710  1.7971  0.7809
 2376SOL    HW218591   1.566   3.340   6.210 -0.0865 -0.9603  1.7088
 2377SOL     OW18592   1.561   1.605   3.023  0.2065 -0.3810  0.2070
 2377SOL    HW118593   1.466   1.597   3.035  0.2951 -0.5682  0.7701
 2377SOL    HW218594   1.564   1.682   2.967 -0.5931  1.0655  2.1673
 2378SOL     OW18595   3.273   3.706  12.648 -0.0678 -0.8271  0.3529
 2378SOL    HW118596   3.304   3.784  12.694 -3.1319 -0.3877  1.6995
 2378SOL    HW218597   3.179   3.709  12.666 -0.2255  2.6071 -1.0652
 2379SOL     OW18598   1.700   4.545   8.492  0.1387  0.0828  0.2093
 2379SOL    HW118599   1.672   4.632   8.522 -0.2391  0.1963 -0.4616
 2379SOL    HW218600   1.682   4.561   8.399 -0.9877 -2.5747 -0.0006
 2380SOL     OW18601   1.982   1.689   2.281 -0.0466 -0.3450 -0.0672
 2380SOL    HW118602   2.055   1.628   2.291  1.5572  1.4403 -0.6990
 2380SOL    HW218603   1.951   1.681   2.371  1.7078 -1.6996  0.4236
 2381SOL     OW18604   0.104   0.122  13.894 -0.0894 -0.0704 -0.9547
 2381SOL    HW118605   0.164   0.053  13.866 -2.2516 -1.0007 -3.3219
 2381SOL    HW218606   0.023   0.071  13.895  0.7545 -1.3402  2.3377
 2382SOL     OW18607   1.086   3.145  15.637 -0.2839  0.0370 -0.2692
 2382SOL    HW118608   1.048   3.057  15.644  0.3213 -0.3559 -2.0734
 2382SOL    HW218609   1.138   3.136  15.557  1.1478 -2.1184  0.8922
 2383SOL     OW18610   1.937   3.525   3.070  0.6557 -0.0375  0.0518
 2383SOL    HW118611   1.881   3.479   3.132 -0.4699  0.5390 -0.5212
 2383SOL    HW218612   1.874   3.574   3.016 -1.5833 -2.4206  0.5092
 2384SOL     OW18613   4.043   3.005   8.491  0.3904  0.7448  0.3094
 2384SOL    HW118614   4.063   3.089   8.532  1.7797  0.5744 -0.0110
 2384SOL    HW218615   4.078   3.011   8.402  1.0346 -0.1976  0.5001
 2385SOL     OW18616   2.813   2.491  14.987  0.0941  0.3044 -0.3935
 2385SOL    HW118617   2.857   2.561  14.939  0.0866  0.6843  0.1587
 2385SOL    HW218618   2.727   2.507  14.947  0.8116  1.5879 -1.4112
 2386SOL     OW18619   1.055   3.427   3.171 -0.1829  0.1024 -0.3836
 2386SOL    HW118620   1.059   3.431   3.075  0.6961  2.0770 -0.2595
 2386SOL    HW218621   1.026   3.515   3.193 -0.5221 -0.4981  1.5581
 2387SOL     OW18622   0.221   0.843   7.334 -0.2378  0.6973  0.0203
 2387SOL    HW118623   0.128   0.826   7.350  0.0057  0.3861  1.1168
 2387SOL    HW218624   0.243   0.909   7.400 -1.2564 -0.3545  1.4008
 2388SOL     OW18625   3.764   0.506   8.777  0.5111 -0.0203 -0.1623
 2388SOL    HW118626   3.728   0.422   8.748 -1.1025  0.2814  0.9554
 2388SOL    HW218627   3.794   0.483   8.865 -1.1677  0.5440  0.5460
 2389SOL     OW18628   3.805   2.785   8.087 -0.5969 -0.3178 -0.3582
 2389SOL    HW118629   3.817   2.816   8.177 -0.0989  0.0685 -0.5554
 2389SOL    HW218630   3.868   2.712   8.089  1.7497  1.7139 -0.0802
 2390SOL     OW18631   1.468   1.078   8.131  0.1662 -0.0667  0.4634
 2390SOL    HW118632   1.434   1.109   8.046  0.0321  1.2339  0.9979
 2390SOL    HW218633   1.435   1.149   8.186 -1.4677  1.2257 -2.1141
 2391SOL     OW18634   0.920   1.652  17.175 -0.4300  0.2172 -0.1164
 2391SOL    HW118635   0.918   1.557  17.164  4.3522 -0.0800  1.6527
 2391SOL    HW218636   0.831   1.670  17.144  0.7186  1.1863 -2.8355
 2392SOL     OW18637   4.455   2.476   3.584 -0.3187  0.3606  0.4283
 2392SOL    HW118638   4.538   2.467   3.536 -0.3608 -0.0682  0.4340
 2392SOL    HW218639   4.430   2.567   3.569 -1.8684  0.0150  0.9716
 2393SOL     OW18640   3.582   2.830   0.505  0.5679  0.5061  0.4711
 2393SOL    HW118641   3.490   2.854   0.504  0.9312  1.9610  1.7940
 2393SOL    HW218642   3.600   2.800   0.416  1.4056 -3.2853  1.8975
 2394SOL     OW18643   1.930   0.657  13.183 -0.4954 -0.1046 -0.3657
 2394SOL    HW118644   1.949   0.665  13.089 -2.9188 -0.0274 -0.8640
 2394SOL    HW218645   1.836   0.665  13.201 -0.2364  0.0204  0.9131
 2395SOL     OW18646   1.670   4.014  11.144  0.5222 -0.1212  0.6158
 2395SOL    HW118647   1.672   4.046  11.234  0.1758  1.4267  0.0588
 2395SOL    HW218648   1.653   3.920  11.156  1.7373 -0.2529  1.3311
 2396SOL     OW18649   3.516   0.926   1.790  0.3642  0.7430 -0.4805
 2396SOL    HW118650   3.440   0.900   1.738 -0.5092  2.6239 -0.1424
 2396SOL    HW218651   3.567   0.967   1.720 -0.4313  0.1042 -1.4345
 2397SOL     OW18652   3.310   0.838   2.871  0.8036  0.2627  0.2072
 2397SOL    HW118653   3.329   0.762   2.926  1.6829  0.4942  0.2300
 2397SOL    HW218654   3.287   0.900   2.940  1.1551 -0.8850  1.3525
 2398SOL     OW18655   1.941   3.879  10.555 -0.3707  0.0350 -0.5324
 2398SOL    HW118656   2.009   3.929  10.600  0.5154 -0.0515 -1.7665
 2398SOL    HW218657   1.969   3.876  10.463  0.6382 -2.4364 -0.1247
 2399SOL     OW18658   0.593   2.605   6.085  0.3287  0.0992 -0.2996
 2399SOL    HW118659   0.663   2.578   6.026 -0.5841  0.1317 -1.3965
 2399SOL    HW218660   0.520   2.602   6.024  0.0195 -2.4222  0.2043
 2400SOL     OW18661   3.936   2.405   3.436  0.0908  0.6507  0.1047
 2400SOL    HW118662   4.006   2.348   3.466  0.2162  0.4262 -0.6079
 2400SOL    HW218663   3.860   2.346   3.436 -0.4801  1.3812  0.9718
 2401SOL     OW18664   1.235   2.446   7.062  0.2041 -0.0879 -0.3119
 2401SOL    HW118665   1.285   2.443   7.143  0.6765  0.4756 -0.5804
 2401SOL    HW218666   1.243   2.538   7.039 -2.5098 -0.3963 -2.5469
 2402SOL     OW18667   4.487   1.426   5.230 -0.0030  0.4085  0.3018
 2402SOL    HW118668   4.427   1.434   5.155 -0.5800 -1.6391  0.5339
 2402SOL    HW218669   4.564   1.479   5.210 -0.0158  0.3370  0.0613
 2403SOL     OW18670   4.461   2.028   4.113  0.4250 -0.1085 -0.6313
 2403SOL    HW118671   4.452   2.085   4.189  1.3983 -1.4751  0.4965
 2403SOL    HW218672   4.393   1.962   4.124  0.9133 -0.5921 -0.5501
 2404SOL     OW18673   2.164   3.594   3.937  0.1178  0.3318 -0.0187
 2404SOL    HW118674   2.135   3.616   4.026  0.7786  1.1463 -0.0017
 2404SOL    HW218675   2.250   3.633   3.950 -1.3271  2.3628  3.6060
 2405SOL     OW18676   4.448   0.972   3.079 -0.2740 -0.5839  0.8379
 2405SOL    HW118677   4.523   0.945   3.131  0.6416 -0.0937 -0.2164
 2405SOL    HW218678   4.489   0.975   2.992  1.9741  0.1677  1.9178
 2406SOL     OW18679   0.715   2.106  14.249  0.1612 -0.8695 -0.7044
 2406SOL    HW118680   0.684   2.077  14.163  2.3754  0.7121 -2.0627
 2406SOL    HW218681   0.785   2.044  14.265 -0.2054 -0.9637  0.5123
 2407SOL     OW18682   3.102   0.561  14.671  0.0239 -0.4444  0.0783
 2407SOL    HW118683   3.156   0.490  14.704 -0.5088  0.3497  2.6348
 2407SOL    HW218684   3.013   0.527  14.672  0.3430 -1.1496  2.8542
 2408SOL     OW18685   0.275   1.544  16.703 -0.7474 -0.2100  0.1453
 2408SOL    HW118686   0.189   1.540  16.744 -0.2143 -0.0146  1.2845
 2408SOL    HW218687   0.331   1.559  16.780  0.8166  0.8838 -1.2001
 2409SOL     OW18688   1.837   4.682   5.992 -0.0561 -0.0773  0.4015
 2409SOL    HW118689   1.896   0.017   5.940  2.6202 -0.6644  2.7956
 2409SOL    HW218690   1.871   4.708   6.078 -2.1707 -0.9928  1.5136
 2410SOL     OW18691   0.898   1.043   5.286  0.0527  0.6938 -0.5582
 2410SOL    HW118692   0.866   1.040   5.196 -1.9882  0.2161  0.1838
 2410SOL    HW218693   0.834   1.093   5.336  0.1232 -1.4953  1.7078
 2411SOL     OW18694   3.993   1.053   0.755  0.1736  0.3352  0.7112
 2411SOL    HW118695   4.023   1.131   0.802 -1.0654  0.6384  0.9998
 2411SOL    HW218696   4.035   1.070   0.671 -0.4098 -3.1244 -0.2682
 2412SOL     OW18697   4.408   2.051  16.691 -0.4566 -0.1208 -0.1280
 2412SOL    HW118698   4.500   2.029  16.702 -0.1166  1.2954 -0.1933
 2412SOL    HW218699   4.365   1.966  16.700  3.2128 -2.0488 -0.8824
 2413SOL     OW18700   2.240   1.135  12.891 -0.1028 -0.2956 -0.1477
 2413SOL    HW118701   2.167   1.195  12.908  1.3435  1.2274  0.6344
 2413SOL    HW218702   2.216   1.089  12.810  0.2039  1.3739 -1.1969
 2414SOL     OW18703   1.941   2.236  17.576  0.2466 -0.1038  0.4589
 2414SOL    HW118704   1.960   2.146  17.604  1.0217 -0.4262 -1.1434
 2414SOL    HW218705   1.873   2.211  17.514  0.0211 -0.4962  0.8653
 2415SOL     OW18706   4.246   0.725   6.411  0.4771 -0.7131 -0.5774
 2415SOL    HW118707   4.170   0.781   6.394  1.4903  0.9118  0.2362
 2415SOL    HW218708   4.243   0.716   6.506  0.5021  1.3762 -0.3727
 2416SOL     OW18709   3.064   0.975  16.725 -0.1213  0.5631  0.1516
 2416SOL    HW118710   3.056   0.884  16.695 -0.3772 -0.2175  2.5609
 2416SOL    HW218711   3.147   1.005  16.687  0.1010 -1.2813 -0.8043
 2417SOL     OW18712   0.867   0.070   4.712  0.0312 -0.5203 -0.1368
 2417SOL    HW118713   0.836   4.707   4.679  2.3519 -2.1169  1.7717
 2417SOL    HW218714   0.855   0.122   4.632 -0.1010 -1.8350 -0.9631
 2418SOL     OW18715   3.573   3.981   6.530 -0.0340  0.4334 -0.1482
 2418SOL    HW118716   3.536   3.895   6.511 -1.8019  0.8976  1.1897
 2418SOL    HW218717   3.559   4.020   6.443  0.3039 -0.8160 -0.7575
 2419SOL     OW18718   1.815   0.514  10.584  0.0634 -0.1024  0.1665
 2419SOL    HW118719   1.818   0.537  10.677 -1.0014  1.4758 -0.1886
 2419SOL    HW218720   1.896   0.464  10.571 -0.2470 -0.7147  0.6473
 2420SOL     OW18721   2.504   3.218   3.112  0.3578  0.3913  0.4619
 2420SOL    HW118722   2.432   3.227   3.049  0.8604 -1.7733 -0.4372
 2420SOL    HW218723   2.494   3.125   3.133 -0.0909  0.3817  0.2017
 2421SOL     OW18724   2.464   2.934   4.377  0.2219 -0.5314  0.5788
 2421SOL    HW118725   2.408   2.892   4.311 -0.2100  2.5865 -1.0380
 2421SOL    HW218726   2.409   2.918   4.454 -0.6787 -3.2793 -0.6158
 2422SOL     OW18727   0.461   2.758  16.406 -0.4503 -0.2838 -0.4539
 2422SOL    HW118728   0.516   2.692  16.449  1.2616  0.8859 -0.8349
 2422SOL    HW218729   0.474   2.748  16.312  0.8656  1.3667 -0.4573
 2423SOL     OW18730   2.102   2.871   3.743 -0.1505 -0.3404  0.3618
 2423SOL    HW118731   2.184   2.857   3.790  0.2794  3.3114  0.7099
 2423SOL    HW218732   2.041   2.806   3.777 -0.0540 -0.1201  0.9522
 2424SOL     OW18733   1.892   4.055   4.044  0.5470  0.8224  0.3250
 2424SOL    HW118734   1.812   4.107   4.045 -0.5902 -0.9345 -0.4396
 2424SOL    HW218735   1.848   3.970   4.054  0.5365  0.8907  0.8565
 2425SOL     OW18736   1.992   3.830   7.526 -0.2602  0.1265 -0.1031
 2425SOL    HW118737   1.986   3.817   7.431  1.2244 -1.1380 -0.0318
 2425SOL    HW218738   2.063   3.768   7.547 -1.3108 -0.0038  3.1343
 2426SOL     OW18739   2.998   2.474  14.389  0.3281  0.9219 -0.1017
 2426SOL    HW118740   3.054   2.472  14.467 -1.5662  2.6985  1.2735
 2426SOL    HW218741   3.046   2.409  14.337  0.0564  0.0697  0.7204
 2427SOL     OW18742   2.359   1.026  10.490 -0.0788  0.0997  0.1002
 2427SOL    HW118743   2.359   1.018  10.585  1.5463 -2.3495 -0.0984
 2427SOL    HW218744   2.264   1.036  10.481 -0.0684  0.4110  0.3507
 2428SOL     OW18745   2.514   3.022   1.392  0.3086 -0.2831  0.6906
 2428SOL    HW118746   2.428   2.993   1.362 -0.2502  2.5426 -0.5056
 2428SOL    HW218747   2.524   3.110   1.354 -1.2992  0.0779  1.1101
 2429SOL     OW18748   4.564   4.300   6.162 -0.1497 -0.3305 -0.4451
 2429SOL    HW118749   4.633   4.344   6.213  0.6257 -1.5704 -0.4271
 2429SOL    HW218750   4.484   4.309   6.214 -0.2863 -1.5191 -0.4603
 2430SOL     OW18751   2.497   4.427  11.955 -0.0474 -0.2988 -0.5816
 2430SOL    HW118752   2.500   4.344  12.002 -0.1825  0.4363  0.7050
 2430SOL    HW218753   2.572   4.423  11.895 -1.4088 -4.0459 -2.0496
 2431SOL     OW18754   1.413   3.495  10.675 -0.0431 -0.4934  0.0194
 2431SOL    HW118755   1.476   3.566  10.690 -0.5390 -0.3572  1.4826
 2431SOL    HW218756   1.352   3.513  10.747  0.1116 -3.0805  0.8014
 2432SOL     OW18757   1.751   3.156   0.396 -0.5127  0.4515 -0.3612
 2432SOL    HW118758   1.714   3.222   0.455  0.5039  0.2134  0.5417
 2432SOL    HW218759   1.785   3.217   0.331 -0.6655  0.7299 -0.1819
 2433SOL     OW18760   0.580   0.800   1.991  0.3726  0.4864 -0.3652
 2433SOL    HW118761   0.632   0.827   1.915  1.7463 -0.2726  0.2949
 2433SOL    HW218762   0.654   0.752   2.030 -0.1371 -0.3068 -0.3784
 2434SOL     OW18763   2.074   1.339   2.958  0.0522 -0.0576 -0.3528
 2434SOL    HW118764   2.084   1.394   2.879 -1.9223 -0.0330 -0.5918
 2434SOL    HW218765   2.045   1.407   3.019  0.0390  0.6704 -1.1672
 2435SOL     OW18766   4.669   2.490   4.803  0.0090 -0.5099  0.2759
 2435SOL    HW118767   4.576   2.493   4.783  0.6862  1.2405 -2.6737
 2435SOL    HW218768   4.687   2.398   4.785 -1.3243 -0.2737 -2.1866
 2436SOL     OW18769   1.239   2.189  16.322 -0.3361  0.1659 -0.3167
 2436SOL    HW118770   1.184   2.266  16.337  1.6946  1.4953  0.4018
 2436SOL    HW218771   1.197   2.143  16.250  4.0454  1.6292 -3.8361
 2437SOL     OW18772   3.752   1.391  12.341 -0.4294 -0.0409  0.5248
 2437SOL    HW118773   3.813   1.466  12.342  1.5564 -1.6456  0.6053
 2437SOL    HW218774   3.686   1.423  12.402 -0.4787 -0.4277  0.6752
 2438SOL     OW18775   1.703   4.377   3.451  0.1862  0.2079 -0.5811
 2438SOL    HW118776   1.775   4.415   3.501  0.6777 -0.5999 -0.6651
 2438SOL    HW218777   1.744   4.351   3.368 -0.6006 -2.2934 -0.1869
 2439SOL     OW18778   3.339   3.114   1.417  0.6498 -0.2602 -0.8321
 2439SOL    HW118779   3.339   3.132   1.323  1.1794  2.8914 -0.2110
 2439SOL    HW218780   3.247   3.111   1.446  0.5291  0.0225 -1.1903
 2440SOL     OW18781   3.560   1.121   3.805 -0.1835  0.3601 -0.1271
 2440SOL    HW118782   3.601   1.136   3.890 -1.1281 -0.4440  0.4555
 2440SOL    HW218783   3.483   1.071   3.831  0.6481 -1.1218 -0.5340
 2441SOL     OW18784   1.388   0.686   5.630 -0.2303 -0.9094 -0.4086
 2441SOL    HW118785   1.441   0.608   5.647 -0.7268 -1.0726  0.3963
 2441SOL    HW218786   1.413   0.694   5.538 -0.7863 -2.3106 -0.6931
 2442SOL     OW18787   3.712   4.607   6.887  0.1339 -0.5585 -0.2292
 2442SOL    HW118788   3.663   4.644   6.960  0.6663  0.3818 -0.3498
 2442SOL    HW218789   3.780   4.672   6.870 -0.8059  0.3262 -0.6121
 2443SOL     OW18790   3.614   0.503   6.364  0.1106 -0.1458 -0.3348
 2443SOL    HW118791   3.696   0.455   6.354  1.3096  1.6155  0.9956
 2443SOL    HW218792   3.594   0.492   6.457  0.0662 -1.6774 -0.5299
 2444SOL     OW18793   1.381   2.869   4.412 -0.2180 -0.0564 -0.0981
 2444SOL    HW118794   1.368   2.803   4.344 -1.4946 -0.5815  0.6688
 2444SOL    HW218795   1.476   2.867   4.427 -0.7561 -2.4003  2.8616
 2445SOL     OW18796   3.798   3.840   8.604 -0.6860 -0.1803  0.4402
 2445SOL    HW118797   3.878   3.837   8.656  0.6896 -3.4393 -1.8940
 2445SOL    HW218798   3.747   3.907   8.650  0.5839  0.8367  0.3803
 2446SOL     OW18799   4.144   0.287   3.196  0.1577 -0.3943  0.3151
 2446SOL    HW118800   4.215   0.306   3.135 -0.7973  0.5324 -0.5031
 2446SOL    HW218801   4.066   0.269   3.144 -0.1159 -0.4084  0.7299
 2447SOL     OW18802   0.420   3.330   1.113  0.2008  0.4619  1.0338
 2447SOL    HW118803   0.372   3.356   1.192  0.4247  1.0354  0.9813
 2447SOL    HW218804   0.493   3.276   1.145  0.5179  1.0381  1.2863
 2448SOL     OW18805   0.887   4.393   3.285  0.1659  0.3863 -0.3275
 2448SOL    HW118806   0.792   4.395   3.297  0.0755 -1.3159 -0.7574
 2448SOL    HW218807   0.914   4.473   3.239 -0.7410  1.2478  0.6359
 2449SOL     OW18808   3.291   1.112   4.300  0.1599  0.3242  0.4109
 2449SOL    HW118809   3.209   1.066   4.279  0.7441 -0.4448 -0.2051
 2449SOL    HW218810   3.355   1.047   4.270 -1.8059 -0.9863 -1.0211
 2450SOL     OW18811   0.071   3.451   2.248 -0.1476 -0.1511 -0.1337
 2450SOL    HW118812   0.069   3.403   2.331 -3.0469  1.0170  0.4838
 2450SOL    HW218813   4.704   3.452   2.210 -0.0634 -0.3325 -0.3309
 2451SOL     OW18814   4.543   2.490   2.295 -0.0930  0.5237 -0.6744
 2451SOL    HW118815   4.494   2.443   2.227  1.1938  0.1489 -1.3377
 2451SOL    HW218816   4.573   2.420   2.354 -0.8171  0.1103 -0.7913
 2452SOL     OW18817   0.525   4.295  12.057  0.2869 -0.8825 -0.3310
 2452SOL    HW118818   0.467   4.256  12.122 -0.7810  2.4824  0.6900
 2452SOL    HW218819   0.591   4.331  12.116 -2.2699  2.1753  0.6826
 2453SOL     OW18820   3.384   0.292   5.235  0.3588 -0.2098  0.1220
 2453SOL    HW118821   3.300   0.246   5.236 -0.5920  1.5331  0.0287
 2453SOL    HW218822   3.424   0.251   5.312  1.4056  1.4268  0.4359
 2454SOL     OW18823   0.102   4.029  12.495  0.3501 -0.4060 -0.2030
 2454SOL    HW118824   0.182   4.006  12.448 -0.1345 -2.0220 -0.2333
 2454SOL    HW218825   0.106   3.981  12.578  1.1019 -1.7917 -1.0404
 2455SOL     OW18826   1.310   1.635   8.463 -0.6351 -0.2425  0.5877
 2455SOL    HW118827   1.386   1.618   8.407 -1.4471 -0.0996 -0.5582
 2455SOL    HW218828   1.346   1.704   8.518  0.2493  0.7539 -1.2388
 2456SOL     OW18829   4.565   3.656   1.161  0.7695  0.7166  0.2545
 2456SOL    HW118830   4.484   3.613   1.136 -0.7431  4.1712 -0.6878
 2456SOL    HW218831   4.574   3.610   1.244  0.4213  0.2743  0.0460
 2457SOL     OW18832   2.830   0.855   8.135  0.5796  0.4591  0.1133
 2457SOL    HW118833   2.790   0.932   8.094  1.2282  1.2007  0.8772
 2457SOL    HW218834   2.762   0.855   8.201 -0.0315 -1.2220 -0.5214
 2458SOL     OW18835   2.890   2.084  10.159 -0.5726 -0.0599 -0.0593
 2458SOL    HW118836   2.809   2.046  10.191  0.5377 -4.3349 -2.2815
 2458SOL    HW218837   2.935   2.099  10.242  1.7845 -0.7015 -1.2030
 2459SOL     OW18838   0.424   3.008   4.301 -0.5825 -0.0194 -0.0192
 2459SOL    HW118839   0.353   3.005   4.365  0.9225 -1.0629  1.6113
 2459SOL    HW218840   0.381   3.075   4.247  3.1551  1.9616 -0.5095
 2460SOL     OW18841   4.507   4.066   8.284 -0.3083 -0.1305 -0.0770
 2460SOL    HW118842   4.540   4.025   8.364 -0.7983  0.8221  0.6119
 2460SOL    HW218843   4.515   3.995   8.220  1.0849 -0.2041  0.1817
 2461SOL     OW18844   2.406   3.508   5.175  0.0897  0.2351  0.2833
 2461SOL    HW118845   2.496   3.484   5.153 -0.3667 -0.1139 -1.1991
 2461SOL    HW218846   2.395   3.563   5.098  1.4898 -0.8890 -0.7159
 2462SOL     OW18847   3.014   3.131   6.627  0.1730 -0.4519  0.0482
 2462SOL    HW118848   3.078   3.079   6.676 -0.1135  0.8530  1.8069
 2462SOL    HW218849   2.938   3.078   6.650  1.7350 -1.8619  1.9471
 2463SOL     OW18850   1.610   3.032   8.517  0.5023 -0.4500 -0.3302
 2463SOL    HW118851   1.622   3.019   8.423 -0.0986  0.3634 -0.5185
 2463SOL    HW218852   1.539   3.096   8.520 -0.5855 -1.6229 -1.4086
 2464SOL     OW18853   3.180   3.357  15.547 -0.1549 -1.1366 -0.0919
 2464SOL    HW118854   3.186   3.288  15.481  0.3279  0.9204 -2.1887
 2464SOL    HW218855   3.246   3.420  15.517  0.4550 -0.4850  2.5389
 2465SOL     OW18856   1.008   0.168  13.728 -0.8094 -0.2045  0.0678
 2465SOL    HW118857   0.948   0.095  13.712 -0.5856 -0.4392  0.2891
 2465SOL    HW218858   1.085   0.147  13.675  0.6301 -0.9308  2.4522
 2466SOL     OW18859   2.314   0.769   2.682  0.5641 -0.4305  0.1485
 2466SOL    HW118860   2.361   0.846   2.716  0.8517  0.2248 -1.7720
 2466SOL    HW218861   2.256   0.748   2.756 -0.5793  3.3937  0.3484
 2467SOL     OW18862   2.071   3.319   1.682  0.1555  0.0502 -0.1552
 2467SOL    HW118863   2.129   3.395   1.676  2.4744 -1.7997 -1.0421
 2467SOL    HW218864   2.079   3.293   1.774  0.7693  1.3114  0.1438
 2468SOL     OW18865   0.983   2.391   7.915 -0.0902  0.0753 -0.1211
 2468SOL    HW118866   0.944   2.333   7.850 -0.6586 -0.7177  0.9303
 2468SOL    HW218867   0.919   2.462   7.913 -0.5706 -0.3780 -1.0098
 2469SOL     OW18868   2.760   1.166   2.969 -0.4127  0.6126 -0.0368
 2469SOL    HW118869   2.827   1.226   3.002 -1.7996  0.8762  2.2661
 2469SOL    HW218870   2.692   1.224   2.934 -3.5803 -2.0964  1.7343
 2470SOL     OW18871   1.423   0.746   3.571  0.2080 -0.5148  0.0975
 2470SOL    HW118872   1.468   0.829   3.553 -2.1331  0.5476 -0.8527
 2470SOL    HW218873   1.471   0.687   3.514 -0.2080  1.3229 -2.1424
 2471SOL     OW18874   1.148   3.272   4.584 -0.4961  0.0116  0.1615
 2471SOL    HW118875   1.100   3.196   4.550  0.5545 -0.1916 -0.8494
 2471SOL    HW218876   1.084   3.298   4.650  0.4097  1.5668  0.4100
 2472SOL     OW18877   0.676   0.688   8.172  0.2063  0.2885 -0.2558
 2472SOL    HW118878   0.600   0.703   8.229  0.7325 -0.5424  0.6514
 2472SOL    HW218879   0.751   0.697   8.231  0.4519  1.9794 -0.8214
 2473SOL     OW18880   2.097   4.208   7.606 -0.6578 -0.0965 -0.4600
 2473SOL    HW118881   2.077   4.255   7.687  1.0597  1.3881 -0.8863
 2473SOL    HW218882   2.084   4.119   7.640 -0.0247  0.7132  1.9323
 2474SOL     OW18883   3.235   1.371  15.514  0.1394 -0.0731  0.1298
 2474SOL    HW118884   3.247   1.364  15.609 -0.4178  1.3134  0.3085
 2474SOL    HW218885   3.186   1.450  15.491 -1.7036 -1.7527 -1.7580
 2475SOL     OW18886   4.092   1.024   3.409 -0.4917 -0.4924  0.8075
 2475SOL    HW118887   4.077   0.937   3.375 -2.9527  0.8938 -1.6418
 2475SOL    HW218888   4.143   1.055   3.334  1.7010 -0.8391  2.1587
 2476SOL     OW18889   2.575   3.820   4.237  0.3520 -0.5849 -0.1778
 2476SOL    HW118890   2.571   3.914   4.219 -3.3074 -0.8972 -1.1218
 2476SOL    HW218891   2.529   3.826   4.321  0.7616  1.7413 -0.1409
 2477SOL     OW18892   0.210   1.586   8.128  0.0203  0.0504  0.2407
 2477SOL    HW118893   0.133   1.539   8.097 -0.2496  1.1277 -0.7186
 2477SOL    HW218894   0.223   1.548   8.215 -1.5132  0.7268  0.7725
 2478SOL     OW18895   2.843   2.044   6.548  0.6537  0.3040  0.2943
 2478SOL    HW118896   2.767   2.074   6.498  1.9984  1.5531 -0.9689
 2478SOL    HW218897   2.796   1.985   6.608 -0.8267  0.5958 -0.5848
 2479SOL     OW18898   4.064   0.753   5.367 -0.6236 -0.0378 -0.1152
 2479SOL    HW118899   4.071   0.806   5.446 -1.4095  0.4369 -0.3775
 2479SOL    HW218900   4.152   0.718   5.351 -0.2873  1.0809 -0.7005
 2480SOL     OW18901   2.577   1.816   2.271 -0.3832 -0.0396  0.1573
 2480SOL    HW118902   2.620   1.785   2.351 -3.7666 -2.1933  1.1340
 2480SOL    HW218903   2.645   1.874   2.235 -1.8683  2.0062  0.6497
 2481SOL     OW18904   3.795   3.767   5.208  0.8165  0.2172 -0.0054
 2481SOL    HW118905   3.825   3.733   5.292 -0.0514  0.1496  0.2757
 2481SOL    HW218906   3.861   3.724   5.154  0.6499 -1.1306  0.8592
 2482SOL     OW18907   3.212   1.700   6.712  0.1300 -0.0032  0.1446
 2482SOL    HW118908   3.125   1.722   6.679  0.2756 -0.6389 -0.6870
 2482SOL    HW218909   3.271   1.763   6.671  0.9016 -0.3153  0.7821
 2483SOL     OW18910   2.554   3.835  13.754 -0.1017  0.2013 -0.9088
 2483SOL    HW118911   2.525   3.792  13.834  1.4139  3.5164  1.4305
 2483SOL    HW218912   2.598   3.762  13.711  0.6831  0.4784 -0.5820
 2484SOL     OW18913   1.060   2.806   5.327 -0.1224 -0.2512  0.0801
 2484SOL    HW118914   0.999   2.850   5.387  0.2180  0.9942 -0.4791
 2484SOL    HW218915   1.003   2.739   5.290  0.6752 -0.6333 -0.4527
 2485SOL     OW18916   0.463   0.103   5.327 -0.8748 -0.3403  0.5761
 2485SOL    HW118917   0.495   0.191   5.342 -1.2807 -0.0116 -0.4411
 2485SOL    HW218918   0.540   0.048   5.314  0.4735  1.9850 -1.0985
 2486SOL     OW18919   3.689   4.218   8.117  0.0815  0.3775 -0.2112
 2486SOL    HW118920   3.749   4.157   8.074  0.7794  0.6729  0.3399
 2486SOL    HW218921   3.749   4.270   8.170 -0.5370  0.1002  0.7605
 2487SOL     OW18922   2.468   0.140   5.187  0.4289 -0.0369  0.3907
 2487SOL    HW118923   2.413   0.086   5.130 -0.6805  1.8775 -0.3586
 2487SOL    HW218924   2.449   0.225   5.148 -0.2458 -0.3224  0.0877
 2488SOL     OW18925   2.986   0.317  16.301  0.3200  0.2398 -0.0306
 2488SOL    HW118926   2.927   0.251  16.265 -1.0721 -0.0770  2.7965
 2488SOL    HW218927   2.990   0.280  16.390 -1.4661  1.6124  0.6176
 2489SOL     OW18928   3.682   3.257   4.817  0.0743 -1.1302 -0.7647
 2489SOL    HW118929   3.776   3.267   4.800 -0.2497  0.7834 -1.3824
 2489SOL    HW218930   3.663   3.327   4.879 -1.5601 -2.5454  0.3414
 2490SOL     OW18931   4.003   4.260   8.274 -0.1110  0.2271 -0.1701
 2490SOL    HW118932   3.970   4.192   8.215 -3.7983  2.0063 -0.1541
 2490SOL    HW218933   4.097   4.253   8.258 -0.2464 -0.2920 -0.7255
 2491SOL     OW18934   3.561   1.764   1.446  0.0338  0.1832 -0.2407
 2491SOL    HW118935   3.492   1.702   1.423  1.2174 -1.2578  0.0887
 2491SOL    HW218936   3.623   1.770   1.373  0.4183 -0.4245  0.0278
 2492SOL     OW18937   4.318   1.753   8.296  0.4417 -0.6037 -0.0228
 2492SOL    HW118938   4.366   1.834   8.282 -1.5402  0.7659  1.2042
 2492SOL    HW218939   4.342   1.701   8.219 -0.8570  0.8418 -1.3953
 2493SOL     OW18940   3.045   3.173   9.905 -0.3495 -0.3172  0.3083
 2493SOL    HW118941   3.090   3.254   9.931 -1.5907  0.8221 -1.1375
 2493SOL    HW218942   2.956   3.183   9.940 -0.5769 -0.2295 -0.3051
 2494SOL     OW18943   1.075   3.186   5.433  0.1669  0.5274 -0.1707
 2494SOL    HW118944   1.004   3.244   5.461 -0.9005 -0.8871  0.0544
 2494SOL    HW218945   1.092   3.219   5.345 -2.5265 -0.0006 -0.8954
 2495SOL     OW18946   3.770   2.587  15.088  0.1846  0.1143 -0.0113
 2495SOL    HW118947   3.749   2.566  14.997 -2.3750 -0.2107  0.6339
 2495SOL    HW218948   3.742   2.512  15.141 -0.9588  0.3787 -0.2355
 2496SOL     OW18949   1.910   0.939  13.866 -0.1165  0.0821 -0.3081
 2496SOL    HW118950   1.901   0.919  13.959 -0.3678 -0.8940 -0.5437
 2496SOL    HW218951   1.874   1.027  13.853  0.5228  0.5970  1.4181
 2497SOL     OW18952   2.043   0.455  13.303  0.1911  0.4355 -0.5531
 2497SOL    HW118953   2.010   0.532  13.256  1.2502  1.0485 -0.2921
 2497SOL    HW218954   1.996   0.458  13.387  0.3990  0.0040 -0.4209
 2498SOL     OW18955   3.931   4.232  14.376  0.4068  0.0828  0.3516
 2498SOL    HW118956   3.890   4.203  14.457  1.4523 -1.6404  0.2822
 2498SOL    HW218957   4.008   4.175  14.376 -1.0600 -1.9084 -3.6826
 2499SOL     OW18958   1.185   2.913   8.181 -0.8172  0.4775 -0.3522
 2499SOL    HW118959   1.210   2.822   8.197 -2.0755  0.1478 -0.3150
 2499SOL    HW218960   1.124   2.908   8.108  0.8185 -0.9236 -1.6435
 2500SOL     OW18961   0.903   4.720   4.969  0.5547 -0.1726 -0.3731
 2500SOL    HW118962   0.891   4.626   4.963 -0.1628 -0.1857  1.2952
 2500SOL    HW218963   0.885   0.011   4.876 -0.3182  0.0019 -0.1902
 2501SOL     OW18964   0.213   0.036   5.240 -0.1231  0.0832 -0.1406
 2501SOL    HW118965   0.285   0.055   5.300 -0.8186  2.5409 -0.0760
 2501SOL    HW218966   0.175   4.684   5.288  1.6707 -0.5389  0.3511
 2502SOL     OW18967   2.322   1.835   2.480  0.5575  0.2659 -0.2697
 2502SOL    HW118968   2.347   1.911   2.533  2.3493 -1.3687  1.2328
 2502SOL    HW218969   2.331   1.858   2.388 -0.8425 -0.0893 -0.4907
 2503SOL     OW18970   0.174   3.558   8.012 -0.2046 -0.0648  0.3650
 2503SOL    HW118971   0.192   3.602   7.928 -1.0300 -0.0306  0.2071
 2503SOL    HW218972   0.102   3.504   7.979  0.9672 -1.4693  0.1213
 2504SOL     OW18973   2.592   3.565  17.067  0.1893  0.3733  0.7327
 2504SOL    HW118974   2.535   3.636  17.039  1.5147  1.0140 -0.3321
 2504SOL    HW218975   2.668   3.572  17.009 -0.3450  0.4330  0.0310
 2505SOL     OW18976   3.967   0.022   4.147  0.2320 -0.1780 -0.4711
 2505SOL    HW118977   4.000   0.038   4.059 -1.7402  1.4503 -0.9208
 2505SOL    HW218978   3.876   4.721   4.127 -0.3679 -0.7697  2.7907
 2506SOL     OW18979   1.618   0.958   7.155  0.5064  0.2169  0.5023
 2506SOL    HW118980   1.602   0.970   7.062  0.3917 -1.2264  0.3422
 2506SOL    HW218981   1.713   0.959   7.160  0.4886 -1.0836  1.0992
 2507SOL     OW18982   1.317   3.089  10.658  0.5936  0.0287 -0.1280
 2507SOL    HW118983   1.359   3.019  10.709 -1.7648 -0.5827  0.9475
 2507SOL    HW218984   1.226   3.065  10.671 -0.1116  2.4824 -0.6113
 2508SOL     OW18985   3.402   1.104   6.295 -0.1743 -0.1599  0.0927
 2508SOL    HW118986   3.347   1.092   6.372  0.8753  0.6352  0.9549
 2508SOL    HW218987   3.401   1.197   6.272 -0.1575  0.2995  1.9583
 2509SOL     OW18988   1.660   0.930   3.761 -1.0460 -0.3036 -0.6082
 2509SOL    HW118989   1.615   0.946   3.678  0.0638 -0.9468 -1.3200
 2509SOL    HW218990   1.627   0.841   3.773 -0.2319 -0.1645  2.6599
 2510SOL     OW18991   1.899   3.926   5.358 -0.6553 -0.4131  0.1729
 2510SOL    HW118992   1.887   4.020   5.372  0.7006  0.1557 -2.4012
 2510SOL    HW218993   1.879   3.918   5.264  1.6820 -2.1772 -0.1808
 2511SOL     OW18994   2.983   3.656   2.169 -0.2589  0.0522  0.2297
 2511SOL    HW118995   2.995   3.648   2.264  1.4949  0.1340  0.0176
 2511SOL    HW218996   2.895   3.624   2.148 -0.1929 -0.8368  1.3239
 2512SOL     OW18997   3.947   3.889   6.188 -0.8236 -0.0721 -0.0193
 2512SOL    HW118998   3.923   3.969   6.234  0.6132  0.0780  0.4844
 2512SOL    HW218999   3.874   3.839   6.225 -3.0783  1.7855 -2.0022
 2513SOL     OW19000   3.311   4.437  10.477  0.0030  1.4817  0.2478
 2513SOL    HW119001   3.379   4.479  10.530  1.1824 -0.4139  0.2663
 2513SOL    HW219002   3.336   4.457  10.386  1.7857 -2.6637 -0.1933
 2514SOL     OW19003   1.011   1.112   0.387 -0.0339  0.1048  0.2969
 2514SOL    HW119004   1.080   1.170   0.356 -0.4250  0.4623  0.0917
 2514SOL    HW219005   1.063   1.034   0.365  1.6702  1.5734 -0.8105
 2515SOL     OW19006   1.415   3.482   7.642 -0.3273 -0.8767 -0.5866
 2515SOL    HW119007   1.507   3.457   7.643  0.1113  0.8640  2.0931
 2515SOL    HW219008   1.415   3.535   7.722  2.2744  2.1227 -2.5668
 2516SOL     OW19009   1.261   2.650  12.643 -0.1448  0.1890 -0.2284
 2516SOL    HW119010   1.221   2.629  12.558  1.5040  0.7132 -1.1386
 2516SOL    HW219011   1.322   2.579  12.659 -1.1341 -0.8798 -1.1797
 2517SOL     OW19012   1.486   2.524  15.168  0.3631 -0.4377  0.1496
 2517SOL    HW119013   1.500   2.438  15.129  0.3171 -1.1562  1.7403
 2517SOL    HW219014   1.474   2.578  15.090 -0.1945 -0.9329 -0.1032
 2518SOL     OW19015   1.381   3.864   7.812 -0.5624 -0.8859 -0.0249
 2518SOL    HW119016   1.304   3.887   7.759 -0.7631  0.5655  0.9000
 2518SOL    HW219017   1.441   3.866   7.737 -0.2889  0.2538  0.2335
 2519SOL     OW19018   4.557   1.485   7.545  0.3911 -0.2922 -0.0008
 2519SOL    HW119019   4.648   1.461   7.559 -0.5351 -2.0777  2.8278
 2519SOL    HW219020   4.512   1.422   7.601 -1.8412  0.6673 -0.6977
 2520SOL     OW19021   4.045   1.495   7.080  0.6245  0.4320  0.4418
 2520SOL    HW119022   3.964   1.459   7.117 -0.7091  1.3314 -1.5972
 2520SOL    HW219023   4.018   1.521   6.992 -0.1341 -3.0790 -0.3392
 2521SOL     OW19024   4.684   4.611   3.248 -0.5360  0.5776  0.1033
 2521SOL    HW119025   4.675   4.531   3.197  0.4288  0.5539 -0.0406
 2521SOL    HW219026   4.713   4.671   3.179 -0.4407 -0.2996 -0.6314
 2522SOL     OW19027   3.002   3.074   8.456 -0.2280 -0.0206  0.1857
 2522SOL    HW119028   2.914   3.051   8.487 -1.1042  1.4479 -1.2198
 2522SOL    HW219029   2.995   3.145   8.392  1.4531  0.9962  1.1295
 2523SOL     OW19030   0.775   0.827   9.697 -0.2392  0.0804 -0.2396
 2523SOL    HW119031   0.816   0.834   9.783 -2.0002 -1.3345  0.7285
 2523SOL    HW219032   0.843   0.871   9.647  0.7507  1.1139  2.0148
 2524SOL     OW19033   4.128   2.441   5.051  0.5249 -0.1042 -0.6520
 2524SOL    HW119034   4.111   2.347   5.049 -0.1086 -0.0455  1.0856
 2524SOL    HW219035   4.068   2.466   4.981  0.6435 -2.4863 -1.5774
 2525SOL     OW19036   0.852   2.690   4.639  0.1047 -0.2673 -0.1976
 2525SOL    HW119037   0.947   2.680   4.639  0.2831  1.2204 -2.8139
 2525SOL    HW219038   0.824   2.629   4.707 -0.3260 -1.7195 -1.6776
 2526SOL     OW19039   2.671   3.796   3.270  0.0099 -0.3764  0.5053
 2526SOL    HW119040   2.752   3.749   3.293 -1.1161 -1.4820  2.2129
 2526SOL    HW219041   2.688   3.819   3.179  0.6520  0.0667  0.7361
 2527SOL     OW19042   0.598   3.240   7.178  0.6932  0.0227  0.3294
 2527SOL    HW119043   0.587   3.180   7.252  0.2557  0.3586  0.5370
 2527SOL    HW219044   0.691   3.229   7.157  0.2595 -0.5146 -1.2740
 2528SOL     OW19045   2.937   2.513  12.412  0.2404  0.1662 -0.5743
 2528SOL    HW119046   2.866   2.467  12.367 -0.3266 -0.2486  0.7512
 2528SOL    HW219047   2.945   2.474  12.499  1.2896  0.8187 -0.3829
 2529SOL     OW19048   4.553   3.376   3.183  0.0306  0.2513  0.5300
 2529SOL    HW119049   4.560   3.406   3.093  1.5687  1.0523  0.9095
 2529SOL    HW219050   4.521   3.460   3.216 -1.7409 -0.5200  0.7592
 2530SOL     OW19051   4.138   4.145  16.480  0.0117  0.3140  0.1063
 2530SOL    HW119052   4.167   4.054  16.477  0.1150  0.3034  1.4038
 2530SOL    HW219053   4.216   4.200  16.488  1.0949 -1.1082 -0.6778
 2531SOL     OW19054   0.290   0.199   0.371 -0.0026 -0.4523 -0.5667
 2531SOL    HW119055   0.383   0.208   0.394 -0.3111  1.5075 -0.0606
 2531SOL    HW219056   0.281   0.273   0.311  1.3888 -1.4079 -1.9438
 2532SOL     OW19057   1.221   1.005   4.787  0.8013  0.2930  0.0248
 2532SOL    HW119058   1.158   1.041   4.725  1.3407  0.9258 -0.1535
 2532SOL    HW219059   1.291   0.966   4.735  0.9925  0.1864  0.3605
 2533SOL     OW19060   0.975   1.290   1.096 -0.0416  0.2917  0.2824
 2533SOL    HW119061   1.027   1.355   1.143 -1.4149  0.9661  0.8545
 2533SOL    HW219062   1.048   1.238   1.061 -1.3179 -0.4602 -1.2874
 2534SOL     OW19063   2.972   0.647   1.954  0.2755 -0.2960 -0.4254
 2534SOL    HW119064   2.997   0.739   1.964 -0.2120 -0.4685  2.3775
 2534SOL    HW219065   3.003   0.610   2.037 -0.8779 -1.3991 -0.4846
 2535SOL     OW19066   1.428   0.172   3.110 -0.6243 -0.0459 -0.5193
 2535SOL    HW119067   1.478   0.091   3.117  1.0839  0.9756 -0.7470
 2535SOL    HW219068   1.344   0.129   3.124 -0.3486 -0.4405 -0.0660
 2536SOL     OW19069   3.952   4.249  15.531  0.3940  0.2080 -0.1750
 2536SOL    HW119070   3.936   4.268  15.623 -1.6441  1.8157 -0.8561
 2536SOL    HW219071   4.016   4.179  15.544 -0.6736 -0.9935 -1.2844
 2537SOL     OW19072   0.381   3.818  13.324 -0.1333  0.1270  0.1050
 2537SOL    HW119073   0.341   3.904  13.332  1.3364  1.0009 -1.7067
 2537SOL    HW219074   0.460   3.849  13.280  0.6878 -1.4644  0.4497
 2538SOL     OW19075   1.993   4.395  13.942 -0.3668 -0.1381  0.2659
 2538SOL    HW119076   2.066   4.359  13.993 -0.9440 -1.3391  0.2403
 2538SOL    HW219077   1.917   4.388  14.000 -1.6794 -0.5719 -1.5285
 2539SOL     OW19078   2.774   1.118   2.449 -0.5811 -0.4806  0.3437
 2539SOL    HW119079   2.682   1.143   2.451 -1.2071 -2.8229  0.8839
 2539SOL    HW219080   2.806   1.175   2.379 -0.3913 -2.6100 -1.3163
 2540SOL     OW19081   1.010   2.668  17.493  0.0093 -0.1667  0.1215
 2540SOL    HW119082   0.950   2.734  17.458  1.5925 -1.0915 -4.3700
 2540SOL    HW219083   1.092   2.718  17.488  0.8132 -1.5532 -0.5060
 2541SOL     OW19084   3.819   1.091   3.434  0.4462  0.4104  0.0231
 2541SOL    HW119085   3.912   1.070   3.422  0.9312  0.9922  2.9532
 2541SOL    HW219086   3.821   1.186   3.439  1.9002  0.3777  0.2100
 2542SOL     OW19087   2.753   1.287   4.771 -0.1253 -0.2999 -0.6107
 2542SOL    HW119088   2.711   1.260   4.853  0.1027  2.6488  0.4600
 2542SOL    HW219089   2.682   1.341   4.736  0.0778 -0.7173 -1.6859
 2543SOL     OW19090   0.752   0.830  11.836  0.1761 -0.2886 -0.0719
 2543SOL    HW119091   0.750   0.849  11.930  0.4319 -1.6524  0.2143
 2543SOL    HW219092   0.771   0.736  11.842 -1.5507 -0.4340  3.1816
 2544SOL     OW19093   2.026   4.062   1.274 -0.1659  0.2317 -0.1323
 2544SOL    HW119094   2.033   4.079   1.180 -3.7008 -1.2234 -0.6578
 2544SOL    HW219095   1.955   4.124   1.292 -0.9145 -1.8335  3.8833
 2545SOL     OW19096   2.173   3.711   7.081  0.2806  0.5570 -0.2634
 2545SOL    HW119097   2.169   3.641   7.016  1.0845 -0.0049  0.2982
 2545SOL    HW219098   2.259   3.720   7.121 -0.4591 -0.4112  1.5207
 2546SOL     OW19099   4.618   0.431  11.380 -0.4087  0.1337  0.1868
 2546SOL    HW119100   4.573   0.488  11.442 -0.1812  1.0865 -0.5281
 2546SOL    HW219101   4.651   0.366  11.442  0.9340  1.0518  0.4423
 2547SOL     OW19102   2.847   3.601   0.298 -0.2752 -0.5428 -0.2824
 2547SOL    HW119103   2.926   3.547   0.297 -0.5536 -0.9518 -0.7042
 2547SOL    HW219104   2.808   3.581   0.383 -0.5759  0.5463 -0.1667
 2548SOL     OW19105   4.505   4.237   7.440  0.0043  0.1806  0.0880
 2548SOL    HW119106   4.452   4.316   7.445  1.0915  0.8694  0.6476
 2548SOL    HW219107   4.554   4.247   7.358  3.3457 -2.4509  1.7264
 2549SOL     OW19108   4.140   3.398   9.796 -0.4041  0.1130  0.6247
 2549SOL    HW119109   4.139   3.419   9.889  0.0702 -0.9198  0.8542
 2549SOL    HW219110   4.167   3.482   9.759 -2.4731  1.6794  2.6700
 2550SOL     OW19111   3.800   1.983   9.322  0.3069  0.0117  0.2226
 2550SOL    HW119112   3.782   2.038   9.399  1.6297 -0.3520  0.7940
 2550SOL    HW219113   3.889   1.956   9.341 -0.7602 -3.0420  0.8651
 2551SOL     OW19114   2.088   0.143   0.769  0.7345  0.4776 -0.2522
 2551SOL    HW119115   2.079   0.227   0.814 -0.2062 -0.4130  1.2183
 2551SOL    HW219116   2.154   0.157   0.701  0.0593  1.7331 -0.6525
 2552SOL     OW19117   4.666   4.557   5.943 -0.0625 -0.3528 -0.2122
 2552SOL    HW119118   4.589   4.505   5.964 -1.1176  2.0549  1.8818
 2552SOL    HW219119   4.633   4.614   5.874 -1.1974  0.7301  1.2007
 2553SOL     OW19120   4.233   3.821  15.863  0.4567  0.0252  0.1190
 2553SOL    HW119121   4.296   3.831  15.791 -0.3151 -0.5125 -0.6291
 2553SOL    HW219122   4.178   3.752  15.826 -0.1073  0.8944 -0.6481
 2554SOL     OW19123   2.262   0.414   7.630  0.3187 -0.0742 -0.2974
 2554SOL    HW119124   2.328   0.480   7.650 -1.4159  1.5912 -0.0225
 2554SOL    HW219125   2.245   0.392   7.722  1.2180 -1.4721 -0.4678
 2555SOL     OW19126   1.964   0.267   3.962 -0.2029 -0.2281 -0.4648
 2555SOL    HW119127   1.961   0.362   3.955 -0.4522 -0.1947  0.1255
 2555SOL    HW219128   1.946   0.254   4.055 -1.3456 -3.5229 -1.1316
 2556SOL     OW19129   3.696   2.142   3.470 -0.1559 -0.2013  0.7068
 2556SOL    HW119130   3.614   2.135   3.519 -0.4712  1.0457  0.3550
 2556SOL    HW219131   3.668   2.127   3.380  0.8840  0.9769  0.1894
 2557SOL     OW19132   0.313   2.869  15.197 -0.0912  0.2285  0.0995
 2557SOL    HW119133   0.256   2.875  15.274  2.2661 -1.1454  1.9782
 2557SOL    HW219134   0.395   2.878  15.246  0.0401  0.7019 -0.2108
 2558SOL     OW19135   2.536   2.080   7.362 -0.5634  0.7473 -0.1687
 2558SOL    HW119136   2.482   2.086   7.283  0.3007  1.6496 -0.6827
 2558SOL    HW219137   2.599   2.019   7.324  1.4434  0.1930  4.0494
 2559SOL     OW19138   4.716   1.787   3.166  0.1270  0.9508 -0.4483
 2559SOL    HW119139   0.001   1.811   3.073  0.5537 -0.6526 -0.8375
 2559SOL    HW219140   4.640   1.730   3.156  0.3147  0.7404 -0.6721
 2560SOL     OW19141   3.064   2.452  10.094 -0.3853  0.1474 -0.4767
 2560SOL    HW119142   3.146   2.433  10.141 -0.2681  2.8864  0.3894
 2560SOL    HW219143   3.005   2.464  10.169 -2.7534 -1.6367 -2.0479
 2561SOL     OW19144   1.130   2.186  10.640  0.7644  0.2221 -0.5430
 2561SOL    HW119145   1.152   2.210  10.730  0.5323  2.2994 -1.0340
 2561SOL    HW219146   1.192   2.245  10.596  0.6864 -1.5031 -2.9904
 2562SOL     OW19147   3.359   2.781   8.027  0.2273  0.4187 -0.7670
 2562SOL    HW119148   3.324   2.752   7.943  0.9295  0.6101 -1.1178
 2562SOL    HW219149   3.453   2.767   8.017  0.2092  0.4768 -0.9971
 2563SOL     OW19150   3.514   3.983   2.229 -0.0929  0.4083 -0.4710
 2563SOL    HW119151   3.520   4.043   2.155  0.6696 -0.5909 -1.2224
 2563SOL    HW219152   3.576   4.028   2.287 -0.7718  0.3289  0.3170
 2564SOL     OW19153   3.812   2.744  15.824 -0.2648  0.1122 -0.0951
 2564SOL    HW119154   3.786   2.751  15.916  2.1503  0.7973  0.5222
 2564SOL    HW219155   3.740   2.795  15.786 -0.0780  0.6629  0.2791
 2565SOL     OW19156   3.656   2.794   8.589  0.4069 -0.4619 -0.3600
 2565SOL    HW119157   3.720   2.842   8.642 -0.1823 -0.2963  0.2012
 2565SOL    HW219158   3.662   2.706   8.627 -0.6943 -0.9231 -1.2877
 2566SOL     OW19159   1.490   3.181   9.359 -0.4591 -0.0189 -0.4981
 2566SOL    HW119160   1.576   3.174   9.401 -2.0022  0.1393  2.6699
 2566SOL    HW219161   1.494   3.099   9.310  1.7476 -1.3435  1.9090
 2567SOL     OW19162   1.284   4.106   7.486 -0.1156  0.4925  0.5178
 2567SOL    HW119163   1.234   4.058   7.552 -1.3628 -1.5993 -1.9070
 2567SOL    HW219164   1.231   4.182   7.462  1.1790  1.9661  2.3879
 2568SOL     OW19165   3.347   3.290   2.604 -0.3680  0.1635 -0.1214
 2568SOL    HW119166   3.304   3.335   2.677 -0.8882  0.5627 -0.6703
 2568SOL    HW219167   3.437   3.322   2.612 -0.3818  0.5359 -1.4687
 2569SOL     OW19168   2.522   0.345   4.975 -0.2968 -0.1927  0.3308
 2569SOL    HW119169   2.476   0.389   4.903 -0.7503 -3.6431 -1.4936
 2569SOL    HW219170   2.494   0.387   5.056 -1.9444 -0.2576 -0.1889
 2570SOL     OW19171   2.089   0.652   1.444 -0.2670 -0.3306  0.2615
 2570SOL    HW119172   2.142   0.727   1.471 -0.1299  0.0839 -1.1527
 2570SOL    HW219173   2.083   0.673   1.351 -0.2325 -0.8010  0.1504
 2571SOL     OW19174   4.187   0.637   4.879 -0.8098 -0.2133  0.2549
 2571SOL    HW119175   4.262   0.601   4.927  0.2861  0.8700 -0.6349
 2571SOL    HW219176   4.121   0.625   4.947  0.9082 -1.8024  1.6269
 2572SOL     OW19177   2.771   3.666   7.199  0.0721  0.1647 -0.3296
 2572SOL    HW119178   2.865   3.650   7.202  0.4548  2.3238 -0.4598
 2572SOL    HW219179   2.771   3.754   7.161 -0.6455  0.2973 -0.0157
 2573SOL     OW19180   3.274   0.274  14.385 -0.2872  0.1898  0.4858
 2573SOL    HW119181   3.329   0.345  14.352 -0.6608 -0.6391 -1.8722
 2573SOL    HW219182   3.287   0.287  14.479  0.5299  2.5400  0.0475
 2574SOL     OW19183   2.694   3.477   7.786  0.0693 -0.2379 -0.8297
 2574SOL    HW119184   2.788   3.491   7.777 -0.3653  1.7091 -2.3830
 2574SOL    HW219185   2.682   3.570   7.765 -1.3048 -0.0412  0.7621
 2575SOL     OW19186   1.139   4.432   2.493  0.5749  0.2363 -0.3298
 2575SOL    HW119187   1.081   4.462   2.563 -0.4803  0.1087 -1.1499
 2575SOL    HW219188   1.083   4.366   2.452  0.0661 -0.7594  1.9651
 2576SOL     OW19189   0.756   0.108  14.187 -0.6168  0.6974 -0.1654
 2576SOL    HW119190   0.837   0.156  14.167 -0.8858  1.0777 -0.3521
 2576SOL    HW219191   0.715   0.151  14.262  0.6112  1.2720  0.1772
 2577SOL     OW19192   1.720   2.960   5.336 -0.4417 -0.0108 -0.5515
 2577SOL    HW119193   1.639   2.973   5.386  0.7774  1.0834  1.1403
 2577SOL    HW219194   1.690   3.003   5.256 -2.8856  0.1003  0.4434
 2578SOL     OW19195   2.255   0.423   2.266  0.3088 -0.5397 -0.3279
 2578SOL    HW119196   2.265   0.428   2.171  1.0221  1.0195 -0.1629
 2578SOL    HW219197   2.215   0.509   2.283 -0.3326 -1.0337  0.7092
 2579SOL     OW19198   0.595   3.427   0.685  0.2126 -0.1331  0.1768
 2579SOL    HW119199   0.684   3.393   0.691 -0.7336 -2.8693 -1.1410
 2579SOL    HW219200   0.557   3.368   0.620  0.1990 -0.8323  0.8133
 2580SOL     OW19201   0.072   4.227   7.695  0.2152  0.1451  0.4992
 2580SOL    HW119202   0.115   4.275   7.625 -0.0336 -2.7687 -1.6795
 2580SOL    HW219203   0.140   4.159   7.691  1.9720  1.9876 -0.9443
 2581SOL     OW19204   1.413   4.473   3.644  0.7970 -0.0515 -0.1139
 2581SOL    HW119205   1.436   4.394   3.595 -1.5597  0.2052 -1.6380
 2581SOL    HW219206   1.495   4.521   3.635  0.7097 -0.0384 -0.8454
 2582SOL     OW19207   3.525   4.392  10.033  0.0498 -0.3480  0.0477
 2582SOL    HW119208   3.596   4.424   9.977  0.8086  0.8487  1.6752
 2582SOL    HW219209   3.561   4.305  10.051  0.3206 -0.3337 -0.4066
 2583SOL     OW19210   0.910   0.747   4.387 -0.3054 -0.1332 -0.4297
 2583SOL    HW119211   0.834   0.800   4.363  1.1935  1.7711 -1.0126
 2583SOL    HW219212   0.887   0.654   4.391 -0.3846 -0.1223 -0.6873
 2584SOL     OW19213   4.411   1.048   5.108  0.6329  0.1540 -0.0253
 2584SOL    HW119214   4.462   1.114   5.062 -1.3062  0.1807 -2.1468
 2584SOL    HW219215   4.350   1.040   5.035  2.1669  0.4943 -1.3504
 2585SOL     OW19216   0.794   4.218   3.520 -0.6868 -0.4768 -0.6369
 2585SOL    HW119217   0.766   4.134   3.484 -1.5024  0.3178 -1.8422
 2585SOL    HW219218   0.871   4.234   3.466 -0.0472  3.9721  1.5981
 2586SOL     OW19219   2.316   1.256   1.577 -0.2341 -0.2840  0.1664
 2586SOL    HW119220   2.337   1.165   1.598  1.0940  0.0081  0.1220
 2586SOL    HW219221   2.221   1.260   1.574 -0.2816 -1.6610 -0.1203
 2587SOL     OW19222   1.819   3.360   4.706  0.4370 -0.3050 -0.2835
 2587SOL    HW119223   1.896   3.305   4.723  0.3676 -0.1035  0.6852
 2587SOL    HW219224   1.856   3.429   4.652  0.6516  1.1045  1.6705
 2588SOL     OW19225   2.578   2.527  14.834  0.0985 -0.1960 -0.3826
 2588SOL    HW119226   2.504   2.466  14.836 -0.0805 -0.0160 -1.8144
 2588SOL    HW219227   2.547   2.606  14.877  0.0688 -0.1977 -0.4015
 2589SOL     OW19228   0.371   0.843   1.759 -0.3623 -0.1203 -0.3308
 2589SOL    HW119229   0.439   0.845   1.826  0.3360  0.7209 -1.0672
 2589SOL    HW219230   0.427   0.868   1.686 -1.4983  0.3622 -1.0418
 2590SOL     OW19231   4.461   1.470   2.477  0.0184 -0.6571 -0.5463
 2590SOL    HW119232   4.422   1.505   2.397 -0.2805 -2.6656 -1.2871
 2590SOL    HW219233   4.463   1.546   2.535  2.3893 -0.7481 -0.4972
 2591SOL     OW19234   2.228   2.472   8.560  0.3443 -0.2508  0.2696
 2591SOL    HW119235   2.166   2.405   8.534 -0.7527 -0.3750  3.1952
 2591SOL    HW219236   2.283   2.423   8.621 -0.3377  0.1933  1.2327
 2592SOL     OW19237   3.346   0.310  10.585  0.2929 -0.3813 -0.2117
 2592SOL    HW119238   3.299   0.391  10.565  0.0675  0.1021  2.3579
 2592SOL    HW219239   3.299   0.295  10.667  4.5495 -2.0949  1.9003
 2593SOL     OW19240   3.691   0.815   4.687 -0.0487 -0.2487 -0.1906
 2593SOL    HW119241   3.763   0.774   4.640  0.1901  0.6600 -0.6305
 2593SOL    HW219242   3.725   0.806   4.776 -0.0473  3.7115  0.2121
 2594SOL     OW19243   2.668   1.821  14.739  0.4098  0.1327 -0.2336
 2594SOL    HW119244   2.700   1.819  14.830  0.7213 -1.5761 -0.3917
 2594SOL    HW219245   2.750   1.839  14.694 -0.1394 -0.6384 -1.5401
 2595SOL     OW19246   1.414   2.416  12.639  0.0095 -0.1975  0.0478
 2595SOL    HW119247   1.414   2.329  12.600 -0.2731  0.1035 -0.6272
 2595SOL    HW219248   1.472   2.410  12.714  1.0849 -2.2594 -0.9618
 2596SOL     OW19249   2.745   0.237   7.256  0.2082  0.3457  0.4993
 2596SOL    HW119250   2.732   0.204   7.345 -0.2178 -1.6326 -0.2899
 2596SOL    HW219251   2.668   0.294   7.246  0.7312  1.1971  1.3524
 2597SOL     OW19252   0.694   1.030   2.674 -0.5591  0.0853  0.1237
 2597SOL    HW119253   0.650   1.103   2.631 -0.7451  0.7873  1.5031
 2597SOL    HW219254   0.693   1.055   2.766  0.4060  0.1936  0.1004
 2598SOL     OW19255   2.087   3.585  17.145  0.4106  0.1751 -0.4088
 2598SOL    HW119256   2.009   3.639  17.157  0.1459 -0.1708 -0.5813
 2598SOL    HW219257   2.068   3.500  17.184 -1.3244  1.0245  0.5636
 2599SOL     OW19258   4.537   1.562  14.976 -0.1559 -0.4737  0.0007
 2599SOL    HW119259   4.468   1.504  15.010 -1.5410  0.5561 -1.0494
 2599SOL    HW219260   4.488   1.643  14.962  1.1474  0.6657  1.9552
 2600SOL     OW19261   4.639   0.720   6.700  0.3036  0.1243 -0.3523
 2600SOL    HW119262   4.697   0.658   6.744 -0.1866  0.1250  0.2935
 2600SOL    HW219263   4.552   0.680   6.699 -0.4426  1.7775 -1.1469
 2601SOL     OW19264   1.418   4.008  13.011  0.5759  0.4756 -0.0663
 2601SOL    HW119265   1.464   4.092  13.013 -0.2971  0.9444  0.4935
 2601SOL    HW219266   1.331   4.042  13.032  0.4687 -0.6605  1.3132
 2602SOL     OW19267   0.736   1.907  13.500  0.2078  0.2487 -0.3898
 2602SOL    HW119268   0.736   1.831  13.559 -0.9401  2.2584  2.1622
 2602SOL    HW219269   0.796   1.969  13.540  0.1669  0.0744 -0.0592
 2603SOL     OW19270   0.280   0.636   6.423  0.7463  0.3632 -0.7380
 2603SOL    HW119271   0.375   0.634   6.422  0.7735  0.3089  0.9710
 2603SOL    HW219272   0.262   0.627   6.329  0.0041  1.2824 -0.6924
 2604SOL     OW19273   3.565   2.430   4.823 -0.3454  0.0120  0.8336
 2604SOL    HW119274   3.473   2.414   4.844 -0.5668 -0.6076 -0.5535
 2604SOL    HW219275   3.567   2.520   4.792  1.8381 -0.4358 -0.2902
 2605SOL     OW19276   2.409   0.829   6.735 -0.8454  0.3283  0.5194
 2605SOL    HW119277   2.467   0.878   6.676  0.2617 -0.3607  1.0431
 2605SOL    HW219278   2.453   0.854   6.816 -0.3170 -1.7792  0.8749
 2606SOL     OW19279   0.919   1.244   6.573 -0.3860  0.6539  0.1375
 2606SOL    HW119280   0.993   1.244   6.512  0.9616  0.7407  1.7660
 2606SOL    HW219281   0.961   1.194   6.643 -1.1533  1.9800  1.5443
 2607SOL     OW19282   2.635   0.769   4.777 -0.8148 -0.1749 -0.4826
 2607SOL    HW119283   2.698   0.835   4.747  0.8116 -1.3789  0.3095
 2607SOL    HW219284   2.645   0.705   4.707  0.8703 -0.1644 -0.2605
 2608SOL     OW19285   3.985   3.547   5.769 -0.4205 -0.4884  0.6639
 2608SOL    HW119286   4.078   3.565   5.757 -0.9131  1.8351  0.1801
 2608SOL    HW219287   3.971   3.616   5.834 -1.1941 -0.8505  0.8804
 2609SOL     OW19288   0.366   3.410  15.372 -0.1606  0.0810 -0.4132
 2609SOL    HW119289   0.446   3.462  15.381 -0.4855  0.8238 -1.7650
 2609SOL    HW219290   0.386   3.334  15.318 -0.1759 -0.6973  0.6828
 2610SOL     OW19291   3.563   1.399   4.340 -0.4125  0.0314  0.1428
 2610SOL    HW119292   3.647   1.392   4.295  0.2635  0.9489  1.2620
 2610SOL    HW219293   3.578   1.480   4.389  0.3897  0.4420 -0.7835
 2611SOL     OW19294   4.634   1.202   5.365 -0.1503 -0.1007 -0.6682
 2611SOL    HW119295   4.590   1.118   5.380 -0.8572 -0.0827 -2.6737
 2611SOL    HW219296   4.568   1.264   5.333 -0.8961 -0.8487 -0.5827
 2612SOL     OW19297   4.180   2.250   1.666 -0.0338 -0.0005 -0.1743
 2612SOL    HW119298   4.089   2.274   1.684  0.2209  0.9477 -0.1601
 2612SOL    HW219299   4.162   2.160   1.637  1.4347  0.4473 -2.4625
 2613SOL     OW19300   4.717   3.362  11.409  0.5731 -0.2039  0.6369
 2613SOL    HW119301   4.701   3.278  11.368  2.8015  0.2185 -1.1194
 2613SOL    HW219302   4.647   3.413  11.368  0.6641 -0.5630  0.0408
 2614SOL     OW19303   1.028   3.874   3.441  0.0880  0.7795  0.4054
 2614SOL    HW119304   1.086   3.808   3.402  1.6119  2.4203 -0.0971
 2614SOL    HW219305   1.042   3.864   3.535  0.6027 -0.2852  0.2156
 2615SOL     OW19306   1.845   0.106   0.631 -0.2336  0.3113 -0.3990
 2615SOL    HW119307   1.833   0.196   0.661  0.5845 -0.9057  3.5935
 2615SOL    HW219308   1.936   0.099   0.660 -1.0575 -0.6321  1.9601
 2616SOL     OW19309   0.081   2.550   2.177  0.7365  0.0488  0.2879
 2616SOL    HW119310   0.095   2.645   2.180  0.5847  0.0191  2.0758
 2616SOL    HW219311   4.718   2.539   2.221 -0.3211 -0.9496 -2.0502
 2617SOL     OW19312   4.657   0.911  15.339  0.2829  0.0309  0.0911
 2617SOL    HW119313   4.572   0.950  15.358  1.7095  1.2958  3.9489
 2617SOL    HW219314   4.649   0.865  15.256 -1.1457 -2.7526  1.7843
 2618SOL     OW19315   3.918   3.784   0.828 -0.0092  1.0954 -0.1644
 2618SOL    HW119316   3.965   3.845   0.883  2.2099 -1.2803  0.5814
 2618SOL    HW219317   3.947   3.822   0.745 -0.5865  2.4261  0.2442
 2619SOL     OW19318   3.900   4.452  12.832  0.2306  0.2787  0.4446
 2619SOL    HW119319   3.820   4.441  12.780  0.2097  0.1797  0.4993
 2619SOL    HW219320   3.892   4.547  12.846  1.0092  0.2137  1.3085
 2620SOL     OW19321   2.522   1.841   7.026 -0.0125  0.2005 -0.1952
 2620SOL    HW119322   2.469   1.770   6.989 -0.2904 -0.0630  0.6933
 2620SOL    HW219323   2.603   1.795   7.049  0.5457  1.4719  0.3496
 2621SOL     OW19324   3.157   2.331  14.214 -0.7231 -0.1678  0.1927
 2621SOL    HW119325   3.241   2.363  14.180 -0.1669 -1.9255 -0.0648
 2621SOL    HW219326   3.142   2.266  14.146 -1.1806  0.5514 -0.3885
 2622SOL     OW19327   4.705   4.061   3.147 -0.0941  0.5248  0.1763
 2622SOL    HW119328   4.634   4.109   3.190 -2.2793 -2.8639  0.3664
 2622SOL    HW219329   0.050   4.125   3.119  0.9160  0.5175  2.5529
 2623SOL     OW19330   0.823   0.647   0.686  0.0854 -0.2273  0.3095
 2623SOL    HW119331   0.800   0.556   0.669  0.8881  0.1269 -2.8186
 2623SOL    HW219332   0.750   0.671   0.743 -0.0845 -1.6153  0.6732
 2624SOL     OW19333   0.388   0.200   6.842  0.5687  0.0911 -0.2857
 2624SOL    HW119334   0.398   0.235   6.931  2.1892 -2.0108  0.3608
 2624SOL    HW219335   0.412   0.282   6.799 -0.6774  0.0444 -1.0473
 2625SOL     OW19336   3.629   2.044  13.447 -0.2223 -0.1359 -0.4141
 2625SOL    HW119337   3.627   1.950  13.462 -0.1045 -0.0756 -0.0001
 2625SOL    HW219338   3.574   2.065  13.523  0.8734  2.4215 -0.3151
 2626SOL     OW19339   3.626   2.280   8.511 -0.0189  0.6418  0.0301
 2626SOL    HW119340   3.566   2.207   8.525  1.5564 -0.4935  0.8820
 2626SOL    HW219341   3.619   2.282   8.415  2.5894  1.8694 -0.1351
 2627SOL     OW19342   2.915   1.835  14.666  0.0540 -0.1803  0.8418
 2627SOL    HW119343   2.964   1.756  14.688 -0.8028 -0.1572  2.9190
 2627SOL    HW219344   2.939   1.838  14.574  1.7456  0.6879  1.3205
 2628SOL     OW19345   0.072   4.431   6.980 -0.0031 -0.1300  0.4039
 2628SOL    HW119346   0.019   4.421   6.901 -0.5374  1.1457  0.6133
 2628SOL    HW219347   0.160   4.402   6.959 -0.0867  0.8334 -1.2341
 2629SOL     OW19348   1.366   3.483   7.347  0.3163  0.2721 -0.0253
 2629SOL    HW119349   1.290   3.525   7.387  0.6824  2.3835 -1.5838
 2629SOL    HW219350   1.406   3.445   7.426  4.0135  1.7211 -1.2007
 2630SOL     OW19351   0.694   1.438   0.880  0.2551 -0.3685 -0.6207
 2630SOL    HW119352   0.771   1.469   0.831  0.8323  0.4845  0.8369
 2630SOL    HW219353   0.721   1.457   0.970 -1.3879  0.3692 -0.2764
 2631SOL     OW19354   2.336   0.372  13.119  0.2566 -0.0625  0.4592
 2631SOL    HW119355   2.373   0.327  13.195  1.6736  0.3793  0.0306
 2631SOL    HW219356   2.323   0.459  13.157 -2.0314 -0.3115  0.2547
 2632SOL     OW19357   0.388   3.029   8.326 -0.7183 -0.0696  0.0230
 2632SOL    HW119358   0.329   3.004   8.255  1.3466 -2.1439 -0.9581
 2632SOL    HW219359   0.324   3.090   8.364 -3.2727 -2.2393 -0.7711
 2633SOL     OW19360   3.542   1.537   7.390 -0.3456  0.4491  0.3187
 2633SOL    HW119361   3.563   1.446   7.372 -2.0466  0.2415 -0.6025
 2633SOL    HW219362   3.483   1.533   7.465 -1.0080  1.7255 -0.1304
 2634SOL     OW19363   3.234   4.251   7.935  0.5179  0.1693 -0.0266
 2634SOL    HW119364   3.307   4.209   7.980  0.2817 -0.5778 -0.3491
 2634SOL    HW219365   3.209   4.182   7.874 -0.3120  1.2939 -0.9672
 2635SOL     OW19366   2.864   2.772   7.434 -0.5768  0.5599 -0.0946
 2635SOL    HW119367   2.875   2.867   7.440  2.7350  0.0904  0.8098
 2635SOL    HW219368   2.900   2.764   7.523 -2.8130 -3.0340  0.5097
 2636SOL     OW19369   2.598   0.812   7.559 -0.4318 -0.0514 -0.0444
 2636SOL    HW119370   2.567   0.900   7.538 -0.2986 -0.4596 -1.9417
 2636SOL    HW219371   2.634   0.787   7.474  2.1279  1.6804  0.5605
 2637SOL     OW19372   2.321   2.079   8.440 -0.2833  0.1091 -0.3890
 2637SOL    HW119373   2.400   2.118   8.404  0.9273 -1.0493  1.0256
 2637SOL    HW219374   2.249   2.143   8.433 -1.0902 -0.3666  3.2369
 2638SOL     OW19375   0.725   2.578  14.355  0.3751 -0.1705  0.5135
 2638SOL    HW119376   0.774   2.512  14.306 -0.4779  0.9608 -1.8568
 2638SOL    HW219377   0.792   2.636  14.391 -0.2609  1.3532 -0.8054
 2639SOL     OW19378   4.618   2.694   4.507 -0.1603  0.3824  0.1953
 2639SOL    HW119379   4.609   2.773   4.454  0.1887 -0.2200 -0.7659
 2639SOL    HW219380   4.704   2.691   4.548  0.8011 -0.7154 -1.9051
 2640SOL     OW19381   3.704   3.404   4.245  0.2466 -0.2080 -0.2643
 2640SOL    HW119382   3.798   3.415   4.251  0.2184 -0.6253  0.9631
 2640SOL    HW219383   3.684   3.436   4.157 -3.4268 -0.9273  0.2963
 2641SOL     OW19384   1.672   1.274   2.366  0.0478  0.5129 -0.3364
 2641SOL    HW119385   1.741   1.287   2.431 -1.0356  0.3806  0.8231
 2641SOL    HW219386   1.677   1.349   2.306 -1.1411 -0.4524 -1.6401
 2642SOL     OW19387   2.068   2.002   8.620 -0.1287  0.2900 -0.1486
 2642SOL    HW119388   2.054   2.053   8.700  2.8086  1.3626 -0.3224
 2642SOL    HW219389   2.003   1.937   8.647  0.1893  1.1544  2.6981
 2643SOL     OW19390   2.116   2.390   7.871 -0.1207 -0.1892 -0.5633
 2643SOL    HW119391   2.103   2.466   7.928 -0.2213  0.3419 -1.2921
 2643SOL    HW219392   2.104   2.431   7.785 -0.9492  1.6836  0.4337
 2644SOL     OW19393   0.132   2.367   3.987  0.0921 -0.3988  0.4566
 2644SOL    HW119394   0.205   2.321   4.029 -0.2683 -2.6769 -1.3447
 2644SOL    HW219395   0.063   2.301   3.983 -0.2202 -0.1622  2.0441
 2645SOL     OW19396   3.329   3.177   7.590 -0.5353 -0.2638 -0.1064
 2645SOL    HW119397   3.259   3.156   7.528 -0.5369 -2.2998  0.6024
 2645SOL    HW219398   3.281   3.228   7.656 -0.8807  2.4029 -2.4016
 2646SOL     OW19399   0.381   3.572   5.832 -0.3396 -0.6973  0.1327
 2646SOL    HW119400   0.399   3.627   5.757  2.0838 -1.6150  0.0622
 2646SOL    HW219401   0.289   3.594   5.846 -0.0027 -0.2445  1.6787
 2647SOL     OW19402   4.199   0.673   8.974 -0.2004  0.2264  0.6001
 2647SOL    HW119403   4.166   0.717   8.895 -0.5385  1.6486  1.5400
 2647SOL    HW219404   4.292   0.696   8.969  0.4220 -2.1550  1.3212
 2648SOL     OW19405   1.769   2.958   3.473  0.6568 -0.2465  0.1142
 2648SOL    HW119406   1.678   2.932   3.489  0.5353 -0.2821 -0.5952
 2648SOL    HW219407   1.775   3.041   3.520  2.6699 -0.0671 -0.4475
 2649SOL     OW19408   3.064   4.721   4.497  0.3476 -0.0065 -0.6085
 2649SOL    HW119409   2.994   0.032   4.554 -0.9852 -0.0347 -2.2161
 2649SOL    HW219410   3.133   4.713   4.563 -2.4917  1.6592  2.5466
 2650SOL     OW19411   0.526   4.234   5.148  0.0765 -0.4651 -0.9370
 2650SOL    HW119412   0.493   4.146   5.167 -0.8147 -0.6458 -3.3232
 2650SOL    HW219413   0.471   4.257   5.073 -0.4404  1.4276  0.0360
 2651SOL     OW19414   3.554   4.366   3.617  0.1486  0.2057 -0.3550
 2651SOL    HW119415   3.625   4.378   3.555  0.5793  1.5650  0.3951
 2651SOL    HW219416   3.475   4.359   3.564 -0.7996  2.0472  0.7884
 2652SOL     OW19417   0.103   2.096   1.552 -0.4795 -0.6686  0.3591
 2652SOL    HW119418   0.074   2.020   1.500  1.3675  1.1235 -3.2985
 2652SOL    HW219419   0.034   2.154   1.521  1.9815  1.2947 -1.4139
 2653SOL     OW19420   0.454   1.565   2.039 -0.0378  0.0278  0.2098
 2653SOL    HW119421   0.497   1.610   2.112 -1.0857 -0.4942  1.1632
 2653SOL    HW219422   0.501   1.482   2.047 -0.0707  0.1221  1.4058
 2654SOL     OW19423   4.405   3.784  12.292  0.0429  0.5308 -0.2765
 2654SOL    HW119424   4.476   3.775  12.355 -1.2501 -1.4944  0.8808
 2654SOL    HW219425   4.422   3.873  12.261  0.5381  0.8260  0.8553
 2655SOL     OW19426   3.619   4.596   8.476 -0.3779 -0.0237  0.1680
 2655SOL    HW119427   3.635   4.560   8.563  1.3492 -0.9049 -0.5195
 2655SOL    HW219428   3.654   4.526   8.421 -3.5885 -1.7358  0.3171
 2656SOL     OW19429   3.590   0.951  17.361  0.0453 -0.7979  0.5577
 2656SOL    HW119430   3.571   0.966  17.269  2.5298 -0.7731  0.0689
 2656SOL    HW219431   3.562   0.862  17.382 -1.1455 -1.1346 -2.4819
 2657SOL     OW19432   3.424   1.923   7.957  0.1039 -0.2342 -0.0316
 2657SOL    HW119433   3.382   1.901   8.040  1.2677 -0.4894  0.4868
 2657SOL    HW219434   3.488   1.855   7.935 -1.0479 -1.6085  0.8916
 2658SOL     OW19435   2.092   0.145   4.304  0.7392  0.0593  0.2037
 2658SOL    HW119436   2.153   0.214   4.277  0.2037  0.0626 -0.9857
 2658SOL    HW219437   2.034   0.199   4.356  1.1782  0.8112 -0.0847
 2659SOL     OW19438   2.062   1.768  13.390 -0.4207  0.3092 -0.1477
 2659SOL    HW119439   2.039   1.687  13.344  0.8059  0.5493 -1.1640
 2659SOL    HW219440   2.020   1.749  13.474  1.3715 -1.5024  0.3423
 2660SOL     OW19441   1.890   0.754   9.021  0.1776  0.2069  0.4883
 2660SOL    HW119442   1.952   0.702   9.072  0.1191  2.1174  2.5264
 2660SOL    HW219443   1.819   0.764   9.085 -1.8098  2.6347 -2.1174
 2661SOL     OW19444   2.569   2.192   8.378 -0.4344 -0.0977  0.4635
 2661SOL    HW119445   2.664   2.197   8.392 -0.3951  0.5012 -0.0280
 2661SOL    HW219446   2.527   2.263   8.426 -0.5926 -0.6909  1.2091
 2662SOL     OW19447   3.975   3.009  14.233  0.0983  0.2610  0.0515
 2662SOL    HW119448   4.019   3.073  14.177 -0.0344  1.2226  1.0619
 2662SOL    HW219449   3.904   2.979  14.176 -1.1931  1.1072  1.2071
 2663SOL     OW19450   2.363   0.148   1.845  0.0291  0.0361 -0.2455
 2663SOL    HW119451   2.274   0.161   1.813  0.2650 -0.9046 -1.2574
 2663SOL    HW219452   2.392   0.238   1.862 -3.0035  0.7701  1.1138
 2664SOL     OW19453   4.331   3.725  16.992 -0.4473  0.1874 -0.7231
 2664SOL    HW119454   4.423   3.742  17.012 -0.6746 -0.5476  0.9228
 2664SOL    HW219455   4.310   3.665  17.064  2.6501 -1.8747 -1.5141
 2665SOL     OW19456   2.200   3.972   6.539 -1.0186  0.6183 -0.1596
 2665SOL    HW119457   2.179   3.949   6.448 -0.6301 -0.7235  0.0912
 2665SOL    HW219458   2.225   4.063   6.519  1.4205 -0.3303 -1.3957
 2666SOL     OW19459   2.295   3.443  13.475  0.4621 -0.0159 -0.1912
 2666SOL    HW119460   2.291   3.348  13.484  0.8649  0.0648  0.7963
 2666SOL    HW219461   2.224   3.462  13.414 -0.8487 -1.8560  0.7832
 2667SOL     OW19462   1.983   3.396  15.980 -0.5133  0.2687  0.0596
 2667SOL    HW119463   1.957   3.464  15.918  1.0253 -1.1684 -2.1688
 2667SOL    HW219464   1.991   3.451  16.058 -0.8749  1.1784 -0.5410
 2668SOL     OW19465   1.247   1.744   0.660 -0.1765 -0.4277  0.1914
 2668SOL    HW119466   1.311   1.816   0.660 -0.7134  0.0587 -1.3301
 2668SOL    HW219467   1.321   1.684   0.664  1.0924  1.2077  1.2379
 2669SOL     OW19468   4.187   3.624   2.781 -0.7512  0.1471  0.8234
 2669SOL    HW119469   4.168   3.615   2.874 -1.8782  0.8828  0.6607
 2669SOL    HW219470   4.279   3.651   2.779 -1.1404  1.3050 -1.2477
 2670SOL     OW19471   3.676   3.517   8.367 -0.4084 -0.0897  0.0299
 2670SOL    HW119472   3.663   3.427   8.339  0.7998 -0.7915  1.7778
 2670SOL    HW219473   3.721   3.492   8.448  0.0957 -1.6640 -0.7421
 2671SOL     OW19474   0.832   4.634   9.162  0.3227  0.1292 -0.1897
 2671SOL    HW119475   0.738   4.652   9.152  0.9669  3.4566 -0.3413
 2671SOL    HW219476   0.863   4.651   9.073  0.0976 -0.6830 -0.4175
 2672SOL     OW19477   0.595   3.038  14.159  0.4157  0.0635  0.0104
 2672SOL    HW119478   0.598   2.946  14.132  1.0453  0.3874 -1.0234
 2672SOL    HW219479   0.584   3.037  14.254 -1.9117  0.5454 -0.2544
 2673SOL     OW19480   4.636   2.788   0.516  0.4014  0.1141 -0.8185
 2673SOL    HW119481   4.665   2.835   0.438  0.3475  0.6817 -0.4956
 2673SOL    HW219482   4.590   2.856   0.565 -0.3160 -0.0066 -1.3208
 2674SOL     OW19483   2.934   3.025   7.476  0.0593 -0.0630  0.2791
 2674SOL    HW119484   2.896   3.109   7.500  0.9037  0.7050 -1.0747
 2674SOL    HW219485   3.011   3.021   7.532  0.3134  0.5528 -0.0353
 2675SOL     OW19486   1.202   0.707   8.775 -0.4779 -0.1908  0.5279
 2675SOL    HW119487   1.284   0.690   8.822  1.7120  0.0514 -3.2611
 2675SOL    HW219488   1.217   0.637   8.712  2.4331  0.1452  0.8511
 2676SOL     OW19489   4.224   0.933   8.743 -0.1498  0.4040 -0.4159
 2676SOL    HW119490   4.129   0.922   8.754  0.1903 -1.0896  1.1888
 2676SOL    HW219491   4.235   0.951   8.650  0.5055  0.3470 -0.3499
 2677SOL     OW19492   3.807   1.427   4.194 -0.6834 -0.1368 -0.7631
 2677SOL    HW119493   3.825   1.512   4.155 -0.5783  0.3439  0.3328
 2677SOL    HW219494   3.774   1.378   4.119  0.2193 -1.6382 -0.1969
 2678SOL     OW19495   3.304   1.536   1.641  0.2242  0.1148 -0.1283
 2678SOL    HW119496   3.275   1.466   1.583  1.4308  0.6304 -1.3477
 2678SOL    HW219497   3.221   1.579   1.661 -0.3508 -0.9010 -0.3588
 2679SOL     OW19498   1.894   1.653   6.550  0.6391  0.3908  0.0171
 2679SOL    HW119499   1.911   1.564   6.519  1.5750  0.2942  0.7939
 2679SOL    HW219500   1.945   1.652   6.631 -0.3825 -0.4307  0.6502
 2680SOL     OW19501   0.434   1.932   7.626  0.5404 -0.2062 -0.3532
 2680SOL    HW119502   0.506   1.980   7.667  1.7607 -2.3207  0.0068
 2680SOL    HW219503   0.433   1.859   7.688  0.5282 -1.7221 -2.1437
 2681SOL     OW19504   1.188   3.870   7.606  0.1498 -0.1124 -0.0612
 2681SOL    HW119505   1.180   3.776   7.622 -0.4649  0.1339  1.0437
 2681SOL    HW219506   1.233   3.867   7.522 -1.2468 -0.5691 -0.7902
 2682SOL     OW19507   0.023   1.622   2.792  0.3001 -0.3828  0.0962
 2682SOL    HW119508   4.649   1.621   2.796  0.2137 -1.1714 -2.2731
 2682SOL    HW219509   0.044   1.704   2.836 -2.0209 -0.1542  0.7650
 2683SOL     OW19510   3.092   0.774   5.444  0.5291 -0.6160 -0.3831
 2683SOL    HW119511   3.020   0.826   5.410 -0.3175 -0.8986  0.9894
 2683SOL    HW219512   3.120   0.708   5.380 -0.5555 -0.6851 -0.7765
 2684SOL     OW19513   0.445   1.841  14.315  0.1442 -0.0544 -0.5238
 2684SOL    HW119514   0.389   1.800  14.381  1.4934 -4.9056 -2.3605
 2684SOL    HW219515   0.507   1.896  14.363 -0.5061  0.1671  0.0583
 2685SOL     OW19516   2.627   1.785  11.892  0.3762 -0.2555  0.0982
 2685SOL    HW119517   2.692   1.855  11.898  0.7764 -0.3670 -3.0554
 2685SOL    HW219518   2.567   1.834  11.836  1.8913  0.3575 -0.9725
 2686SOL     OW19519   0.130   2.351   6.759 -0.2704  0.7940 -0.0426
 2686SOL    HW119520   0.149   2.262   6.728 -2.3446  0.5509 -0.5892
 2686SOL    HW219521   0.212   2.366   6.807 -0.0762 -0.5089  0.0552
 2687SOL     OW19522   2.366   4.008  16.002  0.0723 -0.0080  0.1626
 2687SOL    HW119523   2.359   3.953  15.924  2.2805 -1.4899  1.0282
 2687SOL    HW219524   2.428   4.074  15.972 -0.5666 -0.2223 -1.6238
 2688SOL     OW19525   1.745   0.014   7.013  0.4722  0.0531 -0.3149
 2688SOL    HW119526   1.757   4.652   7.058  0.5717 -0.2753 -0.9491
 2688SOL    HW219527   1.712   0.063   7.088  0.3885 -2.3382  1.1724
 2689SOL     OW19528   1.718   4.279  16.695  0.3764  0.1320 -0.4899
 2689SOL    HW119529   1.659   4.343  16.734  0.9566 -0.7909  1.9431
 2689SOL    HW219530   1.797   4.332  16.682 -0.4769  1.4510 -0.3304
 2690SOL     OW19531   2.135   4.303  14.725 -0.1001  0.6440  0.2863
 2690SOL    HW119532   2.171   4.225  14.682  0.0242  0.3699  0.8976
 2690SOL    HW219533   2.217   4.351  14.735  0.0391  0.6440 -0.8422
 2691SOL     OW19534   3.003   1.768   3.749 -0.0815  0.2075  0.1881
 2691SOL    HW119535   2.958   1.850   3.768  0.5656  0.1828  1.7886
 2691SOL    HW219536   3.071   1.771   3.816  1.3213  2.9486 -1.3829
 2692SOL     OW19537   1.450   1.317   7.656 -1.0806 -0.3224 -0.9410
 2692SOL    HW119538   1.373   1.337   7.603 -0.9910  1.1746 -0.4790
 2692SOL    HW219539   1.485   1.250   7.596 -1.6906 -1.5554  0.0755
 2693SOL     OW19540   3.870   0.941   7.988 -0.3372 -0.4861 -0.4757
 2693SOL    HW119541   3.797   0.879   7.988 -1.7362  1.1695 -1.4819
 2693SOL    HW219542   3.942   0.881   8.008 -0.6757 -0.7053  0.0935
 2694SOL     OW19543   3.867   1.925   6.364 -0.4599  0.1960  0.4541
 2694SOL    HW119544   3.921   1.853   6.399  1.9385  1.0953 -1.4413
 2694SOL    HW219545   3.860   1.967   6.450  1.0944  1.4948 -0.0471
 2695SOL     OW19546   2.619   1.146   7.153  0.8377  0.1107  0.0110
 2695SOL    HW119547   2.533   1.137   7.194  0.8410 -0.0088 -0.0076
 2695SOL    HW219548   2.652   1.235   7.166 -0.6283  0.2583  2.8125
 2696SOL     OW19549   1.966   1.936   6.916 -0.0276 -0.8565 -0.3321
 2696SOL    HW119550   1.955   1.908   7.007 -4.1785  2.2100  0.0905
 2696SOL    HW219551   1.904   1.875   6.875 -2.0222  0.9308  0.0451
 2697SOL     OW19552   2.504   1.923   6.433  0.0438  0.1694 -0.6501
 2697SOL    HW119553   2.477   1.932   6.524 -1.9333 -1.7718 -1.0334
 2697SOL    HW219554   2.525   2.012   6.405  2.2475 -0.2918 -0.4773
 2698SOL     OW19555   3.687   2.835   7.831  0.4845 -0.1681 -0.2390
 2698SOL    HW119556   3.764   2.863   7.782 -0.5023  1.6962 -0.7340
 2698SOL    HW219557   3.720   2.854   7.919 -0.6691 -1.6805  0.5209
 2699SOL     OW19558   0.051   4.582   7.318 -0.2853  0.1460 -0.4531
 2699SOL    HW119559   0.085   4.654   7.265 -0.0028  0.3155 -0.0398
 2699SOL    HW219560   4.690   4.619   7.349 -0.2756  0.1618 -0.4457
 2700SOL     OW19561   0.470   1.827  16.210  0.2924 -0.0769  0.5275
 2700SOL    HW119562   0.440   1.775  16.135  1.2796 -0.9740  0.7572
 2700SOL    HW219563   0.473   1.769  16.286  0.2903 -2.3632 -1.2032
 2701SOL     OW19564   4.535   3.676  12.503 -0.3268 -0.6695  0.4181
 2701SOL    HW119565   4.582   3.734  12.563 -0.6621 -0.1969  0.2237
 2701SOL    HW219566   4.478   3.633  12.567 -0.0446  0.7652  1.6398
 2702SOL     OW19567   0.707   0.035   0.397  0.1204 -0.6517 -0.2880
 2702SOL    HW119568   0.733   0.086   0.474  1.6733 -1.0137 -0.5700
 2702SOL    HW219569   0.632   0.088   0.370 -0.0055 -0.3441  0.6650
 2703SOL     OW19570   1.935   3.779  15.699 -0.3437  0.4959 -0.7989
 2703SOL    HW119571   1.916   3.859  15.748 -0.0751 -0.5532  1.0415
 2703SOL    HW219572   1.939   3.814  15.611  1.1177  0.2636 -0.8327
 2704SOL     OW19573   4.527   4.471   1.228 -0.4914 -0.5031 -0.2676
 2704SOL    HW119574   4.561   4.389   1.191  0.4754 -0.2249 -0.0095
 2704SOL    HW219575   4.593   4.496   1.293  1.0356 -0.7621 -1.7227
 2705SOL     OW19576   1.210   4.235   8.075  0.0425  0.8767  0.2729
 2705SOL    HW119577   1.264   4.187   8.013  1.9744  0.4982  2.2547
 2705SOL    HW219578   1.252   4.321   8.079 -0.3304  1.0628  0.2072
 2706SOL     OW19579   2.371   1.850   3.246  0.0132 -0.9301  0.4419
 2706SOL    HW119580   2.363   1.766   3.292  1.0876 -1.7390 -0.8315
 2706SOL    HW219581   2.300   1.838   3.183 -1.6795  2.9668  1.6430
 2707SOL     OW19582   1.167   3.349   8.226 -0.2463  0.7778  0.7204
 2707SOL    HW119583   1.135   3.267   8.265  0.5623  0.7904  1.3976
 2707SOL    HW219584   1.228   3.320   8.160  0.7826  0.5880  1.7585
 2708SOL     OW19585   3.025   0.739  16.599 -0.2627  0.9532  0.6580
 2708SOL    HW119586   3.093   0.681  16.634 -1.4544 -1.3632 -0.8388
 2708SOL    HW219587   2.951   0.678  16.602 -0.0080  0.7010  1.9782
 2709SOL     OW19588   3.525   0.777  10.297  0.3175  0.2563  0.2349
 2709SOL    HW119589   3.475   0.786  10.378 -1.2311 -2.4700 -0.4265
 2709SOL    HW219590   3.560   0.865  10.292 -0.4502  0.4279 -1.8214
 2710SOL     OW19591   2.118   2.974   9.636 -0.8748  0.1026  0.2555
 2710SOL    HW119592   2.062   2.928   9.573 -0.9681  0.7938 -0.1656
 2710SOL    HW219593   2.153   2.893   9.672  1.9858  1.4441  0.4718
 2711SOL     OW19594   3.352   3.853  10.759 -0.4645 -0.1495 -0.4552
 2711SOL    HW119595   3.391   3.804  10.686  0.0798 -0.7268  0.2340
 2711SOL    HW219596   3.268   3.860  10.713 -0.3485 -0.7084 -0.7630
 2712SOL     OW19597   4.009   3.766   2.624  0.2048 -0.2390  0.2192
 2712SOL    HW119598   4.051   3.690   2.664 -1.3183 -0.8472  0.6501
 2712SOL    HW219599   4.053   3.834   2.675  1.2060 -0.8106  0.1195
 2713SOL     OW19600   2.265   3.890  12.849  0.8804 -0.1561 -0.1167
 2713SOL    HW119601   2.223   3.862  12.768  0.5046 -2.8371  1.0179
 2713SOL    HW219602   2.248   3.810  12.899 -0.8678  0.0502 -0.3977
 2714SOL     OW19603   0.975   1.523   7.241 -0.3453  0.0970 -0.2872
 2714SOL    HW119604   0.891   1.508   7.197 -1.1009  0.9278  0.8728
 2714SOL    HW219605   0.946   1.566   7.321  0.9048 -2.3228  1.4276
 2715SOL     OW19606   0.882   4.215   8.897  0.5268 -0.3348  0.3509
 2715SOL    HW119607   0.818   4.148   8.875 -1.3952  1.2481  1.2055
 2715SOL    HW219608   0.940   4.201   8.822  0.4156 -0.5815  0.3082
 2716SOL     OW19609   0.980   1.439  15.712 -0.3610  0.4646 -0.2553
 2716SOL    HW119610   1.004   1.528  15.687  0.2677  0.1482 -0.7874
 2716SOL    HW219611   0.980   1.402  15.623  0.8495  0.7752 -0.3730
 2717SOL     OW19612   4.614   1.564   8.741 -0.8832  0.4788  0.1266
 2717SOL    HW119613   4.540   1.621   8.762 -2.1939 -1.6792  1.4199
 2717SOL    HW219614   4.620   1.576   8.647 -0.1914  3.8024  0.6045
 2718SOL     OW19615   1.536   2.534   4.276 -0.1282  0.2689 -0.1862
 2718SOL    HW119616   1.613   2.537   4.219  0.1414  0.5143  0.1844
 2718SOL    HW219617   1.539   2.440   4.288  0.9122  0.5454  1.7822
 2719SOL     OW19618   0.191   2.520   7.657  0.5262  0.4213  0.5031
 2719SOL    HW119619   0.258   2.494   7.721 -0.6743  0.6876  1.8660
 2719SOL    HW219620   0.237   2.558   7.582 -1.1823 -0.6646 -1.0969
 2720SOL     OW19621   2.155   0.087   3.881  0.0363 -0.1873 -0.0391
 2720SOL    HW119622   2.087   0.146   3.913 -0.0147 -1.1504  1.6480
 2720SOL    HW219623   2.109   0.061   3.801 -1.3826  0.3327  0.6121
 2721SOL     OW19624   2.622   2.127  14.334 -0.0831  0.2611 -0.5542
 2721SOL    HW119625   2.574   2.098  14.412 -0.0915  0.3868 -0.5129
 2721SOL    HW219626   2.613   2.046  14.284 -0.3662  0.1078 -0.2497
 2722SOL     OW19627   3.438   2.874  10.863  0.1125  0.6907  0.5081
 2722SOL    HW119628   3.419   2.789  10.902  0.7136  0.2019 -0.2722
 2722SOL    HW219629   3.400   2.933  10.928 -1.3846  1.4938 -1.0774
 2723SOL     OW19630   2.797   2.782  10.631 -0.2509  0.5819 -0.0245
 2723SOL    HW119631   2.773   2.690  10.633  0.0836  0.4967  0.0397
 2723SOL    HW219632   2.887   2.777  10.663 -1.2044 -3.2775  2.0184
 2724SOL     OW19633   1.893   3.172  14.300 -0.3790  0.5664  0.2151
 2724SOL    HW119634   1.898   3.095  14.355  1.9146  2.1208  2.1765
 2724SOL    HW219635   1.884   3.132  14.213 -0.6642  1.0702  0.0119
 2725SOL     OW19636   3.348   1.181   5.169 -0.0368 -0.3740  0.0449
 2725SOL    HW119637   3.417   1.114   5.166  0.9435  0.6377  0.0846
 2725SOL    HW219638   3.271   1.131   5.141 -0.3032  0.5794 -0.8910
 2726SOL     OW19639   4.506   2.437   4.403 -0.0019 -0.0975 -0.0146
 2726SOL    HW119640   4.484   2.524   4.436  1.0763 -0.3047  1.2673
 2726SOL    HW219641   4.599   2.417   4.413 -0.3807 -1.2045  1.4027
 2727SOL     OW19642   1.581   3.934  10.017  0.2088  0.8540 -0.8310
 2727SOL    HW119643   1.576   3.859   9.957  1.4406  1.0330 -1.1563
 2727SOL    HW219644   1.489   3.961  10.012  0.0080  0.4431  0.9756
 2728SOL     OW19645   4.526   2.707  11.871 -0.2926 -0.0034  0.5121
 2728SOL    HW119646   4.564   2.669  11.950  1.0001 -0.3666 -0.2933
 2728SOL    HW219647   4.534   2.629  11.816  1.3195  1.1787 -0.9553
 2729SOL     OW19648   4.001   3.535   0.878  0.2846 -0.3449  0.0045
 2729SOL    HW119649   3.950   3.522   0.957  0.3534  0.4428  0.1746
 2729SOL    HW219650   3.973   3.624   0.856 -0.0786  0.0278  2.0413
 2730SOL     OW19651   1.398   4.488   4.927  0.0181  0.1059 -0.1774
 2730SOL    HW119652   1.308   4.477   4.958 -0.0550  1.8957  0.2825
 2730SOL    HW219653   1.408   4.582   4.944 -2.6333  0.1565  1.0719
 2731SOL     OW19654   0.939   4.095   0.128  0.3483  0.5205 -0.0489
 2731SOL    HW119655   0.913   4.090   0.220  1.0795  1.6191  0.2166
 2731SOL    HW219656   0.856   4.129   0.096 -0.1540 -2.6361 -2.1282
 2732SOL     OW19657   1.582   2.324   9.184  0.1734  0.1797  0.3395
 2732SOL    HW119658   1.663   2.310   9.233  0.6619  1.4491 -0.1013
 2732SOL    HW219659   1.580   2.258   9.115  1.9209  1.9959 -1.4609
 2733SOL     OW19660   3.188   1.247   2.903 -0.3083  0.1584  0.4937
 2733SOL    HW119661   3.105   1.271   2.862 -0.6759  1.0095  1.7152
 2733SOL    HW219662   3.162   1.161   2.935 -1.8223 -0.0576 -1.2861
 2734SOL     OW19663   2.018   0.059   0.145  0.2694 -0.2926  0.3458
 2734SOL    HW119664   2.012   0.017   0.059 -0.9618 -1.8326  1.1676
 2734SOL    HW219665   1.956   0.132   0.140 -0.9933 -1.2316  2.3729
 2735SOL     OW19666   0.843   0.650   3.110 -0.0994  0.0886 -0.0143
 2735SOL    HW119667   0.842   0.568   3.060 -1.2770  0.7734 -1.1133
 2735SOL    HW219668   0.913   0.635   3.174 -1.9368  0.8202  2.1672
 2736SOL     OW19669   0.999   2.385  12.522 -0.2997  0.3824 -0.0420
 2736SOL    HW119670   0.959   2.407  12.605 -0.5716  0.4598 -0.1952
 2736SOL    HW219671   0.989   2.290  12.516  0.0382  0.4181 -1.4251
 2737SOL     OW19672   0.823   3.499   4.602  0.5112 -0.0950  0.3342
 2737SOL    HW119673   0.768   3.434   4.559  1.4226  1.4084 -3.0977
 2737SOL    HW219674   0.884   3.448   4.657  1.7099  0.5269 -0.4345
 2738SOL     OW19675   0.527   0.718   7.245  0.1149  0.4303  0.2676
 2738SOL    HW119676   0.605   0.679   7.284  0.4980 -0.7048 -1.6333
 2738SOL    HW219677   0.565   0.784   7.187 -0.5203  0.5356 -0.0321
 2739SOL     OW19678   3.391   1.447   0.695 -0.5201 -0.0174  0.3321
 2739SOL    HW119679   3.398   1.403   0.779 -0.6174  2.1718  1.4787
 2739SOL    HW219680   3.349   1.382   0.638  1.0442  1.8356 -2.9557
 2740SOL     OW19681   2.908   4.083   9.927  0.2214  0.0717  0.6416
 2740SOL    HW119682   2.880   4.174   9.923 -2.2218 -0.6613  0.7161
 2740SOL    HW219683   2.840   4.044   9.982 -0.9502  0.8250 -0.2784
 2741SOL     OW19684   4.557   0.853   5.269  0.1510  0.7442  0.0140
 2741SOL    HW119685   4.528   0.888   5.354 -1.3710 -1.3143  0.3421
 2741SOL    HW219686   4.510   0.909   5.208 -0.4183  0.1446 -0.0933
 2742SOL     OW19687   3.975   3.481   6.385 -0.4300  0.2683 -0.3352
 2742SOL    HW119688   3.969   3.412   6.318  0.3076 -0.9244  0.8322
 2742SOL    HW219689   4.062   3.470   6.423 -0.4505  1.6573  0.0803
 2743SOL     OW19690   4.158   2.412   0.661  0.4314  0.1507 -0.0442
 2743SOL    HW119691   4.092   2.446   0.601  2.7347  2.7936 -1.1240
 2743SOL    HW219692   4.187   2.337   0.609  1.0834  2.3429 -2.8841
 2744SOL     OW19693   1.164   2.784   4.545  0.0091 -0.3903  0.1541
 2744SOL    HW119694   1.221   2.844   4.497  0.8594 -0.9349  0.4697
 2744SOL    HW219695   1.169   2.709   4.485  1.9206 -0.7610  0.7657
 2745SOL     OW19696   3.803   0.078  17.560 -0.1127  0.0738  0.1628
 2745SOL    HW119697   3.741   0.006  17.555 -1.0341  1.0681 -3.2418
 2745SOL    HW219698   3.815   0.089  17.654 -0.8156 -1.4845  0.4399
 2746SOL     OW19699   2.223   1.786   2.908 -0.0572  0.6691  0.2058
 2746SOL    HW119700   2.137   1.769   2.868  1.0855 -2.5788 -0.8252
 2746SOL    HW219701   2.278   1.772   2.832 -2.1979 -1.2235 -1.0122
 2747SOL     OW19702   2.053   2.945   3.198 -0.2275 -0.4897 -0.3400
 2747SOL    HW119703   2.105   3.021   3.222 -1.6263  0.6431 -0.8804
 2747SOL    HW219704   2.112   2.885   3.152 -1.5045 -2.5291  0.6398
 2748SOL     OW19705   2.319   3.367   3.499 -0.3006  0.9023 -0.1170
 2748SOL    HW119706   2.259   3.357   3.573 -0.3290  0.5686 -0.1825
 2748SOL    HW219707   2.308   3.283   3.454  0.0330  1.7434 -1.7743
 2749SOL     OW19708   3.484   4.404   2.417 -0.3460  0.4980  0.5698
 2749SOL    HW119709   3.421   4.391   2.488 -2.2002 -1.8582 -1.5223
 2749SOL    HW219710   3.436   4.366   2.343 -0.5814 -1.0645  1.5295
 2750SOL     OW19711   1.477   1.278   8.969 -0.7374  0.3050 -0.1929
 2750SOL    HW119712   1.542   1.335   9.011 -0.7500  0.4954 -0.4317
 2750SOL    HW219713   1.403   1.337   8.978 -1.0690 -0.4992  2.3846
 2751SOL     OW19714   1.447   1.681   5.997 -0.5166  0.4021  0.5806
 2751SOL    HW119715   1.409   1.608   5.948 -0.1902  0.8008 -0.2752
 2751SOL    HW219716   1.373   1.727   6.037 -0.5991  0.8995 -0.1324
 2752SOL     OW19717   0.362   1.006   7.167  0.6168 -0.8135 -0.0505
 2752SOL    HW119718   0.307   1.084   7.173 -0.4555 -1.3645 -2.7351
 2752SOL    HW219719   0.311   0.943   7.217 -0.7217 -0.5947 -1.1608
 2753SOL     OW19720   1.042   0.350  15.269  0.7178  0.4895 -0.0866
 2753SOL    HW119721   0.952   0.339  15.301  1.4973  2.7626  2.9128
 2753SOL    HW219722   1.089   0.298  15.335  2.6955  3.0570  0.5374
 2754SOL     OW19723   1.194   3.919  10.262  0.1487  0.2236  0.4727
 2754SOL    HW119724   1.149   4.003  10.260 -0.0514  0.1411  1.6094
 2754SOL    HW219725   1.276   3.948  10.223 -0.3948  1.2022  0.0711
 2755SOL     OW19726   1.520   1.336   2.884  0.4906  0.1446  0.3516
 2755SOL    HW119727   1.549   1.417   2.926  3.0182  0.2063 -1.5406
 2755SOL    HW219728   1.593   1.274   2.882 -0.2002 -0.6744  0.5593
 2756SOL     OW19729   0.361   0.397   8.823 -0.3684 -0.1112  0.3515
 2756SOL    HW119730   0.437   0.341   8.804  0.7344  0.9931  1.4812
 2756SOL    HW219731   0.386   0.431   8.909 -1.9715  1.1063  0.3212
 2757SOL     OW19732   4.026   1.623   3.098  0.3010  0.1969 -0.1633
 2757SOL    HW119733   4.064   1.696   3.147 -0.1968  1.2767 -1.4012
 2757SOL    HW219734   4.025   1.562   3.172 -1.5916  1.7139  1.0391
 2758SOL     OW19735   1.616   0.688  10.478 -0.0263  0.0560  0.6528
 2758SOL    HW119736   1.623   0.719  10.568  2.0306  2.5181 -0.3698
 2758SOL    HW219737   1.684   0.621  10.479  0.7299  0.7971 -1.7203
 2759SOL     OW19738   1.755   3.388   4.955 -0.1998 -0.2538 -0.0563
 2759SOL    HW119739   1.734   3.480   4.942 -3.5837 -1.2433 -1.3937
 2759SOL    HW219740   1.778   3.374   4.863  0.6453 -0.5138  0.1913
 2760SOL     OW19741   2.444   3.597   1.354  0.1981  0.3141 -0.4101
 2760SOL    HW119742   2.514   3.543   1.390  0.0019  0.1364 -0.2932
 2760SOL    HW219743   2.473   3.685   1.380  2.9254  0.0382 -2.5523
 2761SOL     OW19744   1.449   1.605   2.073 -0.2326 -0.1256 -0.5439
 2761SOL    HW119745   1.446   1.663   1.997 -1.2234 -0.2264 -0.5827
 2761SOL    HW219746   1.356   1.588   2.088 -0.3552  1.0357  0.0093
 2762SOL     OW19747   0.585   4.297   8.605  0.0835 -0.0521  0.5992
 2762SOL    HW119748   0.500   4.313   8.648 -0.1793 -2.3450  0.9092
 2762SOL    HW219749   0.636   4.324   8.681 -2.8116  3.4209  1.3444
 2763SOL     OW19750   2.375   4.706  12.395 -0.5211  0.7265  0.4667
 2763SOL    HW119751   2.454   0.024  12.358  1.6100 -4.4137 -0.4442
 2763SOL    HW219752   2.302   0.019  12.344  0.6952  1.8347 -0.5315
 2764SOL     OW19753   2.318   1.030  11.429 -0.1040  0.3480  0.3564
 2764SOL    HW119754   2.362   0.995  11.352 -0.6195 -0.9641  0.6590
 2764SOL    HW219755   2.293   1.117  11.397  0.7229  0.5377  0.2241
 2765SOL     OW19756   4.499   1.009   6.040 -0.4363  0.9419  0.4248
 2765SOL    HW119757   4.405   0.998   6.026 -0.4003  2.6798 -1.2199
 2765SOL    HW219758   4.509   0.970   6.127  1.1538  1.7833  0.6296
 2766SOL     OW19759   2.616   2.526   2.562 -0.2883  0.5731  0.1471
 2766SOL    HW119760   2.596   2.590   2.493  0.7844  1.3058  0.5170
 2766SOL    HW219761   2.701   2.557   2.591  1.7513 -4.1119 -0.9147
 2767SOL     OW19762   3.147   1.919  10.623 -0.0498 -0.4051 -0.0675
 2767SOL    HW119763   3.178   1.829  10.631 -0.3150 -0.7032 -2.3322
 2767SOL    HW219764   3.198   1.960  10.693  0.6924  2.7062 -2.4504
 2768SOL     OW19765   4.508   2.494  16.790  0.4093 -0.0478 -0.4951
 2768SOL    HW119766   4.458   2.517  16.712 -0.3387 -2.5269 -0.7396
 2768SOL    HW219767   4.446   2.476  16.861 -0.1516  0.3493 -0.8829
 2769SOL     OW19768   1.168   2.448  11.844  0.6883 -0.3125  0.0083
 2769SOL    HW119769   1.245   2.412  11.888  1.7231  0.4941 -1.1535
 2769SOL    HW219770   1.179   2.428  11.751  0.9632  0.4805 -0.1284
 2770SOL     OW19771   2.374   0.693   2.396 -0.0330 -0.1991  0.0481
 2770SOL    HW119772   2.469   0.695   2.409  0.2177  0.4166 -1.8775
 2770SOL    HW219773   2.348   0.672   2.486  0.3518  1.3572  0.5239
 2771SOL     OW19774   3.090   2.507   8.394  0.1669 -0.2063 -0.2825
 2771SOL    HW119775   3.001   2.471   8.401  0.2007 -0.5188 -1.4439
 2771SOL    HW219776   3.104   2.533   8.303 -1.8573 -0.2844 -0.6380
 2772SOL     OW19777   2.981   2.977   2.394 -0.0054  0.2797 -0.1064
 2772SOL    HW119778   3.047   3.041   2.368  1.1903 -1.3175 -1.0258
 2772SOL    HW219779   2.914   2.981   2.326 -0.2490 -2.2013 -0.0117
 2773SOL     OW19780   0.920   4.473   7.049 -0.4786  0.0751  0.2540
 2773SOL    HW119781   0.940   4.476   7.143  0.2859  1.4337  0.0575
 2773SOL    HW219782   1.008   4.455   7.017 -0.6835 -3.5427  1.6746
 2774SOL     OW19783   2.024   0.350   4.537 -0.2073 -0.1915 -0.5363
 2774SOL    HW119784   1.985   0.275   4.582 -0.3776  0.3176  0.1730
 2774SOL    HW219785   2.110   0.356   4.580  0.4314  3.3515 -2.3285
 2775SOL     OW19786   4.442   3.180   0.912  0.9005  0.0720  0.5080
 2775SOL    HW119787   4.520   3.222   0.947  1.7522  0.1389 -1.4679
 2775SOL    HW219788   4.402   3.248   0.859 -2.2465 -1.5137  0.7872
 2776SOL     OW19789   0.203   2.898  10.549 -0.0969 -0.4316 -0.0047
 2776SOL    HW119790   0.112   2.882  10.523  1.0396 -1.3807 -3.3423
 2776SOL    HW219791   0.255   2.874  10.472 -0.0330  2.6982 -0.9294
 2777SOL     OW19792   2.867   4.033   4.086 -0.3794  0.0150 -0.3929
 2777SOL    HW119793   2.882   4.037   3.992 -0.1938  2.3624 -0.2653
 2777SOL    HW219794   2.783   4.080   4.089  0.6258  1.8136 -0.2317
 2778SOL     OW19795   1.824   4.288   0.553 -0.2533 -0.5202  0.4045
 2778SOL    HW119796   1.842   4.344   0.477 -0.1429 -0.3340  0.5672
 2778SOL    HW219797   1.874   4.347   0.609 -0.6696 -1.1994  1.4776
 2779SOL     OW19798   0.756   0.157   8.490 -0.6662  0.1462 -0.1932
 2779SOL    HW119799   0.716   0.214   8.555 -1.0491  0.5378 -0.7723
 2779SOL    HW219800   0.729   0.081   8.541  0.9192  0.2696  0.8248
 2780SOL     OW19801   2.656   3.769   6.484 -0.3715 -0.2440  0.2752
 2780SOL    HW119802   2.731   3.827   6.499  0.9409 -1.3890 -1.9150
 2780SOL    HW219803   2.653   3.726   6.570  0.7031 -1.3372 -0.2393
 2781SOL     OW19804   3.138   0.549  16.219 -0.0399 -0.1679  0.4965
 2781SOL    HW119805   3.190   0.524  16.144  0.1471  1.1314  0.1922
 2781SOL    HW219806   3.100   0.466  16.250 -1.9590 -0.0610 -1.5715
 2782SOL     OW19807   1.335   1.156   8.767 -0.6082 -0.6211  0.3936
 2782SOL    HW119808   1.389   1.197   8.834 -0.5736  1.0817 -0.6647
 2782SOL    HW219809   1.250   1.133   8.805 -0.7747 -0.0682  0.3545
 2783SOL     OW19810   4.594   0.127   0.383  0.3858 -0.2871 -0.1526
 2783SOL    HW119811   4.546   0.190   0.330 -0.6768 -1.7658 -0.9266
 2783SOL    HW219812   4.668   0.176   0.421 -0.3181 -0.1990  1.1123
 2784SOL     OW19813   0.805   4.471   0.011 -0.1457  0.3128 -0.3389
 2784SOL    HW119814   0.763   4.491   0.095  1.2661  1.1945  0.1812
 2784SOL    HW219815   0.734   4.463  17.635  1.2146  0.5992 -1.9002
 2785SOL     OW19816   2.152   4.569   4.754 -0.0439 -0.7454 -0.1476
 2785SOL    HW119817   2.235   4.563   4.801  0.7477  1.4282 -1.2468
 2785SOL    HW219818   2.139   4.477   4.731  1.3153 -0.9805  0.0362
 2786SOL     OW19819   1.511   3.735   7.168  0.7560  0.1599 -0.1682
 2786SOL    HW119820   1.525   3.657   7.114 -0.7422  0.6664 -1.2809
 2786SOL    HW219821   1.434   3.708   7.217 -0.4892  0.7535 -1.7832
 2787SOL     OW19822   2.486   0.762   5.263  0.3549  0.6838 -0.0408
 2787SOL    HW119823   2.430   0.765   5.185  0.1617 -0.9246  0.0448
 2787SOL    HW219824   2.558   0.804   5.217  1.8601 -0.5793  1.1912
 2788SOL     OW19825   0.888   3.183   7.136 -0.4921 -0.0576  0.0771
 2788SOL    HW119826   0.956   3.250   7.141 -1.9810  1.2638  2.3408
 2788SOL    HW219827   0.928   3.115   7.191 -2.1946 -0.4506  0.8321
 2789SOL     OW19828   1.832   2.285  12.773  0.5848  0.2905  0.6491
 2789SOL    HW119829   1.924   2.265  12.792  0.8618  0.1703 -0.8348
 2789SOL    HW219830   1.844   2.348  12.701  1.6761 -0.9669 -0.2667
 2790SOL     OW19831   1.354   3.702  11.254 -0.3956  0.2474 -0.1936
 2790SOL    HW119832   1.294   3.640  11.213  0.7900 -1.1111  0.1121
 2790SOL    HW219833   1.318   3.716  11.342  1.0615  3.1763 -0.0834
 2791SOL     OW19834   1.336   3.253   4.781 -0.4355 -0.4003  0.2527
 2791SOL    HW119835   1.394   3.192   4.735  0.6697  1.1382 -0.4023
 2791SOL    HW219836   1.262   3.271   4.723 -2.3673  1.9368  3.4445
 2792SOL     OW19837   0.985   1.013  10.833  0.0526  0.0648  0.2777
 2792SOL    HW119838   1.027   0.962  10.903 -2.7374 -1.1390  1.0892
 2792SOL    HW219839   1.000   0.953  10.760  2.1286  1.7306 -0.6671
 2793SOL     OW19840   0.124   2.565  17.192 -0.2135 -0.1460  0.4643
 2793SOL    HW119841   0.112   2.522  17.276 -1.8702  1.1342  0.8854
 2793SOL    HW219842   0.057   2.521  17.138 -1.9257  2.8286  0.1461
 2794SOL     OW19843   1.742   3.125   9.458 -0.3487  0.2007  0.3905
 2794SOL    HW119844   1.802   3.067   9.411 -0.6238 -0.0145  0.3028
 2794SOL    HW219845   1.792   3.206   9.468 -0.5887  0.3765  0.1577
 2795SOL     OW19846   2.030   0.290  10.499  0.0430  0.6633  0.3560
 2795SOL    HW119847   2.032   0.263  10.407  1.3187 -1.1162  0.9229
 2795SOL    HW219848   2.125   0.279  10.507  0.1185  0.8692 -0.2486
 2796SOL     OW19849   3.441   3.464  10.710 -0.1134 -0.4211 -0.0783
 2796SOL    HW119850   3.441   3.469  10.806 -0.2442  1.6527 -0.1722
 2796SOL    HW219851   3.511   3.398  10.712 -1.2423 -1.5912  0.4485
 2797SOL     OW19852   1.778   0.223  10.625  0.2428 -0.1017 -0.1045
 2797SOL    HW119853   1.714   0.226  10.554 -1.3989 -1.2456  1.3207
 2797SOL    HW219854   1.855   0.239  10.571  0.4097 -0.2725  0.0834
 2798SOL     OW19855   1.700   3.851  13.660 -0.4899  0.4026 -0.1066
 2798SOL    HW119856   1.732   3.852  13.750 -1.1070 -2.3597  0.1244
 2798SOL    HW219857   1.607   3.874  13.662 -0.8920 -1.0589 -2.0564
 2799SOL     OW19858   4.091   0.096  12.609 -0.4481  0.0239 -0.1932
 2799SOL    HW119859   4.097   0.060  12.698 -0.1824 -1.4502 -0.8175
 2799SOL    HW219860   4.179   0.069  12.584 -1.1846 -0.4806 -2.2460
 2800SOL     OW19861   4.455   2.765   4.836 -0.0085  0.3527 -0.4313
 2800SOL    HW119862   4.379   2.761   4.778 -0.1292 -2.4581 -0.0711
 2800SOL    HW219863   4.515   2.708   4.787 -0.5211  0.2776 -0.9667
 2801SOL     OW19864   4.009   1.534   4.808 -0.2096  0.3088  0.1323
 2801SOL    HW119865   3.975   1.531   4.719 -2.0705  1.0294  0.8252
 2801SOL    HW219866   4.004   1.444   4.840 -1.4436 -0.1062 -1.2626
 2802SOL     OW19867   0.513   0.027  13.523 -0.2802  0.7685 -0.3959
 2802SOL    HW119868   0.452   0.096  13.549 -1.3185 -0.3626  0.1461
 2802SOL    HW219869   0.465   4.713  13.448 -1.4331 -2.7075  1.9866
 2803SOL     OW19870   1.138   0.701  14.722 -0.0475 -0.4407 -0.3231
 2803SOL    HW119871   1.177   0.779  14.762  0.1062 -0.3111 -0.7282
 2803SOL    HW219872   1.082   0.741  14.656  2.2520  0.8894 -1.4847
 2804SOL     OW19873   3.207   4.489   7.782 -0.0957 -0.0709 -0.4685
 2804SOL    HW119874   3.207   4.418   7.845 -0.2939  0.0146 -0.3701
 2804SOL    HW219875   3.115   4.490   7.752  0.4046  0.6281 -2.0036
 2805SOL     OW19876   1.098   0.791   6.727 -0.0686  0.2207  0.5267
 2805SOL    HW119877   1.158   0.789   6.653 -0.7643  3.1181 -0.1056
 2805SOL    HW219878   1.023   0.758   6.678 -0.0440  0.7027  0.1698
 2806SOL     OW19879   1.726   3.926   2.154  0.3391 -0.4761 -0.5961
 2806SOL    HW119880   1.677   4.006   2.139  0.2355 -0.8686 -2.3256
 2806SOL    HW219881   1.659   3.894   2.215  0.1892 -2.0166 -1.5660
 2807SOL     OW19882   1.942   4.201   4.823  0.0762 -0.0791 -0.3253
 2807SOL    HW119883   1.866   4.198   4.880  1.8058  0.8196  2.0202
 2807SOL    HW219884   1.899   4.168   4.744 -1.0974 -0.5416  0.5030
 2808SOL     OW19885   0.121   1.055   5.847 -0.2204 -0.0645 -0.1065
 2808SOL    HW119886   0.046   1.009   5.884 -1.0407  1.8471  0.6086
 2808SOL    HW219887   0.117   1.024   5.757  2.2348 -0.2363 -0.1731
 2809SOL     OW19888   4.420   1.706   3.085 -0.3029  0.0378 -0.0808
 2809SOL    HW119889   4.397   1.799   3.087  2.2961  0.6579  1.5843
 2809SOL    HW219890   4.422   1.693   3.179  0.6572 -1.3234 -0.2980
 2810SOL     OW19891   4.539   1.850   8.026  0.2212 -0.0772 -0.4938
 2810SOL    HW119892   4.490   1.888   8.098  1.3966  0.1904  0.1711
 2810SOL    HW219893   4.485   1.894   7.961 -0.8886 -1.3952 -0.4540
 2811SOL     OW19894   4.273   3.516   3.150 -0.3464 -0.4067  0.2464
 2811SOL    HW119895   4.208   3.451   3.123 -2.1290  0.5013  2.3180
 2811SOL    HW219896   4.273   3.514   3.246  0.4994 -2.8458  0.1898
 2812SOL     OW19897   3.707   2.565  14.805  0.1876  0.3120 -0.6371
 2812SOL    HW119898   3.746   2.529  14.726 -0.5544  1.2651 -1.4298
 2812SOL    HW219899   3.613   2.562  14.785  0.4522  1.3596 -2.0248
 2813SOL     OW19900   0.971   3.348   4.765  0.1367  0.1657 -0.6316
 2813SOL    HW119901   0.947   3.286   4.834  2.4968  0.4665  0.4674
 2813SOL    HW219902   0.952   3.431   4.810  0.8305  0.2290 -0.4530
 2814SOL     OW19903   1.578   3.309   4.601 -0.8609 -0.4408 -0.2435
 2814SOL    HW119904   1.534   3.224   4.609 -0.6469 -0.6199 -0.9384
 2814SOL    HW219905   1.653   3.299   4.659  0.3410 -0.4766 -1.7893
 2815SOL     OW19906   4.070   2.460  14.720 -0.4483  0.4788  0.2975
 2815SOL    HW119907   4.012   2.413  14.780  0.7077  0.5672  1.4819
 2815SOL    HW219908   4.004   2.513  14.676 -0.5476 -1.0678 -1.3935
 2816SOL     OW19909   3.684   3.890   4.283 -0.6346 -0.4122  0.5303
 2816SOL    HW119910   3.751   3.841   4.234  0.1543  1.4199 -0.2350
 2816SOL    HW219911   3.624   3.817   4.296 -2.6296  1.0186 -0.5797
 2817SOL     OW19912   1.974   2.421   6.059  0.7521  0.0164  0.2169
 2817SOL    HW119913   1.946   2.490   6.120 -2.3231  1.5330 -2.9205
 2817SOL    HW219914   1.950   2.339   6.103 -0.5211  0.4062  0.2567
 2818SOL     OW19915   0.148   3.636   5.979  0.0618 -0.0524 -0.2389
 2818SOL    HW119916   0.106   3.618   6.063  0.7914 -1.0207 -0.0865
 2818SOL    HW219917   0.078   3.679   5.930  0.9269  2.0797  0.3891
 2819SOL     OW19918   3.540   3.325  17.258  0.0207  0.4726 -0.4676
 2819SOL    HW119919   3.504   3.368  17.336  2.4460  0.5640  0.6239
 2819SOL    HW219920   3.595   3.389  17.214 -1.0087  0.7332 -1.3611
 2820SOL     OW19921   3.798   1.888   5.892 -0.2583  0.3137  0.3431
 2820SOL    HW119922   3.780   1.811   5.946 -1.3449  0.1548 -0.2494
 2820SOL    HW219923   3.827   1.842   5.813  1.6390  1.8005  0.1656
 2821SOL     OW19924   0.306   0.927   4.600  0.0152  0.2175 -0.8011
 2821SOL    HW119925   0.391   0.920   4.642 -0.8663 -0.6999  0.8124
 2821SOL    HW219926   0.265   0.840   4.607  2.1590 -0.8041 -0.9407
 2822SOL     OW19927   4.611   1.928   2.531  0.6363 -0.2772  0.6868
 2822SOL    HW119928   4.559   1.879   2.467  1.0408 -0.3784  0.4347
 2822SOL    HW219929   4.604   2.020   2.504 -1.2758 -0.9078 -0.9535
 2823SOL     OW19930   1.716   0.249  17.161  0.2571  0.0524  0.0154
 2823SOL    HW119931   1.626   0.218  17.166  0.3557  0.0117  1.4557
 2823SOL    HW219932   1.722   0.343  17.172  0.5251  0.0272  0.0859
 2824SOL     OW19933   2.462   3.747   7.139 -0.0375 -0.0751 -0.1195
 2824SOL    HW119934   2.498   3.694   7.067 -0.1772  0.6431 -0.7238
 2824SOL    HW219935   2.492   3.708   7.221  0.0911  1.0228  0.3594
 2825SOL     OW19936   3.574   2.463   6.737 -0.3039  0.3759 -0.5585
 2825SOL    HW119937   3.553   2.372   6.718 -1.5566  0.4365  0.5395
 2825SOL    HW219938   3.659   2.459   6.781 -0.7861 -2.0826  0.1277
 2826SOL     OW19939   0.471   2.382   8.583 -0.1614 -0.4185  0.4231
 2826SOL    HW119940   0.538   2.377   8.652  0.4442 -0.7522 -0.1880
 2826SOL    HW219941   0.424   2.300   8.594  0.7600 -1.0835 -0.6268
 2827SOL     OW19942   2.577   0.165  10.540 -0.0637 -0.5506 -0.0548
 2827SOL    HW119943   2.483   0.180  10.541 -0.2945 -1.8150 -1.9983
 2827SOL    HW219944   2.593   0.074  10.564  0.4813  0.1734  2.2588
 2828SOL     OW19945   2.130   1.246  10.536 -0.5241  0.0253  0.6865
 2828SOL    HW119946   2.040   1.244  10.570 -0.5822 -0.0318  0.5318
 2828SOL    HW219947   2.139   1.341  10.525  0.2036 -0.2004 -0.6841
 2829SOL     OW19948   3.796   2.161  11.278  0.1144 -0.8989  0.5819
 2829SOL    HW119949   3.845   2.223  11.332 -1.3920  0.2583  0.6194
 2829SOL    HW219950   3.839   2.171  11.193  0.9687  1.1214  1.2533
 2830SOL     OW19951   3.267   0.905  10.347  0.6290 -0.5561  0.1236
 2830SOL    HW119952   3.192   0.846  10.349  1.8296 -2.1552 -1.8407
 2830SOL    HW219953   3.240   0.974  10.286 -0.9167 -0.5915  0.7751
 2831SOL     OW19954   4.596   4.704   4.465  1.0926 -0.3249 -0.3154
 2831SOL    HW119955   4.594   4.673   4.374 -1.2071 -2.0492  0.3051
 2831SOL    HW219956   4.649   4.638   4.511 -2.1219 -1.6166  1.5567
 2832SOL     OW19957   2.208   3.225   5.051  0.0599  0.4299  0.1357
 2832SOL    HW119958   2.293   3.265   5.067  0.9098 -0.7337 -1.4153
 2832SOL    HW219959   2.233   3.148   5.000 -0.7573  0.1945  0.0849
 2833SOL     OW19960   2.528   4.684  16.431  0.4145  0.2436  0.0513
 2833SOL    HW119961   2.519   4.655  16.522 -0.6059 -1.5186 -0.6211
 2833SOL    HW219962   2.450   0.017  16.422  0.4352  0.0350 -1.3562
 2834SOL     OW19963   3.113   3.585  10.799 -0.2210 -0.0150 -0.0983
 2834SOL    HW119964   3.030   3.543  10.779 -0.9280  1.6883 -0.8271
 2834SOL    HW219965   3.107   3.658  10.736  0.5599  0.6086  0.5529
 2835SOL     OW19966   4.078   2.177   2.671  0.0293  0.0760  0.8676
 2835SOL    HW119967   4.052   2.117   2.601 -0.2074 -0.3851  1.3529
 2835SOL    HW219968   4.110   2.255   2.625 -0.9621 -1.2567 -2.0290
 2836SOL     OW19969   3.670   1.581   3.407  0.2238  0.0381 -0.5851
 2836SOL    HW119970   3.725   1.659   3.411 -0.5950  0.5805  0.1244
 2836SOL    HW219971   3.595   1.618   3.359  0.1911 -1.5224 -1.7192
 2837SOL     OW19972   4.025   1.877  13.108 -0.2173  0.3787 -0.4397
 2837SOL    HW119973   4.112   1.918  13.109  0.0743 -0.2455 -0.3912
 2837SOL    HW219974   4.002   1.857  13.199  1.8201 -1.2926 -0.2795
 2838SOL     OW19975   1.524   2.232   2.681 -0.0484  0.0903 -0.1941
 2838SOL    HW119976   1.536   2.306   2.622 -2.5000  0.6543  0.0014
 2838SOL    HW219977   1.590   2.242   2.749 -0.6113  1.6634  0.1148
 2839SOL     OW19978   3.325   1.252   0.508 -0.3506  0.3514  0.2818
 2839SOL    HW119979   3.306   1.164   0.542 -0.2263 -0.3119 -1.3600
 2839SOL    HW219980   3.238   1.267   0.472 -0.1992 -1.3404 -0.8379
 2840SOL     OW19981   3.601   3.433  10.005 -0.0389  0.4959  0.2406
 2840SOL    HW119982   3.643   3.519  10.015 -1.6112  1.0159  2.3122
 2840SOL    HW219983   3.671   3.384  10.047  0.3456  0.3526 -0.5542
 2841SOL     OW19984   3.801   2.592   3.914 -0.1320  0.3794 -0.1591
 2841SOL    HW119985   3.724   2.579   3.858 -0.3319 -1.9487  0.6586
 2841SOL    HW219986   3.867   2.560   3.852 -0.7130 -0.6437 -0.2515
 2842SOL     OW19987   0.295   0.588   7.229 -0.1481 -0.3984  0.0797
 2842SOL    HW119988   0.381   0.629   7.220 -0.3075  0.0381  0.5563
 2842SOL    HW219989   0.255   0.637   7.301 -0.1165  1.3557 -1.1153
 2843SOL     OW19990   3.226   3.058  13.073  0.0606 -0.6192 -1.1208
 2843SOL    HW119991   3.168   3.018  13.137  0.5588  2.6143  1.3648
 2843SOL    HW219992   3.237   2.985  13.012 -1.4552 -0.2224 -1.8715
 2844SOL     OW19993   4.226   0.897   8.474 -0.1367 -0.4672 -0.2250
 2844SOL    HW119994   4.288   0.896   8.401 -1.4801  0.6895 -1.3882
 2844SOL    HW219995   4.154   0.951   8.441  0.7395 -1.2761 -3.4673
 2845SOL     OW19996   0.705   4.490   7.948 -1.0282  0.4663 -0.6244
 2845SOL    HW119997   0.677   4.580   7.932 -1.7117 -0.1439 -2.8934
 2845SOL    HW219998   0.675   4.445   7.869  1.9761  0.8226 -1.9431
 2846SOL     OW19999   2.358   3.758   4.622 -0.3934 -0.4145  0.4422
 2846SOL    HW120000   2.272   3.743   4.663  1.6787 -3.5265  3.7166
 2846SOL    HW220001   2.367   3.685   4.560  1.3216  1.3363 -1.3436
 2847SOL     OW20002   4.014   2.748  15.103 -0.0811  0.1494  0.0575
 2847SOL    HW120003   4.070   2.686  15.149 -0.5414 -1.6401 -1.7567
 2847SOL    HW220004   3.941   2.692  15.076  0.7976 -1.8208  1.7048
 2848SOL     OW20005   0.237   0.850   5.357 -0.1377  0.1993 -0.0093
 2848SOL    HW120006   0.166   0.791   5.379 -2.0172  2.5560  0.2174
 2848SOL    HW220007   0.309   0.789   5.375  0.5180  0.6237 -1.2194
 2849SOL     OW20008   2.413   0.238  13.342  0.3405  0.3199  0.3035
 2849SOL    HW120009   2.379   0.166  13.396 -0.1278  0.4997  0.2491
 2849SOL    HW220010   2.508   0.229  13.350  0.3292  1.8024  2.0214
 2850SOL     OW20011   3.668   1.493   5.840  0.1346 -0.2418 -0.4069
 2850SOL    HW120012   3.709   1.469   5.757  0.6882 -1.4234  0.2054
 2850SOL    HW220013   3.581   1.521   5.815 -0.3020 -0.1205  1.2007
 2851SOL     OW20014   0.361   4.159  17.645  0.6040 -0.1566 -0.2951
 2851SOL    HW120015   0.309   4.128  17.571 -1.5191  0.3057  0.9972
 2851SOL    HW220016   0.352   4.255  17.650 -0.9850 -0.3671  1.1010
 2852SOL     OW20017   2.793   0.658   7.359 -0.1315  0.4938 -0.4644
 2852SOL    HW120018   2.878   0.700   7.364  0.3485 -0.7697  2.1177
 2852SOL    HW220019   2.808   0.573   7.401  0.7145  0.9846  0.2222
 2853SOL     OW20020   2.040   4.140   2.036  0.4007  0.5116 -0.2173
 2853SOL    HW120021   2.045   4.207   1.969 -2.4504  1.4930  0.5275
 2853SOL    HW220022   2.060   4.199   2.109 -2.3084  0.0393  0.9345
 2854SOL     OW20023   1.822   0.172   3.534  0.1580 -0.4879 -0.0330
 2854SOL    HW120024   1.744   0.120   3.519 -0.0587  0.0874 -0.8952
 2854SOL    HW220025   1.802   0.251   3.483 -1.7781 -0.6692  0.4811
 2855SOL     OW20026   3.348   0.431   1.478 -1.2752  0.1126  0.1200
 2855SOL    HW120027   3.438   0.425   1.447 -1.0746  2.6589  0.1661
 2855SOL    HW220028   3.353   0.361   1.542  1.1608 -0.2233 -0.4274
 2856SOL     OW20029   0.546   4.685  16.326  0.0962 -0.5154  0.2814
 2856SOL    HW120030   0.564   0.057  16.339 -0.3549 -0.5107  0.8813
 2856SOL    HW220031   0.520   4.686  16.233 -2.9578 -2.0789  1.1124
 2857SOL     OW20032   4.490   3.538   6.772  0.2942  0.1751  0.5325
 2857SOL    HW120033   4.568   3.496   6.809  0.0429 -0.0605  0.7975
 2857SOL    HW220034   4.414   3.485   6.798  0.3026 -0.4712 -0.7335
 2858SOL     OW20035   1.755   3.177   8.166 -0.6597 -0.0615 -0.3821
 2858SOL    HW120036   1.717   3.137   8.088  1.9963  0.7953 -2.1127
 2858SOL    HW220037   1.682   3.229   8.199  1.5699  1.8923  1.4473
 2859SOL     OW20038   3.382   2.357   7.613  0.4223  0.3396  0.0820
 2859SOL    HW120039   3.333   2.284   7.651 -0.2778  1.3830  1.1839
 2859SOL    HW220040   3.365   2.417   7.685  0.1651  1.9816 -1.3379
 2860SOL     OW20041   2.343   0.930   2.212  0.2060  0.5235 -0.0377
 2860SOL    HW120042   2.355   0.878   2.292  2.0261  0.6592 -0.2280
 2860SOL    HW220043   2.413   0.995   2.208 -0.3667  1.1607  0.5803
 2861SOL     OW20044   1.743   4.221  17.496  0.2063  0.1647 -0.3763
 2861SOL    HW120045   1.715   4.271  17.419 -2.8063 -3.9429 -1.9414
 2861SOL    HW220046   1.751   4.291  17.561  2.5577 -0.4552 -0.0202
 2862SOL     OW20047   4.250   2.507   5.786 -0.0326  0.7228 -0.6100
 2862SOL    HW120048   4.265   2.426   5.835  2.4353  0.7982 -1.2069
 2862SOL    HW220049   4.267   2.575   5.852 -1.7807 -0.6139  1.1978
 2863SOL     OW20050   0.340   1.629   6.040  0.0204 -0.0322 -0.0559
 2863SOL    HW120051   0.363   1.552   6.094  1.7478  1.6133  1.5733
 2863SOL    HW220052   0.415   1.650   5.985 -0.6297  0.7454 -0.6336
 2864SOL     OW20053   1.512   4.395   6.140 -0.1771 -0.3362 -0.0672
 2864SOL    HW120054   1.453   4.341   6.193 -1.5356 -0.9860 -2.2175
 2864SOL    HW220055   1.450   4.456   6.099 -0.0998 -1.9868 -2.6279
 2865SOL     OW20056   4.262   4.681   5.178 -0.2955  0.2386 -0.2340
 2865SOL    HW120057   4.342   4.685   5.230 -0.6960  0.5601  0.3622
 2865SOL    HW220058   4.259   0.047   5.139 -1.5107  1.5079  2.6579
 2866SOL     OW20059   1.826   4.188   4.586  0.1242 -0.7067 -0.5961
 2866SOL    HW120060   1.889   4.210   4.517  1.2575  0.8044  0.9064
 2866SOL    HW220061   1.745   4.187   4.535 -0.0138 -0.2823 -0.3921
 2867SOL     OW20062   0.954   1.619   2.877  0.3820  0.2033 -0.0125
 2867SOL    HW120063   1.032   1.634   2.823  0.6741 -2.3215 -0.3008
 2867SOL    HW220064   0.905   1.569   2.812  1.5794 -0.9461 -0.0194
 2868SOL     OW20065   0.521   4.674  12.730  0.5172 -0.0735 -0.7167
 2868SOL    HW120066   0.601   4.709  12.769 -0.5201  0.2829  1.1147
 2868SOL    HW220067   0.486   4.633  12.809  1.1437 -0.5112 -0.6702
 2869SOL     OW20068   3.075   3.829   9.001  0.3636 -0.2086 -0.0092
 2869SOL    HW120069   2.979   3.827   8.996  0.4692  0.1573 -2.3705
 2869SOL    HW220070   3.085   3.739   9.034 -0.2640 -0.5970 -0.8615
 2870SOL     OW20071   4.253   4.106  14.526  0.3137  0.0831 -0.1200
 2870SOL    HW120072   4.233   4.027  14.575 -0.3558  1.5644  1.9919
 2870SOL    HW220073   4.193   4.095  14.452  0.9228  2.4058 -0.9751
 2871SOL     OW20074   2.609   0.055   3.853  0.6148  0.3738 -0.1500
 2871SOL    HW120075   2.649   0.112   3.919  2.4460  1.2952 -2.0338
 2871SOL    HW220076   2.583   0.105   3.776  2.1701 -1.1799 -1.6969
 2872SOL     OW20077   4.325   4.114   1.879 -0.1857 -0.1034  0.0685
 2872SOL    HW120078   4.248   4.129   1.933 -1.2693  1.1869 -1.8148
 2872SOL    HW220079   4.338   4.021   1.897 -1.1435 -0.1154  0.6681
 2873SOL     OW20080   1.052   3.631   0.995  0.2437 -0.0017  0.5638
 2873SOL    HW120081   1.094   3.663   1.075 -0.4897  2.7665 -0.1585
 2873SOL    HW220082   1.100   3.552   0.970 -1.2418 -0.1337 -1.8169
 2874SOL     OW20083   0.786   2.380   2.774  0.2123 -0.0828 -0.1854
 2874SOL    HW120084   0.770   2.289   2.801  0.2577  0.6230  2.1657
 2874SOL    HW220085   0.763   2.431   2.851 -1.8245  0.0732 -0.8906
 2875SOL     OW20086   0.859   0.783   9.135 -0.1832  0.1009  0.1979
 2875SOL    HW120087   0.799   0.854   9.157  0.4553  0.4995  0.6285
 2875SOL    HW220088   0.911   0.815   9.061 -1.7125  0.6612 -0.6545
 2876SOL     OW20089   3.280   1.493   4.064 -0.3030  0.5413  0.2947
 2876SOL    HW120090   3.277   1.487   4.159 -0.7622 -1.3358  0.1661
 2876SOL    HW220091   3.341   1.565   4.049 -1.0407  1.2501  0.7344
 2877SOL     OW20092   3.153   0.251  14.930  0.5396  0.3361 -0.2327
 2877SOL    HW120093   3.214   0.302  14.983  1.2535 -1.7883  0.9867
 2877SOL    HW220094   3.067   0.243  14.970  1.6958  0.1498  2.1949
 2878SOL     OW20095   4.093   2.988  10.101 -0.6850 -0.2032 -0.1138
 2878SOL    HW120096   4.050   2.903  10.091  0.5578 -0.7354 -0.8656
 2878SOL    HW220097   4.049   3.024  10.024  2.7431  1.2514 -1.3913
 2879SOL     OW20098   0.029   1.737   4.827 -0.1007 -0.1887 -0.1819
 2879SOL    HW120099   0.074   1.655   4.845  0.8799  0.4104  0.0751
 2879SOL    HW220100   0.002   1.758   4.916 -0.2307 -1.0278 -0.0302
 2880SOL     OW20101   1.770   2.265   0.861  0.3188 -0.0452 -0.6384
 2880SOL    HW120102   1.782   2.351   0.821 -2.7748  0.8728  0.3472
 2880SOL    HW220103   1.708   2.281   0.933  0.6593 -0.6948 -0.2018
 2881SOL     OW20104   3.820   0.560  15.703  0.1799  0.0242  0.4723
 2881SOL    HW120105   3.775   0.564  15.619  0.8894 -0.2944  0.0777
 2881SOL    HW220106   3.879   0.635  15.703  0.1140  0.0767  0.2978
 2882SOL     OW20107   4.269   4.300   4.381  0.3608 -0.6216  0.0387
 2882SOL    HW120108   4.234   4.267   4.298  0.6415  0.5282 -0.5427
 2882SOL    HW220109   4.230   4.239   4.443 -1.5247 -0.0518 -0.5831
 2883SOL     OW20110   1.610   0.377  10.438 -0.3674 -0.2525  0.3043
 2883SOL    HW120111   1.529   0.420  10.466  0.0041  1.8387 -1.8245
 2883SOL    HW220112   1.680   0.416  10.489 -2.2441  2.1838  0.9917
 2884SOL     OW20113   2.336   0.001   0.812  0.2496 -0.5368 -0.4295
 2884SOL    HW120114   2.242   4.720   0.829  0.5217  0.4500  1.1625
 2884SOL    HW220115   2.352   0.093   0.795 -0.3130 -0.1695  1.0731
 2885SOL     OW20116   2.641   1.890  11.480  0.0161 -0.1861  0.1629
 2885SOL    HW120117   2.599   1.956  11.425  1.8709  1.2701  0.4887
 2885SOL    HW220118   2.732   1.912  11.462  0.5455 -1.3524  1.4640
 2886SOL     OW20119   2.962   1.437   1.513  0.2046 -0.4661  0.1158
 2886SOL    HW120120   2.988   1.495   1.584  1.0927  1.4376 -1.7786
 2886SOL    HW220121   3.034   1.447   1.450 -1.3709  1.8963 -1.2593
 2887SOL     OW20122   1.253   1.139   1.615 -0.4600  0.2801 -0.0412
 2887SOL    HW120123   1.250   1.221   1.567 -1.0503 -0.4475 -1.2472
 2887SOL    HW220124   1.276   1.083   1.541 -0.3227  0.2544  0.0217
 2888SOL     OW20125   3.810   3.114   4.527 -0.7032 -0.2631  0.3435
 2888SOL    HW120126   3.899   3.079   4.537  0.3136  1.1617 -3.7112
 2888SOL    HW220127   3.833   3.202   4.557 -2.8866  0.9396 -1.5297
 2889SOL     OW20128   1.862   2.662   3.805 -0.0400  0.1529  0.1682
 2889SOL    HW120129   1.773   2.631   3.788 -0.2032  0.1082  1.1451
 2889SOL    HW220130   1.898   2.578   3.835 -0.5131  0.7196  2.3228
 2890SOL     OW20131   3.182   1.248   5.404 -0.1512  0.2177  0.2063
 2890SOL    HW120132   3.232   1.269   5.326 -1.8197  2.1059 -0.3635
 2890SOL    HW220133   3.117   1.318   5.413  0.4865  1.0750 -1.8695
 2891SOL     OW20134   1.998   2.785  12.827  0.0649  0.2915 -0.1394
 2891SOL    HW120135   1.908   2.774  12.859 -0.2820  1.1938 -0.7786
 2891SOL    HW220136   1.978   2.843  12.753  1.0790 -0.1680 -0.7648
 2892SOL     OW20137   0.069   0.658   5.453 -0.0346  0.5513  0.3232
 2892SOL    HW120138   0.118   0.594   5.504 -2.8826  0.2215  2.5935
 2892SOL    HW220139   4.708   0.659   5.502 -0.7577  2.4624 -0.9130
 2893SOL     OW20140   4.023   3.756   3.826  0.5358 -0.0239 -0.3262
 2893SOL    HW120141   4.039   3.850   3.818 -0.9472  0.5223  3.2284
 2893SOL    HW220142   3.928   3.767   3.817  0.3490 -1.7185 -0.4672
 2894SOL     OW20143   0.609   2.857   3.071  0.1052  0.0702 -0.1705
 2894SOL    HW120144   0.519   2.879   3.048 -0.9741 -1.1347  2.9903
 2894SOL    HW220145   0.626   2.888   3.160 -1.1821  0.3816 -0.0368
 2895SOL     OW20146   4.427   2.932   0.072  0.3463  0.1860  0.0250
 2895SOL    HW120147   4.351   2.916   0.016 -0.4005 -1.5009  1.5151
 2895SOL    HW220148   4.413   2.885   0.154  0.6059 -1.3075 -0.7799
 2896SOL     OW20149   0.288   1.975   2.482 -0.1085  0.3147  0.1853
 2896SOL    HW120150   0.246   1.889   2.478  0.5944  0.0046 -0.6151
 2896SOL    HW220151   0.372   1.952   2.443  0.0068  1.6123 -0.3258
 2897SOL     OW20152   0.410   3.172   2.156  0.3833  0.2987 -0.2001
 2897SOL    HW120153   0.373   3.251   2.117 -1.8660 -1.2196 -1.1523
 2897SOL    HW220154   0.452   3.203   2.236 -3.2179  3.1358  0.6030
 2898SOL     OW20155   1.778   2.285   7.504  0.4110  0.0709 -0.2105
 2898SOL    HW120156   1.785   2.259   7.412 -2.1181  0.1019 -0.4110
 2898SOL    HW220157   1.785   2.199   7.545  0.1146  0.5461  0.8148
 2899SOL     OW20158   0.939   2.118   5.361 -0.2232 -0.2872  0.6445
 2899SOL    HW120159   0.983   2.047   5.407 -0.5255  0.4959  2.1183
 2899SOL    HW220160   0.966   2.103   5.270 -0.9281 -1.0367  0.5531
 2900SOL     OW20161   3.365   0.646  14.720  0.2894 -0.3754  0.1039
 2900SOL    HW120162   3.343   0.650  14.813 -0.2537 -1.0704 -0.0049
 2900SOL    HW220163   3.278   0.639  14.682  0.8691  2.2210 -1.6948
 2901SOL     OW20164   0.677   1.801   7.005  0.1494 -0.5186 -0.1487
 2901SOL    HW120165   0.659   1.712   6.974 -1.0912 -1.0516  2.0845
 2901SOL    HW220166   0.661   1.782   7.098 -0.6913  0.3264 -0.1208
 2902SOL     OW20167   4.634   0.319  13.014  0.6745 -0.2727  0.1059
 2902SOL    HW120168   4.616   0.338  13.106 -1.2800  0.3759 -0.4082
 2902SOL    HW220169   4.655   0.226  13.014 -0.5324 -0.5412  0.9453
 2903SOL     OW20170   4.401   2.099   5.898  0.0997  0.3443  0.4727
 2903SOL    HW120171   4.411   2.062   5.811  3.5282 -0.2577  1.1108
 2903SOL    HW220172   4.413   2.022   5.953 -2.2934 -0.0965  0.3683
 2904SOL     OW20173   4.604   3.462   8.688 -0.0228  0.3112  0.6243
 2904SOL    HW120174   4.550   3.530   8.647 -0.7529 -0.3318  0.5097
 2904SOL    HW220175   4.668   3.511   8.739 -0.2693  2.8787 -1.5784
 2905SOL     OW20176   4.690   0.226   4.497 -0.1934 -0.6982 -0.2959
 2905SOL    HW120177   4.638   0.146   4.502 -0.8797 -0.0743  2.6334
 2905SOL    HW220178   0.022   0.218   4.576  1.5403 -0.2934 -1.4260
 2906SOL     OW20179   4.087   1.068   5.490  0.5343  0.5175  0.7344
 2906SOL    HW120180   4.130   1.116   5.419 -1.8346  0.4221 -0.7738
 2906SOL    HW220181   3.996   1.094   5.473  0.9162  1.1084 -0.4514
 2907SOL     OW20182   0.873   0.257   5.103 -0.2122 -0.0156  0.1200
 2907SOL    HW120183   0.865   0.168   5.070  1.4759  0.3598 -1.2805
 2907SOL    HW220184   0.863   0.312   5.025  0.0964  1.1542  0.9011
 2908SOL     OW20185   1.567   2.883  14.127  0.2557  0.4550  0.0548
 2908SOL    HW120186   1.619   2.831  14.066  0.1579  0.4130  0.0070
 2908SOL    HW220187   1.619   2.963  14.126  0.7252  0.0971 -2.2373
 2909SOL     OW20188   2.745   3.340   3.166 -0.4299  0.2450 -0.7632
 2909SOL    HW120189   2.751   3.351   3.260  1.2390  0.5515 -0.9101
 2909SOL    HW220190   2.655   3.309   3.156 -0.3513 -1.3373  3.8086
 2910SOL     OW20191   4.312   1.393   1.571 -0.0206 -0.3744  0.4155
 2910SOL    HW120192   4.353   1.352   1.647  0.7833  1.6864  1.1092
 2910SOL    HW220193   4.323   1.318   1.513  0.8224 -1.7675  2.3928
 2911SOL     OW20194   2.003   0.241  16.145  0.1803  0.3313  0.2039
 2911SOL    HW120195   1.931   0.303  16.130  0.5263  0.6329 -0.2010
 2911SOL    HW220196   2.025   0.208  16.058 -0.2894  2.5207 -0.7488
 2912SOL     OW20197   0.092   0.452   8.740  0.1906 -0.0090  0.3106
 2912SOL    HW120198   0.185   0.442   8.762  0.6294  1.5893 -0.8843
 2912SOL    HW220199   0.065   0.508   8.813  0.8259  0.6841  0.0135
 2913SOL     OW20200   0.649   1.005  10.300 -0.1579 -0.5056 -0.2414
 2913SOL    HW120201   0.561   0.974  10.321  0.5512 -0.7541  2.3874
 2913SOL    HW220202   0.651   1.082  10.357  1.6529 -0.8625  0.1764
 2914SOL     OW20203   4.377   1.434  15.250  0.0786  0.8899  0.1721
 2914SOL    HW120204   4.308   1.416  15.186 -1.1309 -1.0173  2.0039
 2914SOL    HW220205   4.376   1.529  15.263 -0.5954  0.7214  1.3401
 2915SOL     OW20206   0.419   3.098  11.164 -0.2621 -0.2040 -0.7976
 2915SOL    HW120207   0.440   3.185  11.199 -0.3557 -0.5867  0.1958
 2915SOL    HW220208   0.503   3.055  11.178 -0.0140  0.0764 -1.3874
 2916SOL     OW20209   3.078   1.668  13.605  0.2763 -0.0750  0.3169
 2916SOL    HW120210   3.126   1.609  13.546 -0.7485 -1.2507  0.6465
 2916SOL    HW220211   2.989   1.633  13.598  0.1926  0.3469 -0.6881
 2917SOL     OW20212   1.731   0.015   9.035 -0.4022  0.1170 -0.4667
 2917SOL    HW120213   1.745   0.087   8.973 -0.6090 -0.0048 -0.6558
 2917SOL    HW220214   1.668   0.061   9.090  1.1397 -0.2212  1.5758
 2918SOL     OW20215   1.417   1.530   7.312 -0.2052 -0.0824  0.5665
 2918SOL    HW120216   1.485   1.473   7.278 -3.7677 -2.3236 -2.8610
 2918SOL    HW220217   1.377   1.573   7.236 -0.6765 -0.5949  0.5246
 2919SOL     OW20218   2.532   2.753  15.201 -0.1206  0.1088  0.1802
 2919SOL    HW120219   2.611   2.716  15.239 -0.5678 -1.1688 -0.1422
 2919SOL    HW220220   2.526   2.843  15.234  1.6248 -0.5475  2.2589
 2920SOL     OW20221   0.680   4.599   4.422  0.2745  0.0018  0.2289
 2920SOL    HW120222   0.690   4.688   4.388  3.8761 -1.0314 -1.3713
 2920SOL    HW220223   0.596   4.613   4.467 -1.4862 -1.0554 -2.6814
 2921SOL     OW20224   1.465   0.270   3.591 -0.0879 -0.8295 -0.4829
 2921SOL    HW120225   1.400   0.215   3.547  0.3052 -1.3314 -0.4392
 2921SOL    HW220226   1.515   0.291   3.512 -1.1121  1.9359 -0.3715
 2922SOL     OW20227   2.841   1.135  17.244 -0.0161 -0.0317  0.2952
 2922SOL    HW120228   2.807   1.045  17.251 -2.1876  0.5625 -2.8125
 2922SOL    HW220229   2.932   1.104  17.252  0.1212 -0.1493 -1.6393
 2923SOL     OW20230   3.045   2.075   7.141  0.3201 -0.0613  0.2045
 2923SOL    HW120231   3.088   2.021   7.207  1.7808  0.2236 -0.5145
 2923SOL    HW220232   3.092   2.038   7.066  1.0477 -1.7827  1.5033
 2924SOL     OW20233   2.184   4.632   5.590  0.0295  0.4769 -0.2199
 2924SOL    HW120234   2.138   4.593   5.516  0.8104 -0.7234 -0.0662
 2924SOL    HW220235   2.148   4.586   5.665  0.3360 -1.0600 -1.0177
 2925SOL     OW20236   3.402   1.480   7.589 -0.1194 -0.6062 -0.0924
 2925SOL    HW120237   3.307   1.470   7.581 -0.1724 -0.8740  0.7951
 2925SOL    HW220238   3.429   1.397   7.629  0.9665  0.1047  0.6219
 2926SOL     OW20239   1.191   0.831   5.000 -0.2769  0.2650 -0.0954
 2926SOL    HW120240   1.195   0.914   4.952 -1.1269  0.8193  0.7942
 2926SOL    HW220241   1.177   0.772   4.927 -1.0221  0.8049 -0.3859
 2927SOL     OW20242   0.060   2.798   7.583  0.2639 -0.1928 -0.3793
 2927SOL    HW120243   0.086   2.710   7.610 -0.7616  0.3842  2.5197
 2927SOL    HW220244   0.117   2.813   7.508  0.2413  1.6660 -0.0283
 2928SOL     OW20245   2.164   4.103   9.122  0.2376  0.3178  0.3034
 2928SOL    HW120246   2.120   4.019   9.112  0.5960  0.1670 -0.0190
 2928SOL    HW220247   2.123   4.153   9.052 -2.5218  1.2343  2.5758
 2929SOL     OW20248   2.946   0.519  14.968  0.4047 -0.7858 -0.5655
 2929SOL    HW120249   2.913   0.466  14.895 -1.7232  0.1758 -0.3119
 2929SOL    HW220250   2.996   0.589  14.926 -0.1604 -0.5612 -0.8656
 2930SOL     OW20251   3.828   4.218  10.142 -0.1302 -0.4525 -0.1792
 2930SOL    HW120252   3.887   4.147  10.167 -1.4404 -1.2881  0.5110
 2930SOL    HW220253   3.855   4.287  10.202 -2.1066 -0.4203  0.6779
 2931SOL     OW20254   3.271   0.837   7.973  0.0449  0.2719 -0.1370
 2931SOL    HW120255   3.271   0.745   8.003  0.3442  1.2915  3.0314
 2931SOL    HW220256   3.362   0.849   8.000  0.0607 -1.7073  0.7552
 2932SOL     OW20257   3.145   0.810   1.001 -0.1268 -1.1194  0.0821
 2932SOL    HW120258   3.107   0.740   0.947 -0.9450  1.6069 -2.9194
 2932SOL    HW220259   3.239   0.793   0.995 -0.2294 -1.7325  0.2551
 2933SOL     OW20260   0.713   0.532   3.451  0.0962 -0.0454 -0.3372
 2933SOL    HW120261   0.801   0.540   3.412  0.8029 -1.3493  0.9686
 2933SOL    HW220262   0.664   0.607   3.419  0.8957  1.0763  1.0842
 2934SOL     OW20263   1.963   3.580   2.746  0.0424  0.3770 -0.0995
 2934SOL    HW120264   1.988   3.501   2.794 -0.4291 -0.4402 -1.1986
 2934SOL    HW220265   1.888   3.610   2.797 -0.1541  1.1465 -0.8484
 2935SOL     OW20266   1.951   2.589   5.833  0.7631  0.0625  0.1418
 2935SOL    HW120267   1.894   2.543   5.771  2.0277 -0.8346 -0.3571
 2935SOL    HW220268   1.966   2.519   5.896  0.0921 -0.3296 -0.1280
 2936SOL     OW20269   3.074   0.645   8.546 -0.0674  0.5015  0.2980
 2936SOL    HW120270   3.021   0.592   8.486  0.2817  1.4612 -0.8705
 2936SOL    HW220271   3.057   0.606   8.632  0.0912 -0.8110 -0.2555
 2937SOL     OW20272   2.526   0.899   8.633 -0.1167  0.0968  0.2921
 2937SOL    HW120273   2.485   0.857   8.709 -0.1059  2.1770  1.4508
 2937SOL    HW220274   2.464   0.972   8.640  0.6390  0.8018 -0.5480
 2938SOL     OW20275   2.417   2.198  11.595  0.9968 -0.2312  0.0361
 2938SOL    HW120276   2.325   2.205  11.620  0.8707  2.1312 -1.0951
 2938SOL    HW220277   2.446   2.286  11.620  1.8979 -0.8109  1.0085
 2939SOL     OW20278   3.723   3.195   6.640 -0.1425 -0.2125 -0.3737
 2939SOL    HW120279   3.747   3.131   6.707 -0.5798  0.8776  0.8140
 2939SOL    HW220280   3.646   3.151   6.602  0.2418 -0.6031 -0.7036
 2940SOL     OW20281   3.248   1.203   2.245  0.7186  0.7593  0.3360
 2940SOL    HW120282   3.315   1.240   2.302  1.7574 -1.3969  0.5197
 2940SOL    HW220283   3.175   1.205   2.307  0.1268 -0.4681 -0.3001
 2941SOL     OW20284   0.528   1.657   2.272  0.1064  0.2274 -0.2715
 2941SOL    HW120285   0.467   1.589   2.299 -0.8623  1.7676  1.3435
 2941SOL    HW220286   0.500   1.722   2.336  2.6602  1.6240 -0.5457
 2942SOL     OW20287   1.934   2.845   1.265  0.2583 -0.4884  0.2309
 2942SOL    HW120288   2.027   2.865   1.274  0.1815 -0.4357  0.8991
 2942SOL    HW220289   1.906   2.935   1.248 -1.3988 -1.2158 -0.9709
 2943SOL     OW20290   3.348   1.613  12.600  0.3764  0.2498  0.3868
 2943SOL    HW120291   3.364   1.692  12.548 -0.6231 -1.2847 -2.2372
 2943SOL    HW220292   3.290   1.572  12.536  0.1449  1.1064  0.0400
 2944SOL     OW20293   3.800   2.158  10.323 -0.2926  0.5746 -0.1867
 2944SOL    HW120294   3.803   2.079  10.269  1.1957  0.4192  0.1109
 2944SOL    HW220295   3.825   2.226  10.260 -1.7543  1.1814 -0.1120
 2945SOL     OW20296   0.734   1.160  10.509  0.1426 -0.9120 -0.1875
 2945SOL    HW120297   0.828   1.146  10.518  0.2177 -0.3309 -0.0463
 2945SOL    HW220298   0.709   1.166  10.602 -0.0580  0.0686 -0.2988
 2946SOL     OW20299   1.834   3.525   1.697 -0.8187  0.2455  0.1068
 2946SOL    HW120300   1.762   3.471   1.667  0.7076 -1.1098 -1.1750
 2946SOL    HW220301   1.905   3.477   1.654 -0.5325  0.2336  0.5883
 2947SOL     OW20302   3.366   2.702   9.408  0.2051 -0.0700 -0.0867
 2947SOL    HW120303   3.394   2.613   9.386  0.0314  0.3018 -1.7881
 2947SOL    HW220304   3.289   2.704   9.465 -0.4391 -2.3888 -0.8555
 2948SOL     OW20305   4.285   2.784  11.561 -0.0578 -0.1805  0.0405
 2948SOL    HW120306   4.206   2.785  11.617  1.9536 -0.9373  2.8985
 2948SOL    HW220307   4.351   2.794  11.630 -1.4665  0.4483  1.3080
 2949SOL     OW20308   3.687   4.694   6.369  0.1105 -0.1567 -0.4601
 2949SOL    HW120309   3.662   0.040   6.306 -1.2749 -0.9181 -0.7269
 2949SOL    HW220310   3.756   4.652   6.317  1.1274 -1.2386  1.7657
 2950SOL     OW20311   0.698   0.848   3.212 -0.4952 -0.1599 -0.5625
 2950SOL    HW120312   0.755   0.925   3.219 -0.8289  0.1121 -0.8039
 2950SOL    HW220313   0.762   0.787   3.177  1.1639  1.0177  0.4468
 2951SOL     OW20314   0.397   4.581   6.975  0.2434 -0.5652  0.1156
 2951SOL    HW120315   0.368   4.496   6.942 -2.3484  0.6454 -0.6810
 2951SOL    HW220316   0.474   4.597   6.919  0.9587 -0.4348  1.1269
 2952SOL     OW20317   2.441   3.704   0.470 -0.2336 -0.8387  0.7150
 2952SOL    HW120318   2.362   3.656   0.493 -0.6578  0.0194  1.0523
 2952SOL    HW220319   2.493   3.684   0.548 -1.8176  0.8991  2.2266
 2953SOL     OW20320   2.985   1.598   6.500 -0.1622  0.1834  1.0469
 2953SOL    HW120321   3.068   1.631   6.466  0.8022 -3.0874  0.2535
 2953SOL    HW220322   2.942   1.584   6.415  0.1266  0.1043  0.9131
 2954SOL     OW20323   4.335   1.957   8.697  0.4240  0.4485 -0.2660
 2954SOL    HW120324   4.288   1.975   8.779 -0.9133  0.3602 -1.0074
 2954SOL    HW220325   4.264   1.966   8.633 -0.6239 -1.7295  0.5664
 2955SOL     OW20326   3.562   3.242   9.396 -0.3020  0.2372 -0.4918
 2955SOL    HW120327   3.505   3.220   9.470  0.2404  2.2727  0.5122
 2955SOL    HW220328   3.564   3.163   9.342 -1.4794 -0.9920  1.2544
 2956SOL     OW20329   1.404   0.909   7.301  0.2269  0.4519 -0.3170
 2956SOL    HW120330   1.493   0.924   7.271  0.2418 -1.7498 -1.3358
 2956SOL    HW220331   1.368   0.976   7.243  2.2890  0.6940 -1.2864
 2957SOL     OW20332   2.790   2.254   2.430  0.1370  0.3030  0.2576
 2957SOL    HW120333   2.724   2.297   2.374  0.0032  0.7329  0.7490
 2957SOL    HW220334   2.744   2.224   2.508  1.0607 -2.1310 -0.1500
 2958SOL     OW20335   4.541   3.873  10.374 -0.3239  0.4133  0.2690
 2958SOL    HW120336   4.481   3.821  10.427 -1.2256 -0.4396 -1.5955
 2958SOL    HW220337   4.552   3.949  10.432  0.2393 -0.2453  1.0372
 2959SOL     OW20338   3.074   0.133   1.674 -1.1673 -0.0599  0.0929
 2959SOL    HW120339   3.116   0.047   1.670  0.9606  0.9215  1.5135
 2959SOL    HW220340   3.147   0.194   1.665 -2.1314  1.6969  3.9462
 2960SOL     OW20341   0.788   4.671   3.357  0.0699  0.9308  0.3932
 2960SOL    HW120342   0.832   4.616   3.422  2.2297  1.2728 -0.8114
 2960SOL    HW220343   0.817   0.036   3.387  0.8037  0.4420  1.0732
 2961SOL     OW20344   3.403   0.046  15.155  0.0024 -0.0426 -0.2130
 2961SOL    HW120345   3.329   0.106  15.155 -0.5772 -0.7713  3.4458
 2961SOL    HW220346   3.361   4.681  15.153  0.0201 -0.0227 -1.6873
 2962SOL     OW20347   0.255   3.551   8.933  0.1395 -0.2461  0.5505
 2962SOL    HW120348   0.243   3.505   9.015 -1.0573  2.2360  1.7685
 2962SOL    HW220349   0.265   3.641   8.965 -2.1819  0.3532 -0.3692
 2963SOL     OW20350   3.635   3.675   0.750  0.2308 -0.0411  0.0200
 2963SOL    HW120351   3.580   3.739   0.705  1.3148  0.5452 -0.4852
 2963SOL    HW220352   3.710   3.730   0.772  1.2986 -2.1556  1.7125
 2964SOL     OW20353   0.839   1.767   3.959  0.2923 -0.7078  0.9916
 2964SOL    HW120354   0.815   1.756   3.867  1.5646 -0.3437  0.6162
 2964SOL    HW220355   0.752   1.771   3.999 -0.5301 -1.1629 -0.7410
 2965SOL     OW20356   3.562   3.487   7.457  0.1826 -0.4571 -0.3696
 2965SOL    HW120357   3.642   3.469   7.407  0.6897 -0.0217  0.2814
 2965SOL    HW220358   3.511   3.411   7.430  0.0868 -0.3757 -0.4145
 2966SOL     OW20359   1.101   4.266   3.565  0.1083 -0.1421  0.3655
 2966SOL    HW120360   1.080   4.283   3.657  2.3819  2.2238  0.4609
 2966SOL    HW220361   1.175   4.208   3.582  0.4538  0.5662  1.2617
 2967SOL     OW20362   0.977   2.806  12.571 -0.1019 -0.1015 -0.6109
 2967SOL    HW120363   1.004   2.721  12.537 -1.0843 -1.2101  1.3623
 2967SOL    HW220364   0.988   2.855  12.490 -0.4634 -1.8918 -1.7535
 2968SOL     OW20365   3.768   2.156   6.191 -0.3649  0.6141 -0.6343
 2968SOL    HW120366   3.839   2.092   6.188 -0.3525  0.5265  1.4031
 2968SOL    HW220367   3.819   2.230   6.225 -0.2143 -0.6172  1.8555
 2969SOL     OW20368   2.856   1.602   6.266  0.0505  0.2971  0.7074
 2969SOL    HW120369   2.772   1.576   6.305 -0.9743  2.0285 -0.3386
 2969SOL    HW220370   2.820   1.679   6.221 -0.8281 -0.0936  0.7271
 2970SOL     OW20371   2.265   4.514  16.343  0.0188  0.2526  0.4619
 2970SOL    HW120372   2.273   4.609  16.334 -2.1079  0.4289  0.4632
 2970SOL    HW220373   2.348   4.491  16.301 -1.0121 -2.7767  0.0508
 2971SOL     OW20374   2.367   0.881   2.994 -0.4249  0.3516 -0.3878
 2971SOL    HW120375   2.298   0.815   2.994  1.0009 -1.1532 -1.6178
 2971SOL    HW220376   2.311   0.959   2.996 -2.4883 -1.0719 -3.1779
 2972SOL     OW20377   0.111   4.235   5.187 -0.3133 -0.4081  0.1409
 2972SOL    HW120378   0.044   4.167   5.190 -1.5594  0.8420  0.7894
 2972SOL    HW220379   0.132   4.221   5.280  0.0983 -0.1451  0.0876
 2973SOL     OW20380   1.593   2.386  13.843  0.4859  0.0080  0.2521
 2973SOL    HW120381   1.603   2.308  13.898  0.5086 -0.3451 -0.2537
 2973SOL    HW220382   1.589   2.456  13.908  0.0499 -0.4066  0.6719
 2974SOL     OW20383   2.835   4.225   5.569 -0.1539 -0.1804  0.6572
 2974SOL    HW120384   2.787   4.296   5.526  1.3948 -0.0093 -0.7870
 2974SOL    HW220385   2.778   4.149   5.557  1.8922 -1.6515  0.2252
 2975SOL     OW20386   0.237   0.614   1.518  0.3260  0.3680  0.2452
 2975SOL    HW120387   0.148   0.643   1.497  0.3651 -0.9079 -1.6227
 2975SOL    HW220388   0.267   0.571   1.439  1.1503  3.1047 -0.9214
 2976SOL     OW20389   1.971   0.182   5.571  0.4758 -0.3762  0.1748
 2976SOL    HW120390   1.880   0.154   5.585  0.5821 -0.7151  0.1685
 2976SOL    HW220391   1.993   0.138   5.489 -1.5749  0.1121 -0.6409
 2977SOL     OW20392   1.226   2.656   5.693 -0.1535 -0.3036 -0.0826
 2977SOL    HW120393   1.285   2.702   5.633  0.1364 -0.8186 -0.1842
 2977SOL    HW220394   1.278   2.650   5.773 -1.0650 -0.5981  0.4871
 2978SOL     OW20395   2.198   4.391   6.293  0.2824 -0.0243 -0.2248
 2978SOL    HW120396   2.112   4.352   6.309  0.4928 -2.4450 -4.8579
 2978SOL    HW220397   2.258   4.327   6.333  0.8541 -0.3652 -1.6052
 2979SOL     OW20398   1.085   1.749   7.701 -0.7874 -0.4782  0.1210
 2979SOL    HW120399   1.011   1.712   7.653 -0.0225 -0.5741 -0.9860
 2979SOL    HW220400   1.151   1.690   7.666  0.2162  0.8191 -0.1881
 2980SOL     OW20401   0.663   4.359   4.311 -0.2952  0.5635 -0.1973
 2980SOL    HW120402   0.742   4.392   4.267  0.1100 -0.1386 -0.0021
 2980SOL    HW220403   0.643   4.430   4.373  0.7338 -1.7575  2.7635
 2981SOL     OW20404   4.582   3.881   8.522 -0.7808  0.2370 -0.5445
 2981SOL    HW120405   4.545   3.803   8.479 -0.8225  0.7349 -1.4153
 2981SOL    HW220406   4.641   3.834   8.581  0.1519  1.1137 -0.7747
 2982SOL     OW20407   0.361   3.724   7.585  0.2408  0.4653  0.0362
 2982SOL    HW120408   0.329   3.771   7.508 -0.1292 -0.2993 -0.2726
 2982SOL    HW220409   0.409   3.797   7.625  0.2244  1.1481 -1.1629
 2983SOL     OW20410   1.933   1.324   5.783 -0.4891 -0.0140 -0.4359
 2983SOL    HW120411   1.867   1.260   5.760  0.8032 -1.3175 -0.4812
 2983SOL    HW220412   1.906   1.396   5.725  0.1649 -0.1331 -0.8875
 2984SOL     OW20413   0.542   2.295   2.575 -0.4557  0.0223 -0.3820
 2984SOL    HW120414   0.620   2.317   2.626  0.4127 -3.1511 -0.3350
 2984SOL    HW220415   0.526   2.385   2.545  0.7824  0.0449 -0.9829
 2985SOL     OW20416   3.078   4.413   4.755  0.2469  0.3666 -0.3948
 2985SOL    HW120417   3.109   4.432   4.667  1.0036 -0.2481 -0.2594
 2985SOL    HW220418   3.104   4.321   4.766  1.3759  0.6141 -1.0108
 2986SOL     OW20419   4.366   2.194   4.297 -0.6927  0.2185 -0.0570
 2986SOL    HW120420   4.390   2.286   4.292 -1.7492  0.3381 -2.4408
 2986SOL    HW220421   4.360   2.162   4.388  1.0223 -1.7697 -0.6432
 2987SOL     OW20422   2.820   3.864   1.262  0.1306 -0.2206  0.0054
 2987SOL    HW120423   2.820   3.949   1.218  0.9857 -1.0591 -1.6235
 2987SOL    HW220424   2.727   3.858   1.284 -0.5448 -0.6934 -2.9982
 2988SOL     OW20425   3.515   3.119  15.017 -0.3159 -0.2979  0.7883
 2988SOL    HW120426   3.453   3.160  14.956  2.4032 -1.6074 -2.8450
 2988SOL    HW220427   3.495   3.168  15.097 -1.3995 -0.3677  0.5556
 2989SOL     OW20428   3.459   1.568   3.190 -0.1631 -0.4805  0.2089
 2989SOL    HW120429   3.527   1.591   3.128 -0.3725 -0.7074 -0.1017
 2989SOL    HW220430   3.437   1.649   3.237  0.2196 -1.2432  1.7312
 2990SOL     OW20431   4.048   0.734   6.041 -0.5533  0.1129 -0.0894
 2990SOL    HW120432   4.055   0.720   5.946 -0.9735 -0.3942 -0.0368
 2990SOL    HW220433   4.068   0.649   6.080 -0.1091 -0.6987 -2.0657
 2991SOL     OW20434   3.715   1.789   5.434 -0.1265 -0.4353 -0.1447
 2991SOL    HW120435   3.739   1.788   5.342 -0.1628 -0.5322 -0.1532
 2991SOL    HW220436   3.623   1.763   5.427 -0.9017  1.6384  1.8722
 2992SOL     OW20437   3.664   2.760   6.151  0.5831  0.8015 -0.1543
 2992SOL    HW120438   3.734   2.712   6.105  1.1060  2.8909 -1.5258
 2992SOL    HW220439   3.650   2.831   6.088  1.0468 -0.7406 -2.0118
 2993SOL     OW20440   1.266   0.380   6.896  0.0005  0.1731  0.1210
 2993SOL    HW120441   1.170   0.376   6.890  0.0864  0.3966 -1.4280
 2993SOL    HW220442   1.286   0.287   6.886 -0.6154  0.0799 -0.3148
 2994SOL     OW20443   3.557   1.377   8.796  0.1969  0.2300  0.5193
 2994SOL    HW120444   3.583   1.292   8.830  0.2937 -0.0221 -0.1708
 2994SOL    HW220445   3.462   1.374   8.788  0.0849 -1.0630  2.4519
 2995SOL     OW20446   4.507   2.522  14.296  0.0547  0.3018  0.2986
 2995SOL    HW120447   4.519   2.606  14.341 -1.0153  0.6509 -0.0623
 2995SOL    HW220448   4.598   2.498  14.282  0.1679  1.3781 -0.7909
 2996SOL     OW20449   1.663   3.968  12.875  0.1350  0.2494 -0.2132
 2996SOL    HW120450   1.630   4.056  12.890  0.5150  0.0445  1.7758
 2996SOL    HW220451   1.741   3.966  12.931  0.4048 -0.4523 -0.6150
 2997SOL     OW20452   1.750   1.376  13.173 -0.0329 -0.3537 -0.6818
 2997SOL    HW120453   1.677   1.313  13.167  0.9543 -1.4303 -1.3899
 2997SOL    HW220454   1.803   1.342  13.101  1.3902 -1.5207  0.9206
 2998SOL     OW20455   3.207   3.815   6.551 -0.3731 -0.4658 -0.1129
 2998SOL    HW120456   3.271   3.784   6.616  0.4610  1.1862 -0.1407
 2998SOL    HW220457   3.176   3.894   6.595 -0.1433 -1.0796  1.1596
 2999SOL     OW20458   3.428   1.821   2.911 -0.1875 -0.3315  0.1218
 2999SOL    HW120459   3.446   1.736   2.871  0.0143  0.3173 -1.1589
 2999SOL    HW220460   3.388   1.788   2.991  1.2003  1.6936  1.6629
 3000SOL     OW20461   2.677   1.404   8.989  0.2903 -0.0182  0.2437
 3000SOL    HW120462   2.610   1.341   9.016  0.6041 -0.4959 -0.0838
 3000SOL    HW220463   2.617   1.446   8.927 -0.5419  1.1469  1.8675
 3001SOL     OW20464   1.039   0.609   8.093 -0.4396  0.4850 -0.1394
 3001SOL    HW120465   1.005   0.547   8.028  0.2950 -1.2649  1.1518
 3001SOL    HW220466   1.133   0.609   8.075 -0.2173  4.2180  1.0435
 3002SOL     OW20467   1.411   2.906  10.447  0.0763 -0.1766 -0.2681
 3002SOL    HW120468   1.436   2.853  10.371 -0.4974  0.7713 -1.1263
 3002SOL    HW220469   1.392   2.843  10.516 -1.5390 -0.0331 -0.5728
 3003SOL     OW20470   1.179   0.934   8.539  0.1623 -0.0223  0.3693
 3003SOL    HW120471   1.182   0.897   8.628 -2.1550  2.0949  1.3308
 3003SOL    HW220472   1.257   0.890   8.504 -0.8782 -1.2592 -0.3875
 3004SOL     OW20473   1.602   3.350   6.793  0.3498  0.3052 -0.2181
 3004SOL    HW120474   1.628   3.270   6.839  0.6225 -0.5659 -1.8741
 3004SOL    HW220475   1.536   3.311   6.735  1.0011 -0.6176 -0.3421
 3005SOL     OW20476   3.089   2.446   8.739 -0.3006 -0.1255  0.2153
 3005SOL    HW120477   3.034   2.489   8.806 -1.3574  0.0921 -0.7922
 3005SOL    HW220478   3.101   2.360   8.780  2.3454 -0.0628 -0.4642
 3006SOL     OW20479   4.107   3.146   4.597  0.1234  0.5881  0.4962
 3006SOL    HW120480   4.161   3.102   4.662 -0.7634 -3.1087 -1.3020
 3006SOL    HW220481   4.131   3.238   4.606  2.0726  0.0225  1.0030
 3007SOL     OW20482   3.599   1.489   1.282 -0.0868 -0.1495 -0.6513
 3007SOL    HW120483   3.570   1.501   1.372 -1.3225 -1.2835 -0.9084
 3007SOL    HW220484   3.638   1.402   1.290  0.1244  0.0732  0.7225
 3008SOL     OW20485   2.708   0.051   6.268  0.3189  0.0211  0.3803
 3008SOL    HW120486   2.663   0.095   6.340  0.7116  0.7539  0.1835
 3008SOL    HW220487   2.668   4.686   6.272  0.9496 -0.2397  1.1707
 3009SOL     OW20488   0.384   1.839   1.939 -0.1075  0.5401 -0.2850
 3009SOL    HW120489   0.450   1.872   2.000 -0.1618 -0.3532  0.2644
 3009SOL    HW220490   0.303   1.843   1.991 -0.6954  0.7350 -1.2242
 3010SOL     OW20491   2.774   0.366  10.910  0.1777  0.0729  0.3665
 3010SOL    HW120492   2.701   0.355  10.971  0.8888  1.9502  1.5778
 3010SOL    HW220493   2.846   0.377  10.973 -0.0822 -0.3440  0.7367
 3011SOL     OW20494   0.527   1.004  13.417  0.0277  0.8833  0.2416
 3011SOL    HW120495   0.444   1.003  13.464 -0.2160  3.5286 -0.1036
 3011SOL    HW220496   0.554   0.914  13.433  2.2053  1.3381 -0.8900
 3012SOL     OW20497   3.849   2.335   9.312 -0.1483 -0.2184 -0.2314
 3012SOL    HW120498   3.867   2.419   9.270 -1.0909 -0.1716 -0.5397
 3012SOL    HW220499   3.929   2.323   9.363 -0.7040 -1.0641  0.4589
 3013SOL     OW20500   4.370   1.568   3.763  0.6725  0.3108 -0.0180
 3013SOL    HW120501   4.363   1.472   3.765  0.5910  0.3783  2.7442
 3013SOL    HW220502   4.422   1.576   3.843  2.2111  2.2311 -1.1989
 3014SOL     OW20503   4.604   1.676  17.531  0.1575  0.2266  0.0732
 3014SOL    HW120504   4.578   1.720  17.612  0.4178 -0.5671  0.5848
 3014SOL    HW220505   4.532   1.616  17.513 -0.6143  0.5966  1.9607
 3015SOL     OW20506   2.381   4.206   7.722 -0.2973 -0.7751  0.4539
 3015SOL    HW120507   2.332   4.143   7.668 -2.7966  1.5635  0.0119
 3015SOL    HW220508   2.371   4.156   7.803 -0.5048 -1.7792 -0.1750
 3016SOL     OW20509   0.665   1.552  10.957 -0.1015 -0.4527 -0.1559
 3016SOL    HW120510   0.632   1.579  11.043 -0.8080 -0.9316 -0.2767
 3016SOL    HW220511   0.755   1.584  10.949 -0.3862  0.1035 -1.1143
 3017SOL     OW20512   2.468   2.227  16.347 -0.6827  0.4916 -0.0964
 3017SOL    HW120513   2.536   2.230  16.415 -0.0764  0.7157 -0.7085
 3017SOL    HW220514   2.396   2.212  16.408  0.1645 -2.0363  0.2996
 3018SOL     OW20515   0.304   2.176   7.510 -0.0893  0.1100 -0.6046
 3018SOL    HW120516   0.341   2.100   7.555 -1.5177  0.5607  1.3149
 3018SOL    HW220517   0.366   2.210   7.445 -1.2915 -0.5809 -2.1322
 3019SOL     OW20518   1.955   3.571   2.298 -0.0002  0.4071  0.3882
 3019SOL    HW120519   2.004   3.495   2.268 -1.1287 -0.7838  1.5611
 3019SOL    HW220520   1.871   3.554   2.255 -0.7049 -0.9864  2.3142
 3020SOL     OW20521   0.279   4.026  15.979  0.0989  0.5349 -0.6004
 3020SOL    HW120522   0.357   4.013  15.926  0.1026  0.5835 -0.6075
 3020SOL    HW220523   0.219   3.956  15.954 -0.7350  1.1356 -0.3220
 3021SOL     OW20524   1.979   2.178   5.182  0.1633 -0.4678  0.3368
 3021SOL    HW120525   1.884   2.193   5.186  0.3071  0.0129  2.0432
 3021SOL    HW220526   1.988   2.122   5.104 -1.6098 -0.5262  0.1719
 3022SOL     OW20527   1.348   4.232   4.806 -0.2614 -0.0545  0.3691
 3022SOL    HW120528   1.376   4.256   4.717  1.6031 -1.9756  0.4464
 3022SOL    HW220529   1.382   4.305   4.858  2.9932 -0.5718 -1.0361
 3023SOL     OW20530   0.177   4.268   3.156 -0.3234 -0.0493  0.0772
 3023SOL    HW120531   0.227   4.268   3.238  0.5418  0.7589 -0.4512
 3023SOL    HW220532   0.240   4.241   3.090 -1.0858 -0.1002 -0.6324
 3024SOL     OW20533   0.064   3.625  14.554 -0.7245 -0.3824 -0.1498
 3024SOL    HW120534   0.025   3.651  14.470 -1.8789  1.5764  0.9979
 3024SOL    HW220535   0.142   3.680  14.555 -0.5934 -0.5691 -0.1245
 3025SOL     OW20536   0.021   4.298   8.492  0.7834  0.3718 -0.0484
 3025SOL    HW120537   4.700   4.332   8.412  0.6267  1.0115  0.3008
 3025SOL    HW220538   0.076   4.375   8.506  1.4342 -0.6446  2.7890
 3026SOL     OW20539   0.848   3.013   6.450  0.1656  0.0093 -0.1255
 3026SOL    HW120540   0.880   3.016   6.360  1.5833  0.0267  0.3799
 3026SOL    HW220541   0.829   3.103   6.473 -1.7045 -0.3928 -0.1215
 3027SOL     OW20542   3.647   0.495   9.602  0.2726  0.3108 -0.1912
 3027SOL    HW120543   3.577   0.531   9.656  0.2638  1.6660 -1.0900
 3027SOL    HW220544   3.620   0.404   9.595 -0.4242  0.3324  2.4559
 3028SOL     OW20545   0.020   4.411   8.195  0.1863  0.1374  0.0268
 3028SOL    HW120546   0.034   4.404   8.100 -0.8407 -0.6607 -0.0682
 3028SOL    HW220547   0.078   4.346   8.234 -0.5753  0.3609  1.5253
 3029SOL     OW20548   0.010   0.143  13.591  0.0981 -0.7915  0.1512
 3029SOL    HW120549   4.643   0.136  13.554 -0.1252 -0.0135  0.5343
 3029SOL    HW220550   4.715   0.120  13.682  0.5405  0.4535  0.5298
 3030SOL     OW20551   0.532   3.846   3.851  0.4379  0.1395 -0.1624
 3030SOL    HW120552   0.503   3.759   3.879 -0.4820  0.8406  1.0570
 3030SOL    HW220553   0.606   3.826   3.793  0.5349 -2.7307  0.9329
 3031SOL     OW20554   4.342   2.762  16.525 -0.4602 -0.6647  0.4749
 3031SOL    HW120555   4.436   2.780  16.535 -0.3722 -0.0675 -1.2769
 3031SOL    HW220556   4.316   2.676  16.560 -1.6508 -1.7288 -2.9872
 3032SOL     OW20557   4.337   2.738   3.551  0.6487  0.1190 -0.2084
 3032SOL    HW120558   4.323   2.803   3.482  4.2651 -1.0670 -2.0233
 3032SOL    HW220559   4.246   2.722   3.577  0.0638  0.5224 -2.0065
 3033SOL     OW20560   0.753   3.044  15.760 -0.0878  0.5437 -0.0760
 3033SOL    HW120561   0.737   3.093  15.679 -0.1615  1.4901  0.5007
 3033SOL    HW220562   0.816   2.984  15.721 -0.9407 -1.3729  1.4940
 3034SOL     OW20563   3.814   3.365   3.233 -0.1140 -0.1444 -0.4588
 3034SOL    HW120564   3.723   3.390   3.246 -0.2078 -0.3390 -0.7386
 3034SOL    HW220565   3.796   3.288   3.179 -2.3196  1.2067 -1.6457
 3035SOL     OW20566   0.627   3.521   3.762 -0.0058 -0.3715 -0.4727
 3035SOL    HW120567   0.544   3.554   3.796  0.7800  2.0856 -0.9763
 3035SOL    HW220568   0.601   3.433   3.790  2.0717 -0.7959  0.1416
 3036SOL     OW20569   3.789   4.329   7.729  0.3539  0.5933 -0.5618
 3036SOL    HW120570   3.845   4.265   7.773 -1.4281  0.6601  1.7663
 3036SOL    HW220571   3.853   4.366   7.668 -0.7094 -0.2180 -2.1585
 3037SOL     OW20572   3.860   0.823   1.742 -0.1475  0.2773 -0.1033
 3037SOL    HW120573   3.829   0.768   1.813 -1.1240 -0.8219 -1.3938
 3037SOL    HW220574   3.825   0.906   1.774 -1.5114 -0.0137 -0.8680
 3038SOL     OW20575   2.879   1.583  16.731  0.0067 -0.0709  0.4296
 3038SOL    HW120576   2.890   1.567  16.825  1.0205 -1.6208  0.0571
 3038SOL    HW220577   2.785   1.567  16.724 -0.5538  4.2402 -1.6741
 3039SOL     OW20578   3.541   2.559  10.687  0.0661 -0.1157  0.0896
 3039SOL    HW120579   3.562   2.469  10.708 -0.3052  0.3909  2.5870
 3039SOL    HW220580   3.597   2.610  10.746  0.1361  0.4889 -0.4969
 3040SOL     OW20581   1.462   4.649   6.996 -0.0579 -0.0646  0.5108
 3040SOL    HW120582   1.556   4.648   7.017 -0.1405 -1.1434  0.8208
 3040SOL    HW220583   1.443   4.571   6.945 -0.3105  1.1699 -1.2884
 3041SOL     OW20584   0.148   2.941   8.229 -0.6726 -0.1552 -0.4457
 3041SOL    HW120585   0.067   2.992   8.225  0.9330  2.4382  0.0667
 3041SOL    HW220586   0.139   2.884   8.305 -1.3131  1.1890  0.4806
 3042SOL     OW20587   1.423   2.992   5.757 -0.5861 -0.2212  0.0475
 3042SOL    HW120588   1.368   3.015   5.832 -0.0622  1.6107 -0.1362
 3042SOL    HW220589   1.507   2.977   5.800  0.4105 -0.3556 -1.9266
 3043SOL     OW20590   1.757   1.304   9.929  0.4177 -0.1949  0.3903
 3043SOL    HW120591   1.691   1.373   9.926  1.7289  0.9638 -2.2715
 3043SOL    HW220592   1.721   1.261  10.006  2.8669 -0.0278  1.6202
 3044SOL     OW20593   4.040   1.003  17.415  0.0168  0.4071  0.0513
 3044SOL    HW120594   4.020   1.031  17.325  0.1236 -0.5453 -0.2690
 3044SOL    HW220595   3.959   0.962  17.445  0.9863  0.1635  2.3266
 3045SOL     OW20596   3.289   1.381   4.305 -0.1657  0.9609  0.2280
 3045SOL    HW120597   3.268   1.288   4.307 -1.0564  1.1992  1.7285
 3045SOL    HW220598   3.384   1.372   4.317  0.0632 -0.3611 -2.5631
 3046SOL     OW20599   3.330   3.582   3.360  0.1009 -0.0628 -0.9198
 3046SOL    HW120600   3.284   3.549   3.283  0.2301 -2.5023  0.0743
 3046SOL    HW220601   3.318   3.512   3.424 -0.8632  1.3422  0.4307
 3047SOL     OW20602   1.033   4.311  13.642 -0.0698 -0.2273  0.3811
 3047SOL    HW120603   0.966   4.264  13.593  0.2005 -0.1035 -0.1023
 3047SOL    HW220604   0.983   4.367  13.702 -0.0362  0.7793 -0.5419
 3048SOL     OW20605   2.157   3.747   2.310 -0.3098  0.3723 -0.1604
 3048SOL    HW120606   2.174   3.821   2.252 -0.4240  1.1283  0.7703
 3048SOL    HW220607   2.090   3.696   2.266 -1.3067  1.2700  0.3283
 3049SOL     OW20608   4.554   4.577  15.563 -0.0588  0.5174 -0.2443
 3049SOL    HW120609   4.575   4.551  15.474 -0.7223 -0.3554 -0.1447
 3049SOL    HW220610   4.555   4.672  15.552  1.2543  0.3291 -1.7727
 3050SOL     OW20611   0.687   2.712   4.381  0.1973 -0.3833  0.4919
 3050SOL    HW120612   0.684   2.616   4.376 -0.5029 -0.3501  0.2192
 3050SOL    HW220613   0.754   2.724   4.448 -1.4815  0.0248  2.1096
 3051SOL     OW20614   0.939   4.262   2.861 -0.3795  0.3106  0.1122
 3051SOL    HW120615   0.860   4.304   2.895 -0.8266 -1.4105  1.2363
 3051SOL    HW220616   1.008   4.310   2.908 -1.7975  0.5540  1.9448
 3052SOL     OW20617   3.415   2.909  16.968  0.0049 -0.1925 -0.0766
 3052SOL    HW120618   3.425   2.890  17.062  0.8910 -3.4000 -0.8035
 3052SOL    HW220619   3.398   3.003  16.973  0.6119 -0.0265 -1.0591
 3053SOL     OW20620   1.011   3.384  16.547  0.1313  0.5011 -0.0622
 3053SOL    HW120621   0.936   3.333  16.517  0.5662 -0.0288 -0.2627
 3053SOL    HW220622   0.977   3.471  16.526  0.5265  0.7139  0.1642
 3054SOL     OW20623   3.845   1.814   5.199 -0.2778  0.0328  0.6300
 3054SOL    HW120624   3.810   1.891   5.156 -0.1574  0.3211  1.0480
 3054SOL    HW220625   3.832   1.746   5.133  3.3706 -0.7561  0.7263
 3055SOL     OW20626   3.837   3.763   3.145 -0.2288  0.2286  0.2742
 3055SOL    HW120627   3.800   3.768   3.233 -1.4715  1.3359 -0.3139
 3055SOL    HW220628   3.793   3.831   3.094 -2.9807 -1.2486  0.6514
 3056SOL     OW20629   4.351   2.301   3.769 -0.6116  0.4855  0.4912
 3056SOL    HW120630   4.401   2.348   3.703  0.1003  0.3389  0.9230
 3056SOL    HW220631   4.381   2.336   3.853  0.3392 -0.1438  0.4125
 3057SOL     OW20632   4.329   4.516   3.327 -0.1964 -0.2182 -0.0399
 3057SOL    HW120633   4.306   4.518   3.234  0.8723 -2.1212 -0.3361
 3057SOL    HW220634   4.400   4.580   3.328  3.3346 -4.1036 -1.8212
 3058SOL     OW20635   2.760   3.549   2.711 -0.4176 -0.4531  0.1771
 3058SOL    HW120636   2.817   3.621   2.683 -0.1806 -0.1825  1.3490
 3058SOL    HW220637   2.825   3.492   2.754  1.2109  0.8644 -0.5230
 3059SOL     OW20638   3.780   1.616  12.665 -0.1096 -0.1754  0.2125
 3059SOL    HW120639   3.735   1.636  12.747 -3.1514 -0.8030 -1.3114
 3059SOL    HW220640   3.744   1.537  12.625  1.1188 -0.6255 -0.0227
 3060SOL     OW20641   1.001   4.667  17.654  0.1959  0.1747 -0.0754
 3060SOL    HW120642   1.027   4.629   0.051  2.1683 -3.2828 -2.2516
 3060SOL    HW220643   0.937   4.601  17.626 -0.5941  1.1086 -0.4719
 3061SOL     OW20644   3.215   0.838   4.986 -0.1024 -0.0705  0.1456
 3061SOL    HW120645   3.228   0.748   4.954 -4.2221 -0.8164  0.5931
 3061SOL    HW220646   3.267   0.839   5.066  0.2592 -2.7917 -0.0496
 3062SOL     OW20647   0.801   4.213   7.379  0.1699  0.3021  0.1264
 3062SOL    HW120648   0.881   4.160   7.375  0.1269  0.1929  0.8401
 3062SOL    HW220649   0.741   4.158   7.328  2.6367 -1.7548 -0.5463
 3063SOL     OW20650   2.827   3.889   1.568  0.4731 -0.2239 -0.0036
 3063SOL    HW120651   2.906   3.849   1.604  0.9007  0.1163 -0.5754
 3063SOL    HW220652   2.835   3.891   1.473  1.2014 -1.7274  0.0204
 3064SOL     OW20653   1.673   1.445   9.090 -0.3495  0.0434 -0.4858
 3064SOL    HW120654   1.741   1.384   9.116  0.1460  0.9684  0.3940
 3064SOL    HW220655   1.653   1.488   9.174 -0.8135 -0.2458 -0.4477
 3065SOL     OW20656   3.491   2.231  11.210  0.5689  0.1356  0.4602
 3065SOL    HW120657   3.448   2.225  11.295  1.9990  1.1310  1.2629
 3065SOL    HW220658   3.580   2.209  11.238 -0.0947  0.4704  2.7786
 3066SOL     OW20659   4.345   3.838  15.542  0.0184  0.2755 -0.2457
 3066SOL    HW120660   4.338   3.744  15.528 -0.5740  0.0194  1.7128
 3066SOL    HW220661   4.434   3.850  15.575  0.0351 -1.1136  0.1928
 3067SOL     OW20662   0.279   2.793   8.712  0.2202  0.3931  0.0637
 3067SOL    HW120663   0.192   2.798   8.673  0.0675  1.0752  0.5010
 3067SOL    HW220664   0.294   2.887   8.713  1.0639  0.2472  0.9114
 3068SOL     OW20665   4.372   2.342  15.070 -0.0516 -0.2013  0.5580
 3068SOL    HW120666   4.396   2.340  15.163  0.2429  0.0228  0.4858
 3068SOL    HW220667   4.311   2.415  15.073 -1.1768 -0.9808 -3.6151
 3069SOL     OW20668   2.895   0.716  16.903 -0.1743  0.2125  0.1536
 3069SOL    HW120669   2.859   0.668  16.829 -2.6547 -0.4322  1.7890
 3069SOL    HW220670   2.859   0.803  16.886  2.1756  1.0125 -0.8539
 3070SOL     OW20671   4.679   4.316   9.269  0.4414  0.0258 -0.3067
 3070SOL    HW120672   4.668   4.411   9.268 -0.8359 -0.1091  0.7666
 3070SOL    HW220673   4.625   4.295   9.346 -0.3528  0.2726 -0.7959
 3071SOL     OW20674   1.376   4.263   8.379 -0.0034 -0.1148 -0.6232
 3071SOL    HW120675   1.365   4.262   8.474 -1.7332  1.8325 -0.8089
 3071SOL    HW220676   1.333   4.346   8.358 -0.3661  0.4015  2.2552
 3072SOL     OW20677   2.027   2.096   2.132  0.3030  0.1772 -0.4227
 3072SOL    HW120678   2.062   2.184   2.121  0.2899  0.1444 -0.7340
 3072SOL    HW220679   2.086   2.058   2.196 -1.0720  1.3438  1.5482
 3073SOL     OW20680   3.309   1.807   4.287 -0.0410  0.1273 -0.1518
 3073SOL    HW120681   3.222   1.768   4.276 -0.5140  0.6431  1.8157
 3073SOL    HW220682   3.293   1.888   4.335 -1.4053  0.0012 -0.3830
 3074SOL     OW20683   4.173   1.778  13.383  0.1199 -0.2341 -0.6393
 3074SOL    HW120684   4.188   1.803  13.474 -1.3277 -0.5372 -0.3185
 3074SOL    HW220685   4.078   1.773  13.372  0.0661  0.0144 -0.2665
 3075SOL     OW20686   1.962   2.005   5.405  0.5506 -0.0232  1.2182
 3075SOL    HW120687   2.002   2.066   5.343  0.0796 -1.5681 -0.6001
 3075SOL    HW220688   2.005   2.034   5.485  2.6171 -1.5437  0.6643
 3076SOL     OW20689   3.931   1.131   2.927  0.1875  0.6793 -0.0640
 3076SOL    HW120690   3.965   1.055   2.879  0.1610 -0.4192  1.6484
 3076SOL    HW220691   4.008   1.160   2.975 -0.7677  1.9949  0.6770
 3077SOL     OW20692   1.518   2.061   5.532 -0.4877  0.3335 -0.3899
 3077SOL    HW120693   1.588   2.005   5.497 -1.1822 -1.1961  0.6664
 3077SOL    HW220694   1.562   2.104   5.605 -1.0183 -1.1563  0.7992
 3078SOL     OW20695   2.451   2.067  14.577  0.2104 -0.1059 -0.4523
 3078SOL    HW120696   2.390   2.116  14.523 -1.3403 -0.2874  1.1179
 3078SOL    HW220697   2.399   2.009  14.633 -0.4429  0.1725 -0.7740
 3079SOL     OW20698   0.082   4.079  15.225 -0.1369 -0.4412 -0.2830
 3079SOL    HW120699   0.027   4.005  15.199 -2.4235  0.7245  1.2899
 3079SOL    HW220700   0.049   4.106  15.310  2.2960 -0.0414  0.5473
 3080SOL     OW20701   0.474   3.654   0.784  0.5044 -0.6502  0.5643
 3080SOL    HW120702   0.534   3.593   0.742  0.3700 -1.0310  0.9243
 3080SOL    HW220703   0.483   3.631   0.877  2.6054 -0.9680  0.2727
 3081SOL     OW20704   1.593   4.686   5.350 -0.4642  0.0613  0.2468
 3081SOL    HW120705   1.566   0.054   5.330 -0.3173  0.0037 -0.2142
 3081SOL    HW220706   1.661   4.673   5.283  0.4838  2.9252  0.6259
 3082SOL     OW20707   0.699   0.793  14.735  0.2707  0.6864 -0.0776
 3082SOL    HW120708   0.766   0.804  14.802 -0.0317 -2.0068  0.6774
 3082SOL    HW220709   0.691   0.699  14.719  2.6049  0.5854 -0.5985
 3083SOL     OW20710   3.120   0.613   2.194 -0.0392 -0.4934 -0.1382
 3083SOL    HW120711   3.204   0.570   2.205 -0.2345 -0.6951  0.5403
 3083SOL    HW220712   3.119   0.662   2.276 -0.6772  1.5535 -1.3681
 3084SOL     OW20713   0.857   2.714  10.400 -0.1190  0.3640 -0.6391
 3084SOL    HW120714   0.940   2.751  10.429 -1.0963  1.3564  0.8764
 3084SOL    HW220715   0.872   2.623  10.375  0.9025  1.0172 -2.3619
 3085SOL     OW20716   2.356   0.803  10.246 -0.2535  0.3072  0.1303
 3085SOL    HW120717   2.319   0.819  10.333 -3.3874 -1.0221 -0.9572
 3085SOL    HW220718   2.388   0.715  10.267 -0.7036  0.5204  1.7616
 3086SOL     OW20719   2.953   0.845   5.848  0.1396  0.1962  0.3883
 3086SOL    HW120720   2.909   0.787   5.910  3.5889 -0.2246  2.4955
 3086SOL    HW220721   2.880   0.846   5.787 -1.3005 -0.2800  2.0842
 3087SOL     OW20722   1.362   2.537   5.408 -0.3215  0.2771 -0.1894
 3087SOL    HW120723   1.357   2.462   5.467 -1.6691  0.7842  0.3313
 3087SOL    HW220724   1.280   2.516   5.364  0.5782 -0.3951 -1.5623
 3088SOL     OW20725   3.477   1.265   2.821  0.7805 -0.1227  0.2597
 3088SOL    HW120726   3.493   1.359   2.832  0.2808 -0.0836  0.6418
 3088SOL    HW220727   3.390   1.265   2.861 -0.5106  0.8385 -2.5304
 3089SOL     OW20728   0.048   2.561   5.043  0.2527  0.3353  0.0938
 3089SOL    HW120729   0.093   2.477   5.050 -0.0913  0.3742  2.6064
 3089SOL    HW220730   0.008   2.555   4.956  2.0168 -0.0840 -0.7049
 3090SOL     OW20731   3.238   3.310   5.769 -0.3291 -0.2673 -0.4039
 3090SOL    HW120732   3.286   3.378   5.722 -1.0653 -1.1339 -2.4321
 3090SOL    HW220733   3.307   3.247   5.788 -0.0588  0.1428 -0.0175
 3091SOL     OW20734   0.709   1.903   5.689 -0.4939  0.3693  0.4839
 3091SOL    HW120735   0.614   1.907   5.703 -0.4235 -1.1804  1.4517
 3091SOL    HW220736   0.725   1.989   5.652 -0.7436  1.1186  2.1115
 3092SOL     OW20737   3.435   1.724   4.027 -0.1082 -0.1786  0.1728
 3092SOL    HW120738   3.504   1.771   3.981 -0.1152  1.3745  1.7300
 3092SOL    HW220739   3.458   1.749   4.117 -1.3190  0.1630  0.3985
 3093SOL     OW20740   0.120   2.796   3.713  0.2368 -0.0798  0.7157
 3093SOL    HW120741   0.029   2.784   3.684 -0.3971  1.3243  2.1507
 3093SOL    HW220742   0.143   2.880   3.673  0.0302 -0.3390  0.0395
 3094SOL     OW20743   0.219   3.988   0.286  0.5949  0.0358 -0.3081
 3094SOL    HW120744   0.198   3.896   0.302 -0.8062  0.6110  1.1608
 3094SOL    HW220745   0.133   4.023   0.262  1.0980  1.0580 -0.6033
 3095SOL     OW20746   0.488   3.826   7.188  0.4451 -0.3129 -0.7730
 3095SOL    HW120747   0.411   3.851   7.239  0.2278  1.3255 -1.9092
 3095SOL    HW220748   0.550   3.892   7.218 -0.8944  1.0401 -0.9890
 3096SOL     OW20749   1.117   3.218   4.219 -0.3589  0.1928  0.8202
 3096SOL    HW120750   1.048   3.278   4.246 -0.5776  0.2668  0.0957
 3096SOL    HW220751   1.100   3.150   4.285  1.6927 -1.8588 -0.7636
 3097SOL     OW20752   0.447   3.273   2.403  0.0989  0.2548  0.0564
 3097SOL    HW120753   0.538   3.290   2.428 -0.2213  2.4410 -0.3135
 3097SOL    HW220754   0.409   3.351   2.442 -0.9672 -0.6362  0.7839
 3098SOL     OW20755   3.425   0.092   6.696 -0.5821 -0.1213 -0.7857
 3098SOL    HW120756   3.492   0.155   6.722 -1.0208 -0.1175  0.3732
 3098SOL    HW220757   3.381   0.147   6.631  1.7539  1.2798 -1.1670
 3099SOL     OW20758   2.951   1.410   6.072 -0.0454  1.2801 -0.0027
 3099SOL    HW120759   2.891   1.454   6.132 -0.8260  0.7745 -0.4074
 3099SOL    HW220760   2.980   1.484   6.019  1.7818  0.2864 -0.3646
 3100SOL     OW20761   4.105   3.179   4.317  0.0565  0.1982 -0.1441
 3100SOL    HW120762   4.088   3.272   4.333 -1.1707  0.3362 -2.2783
 3100SOL    HW220763   4.124   3.151   4.406  0.9828 -2.7557 -1.2911
 3101SOL     OW20764   3.925   0.240   6.020  0.2011  0.2918  0.1808
 3101SOL    HW120765   3.916   0.296   5.943  1.1769 -0.7707 -0.7057
 3101SOL    HW220766   3.836   0.245   6.054  0.9814  0.1378  2.2215
 3102SOL     OW20767   3.755   1.322  13.447  0.3304 -0.2391 -0.2638
 3102SOL    HW120768   3.778   1.374  13.370  0.1708 -0.0109 -0.1562
 3102SOL    HW220769   3.760   1.230  13.420  0.5655 -0.2308 -0.2474
 3103SOL     OW20770   2.327   1.169   8.366 -0.2046  0.3738  0.2596
 3103SOL    HW120771   2.278   1.236   8.319 -0.5055  0.7981  1.1814
 3103SOL    HW220772   2.413   1.210   8.356  1.1050 -2.2916  0.5678
 3104SOL     OW20773   4.519   0.718  13.046  0.2024 -0.0349 -0.0868
 3104SOL    HW120774   4.457   0.785  13.076  0.1978  0.1566 -0.5115
 3104SOL    HW220775   4.568   0.707  13.127 -0.2315  1.6416  0.4079
 3105SOL     OW20776   4.358   4.283   3.486 -0.5174 -0.4515  0.3644
 3105SOL    HW120777   4.328   4.355   3.430  2.1756  0.2776 -0.1512
 3105SOL    HW220778   4.408   4.324   3.556  0.2538 -2.1883  0.8283
 3106SOL     OW20779   4.639   4.034   6.856 -0.8760 -0.8035 -0.1601
 3106SOL    HW120780   4.584   3.966   6.818 -1.1042 -0.3675 -0.6115
 3106SOL    HW220781   4.680   3.983   6.926 -2.3832 -0.9796  0.5835
 3107SOL     OW20782   1.894   2.600   6.263 -0.0088 -0.3067 -0.3143
 3107SOL    HW120783   1.898   2.668   6.331  0.6586 -1.8056  1.1583
 3107SOL    HW220784   1.861   2.516   6.297 -0.8662  0.0861 -0.1721
 3108SOL     OW20785   1.978   2.973   2.849 -0.6294  0.1386 -0.5087
 3108SOL    HW120786   1.972   2.899   2.910 -0.0634  2.4152  2.2811
 3108SOL    HW220787   2.055   3.017   2.885 -0.6588 -0.4555  0.2755
 3109SOL     OW20788   2.300   0.914   9.696 -0.4816  0.3666  0.6746
 3109SOL    HW120789   2.297   0.885   9.787 -1.0787  2.7499  1.4025
 3109SOL    HW220790   2.302   1.009   9.708  1.2895  0.2570  1.2501
 3110SOL     OW20791   3.829   3.869   5.832  0.4284  0.5586  0.1968
 3110SOL    HW120792   3.846   3.787   5.877  0.0301  2.2537  3.4667
 3110SOL    HW220793   3.767   3.836   5.766  0.8416 -4.8497  2.5267
 3111SOL     OW20794   1.186   4.505   9.191 -0.3026 -0.4054 -0.3280
 3111SOL    HW120795   1.103   4.529   9.232  0.1169 -1.4728  1.1592
 3111SOL    HW220796   1.248   4.535   9.258 -0.3456 -1.7251  0.2976
 3112SOL     OW20797   2.222   1.888   8.110 -0.1733 -0.4465  0.3681
 3112SOL    HW120798   2.184   1.971   8.081 -0.0190 -0.4547  0.1368
 3112SOL    HW220799   2.153   1.836   8.068  0.6691 -0.2175 -1.3145
 3113SOL     OW20800   4.611   0.302   2.675 -0.4345  0.0681  0.1050
 3113SOL    HW120801   4.624   0.273   2.585 -1.6004  0.1498 -0.0808
 3113SOL    HW220802   4.549   0.373   2.665 -2.3024 -1.3907  1.2883
 3114SOL     OW20803   0.956   2.094   8.705  0.7509 -0.2510  0.8861
 3114SOL    HW120804   0.961   2.124   8.796 -1.3118  0.9098  0.6200
 3114SOL    HW220805   0.893   2.021   8.708  0.2615  0.1772  1.0240
 3115SOL     OW20806   3.000   2.311   6.626 -0.4652  0.8156 -0.5661
 3115SOL    HW120807   3.086   2.341   6.597  0.0559 -0.0711  0.0516
 3115SOL    HW220808   2.997   2.226   6.581 -0.8378  1.4545 -1.7392
 3116SOL     OW20809   1.346   1.733   0.952 -0.3052  0.1610 -0.2530
 3116SOL    HW120810   1.302   1.818   0.952 -0.5112  0.0505  0.1608
 3116SOL    HW220811   1.417   1.759   1.011 -1.0787 -1.4977  1.3888
 3117SOL     OW20812   3.789   4.121  14.605 -0.3766 -0.3747  0.1273
 3117SOL    HW120813   3.752   4.206  14.581  0.7486  0.2436  0.5916
 3117SOL    HW220814   3.741   4.111  14.687 -0.9985  0.3266 -0.1502
 3118SOL     OW20815   2.042   3.675   4.175  0.3039  0.2120 -0.2981
 3118SOL    HW120816   2.008   3.592   4.143  2.7578 -0.4706 -1.1240
 3118SOL    HW220817   2.011   3.681   4.266  1.2742  4.3586 -0.2330
 3119SOL     OW20818   0.504   4.002   8.147  0.1327  0.1962  0.0826
 3119SOL    HW120819   0.427   3.945   8.155  1.2759 -1.1832  1.0866
 3119SOL    HW220820   0.562   3.977   8.219  0.4562 -1.1968 -0.6464
 3120SOL     OW20821   2.589   1.789   3.073 -0.0774 -0.0785  0.2971
 3120SOL    HW120822   2.559   1.821   2.988  1.0446 -1.1394 -0.4991
 3120SOL    HW220823   2.509   1.766   3.120  0.4894 -1.0826  0.7798
 3121SOL     OW20824   4.039   4.317   5.288  0.9376  0.3579  0.4103
 3121SOL    HW120825   4.000   4.234   5.261 -0.6426  1.3391 -0.3639
 3121SOL    HW220826   4.104   4.338   5.221  1.7241  0.7213  1.2768
 3122SOL     OW20827   4.350   2.386  11.097 -0.4880  0.4092  0.2150
 3122SOL    HW120828   4.403   2.306  11.096  1.3481  1.6356 -0.7295
 3122SOL    HW220829   4.327   2.388  11.004 -0.1083  1.0008  0.1289
 3123SOL     OW20830   1.427   2.380  15.531 -0.3307 -0.5381 -0.2209
 3123SOL    HW120831   1.345   2.376  15.580  0.1710 -0.8598  0.5770
 3123SOL    HW220832   1.471   2.463  15.545  1.2428 -1.2635 -0.9189
 3124SOL     OW20833   1.754   4.022   4.357  0.2352  0.4110  0.0912
 3124SOL    HW120834   1.685   4.043   4.420  0.3412 -0.7719  0.6077
 3124SOL    HW220835   1.756   4.093   4.293 -0.7515  1.8198  1.6486
 3125SOL     OW20836   3.818   4.252   4.900  0.0975  0.3651  0.1284
 3125SOL    HW120837   3.845   4.217   4.985  1.6093  1.2187  0.0063
 3125SOL    HW220838   3.744   4.198   4.871 -0.2078  0.1591  1.3120
 3126SOL     OW20839   1.028   3.701   4.143  0.3402 -0.1425 -0.2638
 3126SOL    HW120840   1.065   3.685   4.230  2.0972 -0.0502 -0.9909
 3126SOL    HW220841   0.957   3.760   4.169 -0.4422 -1.3696  0.4043
 3127SOL     OW20842   2.967   2.483   3.680  0.0113  0.0238 -0.0971
 3127SOL    HW120843   3.010   2.528   3.754 -0.2174  0.1195 -0.0230
 3127SOL    HW220844   2.886   2.452   3.719  0.0425  2.4549  1.9298
 3128SOL     OW20845   1.292   1.052  16.863 -0.3155 -0.0845 -0.3587
 3128SOL    HW120846   1.282   1.140  16.900 -0.4971 -0.1366 -0.2853
 3128SOL    HW220847   1.383   1.051  16.834  1.0592 -0.6713  4.0583
 3129SOL     OW20848   0.101   1.317   5.931 -0.4735  0.0671 -0.1176
 3129SOL    HW120849   0.126   1.224   5.926  2.2320  0.8868 -1.7400
 3129SOL    HW220850   0.062   1.313   6.018  1.6327  0.2808  0.8562
 3130SOL     OW20851   0.450   1.901  15.509 -0.3244 -0.3372 -0.3784
 3130SOL    HW120852   0.393   1.844  15.459  0.0926 -0.6098 -0.5410
 3130SOL    HW220853   0.537   1.889  15.470 -0.4635 -4.2572  0.5847
 3131SOL     OW20854   1.017   4.132   3.228 -0.1542  0.1585  0.6358
 3131SOL    HW120855   0.989   4.221   3.247  0.3660  1.3020 -3.9810
 3131SOL    HW220856   0.947   4.100   3.171  0.4818  0.0717 -0.1030
 3132SOL     OW20857   3.497   2.106   3.699 -0.2264 -0.5774 -0.0248
 3132SOL    HW120858   3.415   2.055   3.700 -0.9498  0.6516  2.7349
 3132SOL    HW220859   3.534   2.086   3.785  0.0745 -0.3157 -0.0917
 3133SOL     OW20860   4.105   1.267  16.692  0.3397  0.6676 -0.2482
 3133SOL    HW120861   4.164   1.256  16.617  2.4502  0.6690  1.4342
 3133SOL    HW220862   4.165   1.240  16.761 -1.5703 -0.6682  0.8676
 3134SOL     OW20863   0.739   0.450   6.363 -0.0040 -0.2315  0.2457
 3134SOL    HW120864   0.809   0.406   6.315 -0.3074 -0.7255  0.2563
 3134SOL    HW220865   0.704   0.509   6.297 -2.2833 -1.3919  0.4069
 3135SOL     OW20866   0.074   1.268   3.937  0.2930  0.2138 -0.2040
 3135SOL    HW120867   0.055   1.350   3.891  3.4336  0.0576 -1.8139
 3135SOL    HW220868   0.158   1.289   3.978  0.2484  0.9571 -0.4881
 3136SOL     OW20869   2.437   0.093   4.558 -0.1357  0.3581  0.3658
 3136SOL    HW120870   2.432   0.188   4.570  1.4940  0.5552 -0.5029
 3136SOL    HW220871   2.448   0.085   4.464 -1.0879  0.6836  0.2224
 3137SOL     OW20872   1.511   4.088   2.148  0.0828  0.4641 -0.1437
 3137SOL    HW120873   1.421   4.099   2.180  0.0780 -1.0691  0.3831
 3137SOL    HW220874   1.512   4.158   2.083  1.6469  0.1550 -0.4583
 3138SOL     OW20875   1.337   0.124   7.820  0.3922 -0.1865 -0.3743
 3138SOL    HW120876   1.349   0.051   7.881  0.4628 -1.4596 -1.9256
 3138SOL    HW220877   1.241   0.128   7.811  0.1785 -1.7651  1.2763
 3139SOL     OW20878   0.834   3.465   1.802  0.1562 -0.8022 -0.6765
 3139SOL    HW120879   0.899   3.455   1.872 -1.0470  1.1738  0.7085
 3139SOL    HW220880   0.784   3.536   1.842 -0.0512 -0.7373 -1.0557
 3140SOL     OW20881   1.528   3.588   3.443  0.1452 -0.2046 -0.0740
 3140SOL    HW120882   1.547   3.594   3.349 -1.5638  1.2537 -0.3217
 3140SOL    HW220883   1.557   3.676   3.468 -3.3330  0.7895  0.4172
 3141SOL     OW20884   2.415   4.392   7.093 -0.0165 -0.2931 -0.1244
 3141SOL    HW120885   2.496   4.401   7.044 -0.9194  2.2518 -1.1385
 3141SOL    HW220886   2.439   4.344   7.172  1.8470 -0.8492 -1.0408
 3142SOL     OW20887   3.862   3.358  10.091 -0.2257 -0.5730  0.2690
 3142SOL    HW120888   3.943   3.388  10.051  0.0584 -1.4663  0.1624
 3142SOL    HW220889   3.875   3.382  10.183  2.0587  6.1979 -1.8544
 3143SOL     OW20890   2.990   2.019   6.241  1.0353 -0.2775  0.2353
 3143SOL    HW120891   2.926   1.949   6.256 -2.0173  2.0823 -1.9165
 3143SOL    HW220892   3.010   2.054   6.328 -1.1290  0.7260  0.3278
 3144SOL     OW20893   1.513   1.239   5.578  0.0155 -0.0471  0.0333
 3144SOL    HW120894   1.539   1.173   5.643  0.4087 -0.7039 -0.7875
 3144SOL    HW220895   1.562   1.315   5.609 -1.4954  0.1752  1.8483
 3145SOL     OW20896   2.807   0.445   6.916  0.3419  0.0855  0.3397
 3145SOL    HW120897   2.713   0.449   6.935 -0.2491 -0.6692 -2.4717
 3145SOL    HW220898   2.816   0.456   6.821 -2.3142  1.5978  0.2624
 3146SOL     OW20899   1.461   1.787   7.132  0.4104 -0.5396  0.7312
 3146SOL    HW120900   1.410   1.830   7.200  1.6725  1.6288  0.3225
 3146SOL    HW220901   1.395   1.772   7.065 -1.1327  0.3370  2.0716
 3147SOL     OW20902   3.111   3.823   3.936 -0.1456 -0.6511 -0.0256
 3147SOL    HW120903   3.072   3.761   3.874  2.8546  0.8455 -3.4205
 3147SOL    HW220904   3.101   3.906   3.890  0.5426 -1.0434 -0.8821
 3148SOL     OW20905   0.259   2.705  14.077 -0.2915 -0.5410  0.9648
 3148SOL    HW120906   0.280   2.709  13.983 -2.2556  0.3801  0.5763
 3148SOL    HW220907   0.336   2.654  14.103 -2.7011 -5.2131 -1.0054
 3149SOL     OW20908   2.141   0.785  11.134 -0.0915 -0.3161 -0.5864
 3149SOL    HW120909   2.114   0.856  11.076  0.7752  0.4430 -0.0581
 3149SOL    HW220910   2.078   0.802  11.205 -0.7841  0.4763 -1.3946
 3150SOL     OW20911   0.904   2.243   6.920 -0.5025 -0.6715  0.5409
 3150SOL    HW120912   0.893   2.172   6.856 -0.7381  0.0597 -0.2179
 3150SOL    HW220913   0.909   2.313   6.856  0.2600 -0.9805  0.2534
 3151SOL     OW20914   3.365   4.396   8.288 -0.0326  0.2897  0.1354
 3151SOL    HW120915   3.351   4.487   8.314 -1.0338  0.3901 -0.7039
 3151SOL    HW220916   3.285   4.378   8.238 -1.4683  2.5257  1.6173
 3152SOL     OW20917   4.485   2.139   7.835  0.2324 -0.1415  0.1551
 3152SOL    HW120918   4.485   2.122   7.741 -0.3732  1.7542 -0.1660
 3152SOL    HW220919   4.571   2.180   7.843  0.2780 -0.1286 -0.4378
 3153SOL     OW20920   0.975   4.216   4.246  0.0677  0.3990 -0.3134
 3153SOL    HW120921   0.883   4.206   4.222  0.3973 -2.8080 -0.2161
 3153SOL    HW220922   1.021   4.165   4.179 -1.3232  0.9853 -1.7207
 3154SOL     OW20923   2.410   1.443   6.489  0.9269 -0.2289 -0.4122
 3154SOL    HW120924   2.482   1.472   6.433  1.1032  1.5245  0.7170
 3154SOL    HW220925   2.448   1.447   6.577 -0.4466  1.1235  0.1174
 3155SOL     OW20926   2.940   4.458   4.982 -0.1623 -0.0451  0.0586
 3155SOL    HW120927   2.938   4.364   4.999  0.2190  0.0975  0.8565
 3155SOL    HW220928   2.971   4.455   4.891 -0.3440 -0.9354  0.0302
 3156SOL     OW20929   2.320   0.318  10.647 -0.8790 -0.5860 -0.0483
 3156SOL    HW120930   2.325   0.413  10.649  0.4483 -0.6565  0.0911
 3156SOL    HW220931   2.317   0.310  10.742 -0.1627 -0.8913 -0.0455
 3157SOL     OW20932   3.976   3.581   2.978  0.1756  0.2712  0.3114
 3157SOL    HW120933   3.914   3.605   3.046  1.5022  0.7184  1.3735
 3157SOL    HW220934   3.942   3.624   2.900  2.9274 -0.6252 -1.3946
 3158SOL     OW20935   2.280   2.431  15.847 -0.4305 -0.2537  0.1107
 3158SOL    HW120936   2.327   2.417  15.929  0.1010 -0.4399 -0.2249
 3158SOL    HW220937   2.216   2.362  15.862 -1.1207 -0.1805 -2.5339
 3159SOL     OW20938   2.163   0.032   2.511 -0.5415 -0.0905 -0.0997
 3159SOL    HW120939   2.201   0.038   2.424 -0.6740  0.3912 -0.1225
 3159SOL    HW220940   2.123   4.666   2.514  0.4505 -0.4871  1.9253
 3160SOL     OW20941   4.618   0.884  10.482 -0.7811  0.2574  0.5623
 3160SOL    HW120942   4.626   0.806  10.427 -1.9541  1.4044 -1.2450
 3160SOL    HW220943   4.703   0.876  10.526 -0.7009  0.3938  0.4308
 3161SOL     OW20944   4.394   0.864  17.313 -0.5427 -0.3161 -0.2477
 3161SOL    HW120945   4.376   0.806  17.240  1.0361 -0.5546 -0.4460
 3161SOL    HW220946   4.474   0.905  17.279 -0.1767 -0.9368 -0.1215
 3162SOL     OW20947   0.323   0.470   1.281  0.3512 -0.1691  0.3296
 3162SOL    HW120948   0.309   0.384   1.321 -1.1289 -0.2998 -0.5000
 3162SOL    HW220949   0.236   0.505   1.266  1.0955  2.3007  1.7268
 3163SOL     OW20950   2.527   1.537  17.173 -0.0712 -0.2138 -0.0930
 3163SOL    HW120951   2.621   1.522  17.175  0.4425  3.2738  0.8875
 3163SOL    HW220952   2.517   1.620  17.127  2.2776 -0.0557 -0.3012
 3164SOL     OW20953   3.348   3.815   4.869 -0.0064 -0.6277  0.0784
 3164SOL    HW120954   3.439   3.843   4.872  0.0760 -0.8225 -0.7490
 3164SOL    HW220955   3.322   3.827   4.961 -1.3043  0.6811 -0.4590
 3165SOL     OW20956   1.180   3.603   8.345  0.0797 -0.3856 -0.1832
 3165SOL    HW120957   1.270   3.574   8.361  0.4442  1.7405  1.6851
 3165SOL    HW220958   1.147   3.521   8.309 -0.3834  0.6997 -2.1906
 3166SOL     OW20959   0.095   3.818  15.547 -0.2396 -0.1110  0.4748
 3166SOL    HW120960   0.115   3.909  15.571  0.5948 -0.7574  2.2450
 3166SOL    HW220961   0.002   3.822  15.566 -0.5971  3.1377 -2.0755
 3167SOL     OW20962   3.353   1.777   0.314  0.5446 -0.3801  0.8445
 3167SOL    HW120963   3.333   1.684   0.318 -0.3280 -0.2401 -0.3895
 3167SOL    HW220964   3.270   1.818   0.337  0.0430 -1.8411  1.5907
 3168SOL     OW20965   4.471   0.074  13.499 -0.3898 -0.1475 -0.1446
 3168SOL    HW120966   4.509   4.715  13.534 -0.1946 -0.4797 -1.1129
 3168SOL    HW220967   4.379   0.049  13.506 -0.6857  0.8588 -0.4128
 3169SOL     OW20968   2.776   3.966   0.874 -0.0279  0.0329 -0.0594
 3169SOL    HW120969   2.763   4.015   0.955 -1.5613 -0.7425  0.1669
 3169SOL    HW220970   2.859   3.920   0.878 -0.2370 -0.4634 -1.3226
 3170SOL     OW20971   3.387   4.550  10.230  0.3262 -0.0857  0.0156
 3170SOL    HW120972   3.363   4.634  10.192  2.7225  1.2864  1.5244
 3170SOL    HW220973   3.392   4.497  10.150  1.6660  0.1145 -0.0330
 3171SOL     OW20974   2.061   1.372   8.214 -0.3785 -0.6642  0.8106
 3171SOL    HW120975   1.980   1.414   8.186  1.1369  1.9886  0.3995
 3171SOL    HW220976   2.066   1.291   8.163  0.3715  0.8590 -1.5644
 3172SOL     OW20977   2.004   2.464   2.365 -0.0839  0.0726  0.5988
 3172SOL    HW120978   2.048   2.548   2.355 -1.1942  0.6745  0.7836
 3172SOL    HW220979   2.036   2.419   2.287 -1.7394 -0.7378  0.3750
 3173SOL     OW20980   2.249   0.316   5.487  0.0793 -0.3362  0.3057
 3173SOL    HW120981   2.194   0.243   5.458 -0.6888  0.1746  0.4641
 3173SOL    HW220982   2.184   0.372   5.531 -0.8258 -1.7369  0.7526
 3174SOL     OW20983   0.010   3.890   8.098  0.0492 -0.4735 -0.1948
 3174SOL    HW120984   4.678   3.939   8.035 -0.8135 -1.7011 -0.4244
 3174SOL    HW220985   4.675   3.815   8.118  1.4776 -1.3602  0.5486
 3175SOL     OW20986   1.078   2.191   4.245  0.5613 -0.2169  0.4210
 3175SOL    HW120987   1.063   2.123   4.180  0.4633 -0.2419  0.4685
 3175SOL    HW220988   1.034   2.267   4.207 -1.0242  0.5955  3.7978
 3176SOL     OW20989   0.491   0.182   8.232  0.0129 -0.5436  0.0838
 3176SOL    HW120990   0.537   0.231   8.164  0.5651 -0.9527  0.1639
 3176SOL    HW220991   0.532   0.096   8.231  1.3165  0.0849 -1.7451
 3177SOL     OW20992   3.151   1.470   1.327 -0.2293  0.1959 -0.0630
 3177SOL    HW120993   3.166   1.417   1.249  0.6604 -1.0129  0.9232
 3177SOL    HW220994   3.221   1.535   1.317  0.3626 -0.1736  1.6531
 3178SOL     OW20995   1.873   0.446  11.840 -0.2040  0.2495  0.4595
 3178SOL    HW120996   1.930   0.370  11.849 -2.1114 -1.4121 -1.3286
 3178SOL    HW220997   1.933   0.520  11.855  1.8819 -1.1095 -1.1523
 3179SOL     OW20998   3.121   1.114   1.908  0.0275  0.1517  0.3885
 3179SOL    HW120999   3.105   1.047   1.842  0.4647  1.7647 -1.3403
 3179SOL    HW221000   3.201   1.084   1.951  0.6546 -0.2143 -1.0589
 3180SOL     OW21001   2.098   2.906   2.590  0.1982 -0.2564  0.9777
 3180SOL    HW121002   2.192   2.886   2.589  0.3550  0.6828 -1.4762
 3180SOL    HW221003   2.074   2.874   2.677  0.4231 -1.1565  0.6993
 3181SOL     OW21004   2.487   0.964   1.017 -0.3163  0.7213  0.4580
 3181SOL    HW121005   2.549   0.922   1.077 -0.3376  0.1632  0.0880
 3181SOL    HW221006   2.526   1.048   1.042 -0.1345  1.4140 -2.1275
 3182SOL     OW21007   0.401   2.172   2.777 -0.1604  0.3261  0.3519
 3182SOL    HW121008   0.463   2.193   2.707  0.1775 -0.5072  0.3950
 3182SOL    HW221009   0.346   2.109   2.730  1.4236 -0.4448 -0.4743
 3183SOL     OW21010   3.448   2.606  12.032 -0.2415 -0.0078 -0.4023
 3183SOL    HW121011   3.517   2.660  12.072  0.0550  0.5430 -1.6450
 3183SOL    HW221012   3.382   2.607  12.101  0.1240  2.6061 -0.0702
 3184SOL     OW21013   1.750   2.939   8.733 -0.4669 -0.2118  0.5957
 3184SOL    HW121014   1.697   2.967   8.808 -1.5697  0.8635 -0.5844
 3184SOL    HW221015   1.716   2.990   8.660 -2.0301 -0.4374  1.1609
 3185SOL     OW21016   3.239   2.061   4.296  0.8097 -0.5800 -0.3349
 3185SOL    HW121017   3.276   2.132   4.244  0.2014 -3.3308 -4.5243
 3185SOL    HW221018   3.186   2.014   4.231 -0.6035  0.1426  0.2806
 3186SOL     OW21019   0.326   1.091   4.371  0.6175  0.2127 -0.1823
 3186SOL    HW121020   0.336   1.016   4.430 -1.0175  0.8964  0.9463
 3186SOL    HW221021   0.235   1.108   4.394  0.9127 -0.8343  1.7985
 3187SOL     OW21022   4.401   0.036   5.682 -0.5478  0.0420 -0.1634
 3187SOL    HW121023   4.456   0.081   5.746  1.4803 -1.0528 -1.1410
 3187SOL    HW221024   4.448   4.675   5.670 -1.9718 -0.5026 -2.1015
 3188SOL     OW21025   3.857   0.706   9.604  1.0185  0.3382 -0.0665
 3188SOL    HW121026   3.781   0.661   9.640 -0.3464  2.9711  0.3132
 3188SOL    HW221027   3.923   0.677   9.667  0.8382  0.4193  0.1622
 3189SOL     OW21028   4.587   1.378  13.044 -0.0515 -0.4378  0.3353
 3189SOL    HW121029   4.665   1.333  13.079  0.4086 -1.4444 -2.0138
 3189SOL    HW221030   4.635   1.444  12.995 -4.4382  2.1003 -0.4984
 3190SOL     OW21031   4.004   2.400   7.531 -0.2015  1.0639  0.4876
 3190SOL    HW121032   3.971   2.485   7.503  1.0674  0.2020 -3.6310
 3190SOL    HW221033   4.040   2.368   7.448  0.3861  1.4141  0.6063
 3191SOL     OW21034   0.369   4.357  16.165 -0.1913 -0.1910  0.0920
 3191SOL    HW121035   0.381   4.313  16.081 -1.1977 -2.6420  1.2405
 3191SOL    HW221036   0.379   4.448  16.137  2.6830 -0.5840 -0.0711
 3192SOL     OW21037   0.868   1.477  10.712 -0.2163 -0.4650 -0.4832
 3192SOL    HW121038   0.879   1.538  10.785 -1.1827  1.4959 -1.9797
 3192SOL    HW221039   0.840   1.405  10.769 -0.0404 -0.1942 -0.0611
 3193SOL     OW21040   3.416   2.339   3.357 -0.5326 -0.9849  0.0325
 3193SOL    HW121041   3.442   2.352   3.448  1.4788  0.4019 -0.7558
 3193SOL    HW221042   3.323   2.318   3.367 -1.3168  3.1055  1.3905
 3194SOL     OW21043   3.456   4.720   5.933 -0.2508  0.5532  0.4521
 3194SOL    HW121044   3.486   4.639   5.893 -1.1577 -0.0067  0.9144
 3194SOL    HW221045   3.444   0.051   5.853 -2.9746 -0.0223  0.4875
 3195SOL     OW21046   0.904   0.268  16.593  1.3001  0.2731  0.0593
 3195SOL    HW121047   0.897   0.360  16.564 -2.6763 -0.6498 -2.0091
 3195SOL    HW221048   0.994   0.275  16.625  2.3113 -1.5557 -2.3633
 3196SOL     OW21049   3.132   1.619  15.465  0.1617  0.3444  0.1480
 3196SOL    HW121050   3.136   1.656  15.553 -0.1784 -4.9461  2.3493
 3196SOL    HW221051   3.100   1.691  15.410  0.4873 -0.1237 -0.6592
 3197SOL     OW21052   2.010   2.526   9.072 -0.1683  0.1537 -0.1702
 3197SOL    HW121053   2.069   2.596   9.099 -0.9574  0.7406  0.0575
 3197SOL    HW221054   1.969   2.497   9.154  1.0124  0.6647  0.5971
 3198SOL     OW21055   1.519   2.632  10.013  0.4499  0.5441 -0.6961
 3198SOL    HW121056   1.439   2.681  10.030  0.5754 -0.3480  2.5811
 3198SOL    HW221057   1.482   2.564   9.956 -0.6782  0.5573  0.0266
 3199SOL     OW21058   4.465   0.958   3.627 -0.2554  0.1751  0.0181
 3199SOL    HW121059   4.419   0.911   3.558  0.0328 -1.5008  0.9756
 3199SOL    HW221060   4.397   1.019   3.655 -2.5779 -1.8120 -1.3016
 3200SOL     OW21061   0.874   4.104   7.029  0.4751  0.6540  0.0837
 3200SOL    HW121062   0.902   4.014   7.047 -1.2161 -0.1176 -1.1328
 3200SOL    HW221063   0.934   4.142   7.093 -0.4908  0.4566  1.1163
 3201SOL     OW21064   1.733   3.940   3.340  0.5642  0.3178  0.9139
 3201SOL    HW121065   1.663   4.003   3.322  0.5464  0.7614  2.5860
 3201SOL    HW221066   1.734   3.906   3.250 -0.5244  1.7345  0.3679
 3202SOL     OW21067   4.285   3.401  16.113 -0.2595 -0.5159  0.0309
 3202SOL    HW121068   4.346   3.345  16.161  1.7437  1.6192 -0.0456
 3202SOL    HW221069   4.208   3.393  16.170 -1.7713  0.3646 -1.8823
 3203SOL     OW21070   2.166   0.911   1.490 -0.1498  0.1025 -0.2445
 3203SOL    HW121071   2.156   0.970   1.416 -0.2639 -0.9355 -1.0459
 3203SOL    HW221072   2.086   0.931   1.538  0.3447  1.1397  0.1699
 3204SOL     OW21073   0.652   3.862  15.473 -0.3724 -0.2448  0.2987
 3204SOL    HW121074   0.732   3.810  15.478 -0.6934 -0.9462 -1.8461
 3204SOL    HW221075   0.592   3.796  15.439 -0.8780 -0.8968  2.4713
 3205SOL     OW21076   0.563   1.157   8.799  0.3765  0.0792  0.2761
 3205SOL    HW121077   0.539   1.091   8.734  1.8596 -1.1238  0.9584
 3205SOL    HW221078   0.639   1.115   8.839 -0.8932 -1.0037  1.5535
 3206SOL     OW21079   0.496   3.262   5.457 -0.6930 -0.3844 -0.1565
 3206SOL    HW121080   0.543   3.256   5.541 -0.5508 -1.6342 -0.3217
 3206SOL    HW221081   0.527   3.347   5.427  0.9297 -0.7139  0.5562
 3207SOL     OW21082   2.930   2.375   9.670 -0.1758  0.6148 -0.1923
 3207SOL    HW121083   2.960   2.444   9.611  0.7364 -1.4084 -2.0988
 3207SOL    HW221084   2.896   2.308   9.610  1.1144 -0.1106 -0.1287
 3208SOL     OW21085   1.683   4.037  10.378  0.2364  0.0652 -0.1088
 3208SOL    HW121086   1.711   4.062  10.290 -1.3920 -2.0172 -1.2265
 3208SOL    HW221087   1.731   4.087  10.444  0.9569 -1.7841  0.7867
 3209SOL     OW21088   0.743   1.863  16.972  0.3888  0.0456  0.0912
 3209SOL    HW121089   0.704   1.906  17.048  2.2588  0.1599  0.9920
 3209SOL    HW221090   0.666   1.828  16.928 -0.4402 -0.3099  1.8308
 3210SOL     OW21091   1.196   0.110  16.825 -0.0067 -0.7846  0.0955
 3210SOL    HW121092   1.105   0.082  16.814 -0.2816  0.6409 -1.3481
 3210SOL    HW221093   1.181   0.164  16.902 -1.2200  0.2053 -0.8386
 3211SOL     OW21094   4.631   1.951   6.718 -0.3895  0.1154  0.0551
 3211SOL    HW121095   4.633   2.032   6.668  1.0496  0.5611  0.8351
 3211SOL    HW221096   4.642   1.987   6.806 -1.5036  1.9545 -0.5366
 3212SOL     OW21097   0.471   2.025   5.758 -1.0282 -0.3048 -0.3547
 3212SOL    HW121098   0.410   1.953   5.773 -0.5935 -0.0412  2.5990
 3212SOL    HW221099   0.419   2.073   5.692  1.2319  0.3447 -1.6445
 3213SOL     OW21100   3.242   2.832   3.923  0.5671  0.0911  0.0722
 3213SOL    HW121101   3.288   2.901   3.874  1.7283 -1.0991 -0.4988
 3213SOL    HW221102   3.307   2.763   3.936  0.2283  0.0397  1.4850
 3214SOL     OW21103   3.149   0.178   5.204  0.1216  0.1764  0.0404
 3214SOL    HW121104   3.071   0.232   5.216 -1.1339 -1.0871 -2.3237
 3214SOL    HW221105   3.122   0.086   5.214  0.4292 -0.0325 -1.0328
 3215SOL     OW21106   2.958   0.238   4.907  0.2757  0.4424 -0.2105
 3215SOL    HW121107   2.916   0.235   4.821 -0.5509  4.1637  0.0559
 3215SOL    HW221108   2.964   0.334   4.914 -1.1922  0.4314  1.1823
 3216SOL     OW21109   3.487   1.992   2.261  0.2101 -0.5182  0.2279
 3216SOL    HW121110   3.502   1.962   2.351 -1.0351 -1.8854 -0.0228
 3216SOL    HW221111   3.442   1.910   2.240  1.1872 -0.7599 -0.9342
 3217SOL     OW21112   2.444   3.187  10.800 -0.2140 -0.4888 -0.3437
 3217SOL    HW121113   2.412   3.115  10.746 -0.5224 -0.8014  0.2527
 3217SOL    HW221114   2.534   3.161  10.824  0.0080  0.7948  0.2216
 3218SOL     OW21115   2.130   2.592   2.788  0.0955 -0.1047 -0.2626
 3218SOL    HW121116   2.179   2.571   2.708 -1.8523  0.1477 -1.5249
 3218SOL    HW221117   2.039   2.572   2.768  0.3268 -2.7432  1.2598
 3219SOL     OW21118   0.684   2.552   8.749  0.3661  0.0873  0.9433
 3219SOL    HW121119   0.591   2.538   8.764 -0.0002  1.1955 -0.3833
 3219SOL    HW221120   0.713   2.620   8.810  2.8617  0.6473 -0.8775
 3220SOL     OW21121   2.590   0.601   8.135 -0.0012  0.1998 -0.0638
 3220SOL    HW121122   2.538   0.681   8.129 -3.1362 -1.6352  2.6751
 3220SOL    HW221123   2.631   0.621   8.218  0.9898  0.6853 -0.6769
 3221SOL     OW21124   1.861   3.180   2.028  0.1915 -0.6296 -0.1475
 3221SOL    HW121125   1.786   3.130   1.995 -0.8415  0.4956  0.5111
 3221SOL    HW221126   1.845   3.270   2.002 -1.3322 -1.1432 -1.0094
 3222SOL     OW21127   4.455   4.320   5.159  0.3882  0.1910 -0.6756
 3222SOL    HW121128   4.369   4.363   5.158  0.5633  0.5195 -1.2616
 3222SOL    HW221129   4.509   4.360   5.091  0.4004  1.5685  0.1427
 3223SOL     OW21130   1.855   4.020   8.892 -0.2873  0.5021  0.2898
 3223SOL    HW121131   1.922   4.086   8.876 -0.0813 -0.0874 -1.3258
 3223SOL    HW221132   1.913   3.950   8.922 -0.2807 -0.3130 -1.5850
 3224SOL     OW21133   2.517   0.074   5.439  0.5308 -0.2529  0.3255
 3224SOL    HW121134   2.492   0.085   5.348  0.7795  0.4223  0.3364
 3224SOL    HW221135   2.533   4.701   5.435  0.6793 -0.3056  1.8805
 3225SOL     OW21136   3.512   2.496   8.346  0.1777 -0.4243  0.4201
 3225SOL    HW121137   3.462   2.464   8.421 -1.4646  1.6489  0.2236
 3225SOL    HW221138   3.468   2.462   8.269  0.8901  0.0282 -0.1891
 3226SOL     OW21139   4.100   3.628  16.153 -0.2295  0.1323 -0.5104
 3226SOL    HW121140   4.050   3.623  16.071  1.3919 -1.9335 -1.4023
 3226SOL    HW221141   4.134   3.716  16.136 -0.8013  0.3810 -0.3433
 3227SOL     OW21142   0.345   0.937   8.486 -0.4823  0.1408 -0.2634
 3227SOL    HW121143   0.397   0.926   8.565  1.2913  2.6344 -1.0651
 3227SOL    HW221144   0.275   0.992   8.521  1.4520  1.7298  1.1488
 3228SOL     OW21145   3.734   0.358   3.099 -0.7783 -0.0258 -0.0171
 3228SOL    HW121146   3.749   0.281   3.153  1.5725  2.6109  3.0576
 3228SOL    HW221147   3.804   0.330   3.040  1.0353  2.8114  0.7893
 3229SOL     OW21148   2.152   1.956   4.093 -0.7409  0.4114  0.6422
 3229SOL    HW121149   2.117   2.037   4.055  0.0019 -0.3968 -1.7661
 3229SOL    HW221150   2.166   1.909   4.011 -1.4449  1.2047  0.0750
 3230SOL     OW21151   2.940   0.581   1.381  0.3774  0.1652  0.4411
 3230SOL    HW121152   2.997   0.575   1.304 -0.3143 -1.9985  0.0833
 3230SOL    HW221153   3.001   0.537   1.440 -1.1008 -2.1785  0.2328
 3231SOL     OW21154   4.078   4.626   7.101  0.0004  0.3193  0.0616
 3231SOL    HW121155   4.123   4.556   7.055 -0.8635  0.8461 -1.5871
 3231SOL    HW221156   4.133   4.703   7.085  0.9856 -0.5614 -0.7730
 3232SOL     OW21157   3.640   0.252   6.777  0.3451  0.0550 -0.2595
 3232SOL    HW121158   3.615   0.317   6.712  1.6973  1.0818  0.2580
 3232SOL    HW221159   3.719   0.211   6.741  2.0725  2.9871  0.1808
 3233SOL     OW21160   1.788   3.093  10.157 -0.2333  0.3256 -0.4576
 3233SOL    HW121161   1.780   3.074  10.250 -0.2649  0.6495 -0.3947
 3233SOL    HW221162   1.728   3.025  10.125  0.7910 -0.0210 -1.6373
 3234SOL     OW21163   2.461   1.351   2.605  0.4396 -0.2450  1.1379
 3234SOL    HW121164   2.508   1.352   2.522 -1.4873 -0.7213  0.0477
 3234SOL    HW221165   2.368   1.355   2.581  0.9730  0.0411 -0.8668
 3235SOL     OW21166   1.740   2.852   4.166  0.0747 -0.2140  0.1176
 3235SOL    HW121167   1.778   2.913   4.104  0.7323  0.2372  0.9690
 3235SOL    HW221168   1.647   2.877   4.163 -0.1557 -1.0686  0.0870
 3236SOL     OW21169   0.318   0.094   0.091 -0.0926  0.3687  0.2196
 3236SOL    HW121170   0.311   0.098   0.186 -1.6207 -1.7218  0.1974
 3236SOL    HW221171   0.407   0.061   0.077 -0.1347  1.0519 -1.6356
 3237SOL     OW21172   1.736   0.945  15.552 -0.3364  0.8202 -0.2286
 3237SOL    HW121173   1.736   1.006  15.626  0.8096  1.7886 -1.0427
 3237SOL    HW221174   1.710   0.861  15.590  1.7263 -0.2342 -1.1375
 3238SOL     OW21175   4.031   2.481  16.395  0.0753  0.0458 -0.2384
 3238SOL    HW121176   4.115   2.526  16.391  1.4754 -2.6102 -0.4074
 3238SOL    HW221177   4.050   2.398  16.439 -3.6092 -1.6756 -1.9068
 3239SOL     OW21178   3.860   1.228   4.627 -0.0210  0.0584  0.7767
 3239SOL    HW121179   3.897   1.259   4.544 -1.4525  0.4816  0.2925
 3239SOL    HW221180   3.770   1.208   4.602  0.1173  1.6965 -1.0307
 3240SOL     OW21181   4.290   3.538   3.421  0.0239  0.6671  0.0073
 3240SOL    HW121182   4.278   3.463   3.478 -1.9213 -0.0326 -1.3436
 3240SOL    HW221183   4.200   3.570   3.419 -0.5382 -0.9444 -0.4705
 3241SOL     OW21184   2.012   2.953   1.997 -0.2937 -0.1856  0.4473
 3241SOL    HW121185   2.078   2.988   1.936 -0.4938 -0.8795 -0.1753
 3241SOL    HW221186   1.965   3.026   2.038 -1.7462 -1.5278  1.1592
 3242SOL     OW21187   0.360   4.539  10.940 -0.1829 -0.2870  0.3233
 3242SOL    HW121188   0.413   4.619  10.948 -0.7320  0.0249  0.8189
 3242SOL    HW221189   0.285   4.589  10.907  0.5273  1.9717  2.1248
 3243SOL     OW21190   4.632   4.140   0.925 -0.8433  0.0938  0.0084
 3243SOL    HW121191   4.596   4.189   0.999 -2.2887 -1.7705  0.5673
 3243SOL    HW221192   4.592   4.053   0.925 -1.4041  0.3477 -0.6478
 3244SOL     OW21193   2.317   2.503   2.329 -0.3964  0.0191 -0.1567
 3244SOL    HW121194   2.299   2.594   2.307 -0.0485 -0.0359 -0.6761
 3244SOL    HW221195   2.262   2.459   2.264 -0.7243  2.5600 -1.6108
 3245SOL     OW21196   0.198   0.453  13.086  0.5478 -0.0962  0.7693
 3245SOL    HW121197   0.196   0.359  13.067  2.3009 -0.4825  2.4405
 3245SOL    HW221198   0.139   0.451  13.161  1.5618 -0.2732  1.5692
 3246SOL     OW21199   2.393   2.056  10.362 -0.2325  0.1462 -0.5730
 3246SOL    HW121200   2.419   1.992  10.295  1.0154 -0.3128  0.3591
 3246SOL    HW221201   2.335   2.108  10.306 -3.1797 -1.7686  0.6740
 3247SOL     OW21202   1.972   4.060   2.386  0.4926 -0.4085  0.4458
 3247SOL    HW121203   1.921   4.021   2.458 -0.5895 -0.5312 -0.3748
 3247SOL    HW221204   1.958   3.995   2.317  2.1980  1.9751 -2.1279
 3248SOL     OW21205   3.956   0.544  12.090 -0.4597  0.0711  0.1886
 3248SOL    HW121206   4.049   0.568  12.094 -0.5985  0.7153 -0.5471
 3248SOL    HW221207   3.961   0.472  12.154  1.1376  0.6731  0.7421
 3249SOL     OW21208   4.274   3.587   7.937 -0.3397  0.1409 -0.5404
 3249SOL    HW121209   4.249   3.495   7.937  2.7153 -0.6896  0.7831
 3249SOL    HW221210   4.205   3.635   7.891 -0.9717  1.6872  2.0268
 3250SOL     OW21211   4.195   3.148   6.133 -0.1284 -0.5566  0.1554
 3250SOL    HW121212   4.226   3.129   6.221  1.8415 -2.5829 -0.9790
 3250SOL    HW221213   4.109   3.185   6.156  0.8152  0.9156  1.2918
 3251SOL     OW21214   0.866   4.067   0.388  0.8679  0.0026  0.1611
 3251SOL    HW121215   0.790   4.102   0.436 -1.7383 -2.4400 -2.2200
 3251SOL    HW221216   0.936   4.070   0.454 -0.8082 -0.1218  1.9506
 3252SOL     OW21217   3.400   3.456   1.161 -0.1636  0.4078 -0.0254
 3252SOL    HW121218   3.363   3.473   1.247  3.1440 -1.3578  1.7452
 3252SOL    HW221219   3.406   3.361   1.173  1.0114  0.4833 -0.0517
 3253SOL     OW21220   3.038   2.814  11.190  0.3861 -0.0095  0.5689
 3253SOL    HW121221   3.130   2.836  11.172 -0.8989  3.6283 -1.6988
 3253SOL    HW221222   3.015   2.901  11.224  0.5910 -0.1045  0.9552
 3254SOL     OW21223   3.047   1.179   0.051  0.3880  0.2424 -0.5391
 3254SOL    HW121224   3.120   1.204   0.109 -2.2323 -1.4642  3.4591
 3254SOL    HW221225   3.076   1.089   0.036  0.3212 -0.2241  2.0882
 3255SOL     OW21226   4.186   3.872   4.130  0.3498 -0.6371 -0.2057
 3255SOL    HW121227   4.257   3.917   4.176  0.0933  1.7298 -2.1292
 3255SOL    HW221228   4.147   3.949   4.090  0.0236 -0.1084  1.1564
 3256SOL     OW21229   2.130   4.598   1.842 -0.4103 -0.4765 -0.3891
 3256SOL    HW121230   2.104   4.665   1.779  0.9218  0.7651  0.3544
 3256SOL    HW221231   2.195   4.644   1.897 -0.6204  1.4940 -1.7841
 3257SOL     OW21232   2.905   2.361  15.717 -0.2543 -0.4095 -0.1389
 3257SOL    HW121233   2.925   2.283  15.665  1.3034  0.4529 -0.7979
 3257SOL    HW221234   2.836   2.396  15.660 -0.7504 -0.3856  0.4772
 3258SOL     OW21235   3.657   3.523   1.695  0.2095  0.1773  0.0910
 3258SOL    HW121236   3.620   3.437   1.716  0.0556  0.4469  0.9044
 3258SOL    HW221237   3.693   3.553   1.778  1.9251  0.0759 -0.6175
 3259SOL     OW21238   2.381   3.598  10.026  0.8055  0.4563 -0.4778
 3259SOL    HW121239   2.382   3.507   9.995 -1.5855  0.7144 -1.2590
 3259SOL    HW221240   2.303   3.638   9.989  0.1576 -0.3116  0.0559
 3260SOL     OW21241   0.285   0.853   3.532  0.0192 -0.0227 -0.1967
 3260SOL    HW121242   0.193   0.876   3.513 -0.4006 -0.9236  0.7470
 3260SOL    HW221243   0.319   0.854   3.442 -1.0955  3.2344 -0.5935
 3261SOL     OW21244   3.680   2.669   0.312  0.2332  0.5527  0.4193
 3261SOL    HW121245   3.768   2.682   0.277  0.7596 -0.0596  1.5105
 3261SOL    HW221246   3.663   2.576   0.301 -0.3722  0.8773 -1.3936
 3262SOL     OW21247   0.386   4.109   0.536 -0.1349  0.2846 -0.7084
 3262SOL    HW121248   0.304   4.151   0.510 -0.6990 -0.2146  0.2411
 3262SOL    HW221249   0.423   4.078   0.454 -2.5668  0.3227 -1.8307
 3263SOL     OW21250   0.413   0.342   7.089 -0.7474  0.3040  0.1181
 3263SOL    HW121251   0.500   0.313   7.119 -0.9427 -3.4134 -2.9585
 3263SOL    HW221252   0.379   0.384   7.168  1.2105  0.1830  1.0483
 3264SOL     OW21253   1.207   0.329   6.292  0.0079 -0.4140  0.0816
 3264SOL    HW121254   1.223   0.357   6.382  1.0364 -0.8844  0.0401
 3264SOL    HW221255   1.286   0.277   6.278 -1.9638 -3.2812 -0.4375
 3265SOL     OW21256   4.387   0.294  10.080  0.3231 -0.2207  0.0973
 3265SOL    HW121257   4.437   0.324  10.004 -0.3652  0.7566  0.0220
 3265SOL    HW221258   4.414   0.204  10.100 -0.9891 -0.2084  1.9722
 3266SOL     OW21259   2.450   1.717   4.409  0.4683  0.1091 -0.0133
 3266SOL    HW121260   2.542   1.707   4.431  0.6536  1.4186 -0.2098
 3266SOL    HW221261   2.419   1.652   4.472  1.7638 -0.0557  0.4475
 3267SOL     OW21262   3.530   3.357   7.794 -0.4497 -0.5842  0.1856
 3267SOL    HW121263   3.452   3.376   7.743 -1.9704 -0.3023  2.6027
 3267SOL    HW221264   3.497   3.306   7.867 -0.1871 -2.0903 -0.7588
 3268SOL     OW21265   1.292   0.059   2.857 -0.3800  0.0402 -0.4021
 3268SOL    HW121266   1.287   4.686   2.870 -1.7451  0.3702  1.4878
 3268SOL    HW221267   1.358   0.068   2.789 -1.1552 -0.7554 -1.2630
 3269SOL     OW21268   1.981   2.434   5.171 -0.4012  0.2247  0.2018
 3269SOL    HW121269   1.979   2.341   5.190 -2.0470  0.3251  0.5626
 3269SOL    HW221270   1.996   2.439   5.077  0.0595 -0.7908  0.2258
 3270SOL     OW21271   3.054   4.126   4.418 -0.0069  0.1515 -0.5819
 3270SOL    HW121272   3.065   4.057   4.353 -0.3059  0.0874 -0.5650
 3270SOL    HW221273   2.964   4.109   4.447  1.0806 -4.7110 -0.2064
 3271SOL     OW21274   4.489   0.489   6.746  0.2671 -0.3301  0.3305
 3271SOL    HW121275   4.422   0.430   6.711 -2.4740  1.5026  2.5039
 3271SOL    HW221276   4.486   0.460   6.837 -0.2314  0.9695  0.7300
 3272SOL     OW21277   1.186   1.326   6.459 -0.2036 -0.3882 -0.1953
 3272SOL    HW121278   1.147   1.412   6.446 -1.4113 -0.5898  2.2159
 3272SOL    HW221279   1.259   1.344   6.519 -1.1817  0.7281  0.6376
 3273SOL     OW21280   1.259   4.206  13.131  0.1565  0.5926  0.1304
 3273SOL    HW121281   1.291   4.292  13.158  1.8775  0.2724 -0.8887
 3273SOL    HW221282   1.180   4.228  13.082  0.6715 -0.4258 -1.1641
 3274SOL     OW21283   0.062   0.481   0.914 -0.1070  0.4842  0.0516
 3274SOL    HW121284   0.070   0.404   0.970  0.4145 -2.3165 -3.8872
 3274SOL    HW221285   0.118   0.466   0.838  1.4633  3.2430  0.6542
 3275SOL     OW21286   3.590   2.488   2.828  0.3479  0.6377  0.2606
 3275SOL    HW121287   3.524   2.505   2.895  0.0323 -0.0153  0.1135
 3275SOL    HW221288   3.669   2.522   2.870 -0.1144 -0.9574  2.4454
 3276SOL     OW21289   0.236   3.195   0.934 -0.2616 -0.2666 -0.4014
 3276SOL    HW121290   0.246   3.258   1.006  2.5828 -0.1046 -0.9457
 3276SOL    HW221291   0.321   3.151   0.939 -0.3051 -0.0580  2.5312
 3277SOL     OW21292   0.928   3.698   2.169 -0.5559  0.1722 -0.4378
 3277SOL    HW121293   1.009   3.669   2.210 -0.7488  0.2306 -0.0203
 3277SOL    HW221294   0.871   3.688   2.246 -1.1660 -0.5455 -0.9773
 3278SOL     OW21295   3.988   2.476  16.005 -0.1820 -0.0541  0.0783
 3278SOL    HW121296   3.990   2.551  15.945 -0.7087  0.0947  0.2504
 3278SOL    HW221297   3.923   2.512  16.065  1.4133  0.3022  1.5891
 3279SOL     OW21298   0.636   3.779   8.311 -0.4484 -0.5343  0.3036
 3279SOL    HW121299   0.708   3.824   8.268  0.8440 -2.8243  0.0835
 3279SOL    HW221300   0.685   3.721   8.370 -1.3145 -1.2194  0.3501
 3280SOL     OW21301   3.308   2.146   9.035  0.0962 -0.6566  0.0656
 3280SOL    HW121302   3.327   2.238   9.053 -0.5968 -0.9910  2.5000
 3280SOL    HW221303   3.360   2.096   9.097 -2.3692 -0.3039  2.3927
 3281SOL     OW21304   4.155   2.382   2.525 -0.0623  0.1253 -0.1858
 3281SOL    HW121305   4.122   2.398   2.437  3.7574 -2.1676 -2.0250
 3281SOL    HW221306   4.177   2.471   2.553 -0.8408 -0.6383  2.8633
 3282SOL     OW21307   2.961   3.641  11.052  0.8659  0.2962 -0.3101
 3282SOL    HW121308   2.927   3.594  11.128 -1.0203  1.2669 -0.5632
 3282SOL    HW221309   3.019   3.576  11.012 -1.6681 -1.5191 -1.0841
 3283SOL     OW21310   3.833   1.359   6.735 -0.0886 -0.0192 -0.3950
 3283SOL    HW121311   3.808   1.294   6.800  0.0857  1.7631  1.4517
 3283SOL    HW221312   3.756   1.355   6.678 -1.0925 -0.2161  0.9783
 3284SOL     OW21313   3.300   1.593   6.104 -0.1511 -0.2123 -0.1916
 3284SOL    HW121314   3.335   1.552   6.025  0.2956 -2.2753  1.0972
 3284SOL    HW221315   3.290   1.687   6.089  1.7476  0.1459  0.8714
 3285SOL     OW21316   1.453   1.873   6.570 -0.2319  0.0436 -0.4146
 3285SOL    HW121317   1.501   1.816   6.510 -2.1320 -1.3132 -0.6452
 3285SOL    HW221318   1.521   1.934   6.599 -0.7383  0.8839 -0.9791
 3286SOL     OW21319   2.039   4.072  17.669 -0.1477  0.2614  0.5137
 3286SOL    HW121320   2.042   4.156  17.622  0.3897 -0.1116 -0.1039
 3286SOL    HW221321   2.020   4.114   0.066  1.3480 -0.6561  1.2983
 3287SOL     OW21322   2.116   3.469   5.177 -0.1781  0.2252  0.2423
 3287SOL    HW121323   2.115   3.374   5.165 -1.5823  0.0198  2.0196
 3287SOL    HW221324   2.206   3.496   5.156 -0.3805 -0.3505 -1.3355
 3288SOL     OW21325   1.435   4.367   5.231  0.3028  0.2561  0.5181
 3288SOL    HW121326   1.456   4.453   5.267 -2.4248  0.6392  1.1375
 3288SOL    HW221327   1.359   4.371   5.173  0.1317  0.6605  0.7769
 3289SOL     OW21328   3.193   1.729  12.277  0.2103  0.5153 -0.9460
 3289SOL    HW121329   3.115   1.780  12.256 -0.1953  0.4224  0.3581
 3289SOL    HW221330   3.242   1.774  12.345 -0.1073 -0.5956  0.0203
 3290SOL     OW21331   2.753   0.270   2.093 -0.4197 -0.0242 -0.4032
 3290SOL    HW121332   2.716   0.353   2.063 -3.0973 -1.4882 -1.0671
 3290SOL    HW221333   2.799   0.241   2.014 -1.0625 -2.6847  0.1960
 3291SOL     OW21334   1.451   0.636  10.881  0.5107  0.2931  0.2833
 3291SOL    HW121335   1.500   0.707  10.922 -1.0741  0.6757  1.5507
 3291SOL    HW221336   1.501   0.559  10.909 -2.0257 -1.0826  1.0700
 3292SOL     OW21337   0.559   3.237   3.875 -0.0994  0.1041 -0.5110
 3292SOL    HW121338   0.470   3.205   3.864 -0.6394  0.9769  1.4105
 3292SOL    HW221339   0.580   3.179   3.948 -2.4709 -0.5507 -0.3745
 3293SOL     OW21340   1.002   3.645  10.799  0.1238 -0.1790  0.4730
 3293SOL    HW121341   1.093   3.620  10.818  0.3987  2.0110  2.0651
 3293SOL    HW221342   0.962   3.559  10.809  2.4109 -1.2879  0.2908
 3294SOL     OW21343   0.893   0.128   7.116 -0.1945 -0.3036  0.4358
 3294SOL    HW121344   0.931   0.179   7.188 -2.1959  0.7420  0.7309
 3294SOL    HW221345   0.937   0.167   7.040 -1.5516  1.3080  0.4892
 3295SOL     OW21346   0.314   2.725  14.966  0.0318 -0.1785  0.5222
 3295SOL    HW121347   0.275   2.689  15.046  0.5976  2.5212  2.0289
 3295SOL    HW221348   0.332   2.812  15.003  0.9002  1.1169 -2.9844
 3296SOL     OW21349   1.433   0.028   0.578 -0.0958  0.1157  0.1819
 3296SOL    HW121350   1.494   0.090   0.537 -1.1948 -0.8155 -2.8579
 3296SOL    HW221351   1.435   0.050   0.671 -0.3276 -0.5338  0.3373
 3297SOL     OW21352   3.194   0.287   9.174  0.4911  0.3633  0.6229
 3297SOL    HW121353   3.233   0.294   9.088 -0.3635  1.0072  0.2877
 3297SOL    HW221354   3.185   0.379   9.199 -0.9309  0.1002  1.0952
 3298SOL     OW21355   2.562   2.774  11.802 -0.0894  0.1879  0.0446
 3298SOL    HW121356   2.542   2.723  11.881  0.2242  1.9788  1.2822
 3298SOL    HW221357   2.629   2.727  11.753  0.9566  1.3630  0.3601
 3299SOL     OW21358   1.405   4.576   3.288  0.4051  0.5629 -0.1707
 3299SOL    HW121359   1.472   4.567   3.221  0.4507 -1.3985  0.1593
 3299SOL    HW221360   1.375   4.488   3.309  0.9296  0.0575 -1.5678
 3300SOL     OW21361   2.313   1.275   0.072  0.0288  0.1358 -0.0151
 3300SOL    HW121362   2.341   1.229   0.151  0.8769  0.8889  0.1329
 3300SOL    HW221363   2.337   1.215   0.001  0.7323 -1.4356  1.5567
 3301SOL     OW21364   2.270   3.021   2.903  0.1376  1.0173 -0.3347
 3301SOL    HW121365   2.276   3.116   2.903 -1.0964  1.0790  1.0986
 3301SOL    HW221366   2.363   3.000   2.893 -0.4306 -2.0248  0.7300
 3302SOL     OW21367   2.343   1.145  15.110 -0.0677 -0.3409  0.5047
 3302SOL    HW121368   2.426   1.098  15.113 -0.8146 -1.6161  1.3528
 3302SOL    HW221369   2.374   1.235  15.125  0.5419  0.0206 -2.8828
 3303SOL     OW21370   1.195   0.704   3.698 -0.0238 -0.1401  0.3596
 3303SOL    HW121371   1.278   0.685   3.654  0.8310  1.1709  1.4030
 3303SOL    HW221372   1.205   0.797   3.719 -0.3832  0.0605 -0.3607
 3304SOL     OW21373   1.242   0.881  14.996  0.6289  0.4085 -0.4095
 3304SOL    HW121374   1.287   0.902  14.915  2.0019 -0.2669  0.1736
 3304SOL    HW221375   1.251   0.786  15.002 -2.0349  0.1363 -0.8201
 3305SOL     OW21376   2.254   3.353   3.204 -0.1722  0.2815 -0.4253
 3305SOL    HW121377   2.207   3.286   3.253 -0.2366  1.2591  0.8520
 3305SOL    HW221378   2.318   3.373   3.273 -0.5622  0.6598 -0.1751
 3306SOL     OW21379   4.629   4.203   8.866 -0.4803  0.7930 -0.3370
 3306SOL    HW121380   4.717   4.177   8.838 -0.3712 -0.2780  1.0318
 3306SOL    HW221381   4.598   4.131   8.920 -0.4262 -1.2706 -3.0741
 3307SOL     OW21382   1.437   3.196   0.870  0.3494 -0.6942 -0.0431
 3307SOL    HW121383   1.486   3.123   0.832  0.0674 -1.2400  0.6348
 3307SOL    HW221384   1.501   3.242   0.925  0.2575  0.9356 -1.3220
 3308SOL     OW21385   0.513   2.299   3.723  0.4601 -0.3233  0.0292
 3308SOL    HW121386   0.423   2.324   3.747  1.4643  1.3228  2.0427
 3308SOL    HW221387   0.558   2.359   3.782 -0.0870  0.4240 -0.3239
 3309SOL     OW21388   2.282   1.807   4.772  0.3930 -0.0951 -0.1963
 3309SOL    HW121389   2.258   1.831   4.861  2.3589 -0.7923  0.5174
 3309SOL    HW221390   2.377   1.818   4.775  0.3340  0.2736  0.2546
 3310SOL     OW21391   2.250   4.369   7.386 -0.4759  0.2842 -0.0297
 3310SOL    HW121392   2.332   4.405   7.355 -1.2441  1.0842 -1.1248
 3310SOL    HW221393   2.286   4.333   7.468 -0.5288  1.3224  0.4494
 3311SOL     OW21394   1.155   3.026  10.399 -0.1802  0.5258  0.5393
 3311SOL    HW121395   1.096   3.017  10.324  0.3134  0.2670  0.1809
 3311SOL    HW221396   1.152   2.935  10.430 -1.0349  0.6981  0.9669
 3312SOL     OW21397   2.426   4.448   5.211 -0.1599 -0.3255  0.1436
 3312SOL    HW121398   2.453   4.361   5.183  2.0785 -0.1120  1.6592
 3312SOL    HW221399   2.503   4.498   5.186 -0.5864 -0.1998 -0.9227
 3313SOL     OW21400   2.533   0.887   9.229 -0.5160  0.0436 -0.0430
 3313SOL    HW121401   2.617   0.928   9.209  0.3429 -1.3700  0.6732
 3313SOL    HW221402   2.535   0.884   9.324 -0.4278 -0.0106 -0.0472
 3314SOL     OW21403   2.917   1.102   4.498 -0.2012 -0.0632 -0.3740
 3314SOL    HW121404   2.927   1.099   4.403  0.0535  0.4039 -0.3637
 3314SOL    HW221405   2.930   1.195   4.516 -0.6061 -0.0148 -0.3259
 3315SOL     OW21406   4.136   1.523   2.472 -0.2209  0.3705 -0.0631
 3315SOL    HW121407   4.145   1.455   2.406  2.3582  1.9532 -1.3284
 3315SOL    HW221408   4.059   1.573   2.444 -1.0436 -1.1841 -0.5501
 3316SOL     OW21409   0.193   3.813   4.434  0.4961  1.1531  0.0534
 3316SOL    HW121410   0.180   3.893   4.383 -0.3825 -0.1009 -1.6718
 3316SOL    HW221411   0.261   3.847   4.492  1.1302 -0.7272  0.4150
 3317SOL     OW21412   0.307   2.703   3.331 -0.1838 -0.2039 -0.0425
 3317SOL    HW121413   0.227   2.726   3.377  0.0187 -1.1047  0.7521
 3317SOL    HW221414   0.379   2.740   3.383 -0.9835  1.5433 -0.1766
 3318SOL     OW21415   3.464   1.516   1.854  0.7712 -0.4557  0.1592
 3318SOL    HW121416   3.402   1.533   1.783  1.4666 -1.9085 -0.7979
 3318SOL    HW221417   3.439   1.424   1.857  2.1324 -0.8241  0.1945
 3319SOL     OW21418   3.504   3.032   6.595 -0.4813 -0.9453 -0.6646
 3319SOL    HW121419   3.456   3.042   6.677  0.3833 -0.4763 -0.2167
 3319SOL    HW221420   3.453   2.965   6.549  0.5435 -0.6651 -2.2242
 3320SOL     OW21421   4.546   0.082  12.291  0.9043  0.1330  0.0073
 3320SOL    HW121422   4.491   0.018  12.247  2.1488 -0.8369 -0.1352
 3320SOL    HW221423   4.627   0.038  12.316  1.3780  0.9809 -0.0415
 3321SOL     OW21424   3.078   0.671   6.834 -0.1899 -0.1471  0.7018
 3321SOL    HW121425   3.169   0.667   6.864  0.3710  1.3640 -0.7661
 3321SOL    HW221426   3.047   0.598   6.888 -0.5913  1.9839  3.3637
 3322SOL     OW21427   3.057   1.151   7.272 -0.5909 -0.2247 -0.4958
 3322SOL    HW121428   3.045   1.097   7.350  2.0668  4.4258  3.1123
 3322SOL    HW221429   2.985   1.125   7.215 -1.2833  0.6388 -0.0057
 3323SOL     OW21430   4.055   0.057   3.867  0.2761  0.1950  0.5166
 3323SOL    HW121431   3.966   0.038   3.839  1.3347 -0.1282 -2.6243
 3323SOL    HW221432   4.052   0.149   3.893  1.3601  0.4165 -0.1400
 3324SOL     OW21433   1.029   1.615   8.161  0.2668  0.2792 -0.6356
 3324SOL    HW121434   1.008   1.703   8.129  0.6536  0.9939  1.0302
 3324SOL    HW221435   1.113   1.630   8.206  0.1443 -0.4825 -0.1375
 3325SOL     OW21436   4.506   1.393   7.288 -0.0329 -0.2032 -0.3970
 3325SOL    HW121437   4.547   1.403   7.374  1.1301  2.4266 -1.2612
 3325SOL    HW221438   4.425   1.445   7.293  0.6061  0.7102  0.5082
 3326SOL     OW21439   2.614   2.401  17.175 -0.2180  0.0083  0.0279
 3326SOL    HW121440   2.529   2.386  17.217 -0.7003  0.3561 -0.8335
 3326SOL    HW221441   2.673   2.372  17.245  0.3077 -0.8570 -0.7708
 3327SOL     OW21442   0.391   0.134   4.773 -0.6713  0.7264 -0.5497
 3327SOL    HW121443   0.378   0.103   4.863  0.4977 -0.0745 -0.6502
 3327SOL    HW221444   0.476   0.176   4.787  0.2881 -1.9694  1.8261
 3328SOL     OW21445   1.438   3.862   8.068 -0.9592  0.6811 -0.5319
 3328SOL    HW121446   1.431   3.859   7.973 -0.4019  0.2557 -0.5599
 3328SOL    HW221447   1.350   3.896   8.086 -1.4754 -1.3429  0.7445
 3329SOL     OW21448   0.699   1.550   2.766  0.1994 -0.3487  0.3701
 3329SOL    HW121449   0.688   1.511   2.852 -0.1467 -2.9938 -0.8672
 3329SOL    HW221450   0.619   1.601   2.759  0.9447  0.8827  0.7578
 3330SOL     OW21451   4.088   3.312   5.258 -0.1191  0.1416 -0.3786
 3330SOL    HW121452   4.181   3.294   5.276  0.3542  1.5525 -1.4094
 3330SOL    HW221453   4.065   3.220   5.272  1.0773  0.1349  1.6073
 3331SOL     OW21454   0.160   1.305   9.711 -0.1046  0.0502 -0.0138
 3331SOL    HW121455   0.179   1.301   9.617 -0.6113 -0.8115 -0.0833
 3331SOL    HW221456   0.235   1.254   9.743  0.9255 -0.4434 -3.2778
 3332SOL     OW21457   2.914   4.452  10.753  0.0846 -0.2618 -0.2301
 3332SOL    HW121458   2.963   4.533  10.763 -0.0621  0.1330 -2.6258
 3332SOL    HW221459   2.888   4.433  10.843 -0.7997 -1.2811 -0.6964
 3333SOL     OW21460   4.536   1.745   6.429  0.0234  0.4989 -0.3913
 3333SOL    HW121461   4.597   1.777   6.495 -0.9903  1.2021  0.2162
 3333SOL    HW221462   4.502   1.830   6.400 -1.4567  0.4423  1.1628
 3334SOL     OW21463   2.205   2.118  16.087 -0.3718  0.3569 -0.2049
 3334SOL    HW121464   2.163   2.156  16.009 -1.2473 -2.1019 -0.9156
 3334SOL    HW221465   2.261   2.194  16.102  3.4378 -1.6896 -4.0271
 3335SOL     OW21466   2.669   0.306   9.808 -0.1022  0.0779  0.9434
 3335SOL    HW121467   2.599   0.240   9.803  0.5243 -0.6719  1.9689
 3335SOL    HW221468   2.644   0.369   9.741  2.1039 -0.6115 -0.5360
 3336SOL     OW21469   1.303   3.675  13.752 -0.3138 -0.0420 -0.0945
 3336SOL    HW121470   1.228   3.616  13.759  0.7339 -1.5473 -1.4832
 3336SOL    HW221471   1.307   3.709  13.841 -1.9031  1.1235 -0.4801
 3337SOL     OW21472   1.667   1.800   0.727 -0.0006 -0.0651  0.6282
 3337SOL    HW121473   1.719   1.848   0.792 -0.0061  0.5456  0.1714
 3337SOL    HW221474   1.609   1.870   0.699 -0.7964 -1.4170 -1.0398
 3338SOL     OW21475   1.446   0.697   8.889  0.5588  0.1513  0.5558
 3338SOL    HW121476   1.525   0.660   8.929  0.2980 -0.3258  0.6141
 3338SOL    HW221477   1.486   0.765   8.833 -0.5621  0.2832 -0.0854
 3339SOL     OW21478   1.182   4.699  13.190 -0.6084  0.6426 -0.0534
 3339SOL    HW121479   1.235   0.015  13.120 -0.2418  1.6523  0.7664
 3339SOL    HW221480   1.093   4.712  13.159 -1.5902  0.1791  2.5602
 3340SOL     OW21481   4.242   4.237  14.127 -0.3992 -0.0961  0.1164
 3340SOL    HW121482   4.172   4.175  14.110 -2.7636  2.2788  1.1822
 3340SOL    HW221483   4.202   4.316  14.089 -1.1773 -0.7174 -0.3522
 3341SOL     OW21484   2.131   3.603   6.100 -0.0756 -0.0340  0.0950
 3341SOL    HW121485   2.164   3.601   6.010  0.2941  0.9995  0.2125
 3341SOL    HW221486   2.211   3.625   6.146  0.1822 -0.6688 -0.0419
 3342SOL     OW21487   3.521   1.513  12.055 -0.2305  0.4047  0.0514
 3342SOL    HW121488   3.552   1.593  12.015 -2.0023 -0.8529 -3.8749
 3342SOL    HW221489   3.431   1.541  12.075 -0.4934 -0.9160  0.7539
 3343SOL     OW21490   0.189   3.849   1.349 -0.4603 -0.1942  0.1178
 3343SOL    HW121491   0.110   3.813   1.389 -1.1436  1.3681  0.1878
 3343SOL    HW221492   0.203   3.798   1.269 -0.9058 -0.0580 -0.0468
 3344SOL     OW21493   0.948   2.603   8.252  0.1899 -0.7150 -0.4525
 3344SOL    HW121494   1.023   2.553   8.219  2.4779  2.3303  0.1672
 3344SOL    HW221495   0.945   2.667   8.181  0.8658  0.8735  0.9495
 3345SOL     OW21496   3.867   1.862   7.083  0.0678  0.5206  0.0307
 3345SOL    HW121497   3.853   1.794   7.017  0.6077 -0.3140  0.7772
 3345SOL    HW221498   3.906   1.809   7.152  3.0649  1.1028 -1.2212
 3346SOL     OW21499   1.811   2.513  15.570  0.4305  0.1912 -0.4772
 3346SOL    HW121500   1.863   2.453  15.517  1.0071 -1.5907  2.0789
 3346SOL    HW221501   1.757   2.550  15.501 -1.6531 -2.5794 -0.3476
 3347SOL     OW21502   2.024   0.163   7.350 -0.2802 -0.9053  0.0315
 3347SOL    HW121503   2.007   0.225   7.421 -2.1402 -1.5255  0.1267
 3347SOL    HW221504   2.042   0.218   7.273  0.2464  0.1125  0.8926
 3348SOL     OW21505   1.512   0.983   5.219 -0.1906 -0.0041  0.3273
 3348SOL    HW121506   1.599   1.003   5.254  0.6388 -2.6315 -0.2687
 3348SOL    HW221507   1.518   0.897   5.178  3.0406 -1.1906  3.2353
 3349SOL     OW21508   3.620   0.230   8.573 -0.4488 -0.6388 -0.6253
 3349SOL    HW121509   3.637   0.218   8.479  1.0094 -1.0812 -0.2998
 3349SOL    HW221510   3.532   0.267   8.564  0.0282  1.2121  2.2823
 3350SOL     OW21511   0.808   1.284   3.382  0.3527 -0.5103  0.1903
 3350SOL    HW121512   0.732   1.324   3.340  1.4002  1.6903  0.3463
 3350SOL    HW221513   0.876   1.337   3.340  0.1008  0.0981  0.5480
 3351SOL     OW21514   2.098   1.706   7.044 -0.0183  0.2640  0.0505
 3351SOL    HW121515   2.103   1.801   7.050  1.0309  0.2256 -0.1222
 3351SOL    HW221516   2.188   1.673   7.055  0.7211  1.1725 -3.2905
 3352SOL     OW21517   1.555   2.255   4.313  0.3015 -0.7554  0.2007
 3352SOL    HW121518   1.625   2.190   4.309  0.5852 -0.4055 -0.7042
 3352SOL    HW221519   1.474   2.205   4.308  1.2493 -2.5001  2.2364
 3353SOL     OW21520   1.175   4.671   8.970  0.4122 -0.2371  0.2016
 3353SOL    HW121521   1.182   4.602   9.036 -1.0155  0.3812  0.9968
 3353SOL    HW221522   1.265   4.701   8.970  1.0770 -2.2293 -0.8837
 3354SOL     OW21523   0.070   0.277   4.246 -0.5223  0.0923 -0.2156
 3354SOL    HW121524   0.047   0.237   4.330 -1.2321 -0.2173 -0.5627
 3354SOL    HW221525   4.717   0.336   4.234 -0.1119  0.6682  0.0837
 3355SOL     OW21526   1.628   1.056  11.210  0.7938  0.5319 -0.0375
 3355SOL    HW121527   1.688   1.114  11.163  2.1413 -0.7689  0.0923
 3355SOL    HW221528   1.555   1.110  11.241  0.7278  0.5361 -0.1984
 3356SOL     OW21529   4.369   2.403   6.273  0.0160 -0.3182 -0.2097
 3356SOL    HW121530   4.386   2.497   6.281 -0.0734 -0.3652  0.4489
 3356SOL    HW221531   4.369   2.367   6.361  1.2978 -0.3814 -0.2431
 3357SOL     OW21532   0.071   3.555   5.003 -0.1924 -0.1244 -0.1812
 3357SOL    HW121533   0.056   3.534   4.911  0.3545 -0.4982 -0.1875
 3357SOL    HW221534   4.718   3.516   5.049 -0.6973  0.0419 -0.8510
 3358SOL     OW21535   3.211   1.036   8.203  0.7946  0.0885  0.5685
 3358SOL    HW121536   3.238   1.016   8.113 -0.0609 -0.9032  0.5260
 3358SOL    HW221537   3.198   0.947   8.235  2.7081 -0.0335  1.0133
 3359SOL     OW21538   4.281   0.719  15.415  0.4898  0.6121 -0.3003
 3359SOL    HW121539   4.206   0.743  15.361  0.7173  1.3733 -0.2836
 3359SOL    HW221540   4.297   0.634  15.376  1.5359  0.4556  0.4867
 3360SOL     OW21541   3.844   0.061   7.085 -0.5029 -0.1234 -0.7381
 3360SOL    HW121542   3.820   0.055   7.177 -4.8409  0.6599 -1.8057
 3360SOL    HW221543   3.929   0.019   7.092 -0.7331 -0.3244  0.7590
 3361SOL     OW21544   0.011   1.741   1.222 -0.2845  0.1984  0.1840
 3361SOL    HW121545   4.668   1.731   1.152  0.3335 -1.9316 -0.0834
 3361SOL    HW221546   4.710   1.819   1.273  1.8266 -0.0372  1.4560
 3362SOL     OW21547   3.414   1.701   9.624 -0.2210  0.1456  0.0869
 3362SOL    HW121548   3.364   1.782   9.634  1.1319  1.0731 -0.6731
 3362SOL    HW221549   3.487   1.714   9.684  0.4925  1.8712 -1.1679
 3363SOL     OW21550   2.290   1.384   4.154 -0.1054 -0.0668  0.1705
 3363SOL    HW121551   2.310   1.358   4.244 -0.0766 -1.9935 -0.3918
 3363SOL    HW221552   2.211   1.333   4.135  0.4189 -1.2908  1.2023
 3364SOL     OW21553   2.296   4.034   3.161  0.3131 -0.0553 -0.0678
 3364SOL    HW121554   2.392   4.044   3.159  0.3894 -1.1343 -1.4556
 3364SOL    HW221555   2.290   4.042   3.256  2.1295 -3.0888  0.3063
 3365SOL     OW21556   0.340   4.272   3.793  0.2337  0.0026 -0.1703
 3365SOL    HW121557   0.275   4.326   3.749  0.4303  0.1404 -0.2851
 3365SOL    HW221558   0.412   4.279   3.731 -0.1623 -0.7504 -0.7203
 3366SOL     OW21559   4.175   0.248   0.300 -0.1872  0.1486 -0.3546
 3366SOL    HW121560   4.148   0.339   0.302 -0.6693 -0.0206  1.4269
 3366SOL    HW221561   4.197   0.235   0.208  1.6615  3.8430 -0.4199
 3367SOL     OW21562   2.431   3.216   4.807  0.2432 -0.7622 -0.6058
 3367SOL    HW121563   2.492   3.237   4.736 -1.0539  3.2570 -0.5414
 3367SOL    HW221564   2.488   3.233   4.882 -0.5354 -2.5109  0.3782
 3368SOL     OW21565   1.964   2.571   1.315  0.2367 -0.6904  0.1906
 3368SOL    HW121566   1.943   2.508   1.246  2.9900  0.0256 -1.3036
 3368SOL    HW221567   1.916   2.652   1.298 -0.4602 -1.1600 -0.0543
 3369SOL     OW21568   0.140   4.206  16.128  0.0888  0.3515 -0.1116
 3369SOL    HW121569   0.204   4.275  16.147  1.1874 -0.3914 -1.1157
 3369SOL    HW221570   0.195   4.146  16.078  0.2972 -0.6716  1.3660
 3370SOL     OW21571   0.481   4.541   0.568 -0.6834 -0.0255 -0.5806
 3370SOL    HW121572   0.452   4.472   0.629 -2.0298 -1.2425 -2.6085
 3370SOL    HW221573   0.496   4.488   0.490  0.2376 -2.0671  0.9606
 3371SOL     OW21574   4.213   1.012   2.651 -0.4576 -0.0742  0.0800
 3371SOL    HW121575   4.239   1.102   2.633  2.1704 -1.1358 -1.4200
 3371SOL    HW221576   4.201   1.024   2.745 -1.7438  0.8259 -0.1946
 3372SOL     OW21577   0.694   1.239  14.203  0.0435  0.5172 -0.1561
 3372SOL    HW121578   0.643   1.318  14.186 -1.0146  0.0889  1.0319
 3372SOL    HW221579   0.769   1.277  14.248  0.0809 -0.0141  0.2311
 3373SOL     OW21580   0.135   1.348   6.509  0.2971 -0.5702  0.4493
 3373SOL    HW121581   0.070   1.375   6.445 -0.0221  0.9913  1.4232
 3373SOL    HW221582   0.171   1.433   6.535 -1.2844  0.7399 -1.7176
 3374SOL     OW21583   3.919   0.972   9.528 -0.2736  0.4400  0.1169
 3374SOL    HW121584   3.992   0.974   9.591 -0.8128  0.1589  0.7556
 3374SOL    HW221585   3.893   0.880   9.535  0.6125  0.1821  0.0400
 3375SOL     OW21586   1.829   2.497   0.705 -0.8479 -0.2870  0.0536
 3375SOL    HW121587   1.890   2.570   0.715 -0.6056 -0.4522 -0.2425
 3375SOL    HW221588   1.745   2.536   0.730 -0.9701  0.0794 -0.9553
 3376SOL     OW21589   3.101   1.033   3.391 -0.1583 -0.0600 -0.1113
 3376SOL    HW121590   3.168   1.045   3.458  1.1704  1.7859 -1.7719
 3376SOL    HW221591   3.065   1.120   3.379  1.7964  0.8942  0.9779
 3377SOL     OW21592   1.943   1.122   9.712 -0.6242 -0.1921 -0.1110
 3377SOL    HW121593   2.039   1.119   9.710 -0.7411 -2.0227 -2.4973
 3377SOL    HW221594   1.923   1.095   9.802 -0.8993 -1.9737 -0.7247
 3378SOL     OW21595   1.985   1.141  14.689 -0.2994  0.3960  0.0099
 3378SOL    HW121596   2.003   1.151  14.783 -0.2533  0.1858  0.0234
 3378SOL    HW221597   1.951   1.051  14.685  0.4643  0.0208  2.2654
 3379SOL     OW21598   0.066   2.283   2.955  0.3864 -0.7587 -0.3869
 3379SOL    HW121599   0.107   2.234   2.883 -1.5408 -3.0195  0.0312
 3379SOL    HW221600   0.030   2.358   2.909  0.3782 -0.4173  0.1848
 3380SOL     OW21601   4.246   1.182  10.927 -0.7144 -0.0414  0.0344
 3380SOL    HW121602   4.243   1.209  11.018  0.0374  1.0885 -0.2790
 3380SOL    HW221603   4.334   1.206  10.898 -1.0517  0.4954 -0.5652
 3381SOL     OW21604   2.151   0.099   6.111  0.4011  0.0407 -0.4942
 3381SOL    HW121605   2.081   0.107   6.047 -0.7463  1.0266  0.9069
 3381SOL    HW221606   2.157   0.186   6.152  1.9393 -0.5043  0.4795
 3382SOL     OW21607   2.720   2.565   2.871 -0.3579  0.3672 -0.1929
 3382SOL    HW121608   2.685   2.480   2.899 -2.8403  2.0639  1.8445
 3382SOL    HW221609   2.782   2.587   2.940  0.5311 -2.3946 -0.1134
 3383SOL     OW21610   2.320   3.293   2.901  0.6745 -0.2679  0.0574
 3383SOL    HW121611   2.340   3.355   2.831  1.2350 -1.8908 -1.2193
 3383SOL    HW221612   2.289   3.355   2.967  0.8944 -0.8511  0.7068
 3384SOL     OW21613   3.789   0.774  12.148 -0.0860  0.4709 -0.0086
 3384SOL    HW121614   3.851   0.702  12.163 -2.7670 -2.1270 -1.3060
 3384SOL    HW221615   3.704   0.729  12.143  0.5442 -0.4804 -1.9720
 3385SOL     OW21616   3.429   2.444   8.091  0.2456 -0.0093  0.4604
 3385SOL    HW121617   3.469   2.497   8.023 -2.1246  0.1374 -0.8067
 3385SOL    HW221618   3.349   2.418   8.046 -0.2838  0.5909  1.0609
 3386SOL     OW21619   3.623   0.997  16.723  0.2029 -0.0253 -0.0869
 3386SOL    HW121620   3.597   1.055  16.795 -0.2304  2.2804 -2.0922
 3386SOL    HW221621   3.698   1.046  16.689 -0.7536  1.0569 -0.6655
 3387SOL     OW21622   0.305   0.041   7.461  0.7745  0.0470  0.2436
 3387SOL    HW121623   0.341   0.050   7.373  1.4525  0.6396  0.5789
 3387SOL    HW221624   0.238   0.108   7.469 -0.8858 -1.6470  0.5666
 3388SOL     OW21625   1.330   2.877   6.091 -0.0872 -0.6289 -0.1943
 3388SOL    HW121626   1.335   2.834   6.006  0.5208  1.8270 -1.3874
 3388SOL    HW221627   1.266   2.815   6.127  1.3112 -1.3134  1.1336
 3389SOL     OW21628   4.295   2.495   2.853 -0.0772 -0.2270 -0.2591
 3389SOL    HW121629   4.213   2.544   2.843  0.4013  0.7957  0.9487
 3389SOL    HW221630   4.355   2.569   2.844  2.1401 -1.9280  0.5883
 3390SOL     OW21631   1.609   0.187   2.015 -0.1730  0.0781 -0.6353
 3390SOL    HW121632   1.528   0.180   1.964  0.2489  1.2246 -1.4652
 3390SOL    HW221633   1.623   0.095   2.039 -0.5629  0.7754  2.2380
 3391SOL     OW21634   2.210   1.147  13.858  0.4750  0.1012  0.0399
 3391SOL    HW121635   2.131   1.184  13.898  0.2395 -1.0515  0.6354
 3391SOL    HW221636   2.168   1.065  13.831  0.8604 -0.6828  1.8765
 3392SOL     OW21637   2.673   3.440   1.768  0.2716 -0.2098  0.0295
 3392SOL    HW121638   2.688   3.521   1.720 -0.7844 -0.0544 -0.0434
 3392SOL    HW221639   2.588   3.468   1.802 -0.3000 -2.0801  0.1261
 3393SOL     OW21640   1.076   0.819  10.672  0.4544 -0.5541  0.5088
 3393SOL    HW121641   1.046   0.729  10.663 -1.4707  0.1256  0.0390
 3393SOL    HW221642   1.158   0.818  10.623  0.6356  0.1743  0.7880
 3394SOL     OW21643   2.204   1.541  16.728 -0.3177 -0.0497  0.3178
 3394SOL    HW121644   2.177   1.457  16.766  0.0923 -0.2736  0.1251
 3394SOL    HW221645   2.149   1.605  16.772  0.1749 -0.1129  1.0269
 3395SOL     OW21646   2.865   1.409   3.720 -0.1328  0.4722 -0.1876
 3395SOL    HW121647   2.840   1.358   3.643 -0.5887  0.2751  0.0960
 3395SOL    HW221648   2.954   1.439   3.701  0.6397 -0.5306  1.9257
 3396SOL     OW21649   4.678   2.349   7.015 -0.0174 -0.3376  0.0235
 3396SOL    HW121650   0.030   2.358   6.954  3.1758 -0.8725  3.8062
 3396SOL    HW221651   4.610   2.295   6.976  1.1510 -1.2656 -0.7115
 3397SOL     OW21652   0.631   2.192   8.801  0.5085  0.6497 -0.7558
 3397SOL    HW121653   0.625   2.139   8.881  0.2504  0.9432 -0.5794
 3397SOL    HW221654   0.716   2.171   8.763 -0.5243 -0.5469 -2.4606
 3398SOL     OW21655   4.095   2.217   3.827  0.1001 -0.1079  0.6682
 3398SOL    HW121656   4.099   2.134   3.778 -0.6659  0.7102 -0.7959
 3398SOL    HW221657   4.179   2.257   3.807  1.3312 -3.2131 -0.3528
 3399SOL     OW21658   0.811   1.620   2.228  0.1743 -0.6228  0.3041
 3399SOL    HW121659   0.842   1.710   2.234 -1.3270 -0.0387 -0.7418
 3399SOL    HW221660   0.729   1.641   2.273 -0.1821  3.6650 -2.3390
 3400SOL     OW21661   4.102   0.192  15.944 -0.4361  0.0881  0.0096
 3400SOL    HW121662   4.160   0.170  15.871  1.0391 -1.2509  1.6130
 3400SOL    HW221663   4.035   0.241  15.895  0.9557  1.2702 -0.7225
 3401SOL     OW21664   0.385   4.584  13.312  0.0498 -0.2693 -0.1775
 3401SOL    HW121665   0.336   4.518  13.263  1.1986 -0.7558 -0.6611
 3401SOL    HW221666   0.318   4.644  13.345  0.1009  0.2397 -0.9963
 3402SOL     OW21667   1.327   1.265   2.287  0.3926 -0.0826  0.3574
 3402SOL    HW121668   1.283   1.226   2.362  0.2190 -1.5098 -0.4906
 3402SOL    HW221669   1.389   1.317   2.338 -1.0364  1.5613  0.4347
 3403SOL     OW21670   2.449   0.682   6.225  0.5969 -0.4060  0.1974
 3403SOL    HW121671   2.477   0.648   6.140  2.0716  0.7437  0.2254
 3403SOL    HW221672   2.528   0.726   6.256  0.3131 -0.1600  0.5721
 3404SOL     OW21673   0.938   4.477   2.670 -0.4333  0.2063  0.3831
 3404SOL    HW121674   0.932   4.558   2.721 -0.4007 -0.7053  1.8367
 3404SOL    HW221675   0.933   4.409   2.737  2.4332  0.2871  0.6731
 3405SOL     OW21676   2.227   1.614   7.827  0.3872  0.2156  0.0647
 3405SOL    HW121677   2.144   1.617   7.780  0.2114 -0.1341  0.3555
 3405SOL    HW221678   2.284   1.678   7.785  1.1990  0.7183  1.9040
 3406SOL     OW21679   0.351   1.136   0.335 -0.0501 -0.4556  0.2145
 3406SOL    HW121680   0.324   1.170   0.250 -3.3196  0.5834  1.6535
 3406SOL    HW221681   0.445   1.155   0.327 -0.4742  1.8498  0.6774
 3407SOL     OW21682   0.279   0.016   3.179  0.2830  0.5532  0.0698
 3407SOL    HW121683   0.344   4.682   3.136 -1.1185 -0.6975 -0.4357
 3407SOL    HW221684   0.302   0.004   3.271  0.4490 -1.0532 -0.1758
 3408SOL     OW21685   2.503   1.373   1.414 -0.4460  0.0106 -0.1339
 3408SOL    HW121686   2.474   1.461   1.439 -1.0066  0.4304 -2.2691
 3408SOL    HW221687   2.437   1.326   1.464  0.5678 -2.1804 -0.8611
 3409SOL     OW21688   1.308   3.069   3.298  0.1471  0.0221  0.0992
 3409SOL    HW121689   1.291   3.075   3.204 -0.1747 -0.3040  0.1381
 3409SOL    HW221690   1.223   3.040   3.331  0.0133 -1.0662 -1.1953
 3410SOL     OW21691   3.372   4.303  11.789 -0.0341  0.6997  0.1364
 3410SOL    HW121692   3.305   4.315  11.855  1.5529 -1.1278  2.0842
 3410SOL    HW221693   3.332   4.367  11.731  0.6253  0.3926 -0.6661
 3411SOL     OW21694   2.540   1.162   2.132 -0.1779 -0.4847  0.9118
 3411SOL    HW121695   2.526   1.219   2.057  0.3777  0.1969  1.3225
 3411SOL    HW221696   2.580   1.086   2.092 -0.9167 -0.7106  0.5985
 3412SOL     OW21697   2.065   4.097   5.046 -0.1875 -0.3546  0.3007
 3412SOL    HW121698   2.036   4.133   4.962 -0.1325  0.9990  0.8702
 3412SOL    HW221699   2.016   4.014   5.042  1.3020 -1.2364  0.2760
 3413SOL     OW21700   0.144   1.911   2.095 -0.2425 -0.0462 -0.6375
 3413SOL    HW121701   0.093   1.991   2.083 -1.4869 -0.7474 -0.0699
 3413SOL    HW221702   0.202   1.957   2.155  0.4875 -1.4027 -0.2921
 3414SOL     OW21703   2.892   3.658   4.917  0.5225  0.5541 -0.8726
 3414SOL    HW121704   2.933   3.676   4.832  1.0995  0.9435 -0.5107
 3414SOL    HW221705   2.969   3.621   4.961 -0.1036  1.0715  0.6613
 3415SOL     OW21706   4.269   3.035   8.985 -0.5341  0.4884  0.3726
 3415SOL    HW121707   4.221   3.025   9.067  1.2762  1.6276  1.5615
 3415SOL    HW221708   4.315   3.116   9.007  0.7837 -0.4655  1.0818
 3416SOL     OW21709   3.550   2.312   5.483  0.1313  0.1369  0.0884
 3416SOL    HW121710   3.615   2.374   5.448 -0.9529  0.0334 -2.1212
 3416SOL    HW221711   3.479   2.315   5.419  0.0682  0.4097  0.1738
 3417SOL     OW21712   3.282   2.629  10.727 -0.2471  0.2453 -0.0117
 3417SOL    HW121713   3.299   2.696  10.660 -2.3250  1.1099  0.3035
 3417SOL    HW221714   3.367   2.585  10.725 -1.1593 -1.5375  0.5526
 3418SOL     OW21715   1.931   1.754   8.244 -0.3898 -0.2464 -0.2409
 3418SOL    HW121716   2.000   1.793   8.299  0.3769  0.1037 -1.4348
 3418SOL    HW221717   1.858   1.745   8.305  0.8929  1.7387  1.6103
 3419SOL     OW21718   3.368   1.878   6.584 -0.2219 -0.2208 -0.1041
 3419SOL    HW121719   3.435   1.916   6.527 -0.2321 -1.3109 -0.8331
 3419SOL    HW221720   3.292   1.932   6.561 -0.1977  0.9195  2.4463
 3420SOL     OW21721   2.308   2.466   2.598 -0.0698  0.2832  0.2536
 3420SOL    HW121722   2.323   2.482   2.505 -0.7717 -1.3100 -0.1389
 3420SOL    HW221723   2.394   2.486   2.635  0.2013 -1.6436  0.6600
 3421SOL     OW21724   4.156   0.400   7.189  0.1982  0.2318  0.3095
 3421SOL    HW121725   4.216   0.441   7.250  0.1055 -0.3939  0.8257
 3421SOL    HW221726   4.066   0.414   7.217 -0.2033 -0.4074 -0.6576
 3422SOL     OW21727   3.998   3.755  13.942 -0.3515  0.1132 -0.5613
 3422SOL    HW121728   4.084   3.713  13.935  0.3281  1.4991 -0.7970
 3422SOL    HW221729   4.001   3.803  14.025 -0.8397  0.7868 -0.9337
 3423SOL     OW21730   2.269   1.181   5.201  0.1355  0.1164  0.9504
 3423SOL    HW121731   2.360   1.171   5.229  1.7823  2.1009 -3.7953
 3423SOL    HW221732   2.247   1.096   5.163 -2.1571  1.5091 -0.7693
 3424SOL     OW21733   2.380   0.286   3.895 -0.0379  0.4535 -0.1052
 3424SOL    HW121734   2.340   0.215   3.945  1.9061 -1.3844 -1.1771
 3424SOL    HW221735   2.318   0.359   3.894 -2.1586 -1.3317 -0.1571
 3425SOL     OW21736   2.400   2.296  10.070 -0.1055 -0.5459  0.0100
 3425SOL    HW121737   2.447   2.213  10.070  0.8015 -0.0341  3.3069
 3425SOL    HW221738   2.470   2.359  10.088  0.3315 -1.4171  1.3504
 3426SOL     OW21739   0.838   2.333   6.425  0.1334 -0.8019 -0.0900
 3426SOL    HW121740   0.762   2.331   6.368  0.2152 -0.2684 -0.2198
 3426SOL    HW221741   0.860   2.425   6.439  0.9101 -1.1366  0.8655
 3427SOL     OW21742   1.395   0.364   8.594 -0.0545 -0.1037 -0.3659
 3427SOL    HW121743   1.355   0.298   8.537  0.1566 -0.8891  0.3880
 3427SOL    HW221744   1.320   0.416   8.625  0.9503  0.4405  1.1264
 3428SOL     OW21745   4.047   0.273   8.478  0.1717 -0.0708  0.4681
 3428SOL    HW121746   4.127   0.221   8.475 -0.4618 -1.0944  1.3353
 3428SOL    HW221747   4.047   0.295   8.571 -0.5107  1.9467 -0.0022
 3429SOL     OW21748   1.987   3.137  15.911  0.4343  0.0105  0.4355
 3429SOL    HW121749   1.991   3.227  15.943  1.2431 -0.6880  2.2571
 3429SOL    HW221750   2.079   3.109  15.915  0.0972 -1.0235  0.7093
 3430SOL     OW21751   3.065   0.409   5.942  0.5491  1.1477  0.1988
 3430SOL    HW121752   3.032   0.439   6.026  0.7554 -1.2939  1.1656
 3430SOL    HW221753   2.979   0.382   5.910  0.6676  1.7844 -0.6639
 3431SOL     OW21754   1.444   1.586  11.982  0.0420  0.1487  0.4041
 3431SOL    HW121755   1.508   1.516  11.972  0.6503  0.9189 -1.0204
 3431SOL    HW221756   1.434   1.607  11.890 -0.4759  0.3486  0.5068
 3432SOL     OW21757   2.025   3.174   8.775  0.1632 -0.0189  0.2671
 3432SOL    HW121758   2.104   3.228   8.788  0.4106 -0.0141 -1.2341
 3432SOL    HW221759   2.061   3.135   8.696  0.7657  0.2588  0.4009
 3433SOL     OW21760   1.014   1.879   7.128  0.3324 -0.2390 -0.1778
 3433SOL    HW121761   1.082   1.932   7.087  0.3960 -0.3033 -0.1573
 3433SOL    HW221762   0.945   1.878   7.063  0.1827 -2.6634 -0.0030
 3434SOL     OW21763   2.027   3.766   1.614 -0.3604  0.4481  0.1361
 3434SOL    HW121764   1.957   3.700   1.616 -0.8287  0.9538  0.3811
 3434SOL    HW221765   1.983   3.846   1.641  1.4130  1.0997  1.0540
 3435SOL     OW21766   1.243   0.827   3.367  0.9457  0.0650  0.6871
 3435SOL    HW121767   1.205   0.915   3.372 -0.0601 -0.4142  1.3581
 3435SOL    HW221768   1.301   0.821   3.444  0.7861  1.5216  0.9201
 3436SOL     OW21769   0.370   1.516  16.296 -0.3152 -0.0972 -0.3684
 3436SOL    HW121770   0.367   1.427  16.333 -1.3502 -0.0974 -0.4577
 3436SOL    HW221771   0.382   1.490  16.204 -1.2064 -0.7346 -0.3135
 3437SOL     OW21772   3.180   4.246  11.562  0.0244  0.3529  0.1027
 3437SOL    HW121773   3.109   4.300  11.528 -0.0938  0.6196  0.7781
 3437SOL    HW221774   3.241   4.318  11.545  2.4548 -1.8057 -0.3455
 3438SOL     OW21775   1.677   2.731   7.578 -0.1150 -0.3530 -0.3212
 3438SOL    HW121776   1.605   2.670   7.591  1.4993 -2.0206  0.8507
 3438SOL    HW221777   1.628   2.808   7.550 -0.6412 -1.0892 -1.4600
 3439SOL     OW21778   4.649   3.983  12.288 -0.0757 -0.2457  0.0064
 3439SOL    HW121779   4.710   3.949  12.354 -1.5405  0.0647  1.5089
 3439SOL    HW221780   4.699   3.975  12.206  0.8644  1.8719  0.3738
 3440SOL     OW21781   0.754   0.373   0.793  0.6469  0.2180 -0.2693
 3440SOL    HW121782   0.796   0.307   0.738 -2.2162 -1.5050 -0.3443
 3440SOL    HW221783   0.709   0.316   0.855 -1.9291  0.7993 -1.6431
 3441SOL     OW21784   2.780   2.363   3.836 -0.3112 -1.0883 -0.4471
 3441SOL    HW121785   2.736   2.282   3.810 -0.1514 -1.2741 -0.1408
 3441SOL    HW221786   2.698   2.412   3.834  0.4315  0.2298  1.2707
 3442SOL     OW21787   0.124   3.169   9.276  0.2461 -0.0598  0.5193
 3442SOL    HW121788   0.136   3.135   9.187 -0.4019  1.2310 -0.0650
 3442SOL    HW221789   0.029   3.177   9.263  0.4873 -0.4029 -1.4309
 3443SOL     OW21790   3.640   3.693   6.703  0.4498 -0.1571 -0.1806
 3443SOL    HW121791   3.711   3.651   6.752 -0.1810 -1.0728 -0.0393
 3443SOL    HW221792   3.680   3.704   6.617  0.9405 -1.2199 -0.0924
 3444SOL     OW21793   0.526   4.450   5.345 -0.0272 -0.7760 -0.7867
 3444SOL    HW121794   0.549   4.381   5.284  0.8610 -1.7710  0.6566
 3444SOL    HW221795   0.431   4.453   5.339 -0.0060  2.3692  0.4087
 3445SOL     OW21796   4.421   1.146   7.220 -0.1173  0.2005  0.2857
 3445SOL    HW121797   4.457   1.228   7.252 -2.6136  0.4806  2.3633
 3445SOL    HW221798   4.346   1.177   7.169  1.3107 -0.0836 -1.9963
 3446SOL     OW21799   2.664   1.778   1.561 -0.0319 -0.4312  0.0847
 3446SOL    HW121800   2.655   1.872   1.552  0.4409 -0.2588  1.3494
 3446SOL    HW221801   2.757   1.769   1.583  0.0954 -0.2670 -0.3814
 3447SOL     OW21802   3.809   3.060  10.261  0.0763  0.5425  0.3195
 3447SOL    HW121803   3.717   3.033  10.258 -0.0683  1.2028 -1.1789
 3447SOL    HW221804   3.822   3.109  10.180 -0.9220 -0.6446 -0.5794
 3448SOL     OW21805   3.098   3.975   6.196 -0.4088 -0.5899 -0.1443
 3448SOL    HW121806   3.168   4.011   6.251  0.1072 -2.2944  0.3055
 3448SOL    HW221807   3.119   4.027   6.118  2.1651  0.4428  1.2026
 3449SOL     OW21808   2.324   0.487   6.803 -0.5765  0.6938  0.2654
 3449SOL    HW121809   2.363   0.540   6.733  0.0786 -0.8210 -0.5204
 3449SOL    HW221810   2.302   0.405   6.759  0.1357  1.3487 -1.3126
 3450SOL     OW21811   3.090   1.398   5.191  0.3436  0.2981 -0.2366
 3450SOL    HW121812   3.048   1.430   5.111 -2.0168  0.2406  0.9678
 3450SOL    HW221813   3.034   1.432   5.262  0.1562 -2.3782  0.9054
 3451SOL     OW21814   3.171   2.989  14.723  0.1708 -0.1134 -0.1159
 3451SOL    HW121815   3.256   2.962  14.688  0.8645 -0.1062  1.5266
 3451SOL    HW221816   3.144   3.034  14.643  2.2216  1.2371 -0.0534
 3452SOL     OW21817   0.163   1.875   7.167 -0.2118  0.3007 -0.0581
 3452SOL    HW121818   0.226   1.889   7.238  0.8469 -0.1079 -0.9236
 3452SOL    HW221819   0.092   1.936   7.188  1.4099  1.1845  2.9274
 3453SOL     OW21820   2.061   3.108   3.596  0.1468  1.1691 -0.4914
 3453SOL    HW121821   2.061   3.033   3.655 -0.4757  0.6769 -1.1057
 3453SOL    HW221822   1.969   3.124   3.574 -0.3282  0.9535  1.3343
 3454SOL     OW21823   0.838   4.425   5.691 -0.3739 -0.7529 -0.1867
 3454SOL    HW121824   0.814   4.338   5.661 -2.5114 -0.4773  0.6796
 3454SOL    HW221825   0.768   4.478   5.651 -0.2909  0.1949  0.9129
 3455SOL     OW21826   2.955   2.870   3.666 -0.1079  0.0827  0.2691
 3455SOL    HW121827   2.947   2.869   3.761  0.2360  1.5971  0.3152
 3455SOL    HW221828   2.960   2.966   3.666  2.4330 -0.0433  1.6058
 3456SOL     OW21829   0.300   2.160   5.164 -0.0244 -0.0548  0.4456
 3456SOL    HW121830   0.292   2.193   5.254  0.4802 -0.6536  0.7128
 3456SOL    HW221831   0.376   2.102   5.178 -0.7643 -1.3886 -1.1375
 3457SOL     OW21832   4.585   2.801  15.473 -0.2316  0.6759 -0.0103
 3457SOL    HW121833   4.595   2.708  15.492  1.5872  0.4905 -1.9775
 3457SOL    HW221834   4.649   2.819  15.404  2.5866  2.1681  2.9722
 3458SOL     OW21835   3.335   0.591   2.599 -0.5723 -0.1799 -0.1215
 3458SOL    HW121836   3.276   0.607   2.673 -0.8289  0.7987 -0.5416
 3458SOL    HW221837   3.294   0.516   2.556 -0.6405  0.7521 -1.6757
 3459SOL     OW21838   0.828   2.349  13.521 -0.6166 -0.5437 -0.2058
 3459SOL    HW121839   0.854   2.338  13.613 -1.3218  1.5719  0.2557
 3459SOL    HW221840   0.833   2.443  13.507 -4.3095 -0.6167 -2.1315
 3460SOL     OW21841   2.887   0.912   6.406 -0.2028  0.3952 -0.2309
 3460SOL    HW121842   2.925   0.897   6.492  0.0163  0.6542 -0.2825
 3460SOL    HW221843   2.909   1.005   6.396 -0.5599  0.6777  1.7385
 3461SOL     OW21844   3.013   2.012  11.202  0.0834 -0.3503 -0.4821
 3461SOL    HW121845   2.953   2.040  11.133  1.1071  2.1099 -0.4055
 3461SOL    HW221846   3.066   1.945  11.159  0.4522 -0.4862  0.1874
 3462SOL     OW21847   2.237   3.164  13.430 -0.0703 -0.3959 -0.1946
 3462SOL    HW121848   2.230   3.152  13.335 -0.4344 -0.9700 -0.0948
 3462SOL    HW221849   2.225   3.076  13.466 -0.0254  0.2139  1.2943
 3463SOL     OW21850   2.128   0.130  11.596 -0.0781  0.4070 -0.0664
 3463SOL    HW121851   2.133   0.174  11.512 -1.1963  0.0168 -0.3347
 3463SOL    HW221852   2.220   0.104  11.601 -0.7938 -1.8935  1.7364
 3464SOL     OW21853   1.373   4.206   3.018 -0.1087 -0.1197  0.3285
 3464SOL    HW121854   1.396   4.150   2.944  0.5053  3.2636 -2.0478
 3464SOL    HW221855   1.456   4.248   3.039  0.5770 -1.1115 -0.4052
 3465SOL     OW21856   4.668   1.218   6.150  0.3618 -0.2364 -0.0480
 3465SOL    HW121857   4.620   1.139   6.125 -1.6894  1.1804 -0.4780
 3465SOL    HW221858   4.604   1.280   6.182  0.1575 -1.3909  1.7741
 3466SOL     OW21859   2.519   4.714  17.528  0.1565  0.0889 -0.1149
 3466SOL    HW121860   2.447   4.654  17.511  1.0699 -0.8098 -0.8128
 3466SOL    HW221861   2.502   0.065  17.467  2.4903  0.0787 -0.7738
 3467SOL     OW21862   2.796   4.622   3.290 -0.4407 -0.0750  0.0827
 3467SOL    HW121863   2.792   4.706   3.337 -1.2555  1.3577 -2.5441
 3467SOL    HW221864   2.766   4.561   3.357 -0.3651 -0.0022  0.1829
 3468SOL     OW21865   2.538   2.402  11.723 -0.2609 -0.2922  0.4089
 3468SOL    HW121866   2.607   2.469  11.724 -0.7835  0.2714 -1.4044
 3468SOL    HW221867   2.573   2.347  11.793 -0.2494  0.4282  0.9694
 3469SOL     OW21868   0.744   2.339   1.991 -0.5339  0.1846 -0.3819
 3469SOL    HW121869   0.754   2.321   1.898 -0.5626  2.2413 -0.7942
 3469SOL    HW221870   0.710   2.429   1.998  0.2144  0.2860  2.1455
 3470SOL     OW21871   0.886   3.821  16.529 -0.0661 -0.5253  0.1881
 3470SOL    HW121872   0.891   3.738  16.481  1.1470 -0.0751 -0.4876
 3470SOL    HW221873   0.889   3.786  16.618 -0.6013  0.0518  0.4261
 3471SOL     OW21874   1.754   2.395  13.035  0.6111 -0.2161  0.3835
 3471SOL    HW121875   1.766   2.335  12.961 -1.8148  0.0461 -0.2385
 3471SOL    HW221876   1.795   2.347  13.107 -0.4464 -0.9793  0.4775
 3472SOL     OW21877   2.807   0.969   9.153 -0.5640 -0.7486 -0.1039
 3472SOL    HW121878   2.900   0.950   9.160 -0.3469  0.7768  1.2959
 3472SOL    HW221879   2.788   0.912   9.079  2.2282 -0.1876 -1.2272
 3473SOL     OW21880   3.406   1.435  15.970  0.2208 -0.2732  0.3363
 3473SOL    HW121881   3.377   1.483  15.892  0.8414 -1.7614 -0.8125
 3473SOL    HW221882   3.334   1.375  15.985  0.1968  0.0271  1.4502
 3474SOL     OW21883   2.209   3.309   2.316  0.6128  0.3151  0.1678
 3474SOL    HW121884   2.118   3.288   2.334  0.7606 -0.3160  0.1916
 3474SOL    HW221885   2.245   3.220   2.321 -1.4169 -0.6301 -1.9624
 3475SOL     OW21886   3.062   2.013  16.602 -0.0067 -0.4156 -0.1316
 3475SOL    HW121887   3.120   2.011  16.527 -1.6037 -0.8092 -1.3528
 3475SOL    HW221888   3.082   2.096  16.644  1.4967 -1.1635  0.6413
 3476SOL     OW21889   1.597   3.173  15.192  0.0194 -0.4513  0.4654
 3476SOL    HW121890   1.628   3.234  15.259 -2.4298  0.9003  0.3717
 3476SOL    HW221891   1.503   3.160  15.210 -0.4251  0.3574 -1.2989
 3477SOL     OW21892   3.723   3.669   4.540 -0.2814 -0.2041  0.1405
 3477SOL    HW121893   3.637   3.703   4.515  0.1858  1.6964  1.1631
 3477SOL    HW221894   3.749   3.753   4.578  2.2043 -0.1401 -1.7016
 3478SOL     OW21895   1.791   0.360   2.837  0.2128 -0.0683  0.0948
 3478SOL    HW121896   1.840   0.404   2.767  0.3116 -1.4015 -0.6684
 3478SOL    HW221897   1.703   0.379   2.806  1.0609  1.4422 -1.4256
 3479SOL     OW21898   4.571   1.065   3.861 -0.2450 -0.5099 -0.3951
 3479SOL    HW121899   4.522   1.044   3.781  1.6983  0.3004 -1.7892
 3479SOL    HW221900   4.652   1.107   3.832 -0.0851 -0.5549 -0.0174
 3480SOL     OW21901   3.363   1.203   1.593  0.1841  0.1160 -0.0675
 3480SOL    HW121902   3.279   1.170   1.561  0.4141  0.6667 -1.2375
 3480SOL    HW221903   3.355   1.177   1.685  0.9793  0.8779  0.2106
 3481SOL     OW21904   1.938   0.760   8.051 -0.4999 -0.2666 -0.0849
 3481SOL    HW121905   1.860   0.740   7.999 -0.1484 -0.4720 -0.5326
 3481SOL    HW221906   1.951   0.683   8.108 -0.6454  0.7324  1.3068
 3482SOL     OW21907   1.130   2.646   4.775 -0.4273 -0.2320 -0.4417
 3482SOL    HW121908   1.125   2.721   4.717  0.4926  0.9862  1.0664
 3482SOL    HW221909   1.218   2.650   4.813  0.3176 -0.5686 -2.1339
 3483SOL     OW21910   0.986   1.919   3.590  0.2147 -0.1064 -0.4427
 3483SOL    HW121911   0.982   1.861   3.666  0.2655 -2.6994 -2.4222
 3483SOL    HW221912   0.899   1.895   3.556  0.3911 -0.4866 -0.6242
 3484SOL     OW21913   4.534   4.680   5.065 -0.0524 -0.5738 -0.6233
 3484SOL    HW121914   4.578   0.030   5.019  0.1522 -0.3008 -0.0116
 3484SOL    HW221915   4.597   4.660   5.135 -0.2587 -0.5004 -0.4154
 3485SOL     OW21916   0.818   0.122   4.218  0.1542  0.1331  0.1579
 3485SOL    HW121917   0.809   0.069   4.139 -3.0343  1.7428 -0.5637
 3485SOL    HW221918   0.832   0.207   4.176 -1.2147 -0.6843 -1.9498
 3486SOL     OW21919   1.236   1.587   7.524  0.0812 -0.1773  0.0083
 3486SOL    HW121920   1.211   1.498   7.549  0.7815  0.1496  1.8504
 3486SOL    HW221921   1.290   1.572   7.446  0.4799 -0.1184  0.2697
 3487SOL     OW21922   1.553   2.610  14.289  0.4185 -0.0779 -0.2262
 3487SOL    HW121923   1.476   2.667  14.288 -0.6295 -1.4963  0.1144
 3487SOL    HW221924   1.573   2.603  14.382 -0.2529  1.0769  0.0022
 3488SOL     OW21925   2.536   1.343   1.929  0.1236 -0.2027  0.7335
 3488SOL    HW121926   2.481   1.342   1.851  1.6499 -0.0538 -0.3663
 3488SOL    HW221927   2.539   1.439   1.938 -1.8989 -0.2135  1.4629
 3489SOL     OW21928   1.294   1.858   4.175  0.4908  0.4585 -0.4190
 3489SOL    HW121929   1.326   1.778   4.133  1.0228  0.0138  0.8426
 3489SOL    HW221930   1.273   1.911   4.099  0.0724  0.7858 -0.0698
 3490SOL     OW21931   3.834   0.192  10.949  0.0914  0.0284  0.3228
 3490SOL    HW121932   3.899   0.217  10.884  0.7835  4.1707  2.5455
 3490SOL    HW221933   3.879   0.225  11.027 -0.1173  1.6695 -0.2346
 3491SOL     OW21934   3.468   0.962   2.634  0.1151  0.2865  0.4905
 3491SOL    HW121935   3.380   0.945   2.599  0.2432 -0.2937  0.4560
 3491SOL    HW221936   3.451   0.940   2.725  0.0773  0.1272  0.4448
 3492SOL     OW21937   2.834   4.267  12.994 -0.3104 -0.1152  0.0540
 3492SOL    HW121938   2.765   4.269  12.928  0.5069 -1.0172 -0.8193
 3492SOL    HW221939   2.880   4.183  12.984  0.5099  0.3438 -0.0264
 3493SOL     OW21940   3.174   3.374   6.030 -0.4976  0.3642  0.1704
 3493SOL    HW121941   3.180   3.382   5.935 -0.1001 -0.9503  0.0873
 3493SOL    HW221942   3.145   3.285   6.051  2.7083 -0.6153  0.4714
 3494SOL     OW21943   4.603   4.707  13.842  0.0059  0.0730 -0.2659
 3494SOL    HW121944   4.557   4.665  13.915 -0.7058  0.7427 -0.3271
 3494SOL    HW221945   4.572   4.653  13.770 -0.5523 -2.7432  2.0807
 3495SOL     OW21946   1.227   4.330   4.214 -0.4403 -0.6200  0.1433
 3495SOL    HW121947   1.141   4.311   4.252 -1.1856  2.0719 -0.2383
 3495SOL    HW221948   1.202   4.414   4.175 -1.5836 -2.3015 -2.7897
 3496SOL     OW21949   4.194   0.532   2.642  0.6681  0.3646 -0.3116
 3496SOL    HW121950   4.177   0.626   2.649  0.9509  0.4142 -0.2973
 3496SOL    HW221951   4.155   0.525   2.555 -0.2088 -1.6186  0.2283
 3497SOL     OW21952   2.277   0.197   0.584 -0.9638  0.8915  0.0771
 3497SOL    HW121953   2.265   0.275   0.531 -2.1312 -0.4439 -1.6225
 3497SOL    HW221954   2.314   0.128   0.529 -0.6867  0.8110  0.3616
 3498SOL     OW21955   0.727   4.131   5.844 -0.1883  0.0202  0.3851
 3498SOL    HW121956   0.739   4.182   5.764  0.0763  0.5635  0.7744
 3498SOL    HW221957   0.696   4.049   5.806  2.2781 -0.9090  0.3899
 3499SOL     OW21958   3.981   2.438   5.980  0.2948 -0.3911 -0.5688
 3499SOL    HW121959   4.060   2.392   5.950  0.3543 -0.2453 -0.6372
 3499SOL    HW221960   3.959   2.387   6.058 -1.5962  1.6543  0.2158
 3500SOL     OW21961   0.829   0.136   5.565  0.1410  0.1436 -0.2988
 3500SOL    HW121962   0.785   0.054   5.546 -0.7516 -0.1119  2.9173
 3500SOL    HW221963   0.810   0.183   5.483 -1.1751  0.8031  0.3839
 3501SOL     OW21964   2.092   0.197   1.837  0.1022  0.5319  0.1621
 3501SOL    HW121965   2.014   0.175   1.888  1.0048  0.4056  1.4841
 3501SOL    HW221966   2.097   0.292   1.853  1.6651  0.4285  0.2714
 3502SOL     OW21967   3.230   3.378   7.784 -0.2602 -0.1297 -0.0887
 3502SOL    HW121968   3.255   3.365   7.875 -0.1944 -0.2670 -0.1252
 3502SOL    HW221969   3.140   3.408   7.789  0.2103  2.1506 -5.1391
 3503SOL     OW21970   2.300   2.845   3.940  0.0217 -0.0183  0.3864
 3503SOL    HW121971   2.314   2.753   3.963  1.9008  0.4473  1.1170
 3503SOL    HW221972   2.256   2.873   4.020 -1.6238 -0.5625 -0.3276
 3504SOL     OW21973   1.989   2.545   3.074 -0.7344 -0.6508 -0.5606
 3504SOL    HW121974   2.063   2.600   3.049 -0.5573 -0.7921 -0.3450
 3504SOL    HW221975   1.996   2.543   3.169  0.7995 -1.4453 -0.7026
 3505SOL     OW21976   2.444   4.420   8.289 -0.3673  0.1746 -0.1697
 3505SOL    HW121977   2.458   4.391   8.379 -0.3893  0.8338  0.0502
 3505SOL    HW221978   2.377   4.488   8.297 -0.9676 -0.6700  1.9004
 3506SOL     OW21979   2.998   1.777   4.570 -0.1561 -0.4590  0.0386
 3506SOL    HW121980   3.043   1.706   4.525 -0.0871 -0.3848 -0.0108
 3506SOL    HW221981   3.064   1.844   4.587 -1.1998  0.8250 -0.9798
 3507SOL     OW21982   1.579   3.564   6.980 -0.1668  0.3834  0.1461
 3507SOL    HW121983   1.518   3.607   6.921 -0.8247 -1.4944 -0.5647
 3507SOL    HW221984   1.595   3.484   6.929  3.6591  2.2044 -1.5207
 3508SOL     OW21985   3.121   0.567  17.612  0.5977  0.5625  0.3665
 3508SOL    HW121986   3.086   0.556  17.524  2.0032 -0.3265 -0.0857
 3508SOL    HW221987   3.042   0.597  17.657 -0.8873 -1.0072 -1.2184
 3509SOL     OW21988   0.850   0.772   6.299 -0.5189  0.5292  0.2789
 3509SOL    HW121989   0.812   0.715   6.231  1.6314 -0.1432 -0.3720
 3509SOL    HW221990   0.775   0.828   6.320 -1.2574  0.2004 -1.4421
 3510SOL     OW21991   4.391   0.426  11.639 -0.5931  0.3878  0.3295
 3510SOL    HW121992   4.320   0.378  11.682  0.2312 -1.3042 -0.2144
 3510SOL    HW221993   4.338   0.498  11.603 -0.7736  0.0835 -0.0112
 3511SOL     OW21994   4.328   0.746   3.467  0.1684  0.1143  0.3250
 3511SOL    HW121995   4.361   0.661   3.436 -2.2022  0.3684 -2.9810
 3511SOL    HW221996   4.249   0.748   3.413 -0.8092  1.0091  1.7876
 3512SOL     OW21997   2.516   2.196   7.599  0.1799 -0.0528  0.5816
 3512SOL    HW121998   2.532   2.156   7.513 -1.8544  0.2575  0.0638
 3512SOL    HW221999   2.429   2.233   7.582  0.1660  1.0275  3.0408
 3513SOL     OW22000   2.868   0.752   5.010  0.2645  0.1316  0.4432
 3513SOL    HW122001   2.933   0.782   5.074  0.6298  2.3204 -0.9464
 3513SOL    HW222002   2.792   0.796   5.049 -0.3069  0.8235 -1.4864
 3514SOL     OW22003   1.679   4.228   4.097 -0.7660 -0.2387  0.0249
 3514SOL    HW122004   1.695   4.295   4.030  0.7915 -0.0306  0.6124
 3514SOL    HW222005   1.708   4.264   4.181  0.0649 -0.7282 -0.0540
 3515SOL     OW22006   1.356   2.358   5.636 -0.4200  0.1606  0.7921
 3515SOL    HW122007   1.317   2.271   5.649 -2.5774  0.9978 -0.0687
 3515SOL    HW222008   1.344   2.412   5.714  0.4405 -0.5877  1.4554
 3516SOL     OW22009   2.842   1.913   9.808  0.5251  0.1997  0.0966
 3516SOL    HW122010   2.884   1.852   9.748 -0.7371  1.7443 -2.3481
 3516SOL    HW222011   2.920   1.961   9.837 -0.0302  1.0345  0.2204
 3517SOL     OW22012   3.566   1.157   3.535  0.1223 -0.3825  0.1719
 3517SOL    HW122013   3.627   1.103   3.486 -0.8848  1.4853 -3.1832
 3517SOL    HW222014   3.579   1.131   3.626 -1.6237 -2.3931 -0.1445
 3518SOL     OW22015   1.215   2.872   7.172 -0.3078  0.1168  0.1553
 3518SOL    HW122016   1.181   2.791   7.133 -2.1505  1.8965 -1.8960
 3518SOL    HW222017   1.305   2.841   7.182 -0.3936 -0.3629 -0.5276
 3519SOL     OW22018   0.627   0.172  14.406 -0.1448  0.0401 -0.8306
 3519SOL    HW122019   0.667   0.151  14.490 -0.8525  1.3967 -0.1487
 3519SOL    HW222020   0.554   0.224  14.441 -1.2151 -0.8103 -1.7846
 3520SOL     OW22021   1.824   3.364  10.139 -0.2229 -0.0723  0.4827
 3520SOL    HW122022   1.833   3.383  10.232 -1.3158 -1.6818  0.9096
 3520SOL    HW222023   1.827   3.269  10.137  1.2658 -0.0273  0.5332
 3521SOL     OW22024   0.221   0.268  11.296  0.1835 -0.5866 -0.2320
 3521SOL    HW122025   0.142   0.269  11.351 -0.2167 -2.5561 -0.7611
 3521SOL    HW222026   0.285   0.271  11.367 -2.0579  2.8223  1.6529
 3522SOL     OW22027   1.531   2.943   7.480 -0.0493 -0.4901 -0.0908
 3522SOL    HW122028   1.507   3.018   7.535 -0.0744 -0.5285 -0.0484
 3522SOL    HW222029   1.541   2.998   7.403 -0.2605 -0.6430 -0.2252
 3523SOL     OW22030   0.009   0.614   8.427  0.1450  0.1735 -0.1858
 3523SOL    HW122031   4.659   0.563   8.463  2.2222 -2.4219  0.2893
 3523SOL    HW222032   4.685   0.687   8.384 -0.3730 -0.9453 -1.5628
 3524SOL     OW22033   3.943   4.530  14.352  0.0805  0.1729  0.9641
 3524SOL    HW122034   3.914   4.441  14.372 -0.9217  0.0487 -1.0164
 3524SOL    HW222035   3.961   4.525  14.258 -1.6817  3.2071  0.4296
 3525SOL     OW22036   1.062   1.526  14.760 -0.0018 -0.3128 -0.2485
 3525SOL    HW122037   1.128   1.595  14.750  1.7632 -1.9016  0.5453
 3525SOL    HW222038   1.107   1.468  14.821  1.0157  0.8486  0.1079
 3526SOL     OW22039   1.940   1.616   9.117 -0.9174  0.3131  0.7315
 3526SOL    HW122040   1.924   1.522   9.122  1.7852 -0.1141  1.4961
 3526SOL    HW222041   1.887   1.655   9.048  1.4188  0.4332 -0.9860
 3527SOL     OW22042   0.756   2.225   3.173 -0.5541 -0.1366  0.0480
 3527SOL    HW122043   0.681   2.283   3.185 -1.2931 -1.5840  2.2696
 3527SOL    HW222044   0.742   2.198   3.082  1.0973 -0.2938 -0.1726
 3528SOL     OW22045   0.419   1.701   9.263  0.8471  0.3223  0.2559
 3528SOL    HW122046   0.342   1.751   9.288  0.2303 -0.5995  0.2083
 3528SOL    HW222047   0.484   1.771   9.257  0.4485  0.4683 -2.1505
 3529SOL     OW22048   4.429   1.095   8.874  0.2222 -0.0283  0.0764
 3529SOL    HW122049   4.411   1.173   8.822  1.3345 -0.3165 -0.7594
 3529SOL    HW222050   4.362   1.035   8.841  1.6486 -1.4195 -0.3085
 3530SOL     OW22051   2.390   1.416  15.226  0.0021  0.3853  0.1395
 3530SOL    HW122052   2.477   1.431  15.189  0.6498 -2.4003  0.5746
 3530SOL    HW222053   2.337   1.429  15.147  0.0014  1.9409  0.3814
 3531SOL     OW22054   4.084   1.026   4.911  0.2404  0.5632 -0.7024
 3531SOL    HW122055   4.084   0.941   4.866 -0.9458 -0.2072  0.7570
 3531SOL    HW222056   4.080   0.990   4.999  0.2586  1.5260 -0.3115
 3532SOL     OW22057   0.707   1.731   1.284 -0.2341 -0.1609  1.0574
 3532SOL    HW122058   0.757   1.755   1.361  3.4798 -0.4688 -1.2616
 3532SOL    HW222059   0.770   1.700   1.219 -0.0523  2.8107 -0.1762
 3533SOL     OW22060   2.670   3.777  15.311  0.0836 -0.2868 -0.3851
 3533SOL    HW122061   2.689   3.788  15.404 -0.0373 -1.7049 -0.1977
 3533SOL    HW222062   2.575   3.793  15.309 -0.0053 -0.7088  0.2363
 3534SOL     OW22063   2.836   3.593  10.542 -0.3383 -0.0094  0.9613
 3534SOL    HW122064   2.870   3.573  10.629  0.0477 -2.5276  0.2210
 3534SOL    HW222065   2.741   3.595  10.557  0.1066  0.9033  3.6465
 3535SOL     OW22066   3.959   3.324  12.804  0.4453  0.5465  0.2664
 3535SOL    HW122067   3.966   3.293  12.894  0.1134 -4.2617 -1.3312
 3535SOL    HW222068   3.864   3.333  12.799  0.3806 -0.5154 -0.4135
 3536SOL     OW22069   3.393   2.438   8.918  0.5376 -0.4168  0.0979
 3536SOL    HW122070   3.479   2.464   8.951  0.0492 -2.3108  2.8176
 3536SOL    HW222071   3.369   2.501   8.850  1.7398 -0.1741 -0.1026
 3537SOL     OW22072   0.214   0.028   6.553  0.1043  0.2199  0.3458
 3537SOL    HW122073   0.212   4.703   6.637  0.9569 -1.4070 -0.5425
 3537SOL    HW222074   0.125   0.063   6.553 -0.0532 -0.1552  2.7310
 3538SOL     OW22075   4.698   3.744   4.201 -0.0874 -0.0862  0.6777
 3538SOL    HW122076   0.023   3.826   4.219  2.2361 -1.4066  0.7038
 3538SOL    HW222077   4.643   3.763   4.125  1.2358 -2.3871 -0.8676
 3539SOL     OW22078   3.047   4.103   8.160 -0.3214 -0.2845 -0.1493
 3539SOL    HW122079   3.137   4.085   8.186 -0.1305 -0.8185 -1.1787
 3539SOL    HW222080   3.007   4.110   8.246 -0.1562 -0.7268 -0.0354
 3540SOL     OW22081   2.999   1.742   9.972  0.6789  0.7398 -0.2483
 3540SOL    HW122082   2.934   1.701   9.915  0.2353  2.2874 -0.8571
 3540SOL    HW222083   2.957   1.731  10.057  0.5615 -0.4648 -0.4691
 3541SOL     OW22084   2.510   3.981   6.603 -0.1957  0.1253  1.0132
 3541SOL    HW122085   2.458   3.954   6.680 -0.0133 -0.0675  1.0686
 3541SOL    HW222086   2.592   4.008   6.645 -0.4826  0.5990  1.2684
 3542SOL     OW22087   4.272   2.517  16.619 -0.0697 -0.2419 -0.6950
 3542SOL    HW122088   4.241   2.428  16.602 -0.7794  0.2571 -1.9869
 3542SOL    HW222089   4.203   2.551  16.676  0.7148  2.4791 -1.3905
 3543SOL     OW22090   2.558   2.009  11.230 -0.0475 -0.1885  0.4118
 3543SOL    HW122091   2.544   2.047  11.144 -0.6251  2.0520  1.4956
 3543SOL    HW222092   2.503   2.073  11.275  0.6517  0.9799 -0.3945
 3544SOL     OW22093   1.047   3.802   5.810 -0.0201 -0.2811  0.1318
 3544SOL    HW122094   1.134   3.761   5.812  0.8345  1.3694 -3.4347
 3544SOL    HW222095   1.074   3.894   5.813  0.3532 -0.4234  1.3493
 3545SOL     OW22096   2.931   0.464   5.288  0.0078  0.7483 -0.2918
 3545SOL    HW122097   2.851   0.503   5.325  0.0838 -0.4841  1.2021
 3545SOL    HW222098   2.938   0.505   5.202  1.3589  1.2367  0.0655
 3546SOL     OW22099   4.132   1.092   4.599  0.1654  0.5367  0.1459
 3546SOL    HW122100   4.110   1.015   4.651 -1.4573  1.4420  0.8116
 3546SOL    HW222101   4.057   1.145   4.628  0.6430  1.9814 -1.2462
 3547SOL     OW22102   3.265   2.740   5.480  0.3587 -0.1095  0.2898
 3547SOL    HW122103   3.320   2.701   5.548  1.6865 -0.0229 -0.7600
 3547SOL    HW222104   3.179   2.706   5.505  0.0164  0.5488 -0.0034
 3548SOL     OW22105   0.676   1.877  12.045  0.2228  0.1775 -0.0424
 3548SOL    HW122106   0.756   1.897  11.996  1.8494  1.7540  3.2417
 3548SOL    HW222107   0.611   1.937  12.007  1.0746 -0.3562 -2.3222
 3549SOL     OW22108   2.800   0.661  15.862  0.1565  0.5326 -0.0473
 3549SOL    HW122109   2.820   0.638  15.953 -1.4178 -1.8847 -0.3124
 3549SOL    HW222110   2.835   0.586  15.815  0.1794 -0.9204  2.2917
 3550SOL     OW22111   3.984   4.308  15.812  0.0438 -0.1243 -0.4983
 3550SOL    HW122112   3.979   4.401  15.833  0.0732 -0.0761 -0.7087
 3550SOL    HW222113   3.963   4.265  15.896 -0.1303  0.4886 -0.2290
 3551SOL     OW22114   3.072   4.350  16.941  0.9001 -0.5068  0.1600
 3551SOL    HW122115   3.126   4.303  17.004 -0.4016  0.4307  1.9568
 3551SOL    HW222116   3.109   4.323  16.857 -1.0395 -1.1450 -0.4772
 3552SOL     OW22117   3.131   4.654  16.283  0.2648  0.1826  0.2183
 3552SOL    HW122118   3.053   4.600  16.297 -0.2923  0.6378 -1.1106
 3552SOL    HW222119   3.124   4.672  16.189 -0.0564  1.1266  0.4259
 3553SOL     OW22120   2.576   4.215  14.152 -0.4580 -0.9149  0.2786
 3553SOL    HW122121   2.651   4.169  14.190 -2.3027 -3.5591  0.6984
 3553SOL    HW222122   2.623   4.288  14.111  0.2185 -1.1849  0.5638
 3554SOL     OW22123   1.113   1.864   8.741 -0.2099 -0.3555  0.6462
 3554SOL    HW122124   1.065   1.794   8.785 -1.9438  0.1075 -0.5192
 3554SOL    HW222125   1.043   1.929   8.738  0.3117  0.1289 -0.8632
 3555SOL     OW22126   3.034   0.530   5.000 -0.1269  0.5456  0.1304
 3555SOL    HW122127   3.097   0.559   4.934 -0.5877 -2.1594 -1.5030
 3555SOL    HW222128   2.963   0.592   4.985  0.7820  1.5156 -0.1960
 3556SOL     OW22129   0.626   1.747   7.349 -0.1485 -0.2088 -0.8628
 3556SOL    HW122130   0.619   1.726   7.442  0.1509 -0.9429 -1.0102
 3556SOL    HW222131   0.610   1.661   7.311  0.1867  1.3957 -4.6142
 3557SOL     OW22132   3.324   0.187   8.318 -0.3776 -0.0881  0.5298
 3557SOL    HW122133   3.406   0.214   8.277 -0.9080  1.2812  0.3651
 3557SOL    HW222134   3.301   0.110   8.266 -0.3218 -0.1718  0.6316
 3558SOL     OW22135   1.150   1.566   3.967 -0.2387 -0.0773 -0.1471
 3558SOL    HW122136   1.226   1.534   3.919  0.9949  1.5552  0.7099
 3558SOL    HW222137   1.084   1.513   3.921 -0.6103  2.8497 -3.0250
 3559SOL     OW22138   2.912   0.860   1.433  0.5854 -0.5909 -0.2978
 3559SOL    HW122139   2.987   0.886   1.379 -0.1190 -1.2641 -1.6057
 3559SOL    HW222140   2.909   0.767   1.413  0.7342 -0.8322  0.8021
 3560SOL     OW22141   0.247   1.528  17.609  0.2035 -0.3091  0.0554
 3560SOL    HW122142   0.261   1.535   0.016  1.2888  1.6705 -0.2585
 3560SOL    HW222143   0.339   1.530  17.585  0.1028  0.4399 -0.2579
 3561SOL     OW22144   0.865   4.311  15.674  0.2875 -0.4932  0.3301
 3561SOL    HW122145   0.877   4.278  15.763 -1.3537 -2.8881 -0.3342
 3561SOL    HW222146   0.798   4.378  15.686  0.4460 -0.2689 -0.0225
 3562SOL     OW22147   4.397   3.979   4.585  0.0195 -0.4326  0.0053
 3562SOL    HW122148   4.361   3.955   4.670 -1.1403 -0.8752 -0.6104
 3562SOL    HW222149   4.491   3.985   4.603 -0.1652 -0.1727  0.8963
 3563SOL     OW22150   1.124   2.095  16.113  0.5725 -0.5033  0.2933
 3563SOL    HW122151   1.030   2.074  16.113  0.6552 -0.8717  0.8046
 3563SOL    HW222152   1.144   2.109  16.021 -0.1641  0.6320  0.3120
 3564SOL     OW22153   2.803   3.249   7.151 -0.3414 -0.3608  0.2987
 3564SOL    HW122154   2.868   3.316   7.130 -1.2797  0.0073 -1.4292
 3564SOL    HW222155   2.765   3.238   7.064  0.5215  0.7932 -0.2379
 3565SOL     OW22156   0.338   3.769  12.886  0.3789 -0.7147  0.2104
 3565SOL    HW122157   0.419   3.808  12.853  0.2754 -1.3206 -0.7362
 3565SOL    HW222158   0.371   3.699  12.942  0.2008 -0.1375  1.0515
 3566SOL     OW22159   3.403   1.373   6.262  0.3349  0.2014 -0.1197
 3566SOL    HW122160   3.386   1.427   6.185 -1.8665 -1.6249 -0.8900
 3566SOL    HW222161   3.435   1.441   6.322  0.3155  0.5813 -0.5408
 3567SOL     OW22162   2.992   4.349   2.289  0.3550  0.8108 -0.0722
 3567SOL    HW122163   2.908   4.392   2.276 -0.0298  0.9091  2.5948
 3567SOL    HW222164   3.044   4.399   2.226 -0.0210  1.3081  0.0033
 3568SOL     OW22165   4.097   2.336   5.597  0.6391 -0.4252 -0.1708
 3568SOL    HW122166   4.039   2.410   5.578  0.6527 -0.9548 -2.2583
 3568SOL    HW222167   4.187   2.368   5.594  0.3487  0.4875  0.9106
 3569SOL     OW22168   3.208   2.278   5.643  0.1629  0.3750  0.0551
 3569SOL    HW122169   3.249   2.359   5.673  1.4230  0.0334 -0.7454
 3569SOL    HW222170   3.145   2.277   5.715  0.1351  2.7722  0.0608
 3570SOL     OW22171   0.735   2.915   2.177 -0.2543  0.0235 -0.0532
 3570SOL    HW122172   0.757   2.909   2.270 -0.0553  0.5098 -0.0713
 3570SOL    HW222173   0.640   2.901   2.183 -0.1479 -0.3008  0.8361
 3571SOL     OW22174   2.507   2.843   0.129  0.3234  0.4678  0.4686
 3571SOL    HW122175   2.599   2.850   0.103  0.7744 -1.0573  1.6656
 3571SOL    HW222176   2.503   2.786   0.206 -2.7410 -0.1288 -0.1279
 3572SOL     OW22177   2.700   2.740   4.539  0.6347 -0.5791  0.1447
 3572SOL    HW122178   2.683   2.697   4.623  1.1873 -0.7843  0.1453
 3572SOL    HW222179   2.710   2.829   4.575  0.0354 -1.1896  1.8469
 3573SOL     OW22180   1.904   0.427   2.607 -0.0294 -0.0693  0.1950
 3573SOL    HW122181   1.897   0.470   2.522  3.3029  0.3719  0.1250
 3573SOL    HW222182   1.993   0.393   2.604 -0.0862 -0.2874  1.0227
 3574SOL     OW22183   0.934   3.314  12.774 -0.6667 -0.1864 -0.3359
 3574SOL    HW122184   0.857   3.335  12.722 -0.3669  0.9309 -0.3394
 3574SOL    HW222185   0.964   3.400  12.803  0.4313 -1.3209  1.9367
 3575SOL     OW22186   3.145   2.594   9.804  0.1604  0.4610 -0.3020
 3575SOL    HW122187   3.237   2.588   9.831  0.3888 -0.9502 -1.3706
 3575SOL    HW222188   3.151   2.641   9.722 -1.1625  1.7686  0.3492
 3576SOL     OW22189   3.931   2.947   6.019  0.0781  0.0340  0.1420
 3576SOL    HW122190   3.847   2.962   5.976 -0.1278 -0.9200  0.1988
 3576SOL    HW222191   3.919   3.010   6.089  1.5172  0.3896  0.0742
 3577SOL     OW22192   1.416   3.499   8.419  0.3864  0.5704 -0.1250
 3577SOL    HW122193   1.448   3.577   8.463  1.0798  0.0812  0.2222
 3577SOL    HW222194   1.347   3.477   8.482  0.8620 -1.1484 -0.1963
 3578SOL     OW22195   2.940   4.525   9.191 -0.6633 -0.2681 -0.3904
 3578SOL    HW122196   2.951   4.449   9.248 -0.6588 -2.6569 -3.5062
 3578SOL    HW222197   2.857   4.569   9.209 -1.2450 -1.1305 -0.9437
 3579SOL     OW22198   0.431   1.859   6.212 -0.7096  0.3325 -0.7462
 3579SOL    HW122199   0.401   1.769   6.202 -1.1947  0.6433 -2.0793
 3579SOL    HW222200   0.398   1.902   6.133  3.2607  0.1525 -2.5002
 3580SOL     OW22201   3.178   3.627   4.130 -0.4975  0.3677 -0.1731
 3580SOL    HW122202   3.159   3.699   4.069  1.4829  2.0609  1.2005
 3580SOL    HW222203   3.098   3.574   4.133  0.4309 -1.0614 -0.9664
 3581SOL     OW22204   3.108   2.061   5.503 -0.1861  0.4450  0.2665
 3581SOL    HW122205   3.019   2.082   5.472 -0.9365 -0.3687  1.8466
 3581SOL    HW222206   3.146   2.144   5.533 -1.4535  0.2102  2.5291
 3582SOL     OW22207   4.012   0.004   2.831  0.7098 -0.5998  0.4320
 3582SOL    HW122208   4.099   0.011   2.791  0.1238  0.6034 -0.6068
 3582SOL    HW222209   3.967   4.672   2.765 -0.9938  0.7064  0.5444
 3583SOL     OW22210   2.742   2.247   3.462 -0.1587 -0.6444  0.4690
 3583SOL    HW122211   2.751   2.152   3.474 -0.8706 -0.9962 -1.6484
 3583SOL    HW222212   2.660   2.260   3.510 -2.0208 -0.8148 -2.6786
 3584SOL     OW22213   3.911   2.364   6.245  0.4316  0.3517  0.3211
 3584SOL    HW122214   3.979   2.322   6.298 -1.4828  0.1078  2.6047
 3584SOL    HW222215   3.901   2.441   6.300 -0.0334  2.8458 -3.2716
 3585SOL     OW22216   2.499   4.175  12.451 -0.0684  0.3565 -0.2354
 3585SOL    HW122217   2.443   4.210  12.520 -1.9713  1.0877 -2.1760
 3585SOL    HW222218   2.522   4.097  12.502 -0.6154 -0.4535 -1.2339
 3586SOL     OW22219   3.026   3.213   7.968  0.0222 -0.0393  0.0958
 3586SOL    HW122220   3.037   3.273   8.043  0.4249  0.9530 -0.7576
 3586SOL    HW222221   3.039   3.131   8.016  2.2634  0.0321 -0.4217
 3587SOL     OW22222   0.442   2.814   6.974 -0.6045 -0.3275 -0.1094
 3587SOL    HW122223   0.368   2.765   7.008  0.9644 -2.3609  0.3600
 3587SOL    HW222224   0.438   2.897   7.023 -0.4683  0.2245 -1.0351
 3588SOL     OW22225   1.105   4.615   7.564  0.0518  0.1614  0.0219
 3588SOL    HW122226   1.085   4.545   7.625  0.8745  0.3610  0.5239
 3588SOL    HW222227   1.076   4.571   7.485 -0.9441  0.3494  0.2860
 3589SOL     OW22228   1.639   3.947   5.652  0.0347 -0.5704  0.2191
 3589SOL    HW122229   1.698   4.021   5.643  0.0149 -0.6289 -0.3976
 3589SOL    HW222230   1.688   3.881   5.701  1.7052 -1.0307 -2.0567
 3590SOL     OW22231   0.517   3.914   4.346 -0.5863  0.3244 -0.0949
 3590SOL    HW122232   0.564   3.997   4.352  0.7213 -0.5156  1.1150
 3590SOL    HW222233   0.465   3.905   4.426 -0.2530 -0.4890  0.0248
 3591SOL     OW22234   2.418   2.626   7.561  0.2680  0.5983  0.0090
 3591SOL    HW122235   2.499   2.607   7.513 -0.8872  0.1841 -1.7727
 3591SOL    HW222236   2.453   2.638   7.649 -2.5248 -0.1855  1.2246
 3592SOL     OW22237   1.944   1.962  17.610  0.4458  0.7625 -0.5128
 3592SOL    HW122238   1.986   1.917  17.684  1.6682  2.1797 -0.3560
 3592SOL    HW222239   1.954   1.902  17.536 -3.3572 -0.2604 -0.2501
 3593SOL     OW22240   4.674   2.839   4.073 -0.5626 -0.2794  0.0605
 3593SOL    HW122241   4.595   2.802   4.034 -0.5246  1.0706 -1.3182
 3593SOL    HW222242   4.710   2.756   4.104 -0.4939  0.5280  2.1335
 3594SOL     OW22243   2.175   4.027   7.326  0.5386 -0.2042 -0.5242
 3594SOL    HW122244   2.254   4.029   7.272  0.1523 -1.4483 -1.1417
 3594SOL    HW222245   2.220   4.025   7.410 -0.0376  0.8861 -0.1830
 3595SOL     OW22246   3.255   3.935   0.144  0.0611  0.4442  0.4579
 3595SOL    HW122247   3.302   4.000   0.091  2.1841  1.0832  3.0858
 3595SOL    HW222248   3.185   3.915   0.083  0.1894  0.6716  0.2370
 3596SOL     OW22249   3.346   3.011   5.476 -0.3775  0.4299  0.3181
 3596SOL    HW122250   3.297   2.929   5.468  1.5713 -0.6867  0.0638
 3596SOL    HW222251   3.331   3.041   5.386  1.6871 -3.0566 -1.1739
 3597SOL     OW22252   0.995   0.245   3.245  0.3127 -0.2429 -0.2208
 3597SOL    HW122253   1.045   0.166   3.223 -0.3872 -0.7169 -0.1131
 3597SOL    HW222254   1.064   0.310   3.259 -0.3766  0.5855 -0.7431
 3598SOL     OW22255   0.695   3.050   4.324 -0.1014 -0.4838 -0.3265
 3598SOL    HW122256   0.705   2.986   4.394  1.9377  0.2279  0.0157
 3598SOL    HW222257   0.601   3.037   4.311 -0.0259  0.5034 -1.8018
 3599SOL     OW22258   1.001   1.044   2.696 -0.5388 -0.6913  0.2974
 3599SOL    HW122259   0.969   0.991   2.768 -0.0019 -0.6531  0.5645
 3599SOL    HW222260   0.919   1.056   2.648 -0.6682  0.0116  0.6999
 3600SOL     OW22261   1.775   0.637   2.443  0.2516 -0.0114 -0.0138
 3600SOL    HW122262   1.780   0.701   2.514 -0.7595  2.6464 -2.3114
 3600SOL    HW222263   1.718   0.680   2.379 -0.5340  0.6206  1.1089
 3601SOL     OW22264   4.366   1.968   3.053 -0.5297 -0.4070 -0.0735
 3601SOL    HW122265   4.320   2.052   3.059 -1.7886 -1.1675  1.1498
 3601SOL    HW222266   4.384   1.959   2.959 -1.7377  1.1046 -0.4607
 3602SOL     OW22267   3.438   2.113  12.193 -0.0955 -0.1606  0.0748
 3602SOL    HW122268   3.348   2.141  12.206  0.3634  1.6096 -0.4822
 3602SOL    HW222269   3.469   2.075  12.275 -0.1549  0.1230  0.2278
 3603SOL     OW22270   2.223   0.494   0.787 -0.4851  0.4375 -0.0849
 3603SOL    HW122271   2.157   0.457   0.846  0.2363  1.4907  1.3864
 3603SOL    HW222272   2.294   0.436   0.815 -2.0664 -1.0796  0.8213
 3604SOL     OW22273   3.212   2.393  14.569  0.9590  0.3169 -0.1749
 3604SOL    HW122274   3.185   2.432  14.652 -1.7800 -1.0158 -0.4419
 3604SOL    HW222275   3.196   2.302  14.592 -1.7382  0.7990 -0.0728
 3605SOL     OW22276   0.488   4.245   7.064  0.3189  0.7081  0.5466
 3605SOL    HW122277   0.408   4.261   7.013  1.5426  1.6129 -1.0745
 3605SOL    HW222278   0.543   4.312   7.025 -1.9589  1.9207 -0.5686
 3606SOL     OW22279   3.157   2.003   4.565  0.5569  0.1163 -0.1024
 3606SOL    HW122280   3.177   2.054   4.487 -1.7059  1.3713  0.1192
 3606SOL    HW222281   3.194   2.066   4.627 -0.0089 -0.5348  0.9070
 3607SOL     OW22282   2.341   3.293   7.453 -0.0959  0.6205  0.2768
 3607SOL    HW122283   2.384   3.248   7.380 -0.9454  0.4594 -0.1245
 3607SOL    HW222284   2.420   3.332   7.490  0.0504  1.4455 -0.8939
 3608SOL     OW22285   4.181   2.126   0.537  0.1723  0.5251  0.5936
 3608SOL    HW122286   4.087   2.126   0.517  0.8331 -1.1885 -2.4308
 3608SOL    HW222287   4.180   2.064   0.610 -2.2117 -0.2542 -0.1062
 3609SOL     OW22288   1.563   0.283  10.884  0.3498 -0.2674  0.2346
 3609SOL    HW122289   1.651   0.253  10.862  0.7044  1.0590 -0.1243
 3609SOL    HW222290   1.581   0.334  10.962 -0.2211 -0.4049  0.4584
 3610SOL     OW22291   2.153   0.727  15.147  0.6965 -0.5071 -0.1921
 3610SOL    HW122292   2.071   0.710  15.192  0.4155 -0.2553 -0.6013
 3610SOL    HW222293   2.196   0.795  15.199  0.9984 -0.4628 -0.4926
 3611SOL     OW22294   0.177   0.128  12.442  0.2016 -0.0142  0.4795
 3611SOL    HW122295   0.154   0.219  12.423 -0.8644 -0.5885 -1.0072
 3611SOL    HW222296   0.220   0.135  12.527  0.9844  1.1687  0.0018
 3612SOL     OW22297   3.779   3.147   3.066 -0.2991  0.0316 -0.4485
 3612SOL    HW122298   3.729   3.073   3.100  2.0187 -1.1310  0.4845
 3612SOL    HW222299   3.795   3.126   2.974 -0.3890  1.0327 -0.6997
 3613SOL     OW22300   1.816   3.222  12.378  0.1989  0.2307  0.5770
 3613SOL    HW122301   1.848   3.305  12.344  2.1018 -0.2428  1.2083
 3613SOL    HW222302   1.895   3.169  12.370  0.0889 -0.1345  1.8738
 3614SOL     OW22303   0.422   3.099   5.974 -0.3324  0.1282  0.7649
 3614SOL    HW122304   0.446   3.014   6.012  0.6279 -0.2708 -0.7412
 3614SOL    HW222305   0.364   3.067   5.904  0.1250 -0.8569  0.8365
 3615SOL     OW22306   4.246   4.515   4.558 -0.1924  0.2719 -0.7769
 3615SOL    HW122307   4.213   4.558   4.478  1.5750  2.1020 -0.5277
 3615SOL    HW222308   4.277   4.435   4.517  1.7579  0.1883  0.9093
 3616SOL     OW22309   2.896   1.487  15.467 -0.3658 -0.0653 -0.0055
 3616SOL    HW122310   2.854   1.550  15.524 -0.7143 -1.4132  1.2144
 3616SOL    HW222311   2.986   1.513  15.486 -0.7243  1.0579  0.1086
 3617SOL     OW22312   0.506   2.293  14.174 -0.6503  0.2207 -0.2578
 3617SOL    HW122313   0.559   2.237  14.230 -1.7855 -0.7308 -0.1509
 3617SOL    HW222314   0.514   2.251  14.088  1.8438 -0.3113  0.2312
 3618SOL     OW22315   4.709   1.315  12.071  0.0564 -0.2951  0.2615
 3618SOL    HW122316   0.024   1.371  12.140 -0.6039 -2.9754  2.8149
 3618SOL    HW222317   0.068   1.299  12.021 -1.0500  0.1537 -1.6157
 3619SOL     OW22318   4.311   2.873   9.983  0.3591  0.5240 -0.2443
 3619SOL    HW122319   4.266   2.829   9.911  0.7832 -1.1477  0.5060
 3619SOL    HW222320   4.244   2.940   9.997 -1.0940 -1.0893  0.5880
 3620SOL     OW22321   3.658   3.419   6.117 -0.3902  0.4132  0.1656
 3620SOL    HW122322   3.682   3.359   6.187  1.0487  1.7674  0.8301
 3620SOL    HW222323   3.567   3.393   6.101 -0.7763  3.1739 -2.1593
 3621SOL     OW22324   3.795   0.855   0.732  0.7497 -0.1068 -0.6047
 3621SOL    HW122325   3.736   0.909   0.680  0.1382 -0.6924 -0.5206
 3621SOL    HW222326   3.873   0.909   0.720  2.4868 -2.3569  0.6434
 3622SOL     OW22327   2.977   2.010   2.906 -0.4774 -0.7383 -0.0724
 3622SOL    HW122328   2.985   2.084   2.844  0.3582  0.8089  1.8785
 3622SOL    HW222329   3.071   2.000   2.921 -0.5460 -0.7566  0.3290
 3623SOL     OW22330   2.153   1.820   3.829 -0.0608  0.4012 -0.5451
 3623SOL    HW122331   2.122   1.730   3.839  4.0343 -0.6402  2.8392
 3623SOL    HW222332   2.183   1.816   3.738 -0.1351 -0.2923 -0.5376
 3624SOL     OW22333   4.400   0.166   3.994 -0.2679  0.3394 -0.2159
 3624SOL    HW122334   4.474   0.148   4.052 -0.5916  0.8593  0.3570
 3624SOL    HW222335   4.387   0.260   4.008 -0.8550  0.1718  0.3863
 3625SOL     OW22336   4.028   3.208  15.020  0.2142  0.3212 -0.3887
 3625SOL    HW122337   4.090   3.137  15.037  0.1572  0.3143 -0.2194
 3625SOL    HW222338   3.944   3.164  15.009 -0.4937  0.8888  2.7577
 3626SOL     OW22339   1.590   4.338   5.880  0.0452  0.0261  0.0700
 3626SOL    HW122340   1.523   4.272   5.866  0.6541 -0.2082 -1.8825
 3626SOL    HW222341   1.553   4.391   5.950 -1.6336  0.3029 -1.0409
 3627SOL     OW22342   3.227   2.105  13.299  0.0249 -0.1759  0.0553
 3627SOL    HW122343   3.276   2.029  13.329 -1.9952 -1.9112 -1.0429
 3627SOL    HW222344   3.299   2.150  13.256 -1.7309  0.4843 -2.2087
 3628SOL     OW22345   2.568   2.636   1.208  0.3513  0.2910  0.1826
 3628SOL    HW122346   2.645   2.694   1.205 -1.5103  2.6198 -2.2473
 3628SOL    HW222347   2.608   2.553   1.234  0.5207  0.4266  0.3633
 3629SOL     OW22348   0.010   2.230   4.712 -0.2418 -0.2351  0.3912
 3629SOL    HW122349   4.654   2.173   4.717 -2.2550  2.4484  0.1951
 3629SOL    HW222350   0.027   2.244   4.619 -1.7539 -0.1734  0.1145
 3630SOL     OW22351   0.293   1.074   3.713  0.2828 -0.7936  0.1544
 3630SOL    HW122352   0.254   1.041   3.794  0.1205 -1.4263 -0.1817
 3630SOL    HW222353   0.271   0.998   3.658  0.3290 -1.2368  0.7519
 3631SOL     OW22354   3.057   0.413   3.182 -0.2840 -0.0903 -0.0997
 3631SOL    HW122355   3.146   0.421   3.215 -0.3899  0.0482  0.1539
 3631SOL    HW222356   3.065   0.484   3.119  1.8622 -0.2901 -0.0424
 3632SOL     OW22357   0.864   0.482   5.669 -0.2181 -0.3837 -0.3460
 3632SOL    HW122358   0.812   0.486   5.589 -1.5135 -0.6920  0.4749
 3632SOL    HW222359   0.940   0.535   5.646  0.5817 -0.3619  2.3091
 3633SOL     OW22360   1.106   1.036  11.785 -0.4523  0.2398 -0.2938
 3633SOL    HW122361   1.165   1.081  11.846 -0.5147  0.9938 -0.7827
 3633SOL    HW222362   1.056   1.110  11.749  0.0519 -0.4363 -2.3576
 3634SOL     OW22363   0.002   2.412  13.971  0.4310  0.2664 -0.2212
 3634SOL    HW122364   0.096   2.405  13.957 -0.0724 -5.7556 -0.8278
 3634SOL    HW222365   4.718   2.344  14.039 -0.5119 -0.2256 -0.7699
 3635SOL     OW22366   1.425   0.191  17.067 -0.5034  0.4160  0.7764
 3635SOL    HW122367   1.472   0.254  17.013 -0.7342 -1.3283 -1.4678
 3635SOL    HW222368   1.358   0.250  17.101 -2.3786 -1.3381  0.1598
 3636SOL     OW22369   1.537   0.626   5.404  0.3043 -0.2506 -0.4552
 3636SOL    HW122370   1.467   0.652   5.344  0.0095 -1.4850 -0.6454
 3636SOL    HW222371   1.566   0.551   5.353  0.1767 -1.4469  1.2419
 3637SOL     OW22372   3.568   2.325  15.583  0.3433  0.6724  0.3003
 3637SOL    HW122373   3.524   2.396  15.630 -0.2920 -0.6011  1.6307
 3637SOL    HW222374   3.651   2.313  15.628  0.5337 -0.6036 -0.3935
 3638SOL     OW22375   3.482   1.833   5.934  0.1419 -0.2482  0.0880
 3638SOL    HW122376   3.398   1.862   5.898  0.6694  2.3819  0.9677
 3638SOL    HW222377   3.511   1.916   5.970 -0.4514  1.1621 -2.6807
 3639SOL     OW22378   3.254   0.789   4.422  0.2471  0.2467 -0.3740
 3639SOL    HW122379   3.335   0.747   4.391  1.2328  2.3880 -0.6626
 3639SOL    HW222380   3.219   0.822   4.340 -0.5309  1.6874  0.5459
 3640SOL     OW22381   3.082   0.363   2.848  0.3957 -0.0757  0.2645
 3640SOL    HW122382   3.113   0.441   2.802  1.9563 -0.2451  1.0473
 3640SOL    HW222383   3.041   0.312   2.778  1.5403  0.3000 -0.6715
 3641SOL     OW22384   3.125   0.583   4.746  0.4240  0.3802 -0.0498
 3641SOL    HW122385   3.209   0.560   4.706  0.2877  0.2499 -0.2648
 3641SOL    HW222386   3.093   0.659   4.698  0.9125  1.9010  2.0826
 3642SOL     OW22387   4.124   2.874  16.357  0.0674 -0.0471 -0.2988
 3642SOL    HW122388   4.073   2.877  16.438  1.7229  3.3675  0.6054
 3642SOL    HW222389   4.169   2.790  16.365 -0.0119 -0.1291 -0.6934
 3643SOL     OW22390   1.533   2.067   2.968 -0.4807  0.3239  0.2307
 3643SOL    HW122391   1.601   2.134   2.954 -0.1581 -0.1265 -0.3412
 3643SOL    HW222392   1.520   2.081   3.062  1.2165  2.6227  0.1320
 3644SOL     OW22393   0.458   2.091   6.635 -0.1097 -0.4393 -0.6437
 3644SOL    HW122394   0.545   2.119   6.662 -0.1074  0.3342 -1.4479
 3644SOL    HW222395   0.462   2.099   6.540 -2.2340  0.3235 -0.6797
 3645SOL     OW22396   3.946   2.815  10.367 -0.9404 -0.1614  0.1285
 3645SOL    HW122397   3.890   2.889  10.344 -0.4615  0.2590  0.3073
 3645SOL    HW222398   4.036   2.845  10.352 -0.8722 -0.5889 -0.3224
 3646SOL     OW22399   3.164   3.106  15.721 -0.0533 -0.2344 -0.0486
 3646SOL    HW122400   3.239   3.124  15.665 -0.1940  1.8095  0.3977
 3646SOL    HW222401   3.085   3.136  15.676 -0.9540 -1.3413  0.7995
 3647SOL     OW22402   2.321   4.163   1.032 -0.0697  0.0632  0.3228
 3647SOL    HW122403   2.232   4.172   0.998 -0.7816 -0.0334  2.1566
 3647SOL    HW222404   2.323   4.080   1.080 -1.2306 -0.9327 -1.3426
 3648SOL     OW22405   2.427   1.145   3.284 -0.0483  0.0762  0.4229
 3648SOL    HW122406   2.372   1.192   3.222 -3.2412 -3.5202  0.5129
 3648SOL    HW222407   2.382   1.064   3.306 -0.3599  0.4020  0.9825
 3649SOL     OW22408   3.366   2.713   7.666  0.0076 -0.6361  0.4574
 3649SOL    HW122409   3.361   2.807   7.685  0.3821 -0.3572 -0.7625
 3649SOL    HW222410   3.418   2.683   7.740 -1.2643 -3.4392  0.2226
 3650SOL     OW22411   3.944   3.313   3.506  0.1555 -0.6493 -0.1329
 3650SOL    HW122412   3.923   3.378   3.439 -0.1439  0.5337  1.0991
 3650SOL    HW222413   3.860   3.276   3.531  0.3610 -0.6844  0.5229
 3651SOL     OW22414   3.183   4.579  13.343  0.6657 -0.0604  0.5217
 3651SOL    HW122415   3.185   4.640  13.417 -1.6010  1.4815 -0.6884
 3651SOL    HW222416   3.108   4.527  13.369  0.7972 -0.3642  0.2945
 3652SOL     OW22417   2.361   4.696   9.887  0.3404 -0.4199 -0.1572
 3652SOL    HW122418   2.348   4.618   9.941 -0.7930  1.3307  2.0992
 3652SOL    HW222419   2.455   4.695   9.866  0.6682  1.4351  1.1828
 3653SOL     OW22420   1.139   3.771   6.305 -0.0868 -0.3469 -0.6600
 3653SOL    HW122421   1.066   3.811   6.257 -0.2234  0.2524  0.0467
 3653SOL    HW222422   1.217   3.815   6.273 -0.4026 -0.5530 -1.7043
 3654SOL     OW22423   1.603   1.797   8.086 -0.4655 -0.5810  0.2126
 3654SOL    HW122424   1.574   1.767   8.172  0.5138  0.5365  0.9346
 3654SOL    HW222425   1.526   1.772   8.035 -0.0846 -0.6444 -0.3337
 3655SOL     OW22426   4.457   1.801   0.130  0.2489  0.1750 -0.0775
 3655SOL    HW122427   4.479   1.809   0.223 -0.5185 -1.2240  0.2309
 3655SOL    HW222428   4.375   1.848   0.119 -0.1123 -0.2674  0.7071
 3656SOL     OW22429   2.036   1.291   4.047 -0.4818 -0.6864  0.1372
 3656SOL    HW122430   2.002   1.381   4.049 -1.0095 -0.8268 -2.8683
 3656SOL    HW222431   2.003   1.252   3.966 -0.4876 -0.9168  0.2504
 3657SOL     OW22432   4.685   4.652  16.577 -0.0871 -0.0840  0.1385
 3657SOL    HW122433   4.624   4.658  16.651  0.9192 -0.3798  1.0016
 3657SOL    HW222434   0.036   4.599  16.610  0.5604  0.6059 -0.1492
 3658SOL     OW22435   1.649   1.425   6.278  0.1828  0.2170  0.4440
 3658SOL    HW122436   1.611   1.391   6.359 -1.3388  0.2991 -0.2332
 3658SOL    HW222437   1.732   1.465   6.304  0.8025 -0.4009 -0.5537
 3659SOL     OW22438   0.486   3.168  15.419 -0.6181 -0.4144  0.3555
 3659SOL    HW122439   0.555   3.229  15.443 -1.0245 -0.2278  1.0511
 3659SOL    HW222440   0.532   3.087  15.397 -2.3472 -1.2225 -0.2743
 3660SOL     OW22441   3.971   3.887   9.074 -0.9403  0.9511 -0.6056
 3660SOL    HW122442   3.948   3.860   9.163 -1.1226 -1.2120 -1.3200
 3660SOL    HW222443   3.918   3.964   9.053 -1.2725  0.9583  0.2942
 3661SOL     OW22444   0.618   2.410   6.278 -0.4532 -0.8982 -0.2980
 3661SOL    HW122445   0.624   2.487   6.221  3.2441 -0.1776  1.0431
 3661SOL    HW222446   0.530   2.376   6.262 -1.0853 -0.3310  2.0374
 3662SOL     OW22447   2.967   2.210   4.826 -0.1220  0.6383  0.1426
 3662SOL    HW122448   2.955   2.182   4.735  0.0187  1.5775 -0.1592
 3662SOL    HW222449   2.994   2.300   4.809  1.0737  0.0741 -0.9479
 3663SOL     OW22450   2.502   2.362   6.515 -0.3938  0.1708  0.4190
 3663SOL    HW122451   2.423   2.386   6.564 -2.3161 -0.8715 -2.1423
 3663SOL    HW222452   2.498   2.431   6.448 -2.5787 -0.0131  0.3541
 3664SOL     OW22453   4.472   3.586  15.440  0.2504 -0.4083  1.1108
 3664SOL    HW122454   4.413   3.513  15.459 -1.4199  0.4278 -0.7470
 3664SOL    HW222455   4.558   3.549  15.456  0.1140 -0.5903  1.4157
 3665SOL     OW22456   0.942   1.053   0.895 -0.0660 -0.3085 -0.2716
 3665SOL    HW122457   1.009   1.085   0.955  0.8218 -0.8905 -0.9562
 3665SOL    HW222458   0.970   0.962   0.884 -0.9860 -0.7628  1.0904
 3666SOL     OW22459   4.463   0.416   7.867 -0.7008 -0.5389 -0.1392
 3666SOL    HW122460   4.538   0.451   7.916 -0.1484 -1.1556 -0.5441
 3666SOL    HW222461   4.461   0.485   7.800 -1.1310 -0.5824 -0.1676
 3667SOL     OW22462   2.941   3.262  13.707 -0.1286 -0.3629  0.1597
 3667SOL    HW122463   2.995   3.315  13.765  1.1227 -1.4161 -0.0438
 3667SOL    HW222464   2.882   3.237  13.778 -0.8718 -1.4210 -0.8259
 3668SOL     OW22465   0.121   3.061  12.018  0.0586 -0.2688 -0.0382
 3668SOL    HW122466   0.104   3.144  11.974  0.3819  0.7682  1.7686
 3668SOL    HW222467   0.092   3.082  12.107  1.4239  0.5337  0.2200
 3669SOL     OW22468   3.860   0.466   5.204  0.6290 -0.0669 -0.2093
 3669SOL    HW122469   3.837   0.496   5.292 -0.8635  0.2754 -0.7254
 3669SOL    HW222470   3.773   0.451   5.166 -0.0195 -0.0874  1.2977
 3670SOL     OW22471   1.843   2.103   3.085  0.7479 -0.3295  0.4331
 3670SOL    HW122472   1.775   2.036   3.096  0.1820 -0.1926 -2.1560
 3670SOL    HW222473   1.894   2.085   3.164  1.1655 -0.6132  0.1011
 3671SOL     OW22474   3.245   1.536   4.862  0.1557  0.2523  0.5560
 3671SOL    HW122475   3.191   1.458   4.855 -0.0389  0.4894 -0.5331
 3671SOL    HW222476   3.270   1.520   4.953 -1.6962  2.2019  1.3819
 3672SOL     OW22477   0.532   0.202   3.899 -0.0278 -0.1199 -0.3149
 3672SOL    HW122478   0.446   0.182   3.935  0.2224  1.8241  1.3229
 3672SOL    HW222479   0.584   0.174   3.975  0.2794  2.2808  0.3459
 3673SOL     OW22480   4.476   0.113   3.122 -0.0791  0.5805 -0.0212
 3673SOL    HW122481   4.440   0.131   3.035 -0.8845  1.6297  0.5279
 3673SOL    HW222482   4.561   0.073   3.102 -0.4423 -0.2831  0.1630
 3674SOL     OW22483   3.615   3.801  11.795 -0.4804  0.8879  0.1535
 3674SOL    HW122484   3.632   3.885  11.752  1.2768  0.4306 -0.0725
 3674SOL    HW222485   3.528   3.783  11.761 -0.7586  2.2068  0.1789
 3675SOL     OW22486   4.061   4.321   3.206  0.3247 -0.3362 -0.3841
 3675SOL    HW122487   4.085   4.372   3.129  0.3983  0.8610  0.4285
 3675SOL    HW222488   4.145   4.278   3.217  0.1790 -1.1773 -2.7099
 3676SOL     OW22489   1.317   3.944   2.928  0.0733 -0.1528 -0.1132
 3676SOL    HW122490   1.316   3.867   2.986 -0.1194  1.0415  1.4529
 3676SOL    HW222491   1.279   4.012   2.983  1.7956  0.7723 -0.0609
 3677SOL     OW22492   2.744   0.072   9.263  0.1051 -0.1066  0.0032
 3677SOL    HW122493   2.820   0.128   9.248  0.9199 -1.4309 -0.8954
 3677SOL    HW222494   2.726   0.047   9.172  0.0253  0.0478 -0.0225
 3678SOL     OW22495   0.960   0.563   9.772 -0.0621  0.0397 -0.9453
 3678SOL    HW122496   0.887   0.548   9.712  0.4472 -0.7564 -1.3682
 3678SOL    HW222497   1.026   0.578   9.703 -0.2536  1.7798 -0.7378
 3679SOL     OW22498   1.119   0.258   2.351 -0.2324  0.4459  0.2346
 3679SOL    HW122499   1.145   0.166   2.358  1.0404  0.9915  2.7050
 3679SOL    HW222500   1.202   0.294   2.382  0.5188  0.4287 -1.7216
 3680SOL     OW22501   2.742   2.718   6.894 -0.4270 -0.2067 -0.8930
 3680SOL    HW122502   2.710   2.657   6.961 -0.4332 -2.2541 -2.7714
 3680SOL    HW222503   2.726   2.669   6.814 -2.3450 -0.5179 -0.3140
 3681SOL     OW22504   3.162   0.195   7.508 -0.0335 -0.0399  0.3110
 3681SOL    HW122505   3.132   0.276   7.467 -0.8279 -1.1369 -1.2631
 3681SOL    HW222506   3.099   0.182   7.579 -0.4456 -0.7054 -0.1745
 3682SOL     OW22507   1.185   3.160   6.476  0.3536  0.5453 -0.3079
 3682SOL    HW122508   1.252   3.140   6.410 -0.0645  0.0938 -0.5972
 3682SOL    HW222509   1.110   3.107   6.447  1.1116 -1.1566  0.8785
 3683SOL     OW22510   2.758   4.714   7.655  0.2974 -0.5707  0.2366
 3683SOL    HW122511   2.695   0.047   7.703  1.6382 -0.8139  2.3049
 3683SOL    HW222512   2.846   0.022   7.680 -0.0860  0.6786  0.1281
 3684SOL     OW22513   1.659   4.397   7.350  0.0567  0.0984 -0.5053
 3684SOL    HW122514   1.647   4.464   7.417  2.4770 -1.7505  1.7804
 3684SOL    HW222515   1.596   4.330   7.374  0.2429 -0.2523 -0.9983
 3685SOL     OW22516   0.216   3.077  11.378 -0.0981 -0.3666  0.1456
 3685SOL    HW122517   0.129   3.063  11.341  0.0203  1.1355 -0.6882
 3685SOL    HW222518   0.281   3.078  11.309 -1.1292  1.4245 -0.8052
 3686SOL     OW22519   3.148   2.258   3.327  0.0767 -0.5642  0.3924
 3686SOL    HW122520   3.054   2.248   3.341  0.1751  1.0731  2.2485
 3686SOL    HW222521   3.150   2.237   3.234  0.5629 -0.6889  0.4324
 3687SOL     OW22522   2.645   4.094   0.378  0.4597  0.1544 -0.4915
 3687SOL    HW122523   2.631   4.121   0.469  0.5749 -0.7144 -0.2218
 3687SOL    HW222524   2.706   4.021   0.388 -0.3722 -0.2249  1.9149
 3688SOL     OW22525   2.590   0.048   3.490 -0.1601  0.0700  0.0161
 3688SOL    HW122526   2.538   4.716   3.431  0.1659 -2.9909  2.4531
 3688SOL    HW222527   2.523   0.098   3.536 -1.5735 -1.3194 -0.5487
 3689SOL     OW22528   3.286   2.398   5.339 -0.1763 -0.6020  0.1079
 3689SOL    HW122529   3.322   2.485   5.325 -0.6404 -0.9771 -3.3759
 3689SOL    HW222530   3.198   2.413   5.376 -0.3899 -0.0370 -0.6443
 3690SOL     OW22531   2.050   3.756  10.323  0.1492  0.7809  0.5216
 3690SOL    HW122532   2.059   3.669  10.285  1.8331  0.7996  0.8597
 3690SOL    HW222533   2.078   3.729  10.410 -0.2882  0.7777  0.6595
 3691SOL     OW22534   4.029   1.710   7.265 -0.0395  0.3026 -0.0327
 3691SOL    HW122535   4.105   1.652   7.265  1.4256  2.2202 -0.2248
 3691SOL    HW222536   3.961   1.665   7.314  2.7341 -3.6651  0.1704
 3692SOL     OW22537   3.415   4.660   1.884  0.1273  0.1214  0.2737
 3692SOL    HW122538   3.484   4.716   1.847  0.1920 -1.0365 -1.4024
 3692SOL    HW222539   3.356   4.654   1.809  0.6101 -1.3544 -0.0045
 3693SOL     OW22540   0.370   2.338   6.254  0.8265  0.0251  0.5196
 3693SOL    HW122541   0.298   2.348   6.192 -0.5903  0.7582  2.2844
 3693SOL    HW222542   0.322   2.392   6.316 -2.2167 -0.9026 -1.0342
 3694SOL     OW22543   3.759   3.410   9.329  0.7020  0.0966 -0.3010
 3694SOL    HW122544   3.687   3.348   9.341  0.8776  0.1155  0.8342
 3694SOL    HW222545   3.815   3.374   9.397 -1.0377  0.6884  1.4330
 3695SOL     OW22546   4.543   3.467   5.825 -0.2075  0.2388  0.4208
 3695SOL    HW122547   4.450   3.443   5.827 -0.1612 -0.0021 -0.4356
 3695SOL    HW222548   4.586   3.392   5.866  1.7487  1.3464  0.3813
 3696SOL     OW22549   2.043   3.111   4.039 -0.4966 -0.4459 -0.5751
 3696SOL    HW122550   2.018   3.076   3.953 -0.3287 -0.5182 -0.5962
 3696SOL    HW222551   1.963   3.148   4.075  0.0959  0.0298  0.2254
 3697SOL     OW22552   3.876   2.149  16.592 -0.1874 -0.7987  0.3290
 3697SOL    HW122553   3.849   2.061  16.567 -0.7399 -1.3316  2.7724
 3697SOL    HW222554   3.804   2.208  16.570 -0.2539 -1.9162 -2.4660
 3698SOL     OW22555   2.377   4.143   6.127  0.2365  0.3682  0.1014
 3698SOL    HW122556   2.429   4.129   6.205 -0.4981 -1.9940  0.1759
 3698SOL    HW222557   2.402   4.235   6.116 -1.4294  0.5973 -1.8406
 3699SOL     OW22558   1.553   4.431  16.833  0.2705 -0.3561  0.3378
 3699SOL    HW122559   1.513   4.517  16.853  2.6526  1.4082 -2.5475
 3699SOL    HW222560   1.530   4.382  16.912 -0.7114  0.4159  0.5313
 3700SOL     OW22561   3.768   0.103   2.310 -0.1952 -0.2845  0.5259
 3700SOL    HW122562   3.676   0.115   2.286  0.0757  0.5143 -0.1003
 3700SOL    HW222563   3.790   0.172   2.373  2.0411 -1.3299  0.9137
 3701SOL     OW22564   0.178   2.619  12.916  0.2475  0.6261  0.1622
 3701SOL    HW122565   0.123   2.568  12.856  1.9014  0.2921 -1.0608
 3701SOL    HW222566   0.136   2.705  12.911 -0.5449  0.0307 -3.6798
 3702SOL     OW22567   2.373   4.143   5.125 -0.2008 -0.0615  0.2570
 3702SOL    HW122568   2.320   4.194   5.064  1.4490  0.9691 -0.3234
 3702SOL    HW222569   2.306   4.081   5.153 -1.1743  0.6486 -0.5480
 3703SOL     OW22570   0.152   4.034   8.275 -0.3554  0.3673  0.2422
 3703SOL    HW122571   0.082   4.014   8.213 -1.8253  0.8152  1.7430
 3703SOL    HW222572   0.155   3.954   8.327  0.2437 -1.3047 -2.4015
 3704SOL     OW22573   0.557   1.838   3.980  0.3181 -0.1761 -0.2076
 3704SOL    HW122574   0.542   1.870   3.891 -1.0326  0.0395  0.1041
 3704SOL    HW222575   0.491   1.884   4.032  0.4824 -0.6978  0.4566
 3705SOL     OW22576   4.114   2.671  16.754 -0.3587  0.7972  0.1834
 3705SOL    HW122577   4.034   2.692  16.802 -0.9897  0.0855 -0.5583
 3705SOL    HW222578   4.157   2.756  16.737  1.7031 -0.0558  1.1691
 3706SOL     OW22579   2.933   0.611  17.142 -0.1474  0.3550  0.2000
 3706SOL    HW122580   2.930   0.643  17.052  0.0184 -0.9845 -0.2716
 3706SOL    HW222581   2.894   0.524  17.134 -0.7054  0.5082  1.2214
 3707SOL     OW22582   0.914   0.620   8.333 -0.4682 -0.1758 -0.4890
 3707SOL    HW122583   0.954   0.608   8.247  1.5712 -1.0547  0.5709
 3707SOL    HW222584   0.987   0.660   8.381  0.3781 -0.5068 -1.5128
 3708SOL     OW22585   1.956   0.678  15.652  0.1584 -0.4121 -0.0236
 3708SOL    HW122586   1.862   0.693  15.660  0.6381  1.6783  1.7109
 3708SOL    HW222587   1.974   0.702  15.743  3.8715 -2.1390 -0.2971
 3709SOL     OW22588   1.107   0.137  10.856  0.1629 -0.2869  0.2430
 3709SOL    HW122589   1.081   0.046  10.839  1.7042 -0.6249 -0.3346
 3709SOL    HW222590   1.045   0.143  10.928 -0.8406  2.5984 -0.8821
 3710SOL     OW22591   0.332   2.341   4.623  0.4840  0.1591 -0.2040
 3710SOL    HW122592   0.258   2.296   4.582 -0.5071  0.4513  1.2834
 3710SOL    HW222593   0.321   2.312   4.714  1.8579  0.3684  0.0301
 3711SOL     OW22594   1.109   1.334  15.934  0.5412  0.1630  0.8731
 3711SOL    HW122595   1.167   1.408  15.913  0.3842 -0.2565 -1.0186
 3711SOL    HW222596   1.049   1.339  15.861  0.0272  2.4832  1.4579
 3712SOL     OW22597   4.502   3.739  15.915 -0.5052  0.6095 -0.0050
 3712SOL    HW122598   4.431   3.771  15.972 -0.3090 -1.8859  1.6411
 3712SOL    HW222599   4.516   3.647  15.936 -2.2440  0.5865  1.0410
 3713SOL     OW22600   0.764   3.562   7.745 -0.5088 -0.4370 -0.0877
 3713SOL    HW122601   0.745   3.636   7.803  1.9420 -0.7593  1.1378
 3713SOL    HW222602   0.679   3.518   7.742 -1.4311  1.1637  2.0808
 3714SOL     OW22603   3.092   4.700   3.022 -0.2283 -0.5435 -0.3250
 3714SOL    HW122604   3.076   0.000   3.114 -2.2185 -2.7855 -0.1423
 3714SOL    HW222605   3.154   0.048   2.999  0.3492 -0.0381  2.7746
 3715SOL     OW22606   1.994   3.863   2.112  0.2473  0.2256 -0.4590
 3715SOL    HW122607   2.018   3.953   2.091  1.5124 -0.7308 -3.0678
 3715SOL    HW222608   1.899   3.865   2.124  0.3015  1.5782 -0.2324
 3716SOL     OW22609   2.913   0.125   5.804  0.2068  0.4942 -0.3520
 3716SOL    HW122610   2.888   0.081   5.722  0.3652 -1.1296  0.4614
 3716SOL    HW222611   2.982   0.065   5.831  0.9251  0.9653 -1.1655
 3717SOL     OW22612   4.004   0.625  11.228  0.0805 -0.8000  0.0906
 3717SOL    HW122613   3.921   0.673  11.225  0.2714 -0.3916  1.1763
 3717SOL    HW222614   4.065   0.685  11.186 -2.5754  1.4825 -0.4673
 3718SOL     OW22615   0.797   1.890   2.576  0.4504  0.6937 -0.1904
 3718SOL    HW122616   0.860   1.824   2.547  1.3734  1.2909  0.4394
 3718SOL    HW222617   0.797   1.868   2.669 -0.7888 -0.4311 -0.4631
 3719SOL     OW22618   0.629   2.500   3.882 -0.1106 -0.3642 -0.0020
 3719SOL    HW122619   0.587   2.557   3.946 -2.4102 -0.4365 -1.4380
 3719SOL    HW222620   0.669   2.558   3.817  1.1636 -0.0166  1.0973
 3720SOL     OW22621   0.225   1.176   7.907  0.3871  0.5157  0.9135
 3720SOL    HW122622   0.139   1.203   7.876  1.8433  2.2049 -1.6720
 3720SOL    HW222623   0.218   1.192   8.001 -0.6745 -0.5410  1.0172
 3721SOL     OW22624   2.483   3.634  13.955 -0.3620  0.1672  0.1107
 3721SOL    HW122625   2.447   3.648  14.043 -0.1195 -0.5823  0.3324
 3721SOL    HW222626   2.578   3.633  13.968 -0.3753  0.7512  0.2532
 3722SOL     OW22627   3.069   1.052   5.201 -0.2388 -0.4984 -0.3445
 3722SOL    HW122628   3.126   1.067   5.277  0.7957 -2.4653 -0.7373
 3722SOL    HW222629   2.994   1.025   5.254  2.0764 -0.2848  3.0118
 3723SOL     OW22630   0.197   0.666  12.912  0.0368  0.0326 -0.4404
 3723SOL    HW122631   0.102   0.671  12.923  0.1024  2.3250 -0.9232
 3723SOL    HW222632   0.204   0.578  12.950 -0.6152 -0.0938 -0.5986
 3724SOL     OW22633   4.596   1.808  11.703  0.5245 -0.0522  0.3565
 3724SOL    HW122634   4.541   1.752  11.649 -0.3735  1.1572  0.0115
 3724SOL    HW222635   4.624   1.873  11.638 -0.1779  1.3867  1.4676
 3725SOL     OW22636   0.863   0.596   1.443 -0.0352  0.5754 -0.7968
 3725SOL    HW122637   0.869   0.666   1.507  2.2510 -0.0351 -0.3471
 3725SOL    HW222638   0.890   0.648   1.367  0.0040  1.5206 -0.1392
 3726SOL     OW22639   3.175   1.140   7.576  0.1802  0.2621  0.3743
 3726SOL    HW122640   3.157   1.234   7.580 -0.0177  0.2864 -1.2591
 3726SOL    HW222641   3.092   1.104   7.608 -0.4666  0.8337 -0.6601
 3727SOL     OW22642   2.324   1.882   2.213 -0.1187 -0.1065 -0.1239
 3727SOL    HW122643   2.276   1.810   2.172 -2.3948  1.7543 -0.8220
 3727SOL    HW222644   2.411   1.843   2.213  0.8528  2.0473  1.0836
 3728SOL     OW22645   1.244   0.090  13.585  0.6485  0.3092 -0.1877
 3728SOL    HW122646   1.237   4.717  13.566  1.2853  0.5288 -1.5073
 3728SOL    HW222647   1.333   0.094  13.620  0.1775  0.7162  0.9451
 3729SOL     OW22648   3.080   0.811   4.615 -0.3929  0.5587  0.4688
 3729SOL    HW122649   3.157   0.806   4.558 -1.7696 -1.3804 -1.1751
 3729SOL    HW222650   3.038   0.877   4.559 -1.9571 -0.9245 -0.0904
 3730SOL     OW22651   2.780   1.659   7.780 -0.0825  0.0281 -0.4181
 3730SOL    HW122652   2.713   1.591   7.792 -1.8072  1.7022 -0.5107
 3730SOL    HW222653   2.733   1.733   7.819  2.2124  0.6210  1.2451
 3731SOL     OW22654   2.690   4.181  17.637 -0.6298 -0.0575 -0.6909
 3731SOL    HW122655   2.773   4.227  17.622  0.0867 -0.2032  2.7976
 3731SOL    HW222656   2.672   4.222   0.034  1.2271 -1.3577  0.3501
 3732SOL     OW22657   2.103   4.182   4.466  1.4068  0.0461 -0.0261
 3732SOL    HW122658   2.130   4.091   4.476 -0.8977 -0.6389 -0.2719
 3732SOL    HW222659   2.182   4.236   4.455  2.6614 -1.9354 -0.6417
 3733SOL     OW22660   1.406   4.329   2.438 -0.3783 -0.5272  0.3688
 3733SOL    HW122661   1.321   4.370   2.455 -1.1847 -1.8033 -0.5616
 3733SOL    HW222662   1.415   4.349   2.345 -0.5498 -1.6914  0.1024
 3734SOL     OW22663   1.829   3.442   3.506  0.6138  0.6038  0.2004
 3734SOL    HW122664   1.761   3.504   3.482  0.7019  1.0915  1.2351
 3734SOL    HW222665   1.902   3.504   3.503 -1.4199  3.0110  0.8124
 3735SOL     OW22666   3.095   3.522   1.954 -0.6821 -0.2426 -0.3855
 3735SOL    HW122667   3.059   3.544   2.040 -2.2613 -2.1088 -0.5776
 3735SOL    HW222668   3.064   3.432   1.945  0.7216 -0.8490  0.9253
 3736SOL     OW22669   1.658   3.691   1.804 -0.3404 -0.8335  0.2204
 3736SOL    HW122670   1.721   3.631   1.764 -1.8366 -1.9374 -0.4855
 3736SOL    HW222671   1.595   3.636   1.849 -0.8741  0.7501  1.3841
 3737SOL     OW22672   1.723   2.249   2.871 -0.1934 -0.4513 -0.0754
 3737SOL    HW122673   1.780   2.228   2.945 -1.3975 -1.4296  0.5790
 3737SOL    HW222674   1.755   2.330   2.832  1.3857 -1.7184 -1.4104
 3738SOL     OW22675   1.219   4.551   8.670  0.0038 -0.5025 -0.0032
 3738SOL    HW122676   1.302   4.567   8.714  0.4310  2.0321 -1.7578
 3738SOL    HW222677   1.207   4.457   8.687  1.7823 -0.2253  2.6982
 3739SOL     OW22678   0.005   4.667   2.238  0.4327  0.3995 -0.0459
 3739SOL    HW122679   4.657   4.693   2.299 -0.7469 -1.4880 -0.5759
 3739SOL    HW222680   4.669   4.654   2.162 -0.1057  0.1942  0.3980
 3740SOL     OW22681   3.441   3.377   1.919  0.3087  0.0125  0.0751
 3740SOL    HW122682   3.393   3.303   1.955 -1.0939  0.2710 -1.2384
 3740SOL    HW222683   3.391   3.379   1.837  0.5621  1.0915 -0.0582
 3741SOL     OW22684   1.064   0.725   6.452 -0.3085 -0.2430 -0.2984
 3741SOL    HW122685   1.128   0.783   6.411 -0.6672 -0.0735 -0.6074
 3741SOL    HW222686   0.995   0.740   6.388 -0.7784 -0.5148  0.1502
 3742SOL     OW22687   3.231   2.523   7.815 -0.6386 -0.9236 -0.4913
 3742SOL    HW122688   3.219   2.612   7.783  0.4067 -0.3562  0.7145
 3742SOL    HW222689   3.162   2.516   7.881 -0.3559  1.7467  0.0730
 3743SOL     OW22690   1.193   4.464   5.561 -0.0917  1.0086  0.3027
 3743SOL    HW122691   1.179   4.377   5.599 -1.5629  0.3940 -1.6078
 3743SOL    HW222692   1.284   4.474   5.588  0.2948 -3.8663  0.7607
 3744SOL     OW22693   1.118   0.891   2.238 -0.2562 -0.3603  0.1975
 3744SOL    HW122694   1.109   0.824   2.170 -1.3663 -0.6608  0.6541
 3744SOL    HW222695   1.196   0.940   2.211 -0.7009  1.2210  1.8492
 3745SOL     OW22696   4.080   3.055   5.353 -0.0619 -0.5399  0.5565
 3745SOL    HW122697   4.111   2.986   5.410 -0.7772 -1.1397  0.2207
 3745SOL    HW222698   4.052   3.009   5.274  1.3272  1.0725 -0.8943
 3746SOL     OW22699   2.369   3.987   7.050 -0.3454 -0.3253 -0.8457
 3746SOL    HW122700   2.341   3.941   6.970  0.1103  0.7910 -1.6589
 3746SOL    HW222701   2.395   3.911   7.101  0.1940  0.4156 -0.0237
 3747SOL     OW22702   0.163   2.809   5.066  0.4730  0.2002 -0.6415
 3747SOL    HW122703   0.125   2.722   5.081 -0.4546  0.8867  1.0036
 3747SOL    HW222704   0.166   2.844   5.155  0.9231  1.4401 -1.1445
 3748SOL     OW22705   0.802   3.964  15.947 -0.3570  0.4871  0.2176
 3748SOL    HW122706   0.760   4.025  16.007 -0.9812  0.3107 -0.0474
 3748SOL    HW222707   0.787   4.003  15.862 -1.2766 -1.1259 -0.3597
 3749SOL     OW22708   1.857   3.972  10.905 -1.1863  0.0135  0.2793
 3749SOL    HW122709   1.817   3.986  10.990  0.0212 -0.5387  0.9377
 3749SOL    HW222710   1.952   3.978  10.915 -1.2293  0.8326  0.2677
 3750SOL     OW22711   0.290   0.227   7.845  0.5719  0.2620  0.6697
 3750SOL    HW122712   0.221   0.161   7.853  2.6254 -1.9546 -0.1831
 3750SOL    HW222713   0.349   0.195   7.778  1.9784  0.8599  1.6347
 3751SOL     OW22714   0.184   0.583   2.754  0.1764  0.5845 -0.1630
 3751SOL    HW122715   0.110   0.572   2.814  0.3818 -0.5200 -0.1089
 3751SOL    HW222716   0.156   0.534   2.676 -0.8938  0.6198  0.2012
 3752SOL     OW22717   0.574   4.166   8.366 -0.1620  0.8148 -0.0594
 3752SOL    HW122718   0.573   4.209   8.451 -0.4415  1.7101 -0.5119
 3752SOL    HW222719   0.550   4.240   8.309  2.0213  0.6258 -1.2046
 3753SOL     OW22720   1.031   1.830   2.431 -0.3512  0.1322  0.1811
 3753SOL    HW122721   1.100   1.764   2.438 -0.6202 -0.2221 -0.5402
 3753SOL    HW222722   1.078   1.909   2.457 -1.6869  1.3477 -1.1214
 3754SOL     OW22723   2.458   3.060   6.860 -0.1653  0.0413 -0.0429
 3754SOL    HW122724   2.533   3.023   6.907 -0.1296 -0.3428 -0.3945
 3754SOL    HW222725   2.392   2.991   6.876  1.5583 -1.9328 -1.5243
 3755SOL     OW22726   1.670   2.368   7.200 -0.0884  0.2233  0.6168
 3755SOL    HW122727   1.574   2.373   7.209 -0.6603 -3.7682 -3.2034
 3755SOL    HW222728   1.693   2.456   7.230  1.0580  0.5553 -1.2411
 3756SOL     OW22729   1.361   2.619   6.533 -0.0644 -0.5658 -0.0495
 3756SOL    HW122730   1.332   2.589   6.619  1.8839  0.9957  1.1588
 3756SOL    HW222731   1.456   2.615   6.539 -0.0895  1.5201  1.9254
 3757SOL     OW22732   0.402   1.286   6.620  0.0952  0.4843 -0.3393
 3757SOL    HW122733   0.344   1.240   6.681 -1.3268  0.9992 -1.2867
 3757SOL    HW222734   0.344   1.350   6.579 -0.2074  0.8251  0.6053
 3758SOL     OW22735   4.563   0.669  17.137  0.2547  0.5544 -0.2944
 3758SOL    HW122736   4.641   0.695  17.087 -1.6940  1.0184 -3.1203
 3758SOL    HW222737   4.595   0.590  17.181  1.4380  1.6194  0.7726
 3759SOL     OW22738   2.848   1.931   8.134  0.3557  0.0124  0.4329
 3759SOL    HW122739   2.759   1.896   8.126 -0.3897  2.0005 -0.0504
 3759SOL    HW222740   2.848   2.008   8.076  4.6680  1.4306  2.3830
 3760SOL     OW22741   1.355   0.767  10.568 -0.3938 -0.7303  0.2262
 3760SOL    HW122742   1.421   0.809  10.623 -0.6907 -0.9855  0.7739
 3760SOL    HW222743   1.402   0.687  10.546  1.0643  0.3052 -0.4136
 3761SOL     OW22744   1.325   1.177   9.638  0.6212 -0.0512  0.3555
 3761SOL    HW122745   1.300   1.253   9.690 -1.5317  0.3158 -1.1917
 3761SOL    HW222746   1.280   1.115   9.696 -2.9180  0.4085 -1.8492
 3762SOL     OW22747   1.259   2.287   0.960  0.1541 -0.0045  0.5605
 3762SOL    HW122748   1.329   2.283   0.895 -1.3742 -0.0438 -1.0898
 3762SOL    HW222749   1.259   2.374   0.998  0.5951  0.4160 -0.4095
 3763SOL     OW22750   0.029   3.381  12.939  0.0470  0.8555  0.0621
 3763SOL    HW122751   0.065   3.321  13.005  0.3488 -0.4773 -1.3072
 3763SOL    HW222752   0.029   3.456  12.998 -0.4845 -0.5891  1.9216
 3764SOL     OW22753   1.204   4.718   2.263  0.3497  0.0509 -0.0678
 3764SOL    HW122754   1.220   4.678   2.178  1.2676  0.9093 -0.2988
 3764SOL    HW222755   1.151   4.649   2.303  0.6730  0.8183  1.6853
 3765SOL     OW22756   1.517   3.116  14.932 -0.0457  0.3630  0.1575
 3765SOL    HW122757   1.567   3.165  14.998 -0.2363  2.5533 -1.3390
 3765SOL    HW222758   1.496   3.028  14.963  1.3036  0.4194  1.2257
 3766SOL     OW22759   3.284   2.002   0.104  0.0824  0.3503 -0.0333
 3766SOL    HW122760   3.212   1.968   0.158 -0.6603  0.8662 -0.7090
 3766SOL    HW222761   3.358   1.967   0.153 -0.1921  3.6271  2.7402
 3767SOL     OW22762   3.366   0.788   7.420  0.2446  0.1802 -0.0743
 3767SOL    HW122763   3.303   0.830   7.362 -0.4972  0.8476  1.2122
 3767SOL    HW222764   3.391   0.860   7.478 -2.5287 -0.2036  1.6021
 3768SOL     OW22765   4.329   3.630   4.112 -0.6173 -0.5624 -0.4901
 3768SOL    HW122766   4.292   3.718   4.105  0.6918  0.0403  0.0157
 3768SOL    HW222767   4.291   3.590   4.034  0.5090 -0.0777 -1.2909
 3769SOL     OW22768   1.343   2.633   8.358 -0.1341 -0.0635  0.5044
 3769SOL    HW122769   1.380   2.721   8.371  0.0959  0.0829 -1.1380
 3769SOL    HW222770   1.283   2.617   8.431 -2.2788 -1.2057 -1.5364
 3770SOL     OW22771   4.687   0.810   5.025  0.0558 -0.1407  0.3686
 3770SOL    HW122772   4.625   0.790   4.954  1.3780 -0.5680 -0.6557
 3770SOL    HW222773   4.635   0.817   5.104  1.9520 -0.7835  1.6584
 3771SOL     OW22774   0.849   3.442  16.810  0.3000  0.1011 -0.5794
 3771SOL    HW122775   0.855   3.537  16.812 -2.5128  0.2461  1.5165
 3771SOL    HW222776   0.821   3.420  16.721 -1.2301 -1.2743  0.2185
 3772SOL     OW22777   2.654   0.831   2.710 -0.5993 -0.1280  0.9653
 3772SOL    HW122778   2.659   0.810   2.803  0.8089 -0.5430  0.7912
 3772SOL    HW222779   2.617   0.919   2.714  0.2276  0.1094  3.3469
 3773SOL     OW22780   3.306   0.926   5.450  0.1810 -0.0806 -0.5887
 3773SOL    HW122781   3.312   0.961   5.539  0.7634  0.2577 -0.7552
 3773SOL    HW222782   3.229   0.872   5.465 -0.1918  0.7841  0.6654
 3774SOL     OW22783   3.890   2.669   7.500  0.0297 -0.1659 -0.7301
 3774SOL    HW122784   3.799   2.657   7.472  0.2324  0.3670 -1.5972
 3774SOL    HW222785   3.931   2.659   7.414 -0.1743 -1.7243 -0.6529
 3775SOL     OW22786   1.437   2.521   8.088 -0.2153  0.2155 -0.6312
 3775SOL    HW122787   1.427   2.584   8.016  1.8890 -1.4848 -2.4425
 3775SOL    HW222788   1.410   2.566   8.167 -1.4669 -0.1767 -0.8454
 3776SOL     OW22789   1.786   2.529   3.453 -0.0447  1.0367 -0.0548
 3776SOL    HW122790   1.850   2.600   3.440  1.2070 -0.1982 -0.6490
 3776SOL    HW222791   1.722   2.571   3.510 -0.6146  1.8223 -1.2797
 3777SOL     OW22792   1.838   2.282   8.946  0.6886  0.3419  0.2891
 3777SOL    HW122793   1.901   2.328   9.001  1.4730 -0.4540  0.0593
 3777SOL    HW222794   1.892   2.217   8.901  1.9304  0.2725  1.8869
 3778SOL     OW22795   0.861   3.751   8.950  0.9829  0.1845  0.3879
 3778SOL    HW122796   0.777   3.708   8.934  2.0918 -1.0615 -2.1441
 3778SOL    HW222797   0.835   3.806   9.023 -0.9243  0.7865 -0.7575
 3779SOL     OW22798   4.358   3.434   1.654 -0.5861 -0.2607 -0.5363
 3779SOL    HW122799   4.306   3.472   1.584  0.2973  0.3819 -0.8582
 3779SOL    HW222800   4.424   3.387   1.603 -0.7112 -1.1308  0.1163
 3780SOL     OW22801   1.542   2.684   3.926 -0.0334  0.2308 -0.7289
 3780SOL    HW122802   1.548   2.769   3.884  0.3577 -0.0439 -1.2262
 3780SOL    HW222803   1.455   2.660   3.893 -0.0597  0.1726 -0.6170
 3781SOL     OW22804   3.978   2.465   3.748 -0.1350 -0.3701 -0.3386
 3781SOL    HW122805   4.040   2.395   3.727  0.1031 -0.6114  1.1387
 3781SOL    HW222806   3.904   2.414   3.716 -0.0025 -1.0714  0.4914
 3782SOL     OW22807   3.422   3.121   6.864  0.4509  0.0456  0.5922
 3782SOL    HW122808   3.364   3.184   6.822  0.3038  0.3348  1.2282
 3782SOL    HW222809   3.467   3.159   6.939  0.3738 -1.8639  1.5964
 3783SOL     OW22810   0.686   4.698   5.162 -0.0704 -0.3639  0.1557
 3783SOL    HW122811   0.723   4.618   5.199 -0.3663 -1.8282 -2.6283
 3783SOL    HW222812   0.751   0.000   5.096  0.8906 -0.8679  0.9265
 3784SOL     OW22813   3.244   2.140   2.341  0.5359  0.0865 -0.1760
 3784SOL    HW122814   3.270   2.221   2.297 -0.3028 -0.1077 -1.0115
 3784SOL    HW222815   3.332   2.102   2.338  1.2396  1.6544  0.4551
 3785SOL     OW22816   4.486   0.275  13.333  0.2374  0.1288  1.0837
 3785SOL    HW122817   4.401   0.318  13.337  0.3844  0.6174 -0.9469
 3785SOL    HW222818   4.466   0.196  13.383  0.6318 -1.6642 -1.5517
 3786SOL     OW22819   1.319   0.985   1.383  0.0440  0.2052 -0.3852
 3786SOL    HW122820   1.361   0.933   1.315  1.8869  1.8956 -0.5521
 3786SOL    HW222821   1.256   1.035   1.331 -1.6297  0.6381  2.0714
 3787SOL     OW22822   0.468   3.224   4.769 -0.3874 -0.3540 -0.0751
 3787SOL    HW122823   0.376   3.196   4.762 -0.7111  0.5418  0.5339
 3787SOL    HW222824   0.513   3.140   4.762  1.1732  0.4041  1.1030
 3788SOL     OW22825   3.987   3.342   9.549  0.2774 -0.2664 -0.3428
 3788SOL    HW122826   4.012   3.342   9.642 -0.5608  1.7187 -0.1220
 3788SOL    HW222827   4.039   3.416   9.517  1.5971 -0.5404  1.1548
 3789SOL     OW22828   3.759   0.020   3.575 -0.2290  0.5506  0.1227
 3789SOL    HW122829   3.696   4.675   3.546 -0.6253 -0.7215  3.7772
 3789SOL    HW222830   3.832   0.008   3.514 -1.0782 -0.0392 -0.7793
 3790SOL     OW22831   1.529   0.893   8.696  0.1216  0.1602 -0.4052
 3790SOL    HW122832   1.551   0.985   8.708  0.5259  0.0406 -0.2214
 3790SOL    HW222833   1.614   0.850   8.683 -1.3637 -2.6535 -0.9129
 3791SOL     OW22834   0.986   3.344  10.645 -0.3436 -0.1746  0.2604
 3791SOL    HW122835   0.924   3.349  10.718  0.6284 -0.2916  1.0920
 3791SOL    HW222836   0.951   3.269  10.598 -1.1709  0.9743 -0.9597
 3792SOL     OW22837   2.019   0.901   6.499 -0.2797 -0.0004  0.0975
 3792SOL    HW122838   2.051   0.841   6.431  0.2751 -0.8040  1.0582
 3792SOL    HW222839   2.089   0.903   6.565 -0.0193 -0.3934 -0.1592
 3793SOL     OW22840   1.868   3.760  11.351  0.3793  0.0241 -0.3709
 3793SOL    HW122841   1.780   3.768  11.315  0.1028  0.1311  0.3211
 3793SOL    HW222842   1.861   3.665  11.358  0.2665  0.2396  2.4685
 3794SOL     OW22843   0.147   1.195   7.211 -0.6511  0.4057 -0.2051
 3794SOL    HW122844   0.158   1.219   7.303  2.2898  2.0348 -0.9558
 3794SOL    HW222845   0.085   1.260   7.178 -0.4385 -0.5387 -2.4946
 3795SOL     OW22846   3.980   2.628   5.642  0.1098  0.0242 -0.1765
 3795SOL    HW122847   4.069   2.620   5.676  0.8771  1.5971 -1.7894
 3795SOL    HW222848   3.928   2.646   5.720 -0.2560  0.1171 -0.4428
 3796SOL     OW22849   1.693   1.070   6.412  0.3217  0.2355  0.5469
 3796SOL    HW122850   1.656   1.155   6.432  3.0652  1.5373  0.1452
 3796SOL    HW222851   1.678   1.058   6.318 -1.6337 -0.1683  0.9063
 3797SOL     OW22852   3.867   1.798   3.696  0.2269  0.4155 -0.3017
 3797SOL    HW122853   3.928   1.724   3.691  0.8548  0.9272 -0.2108
 3797SOL    HW222854   3.799   1.756   3.747 -0.1133  1.5483  0.1849
 3798SOL     OW22855   2.796   1.214   5.287 -0.0343  0.0507 -0.1434
 3798SOL    HW122856   2.886   1.231   5.314  0.1983  0.6784 -1.2986
 3798SOL    HW222857   2.774   1.280   5.221 -0.8052 -1.1584 -1.1033
 3799SOL     OW22858   2.952   0.439   6.173  0.0727  0.4727 -0.1384
 3799SOL    HW122859   2.991   0.489   6.245  2.8918 -1.1644 -0.5477
 3799SOL    HW222860   2.947   0.346   6.195  1.4048  0.2448 -0.8010
 3800SOL     OW22861   2.490   3.320  15.480  0.3528 -0.4954  0.0847
 3800SOL    HW122862   2.474   3.236  15.523 -0.3551  1.2195  3.1562
 3800SOL    HW222863   2.584   3.329  15.495  0.5274  1.7343 -2.2972
 3801SOL     OW22864   3.813   3.725   4.081 -0.1542 -0.2308  0.3674
 3801SOL    HW122865   3.790   3.640   4.045  0.6245 -0.0007 -0.6913
 3801SOL    HW222866   3.760   3.788   4.031  0.2991  0.3474  0.6117
 3802SOL     OW22867   4.442   1.316   5.823  0.6403  0.3475  0.1422
 3802SOL    HW122868   4.391   1.286   5.898  0.1358 -0.4070 -0.5116
 3802SOL    HW222869   4.471   1.401   5.857 -0.7278  0.8364  0.0999
 3803SOL     OW22870   1.384   1.536   8.771  0.2422 -0.1239 -0.2195
 3803SOL    HW122871   1.337   1.495   8.844  1.5713 -1.8546 -0.3315
 3803SOL    HW222872   1.360   1.628   8.779  1.2853 -0.1048  2.5402
 3804SOL     OW22873   1.107   2.389   3.569 -0.1054 -0.3741  0.2081
 3804SOL    HW122874   1.058   2.397   3.488 -1.2857  4.1969  1.4071
 3804SOL    HW222875   1.045   2.334   3.617 -0.3023 -0.5388 -0.2384
 3805SOL     OW22876   0.462   4.524  12.946 -0.5423  0.2642  0.1964
 3805SOL    HW122877   0.377   4.493  12.978 -0.2276 -1.4993 -0.6713
 3805SOL    HW222878   0.507   4.444  12.919  0.0281  1.2289 -1.7357
 3806SOL     OW22879   0.385   1.589   4.998  0.1884 -0.2031  0.5570
 3806SOL    HW122880   0.447   1.588   4.925  1.5504  1.1636  1.6994
 3806SOL    HW222881   0.444   1.541   5.057  2.2116  1.5522 -0.0363
 3807SOL     OW22882   3.994   2.333  15.224  0.5219 -0.0582  0.1521
 3807SOL    HW122883   3.976   2.361  15.135 -0.5625  1.4695  0.8469
 3807SOL    HW222884   4.014   2.239  15.218  0.1524 -0.1001 -0.3379
 3808SOL     OW22885   2.514   1.651   2.656  0.3392  0.2312  0.3328
 3808SOL    HW122886   2.451   1.694   2.599  1.1562 -0.0810 -0.8037
 3808SOL    HW222887   2.591   1.651   2.600 -0.7008  3.7817 -1.0878
 3809SOL     OW22888   0.617   0.276   4.759  0.0966  0.6047 -0.3371
 3809SOL    HW122889   0.650   0.365   4.751  0.6659  0.1546 -2.8720
 3809SOL    HW222890   0.686   0.225   4.717  0.3385  0.9687 -0.3793
 3810SOL     OW22891   1.821   4.463   7.140 -0.5880  0.1083  0.3935
 3810SOL    HW122892   1.883   4.499   7.204  1.2037  0.2994 -1.4559
 3810SOL    HW222893   1.768   4.419   7.207 -1.2904  1.2095  0.5501
 3811SOL     OW22894   1.879   2.387  14.547 -0.4265  0.3665 -0.4847
 3811SOL    HW122895   1.793   2.429  14.559 -0.8978 -1.2234  1.5845
 3811SOL    HW222896   1.914   2.405  14.634  0.3570  1.4513 -1.0191
 3812SOL     OW22897   2.474   1.084   4.107  0.3857 -0.2784 -0.0195
 3812SOL    HW122898   2.497   1.129   4.188 -0.8666 -0.6643  0.5561
 3812SOL    HW222899   2.552   1.030   4.104 -0.4612 -1.4565 -0.8311
 3813SOL     OW22900   3.065   1.263   9.454  0.1026 -0.0350 -0.6393
 3813SOL    HW122901   3.139   1.226   9.501  0.2799  0.6874 -0.3450
 3813SOL    HW222902   3.021   1.182   9.430  0.3742 -0.5962  0.7497
 3814SOL     OW22903   1.692   1.302   1.236 -0.0722  0.4036  0.1881
 3814SOL    HW122904   1.740   1.238   1.288  0.7139  0.1065 -0.8912
 3814SOL    HW222905   1.766   1.357   1.209 -0.0076  0.2611  0.0753
 3815SOL     OW22906   2.574   0.682   4.054  0.0437 -0.0425 -0.0621
 3815SOL    HW122907   2.648   0.660   4.111 -0.0552  0.3163  0.2066
 3815SOL    HW222908   2.508   0.648   4.113 -0.2475 -1.4263 -1.1942
 3816SOL     OW22909   3.310   2.523   1.965 -0.1809 -0.3417 -0.0256
 3816SOL    HW122910   3.218   2.501   1.979 -0.6714  1.8079  0.0748
 3816SOL    HW222911   3.327   2.530   2.059 -1.7643 -0.9601  0.3068
 3817SOL     OW22912   3.011   4.673   2.224  0.5538  0.1166 -0.4014
 3817SOL    HW122913   2.979   4.656   2.313  3.0058 -1.7142  0.1266
 3817SOL    HW222914   2.928   4.663   2.176  0.0223 -0.6130  0.6533
 3818SOL     OW22915   3.960   3.680   6.017 -0.0398 -0.5287  0.0092
 3818SOL    HW122916   3.954   3.735   6.095 -0.1594  1.5629 -1.4563
 3818SOL    HW222917   4.047   3.647   6.036  0.7048  1.6940  0.5019
 3819SOL     OW22918   2.150   3.941   6.268  0.2447 -0.2781  0.1177
 3819SOL    HW122919   2.213   3.887   6.220 -0.1035 -0.1315 -0.5025
 3819SOL    HW222920   2.132   4.017   6.212 -0.9357 -0.7441 -0.1385
 3820SOL     OW22921   1.506   1.176   4.211  1.0882  0.0326 -0.2956
 3820SOL    HW122922   1.554   1.258   4.199 -0.2829  0.2779 -4.1364
 3820SOL    HW222923   1.565   1.113   4.170  0.9480  0.7054 -1.5399
 3821SOL     OW22924   4.451   3.810   6.757  0.5924  0.4567 -0.3060
 3821SOL    HW122925   4.483   3.723   6.779 -2.1110 -0.3424  0.4839
 3821SOL    HW222926   4.463   3.817   6.663 -1.3231 -0.9390 -0.6537
 3822SOL     OW22927   2.023   3.228   2.631 -0.3410 -0.0549  0.0225
 3822SOL    HW122928   2.033   3.265   2.719  4.4431  0.0007 -0.5203
 3822SOL    HW222929   2.106   3.185   2.610 -0.4472 -0.7430  0.9666
 3823SOL     OW22930   3.374   4.469  13.581  0.2124  0.6026 -0.5642
 3823SOL    HW122931   3.434   4.543  13.572  1.2000 -0.1143  0.0909
 3823SOL    HW222932   3.288   4.509  13.572  0.6281  1.6184 -0.0401
 3824SOL     OW22933   0.949   2.402   4.183 -0.5471 -0.3524 -0.1516
 3824SOL    HW122934   0.879   2.438   4.237  1.4149  0.2171  1.9763
 3824SOL    HW222935   0.890   2.349   4.130 -2.1536  1.1644  0.1198
 3825SOL     OW22936   0.715   2.647   7.840  0.0875 -0.0834 -0.0880
 3825SOL    HW122937   0.645   2.711   7.853  0.4990  0.8970 -2.6721
 3825SOL    HW222938   0.700   2.637   7.746  0.0327 -2.3139  0.1560
 3826SOL     OW22939   3.804   2.420  15.380  0.2506 -0.0456  0.0511
 3826SOL    HW122940   3.734   2.355  15.386  0.8657 -0.7714 -0.5936
 3826SOL    HW222941   3.871   2.387  15.320 -0.2720  2.1964 -1.7775
 3827SOL     OW22942   3.873   3.879   0.094 -0.1746  0.4709 -0.1986
 3827SOL    HW122943   3.919   3.838   0.167  1.9126 -0.6055 -2.1161
 3827SOL    HW222944   3.836   3.956   0.138 -0.1652  1.0193 -1.1467
 3828SOL     OW22945   1.677   3.068   6.170  0.2102  0.5029 -0.6190
 3828SOL    HW122946   1.610   3.099   6.231  1.7210 -1.3953  1.9710
 3828SOL    HW222947   1.758   3.076   6.220 -1.4131  0.1979  2.0077
 3829SOL     OW22948   4.452   1.142  13.528 -0.4822 -0.0275  0.2211
 3829SOL    HW122949   4.444   1.237  13.532 -1.7967  0.0039 -3.8040
 3829SOL    HW222950   4.382   1.127  13.465 -1.1256 -1.6467  1.3064
 3830SOL     OW22951   4.081   3.776  10.037  0.6519  0.0720 -0.0884
 3830SOL    HW122952   4.131   3.735  10.108 -0.5499 -0.9283  0.1790
 3830SOL    HW222953   4.141   3.839   9.998 -0.3484  0.2237 -1.3937
 3831SOL     OW22954   4.376   0.317  10.352 -0.3773  0.2551  0.0318
 3831SOL    HW122955   4.471   0.305  10.344 -0.4599  0.9929 -2.1752
 3831SOL    HW222956   4.356   0.297  10.260  1.1876 -0.0237 -0.2480
 3832SOL     OW22957   0.806   1.230   0.196 -0.4848 -0.4108 -0.3695
 3832SOL    HW122958   0.807   1.135   0.190  1.1510 -0.4774  0.7988
 3832SOL    HW222959   0.737   1.245   0.261  0.1632  2.2002 -0.2731
 3833SOL     OW22960   4.024   0.645   8.699  0.3770  0.0623  0.7640
 3833SOL    HW122961   3.951   0.590   8.672  1.1247  0.3088 -1.7994
 3833SOL    HW222962   3.984   0.723   8.737 -1.1565 -0.4248  0.1323
 3834SOL     OW22963   0.625   3.926   6.200  0.1695 -0.6172 -0.0008
 3834SOL    HW122964   0.613   3.831   6.200 -0.4124 -0.5432  0.2303
 3834SOL    HW222965   0.593   3.954   6.114  0.8697  1.9402  0.5685
 3835SOL     OW22966   4.641   0.485   4.127  0.0051  1.1236  0.0164
 3835SOL    HW122967   4.609   0.524   4.046 -1.2654 -2.0454 -0.9934
 3835SOL    HW222968   4.679   0.558   4.176 -2.2927  0.3141  2.9146
 3836SOL     OW22969   1.918   4.644   4.295 -0.3034  0.3135  0.3788
 3836SOL    HW122970   1.974   4.720   4.281 -0.3085  0.0885 -0.8684
 3836SOL    HW222971   1.955   4.576   4.240  0.1890  0.0604  1.0161
 3837SOL     OW22972   3.294   0.485   4.546  0.4401  0.1039  0.1324
 3837SOL    HW122973   3.373   0.450   4.505 -0.4516  0.1612 -1.6389
 3837SOL    HW222974   3.328   0.571   4.570  1.7359 -0.3457 -0.1177
 3838SOL     OW22975   0.660   2.630  17.162  0.7605 -0.1870  0.3164
 3838SOL    HW122976   0.567   2.644  17.140  0.4772  0.4302  1.9353
 3838SOL    HW222977   0.669   2.544  17.203  0.5535  0.3816  1.5441
 3839SOL     OW22978   2.541   2.549   5.487  0.1703  0.0219  0.5173
 3839SOL    HW122979   2.525   2.623   5.545 -1.3731  0.7374 -0.7982
 3839SOL    HW222980   2.550   2.592   5.402  0.2621  1.2051  1.1255
 3840SOL     OW22981   3.411   1.389   6.855 -0.3856 -0.5295  0.3492
 3840SOL    HW122982   3.415   1.295   6.840 -0.9526  0.0640 -3.5799
 3840SOL    HW222983   3.361   1.390   6.936 -1.2729  0.0638 -0.2064
 3841SOL     OW22984   0.291   2.452   5.764  0.5091 -0.2811 -0.9683
 3841SOL    HW122985   0.376   2.463   5.721  1.3446  0.8609  0.9740
 3841SOL    HW222986   0.235   2.458   5.687 -2.4286  0.6989  1.2699
 3842SOL     OW22987   2.149   0.317   2.544  0.3794 -0.0636  0.0010
 3842SOL    HW122988   2.157   0.222   2.536  0.9441  0.0205 -0.4818
 3842SOL    HW222989   2.161   0.346   2.453  0.2942 -0.1548 -0.0388
 3843SOL     OW22990   2.740   3.926   5.420 -0.2450 -0.1576  0.1697
 3843SOL    HW122991   2.675   3.995   5.407  1.5117  1.5572  0.2851
 3843SOL    HW222992   2.712   3.901   5.508 -1.8738  0.9576 -0.0251
 3844SOL     OW22993   2.734   4.142   8.017 -0.2299  0.2733  0.4130
 3844SOL    HW122994   2.712   4.107   8.103  1.3472 -1.1082  0.2476
 3844SOL    HW222995   2.809   4.084   8.001  0.4418  1.1863  0.2192
 3845SOL     OW22996   3.912   1.113   9.941  0.1272 -0.5138 -0.1536
 3845SOL    HW122997   4.006   1.099   9.933  0.1652  0.1730 -0.8395
 3845SOL    HW222998   3.878   1.025   9.925  0.0776 -0.3472 -0.9480
 3846SOL     OW22999   1.800   0.999   6.646 -0.3760 -0.2021  0.0301
 3846SOL    HW123000   1.772   1.018   6.556 -0.8049  1.4711  0.5236
 3846SOL    HW223001   1.873   0.942   6.619 -0.9626 -0.5054 -0.9475
 3847SOL     OW23002   1.861   2.841   2.445  0.3965 -0.6381 -0.2399
 3847SOL    HW123003   1.935   2.878   2.493 -1.5393  1.1551  1.4075
 3847SOL    HW223004   1.823   2.919   2.403  0.9814 -1.3656 -2.1188
 3848SOL     OW23005   1.042   3.545   5.359 -0.1199 -0.0354  0.2339
 3848SOL    HW123006   1.068   3.596   5.283  1.2012 -1.4451 -0.2590
 3848SOL    HW223007   1.107   3.575   5.422 -0.1871 -0.8259  0.6871
 3849SOL     OW23008   1.037   1.562   6.099 -0.8000  0.3700  0.1467
 3849SOL    HW123009   1.084   1.487   6.064  0.2912  0.9580  0.3572
 3849SOL    HW223010   0.985   1.575   6.020  0.6657 -0.7254 -0.9796
 3850SOL     OW23011   1.179   1.793  14.789  0.4593  0.1967  0.2239
 3850SOL    HW123012   1.235   1.842  14.730 -0.2909  0.6827 -0.0931
 3850SOL    HW223013   1.233   1.783  14.866 -0.8962  0.9287  1.2732
 3851SOL     OW23014   1.546   4.138  15.269 -0.3100 -0.1912 -0.1884
 3851SOL    HW123015   1.609   4.199  15.230  0.0902  0.5501  1.6118
 3851SOL    HW223016   1.581   4.153  15.357 -0.2125 -2.7689  0.2051
 3852SOL     OW23017   2.414   4.406   9.793  0.2398 -0.0669  1.0282
 3852SOL    HW123018   2.452   4.375   9.875 -1.2804  0.4079  1.9168
 3852SOL    HW223019   2.434   4.500   9.798 -2.0404  0.4384  0.4471
 3853SOL     OW23020   0.069   0.230   9.119  0.0963  0.2842  0.1237
 3853SOL    HW123021   0.150   0.260   9.161  0.0068 -0.4000  0.8013
 3853SOL    HW223022   4.717   0.266   9.169  0.0380  0.1195  0.1580
 3854SOL     OW23023   3.012   4.476   3.548  0.2991  0.0525 -0.4704
 3854SOL    HW123024   3.016   4.459   3.454 -2.3663  1.7667 -0.8811
 3854SOL    HW223025   2.996   4.570   3.544 -0.1019 -0.0293 -0.8275
 3855SOL     OW23026   0.323   4.465   5.629  0.4477  0.4413 -0.0518
 3855SOL    HW123027   0.370   4.432   5.553 -1.1432  1.3877 -1.4420
 3855SOL    HW223028   0.362   4.412   5.698  1.9103  1.5654 -0.0193
 3856SOL     OW23029   0.951   0.879  14.927 -0.2850  0.2292 -0.6362
 3856SOL    HW123030   1.013   0.933  14.877 -0.8995  3.3840  1.9944
 3856SOL    HW223031   0.922   0.950  14.983  3.1133  0.7290  0.5088
 3857SOL     OW23032   0.180   2.893   5.333  0.6636 -0.2980 -0.4467
 3857SOL    HW123033   0.243   2.965   5.336 -0.6955  0.7201  3.7870
 3857SOL    HW223034   0.108   2.935   5.380  2.4676  1.5767  0.6204
 3858SOL     OW23035   2.902   2.116   5.975  0.1950 -0.5214  0.0100
 3858SOL    HW123036   2.839   2.048   5.952  2.6620 -3.3494  1.7177
 3858SOL    HW223037   2.954   2.078   6.046  0.3427 -0.8076 -0.2552
 3859SOL     OW23038   3.930   2.874   7.657  0.2517 -1.1686 -0.1188
 3859SOL    HW123039   3.874   2.808   7.617 -2.1071  0.4376  0.5592
 3859SOL    HW223040   4.011   2.823   7.659  1.1043  0.0904 -2.2671
 3860SOL     OW23041   0.765   2.407   2.312  0.5827 -0.1578 -0.4618
 3860SOL    HW123042   0.724   2.347   2.250  2.7377 -1.1769 -0.9251
 3860SOL    HW223043   0.821   2.352   2.367  0.1629 -0.6266 -0.5010
 3861SOL     OW23044   0.030   0.166   8.334 -0.0448 -0.1879 -0.3122
 3861SOL    HW123045   0.016   0.208   8.419 -1.1697  2.5364 -1.8681
 3861SOL    HW223046   0.004   0.239   8.278 -0.7109 -0.4723 -0.3824
 3862SOL     OW23047   3.778   1.873  16.606 -0.4473 -0.2988  0.3875
 3862SOL    HW123048   3.862   1.848  16.567  1.1062  1.5318  2.5264
 3862SOL    HW223049   3.742   1.786  16.622 -2.3252  0.5091  0.4571
 3863SOL     OW23050   2.678   4.242   7.207  0.5743 -0.1227 -0.3326
 3863SOL    HW123051   2.701   4.262   7.116 -1.3594  0.6638 -0.6445
 3863SOL    HW223052   2.741   4.290   7.261  0.3393  1.5054 -1.5252
 3864SOL     OW23053   3.882   4.437   0.832 -0.2802 -0.2665  0.6081
 3864SOL    HW123054   3.799   4.470   0.866  0.2770  3.7137 -1.9483
 3864SOL    HW223055   3.876   4.344   0.813  0.4422 -0.0582 -0.6431
 3865SOL     OW23056   2.951   3.771   7.483 -0.3287  0.1860 -0.1062
 3865SOL    HW123057   3.043   3.785   7.458  0.2798  0.0771  2.0468
 3865SOL    HW223058   2.896   3.830   7.431  0.0387  0.6373  0.0178
 3866SOL     OW23059   2.297   0.524  13.880 -0.2893 -0.2226 -0.2956
 3866SOL    HW123060   2.275   0.474  13.801  2.6418 -0.9645 -0.6672
 3866SOL    HW223061   2.223   0.584  13.875  1.1977  1.6404  0.1814
 3867SOL     OW23062   1.196   1.443   4.403 -0.2314 -0.5653  0.1951
 3867SOL    HW123063   1.254   1.401   4.466  0.1942  0.0821  0.2374
 3867SOL    HW223064   1.189   1.531   4.440  3.0958 -1.6450  3.3755
 3868SOL     OW23065   2.028   0.117   5.855 -0.5607 -0.0580  0.6232
 3868SOL    HW123066   2.119   0.141   5.840 -0.8669  0.4320 -0.4850
 3868SOL    HW223067   2.020   0.088   5.764 -1.7663  0.1824  0.6401
 3869SOL     OW23068   1.761   2.044   8.760  0.2815  0.4430  0.2576
 3869SOL    HW123069   1.841   2.080   8.799  0.6832 -0.5554  0.3421
 3869SOL    HW223070   1.799   1.956   8.753 -0.0395  0.4605 -1.8894
 3870SOL     OW23071   2.332   2.048  14.332  0.5091  0.0187 -0.0148
 3870SOL    HW123072   2.301   2.127  14.287  1.8341  0.3196 -0.3967
 3870SOL    HW223073   2.400   2.015  14.274  0.8008 -2.0131  1.4719
 3871SOL     OW23074   4.530   2.422   3.159 -1.2811 -0.4785  0.4871
 3871SOL    HW123075   4.610   2.407   3.110 -0.8758  0.2087  0.9522
 3871SOL    HW223076   4.517   2.509   3.121 -0.2076 -0.7625 -0.5124
 3872SOL     OW23077   2.491   1.428   4.752 -0.3003 -0.7137 -0.5544
 3872SOL    HW123078   2.428   1.471   4.694 -0.2830  1.1320  0.8033
 3872SOL    HW223079   2.464   1.337   4.755 -1.8454 -0.1498  2.5675
 3873SOL     OW23080   3.121   3.350  13.880 -0.2823 -0.4100 -0.0803
 3873SOL    HW123081   3.080   3.436  13.891 -1.0367 -0.9015  0.9530
 3873SOL    HW223082   3.122   3.320  13.971  1.9239 -1.3109 -0.3982
 3874SOL     OW23083   0.939   4.386   4.462 -0.0822 -0.2269 -0.0837
 3874SOL    HW123084   0.941   4.311   4.402  1.7932 -0.3005  0.0576
 3874SOL    HW223085   0.934   4.457   4.397 -0.3151 -1.2172 -1.1479
 3875SOL     OW23086   4.717   2.256   5.768  0.0479  0.5587  1.0357
 3875SOL    HW123087   0.046   2.208   5.701 -1.3548  1.5615 -0.7398
 3875SOL    HW223088   4.632   2.258   5.724  0.9632 -0.8355 -0.8345
 3876SOL     OW23089   2.562   0.577   1.151 -0.1657 -0.0631 -0.0461
 3876SOL    HW123090   2.647   0.610   1.121 -0.2471 -0.4052 -0.6613
 3876SOL    HW223091   2.586   0.507   1.211  0.4586  0.0106 -0.2113
 3877SOL     OW23092   1.336   1.613   6.867 -0.0149 -0.1369 -0.1325
 3877SOL    HW123093   1.294   1.562   6.936  1.5357 -1.2543 -0.0137
 3877SOL    HW223094   1.396   1.547   6.833  0.7012  0.3836  0.1236
 3878SOL     OW23095   4.311   2.423  12.418 -0.0025 -0.6210 -0.1237
 3878SOL    HW123096   4.289   2.365  12.491  0.4889 -1.4475 -0.6423
 3878SOL    HW223097   4.256   2.499  12.439 -0.3948 -0.0911 -3.0622
 3879SOL     OW23098   1.464   2.759   7.180 -0.0756 -0.5931 -0.2460
 3879SOL    HW123099   1.535   2.707   7.140  0.9328 -1.3737  2.5489
 3879SOL    HW223100   1.488   2.755   7.273 -1.1996  3.0762  0.1830
 3880SOL     OW23101   2.348   3.586  12.412  0.0203  0.0394  0.5169
 3880SOL    HW123102   2.333   3.509  12.468 -1.8911 -0.7676 -1.0800
 3880SOL    HW223103   2.432   3.558  12.377  0.2161 -0.6557  1.5625
 3881SOL     OW23104   2.882   0.620   1.690  0.4850  0.2631  0.2260
 3881SOL    HW123105   2.949   0.589   1.628  1.5151  0.2517  1.3368
 3881SOL    HW223106   2.924   0.621   1.776 -1.0472  1.8156  0.9625
 3882SOL     OW23107   1.462   1.383   8.550 -0.3352  0.2786  0.1043
 3882SOL    HW123108   1.463   1.300   8.599  1.0106 -0.7173 -1.5960
 3882SOL    HW223109   1.424   1.447   8.610 -2.9509  0.0907 -1.3618
 3883SOL     OW23110   3.675   2.503   5.351 -0.3183 -0.7954 -0.0351
 3883SOL    HW123111   3.594   2.553   5.338 -1.2326 -2.2180  0.2008
 3883SOL    HW223112   3.683   2.473   5.261  0.8305  0.1365 -0.2471
 3884SOL     OW23113   0.776   1.029   8.911  0.0483 -0.0622  0.1996
 3884SOL    HW123114   0.841   0.960   8.900  0.2101  0.4635 -2.0320
 3884SOL    HW223115   0.819   1.093   8.969 -0.2095 -0.8681  1.2886
 3885SOL     OW23116   2.673   1.886   9.569 -0.0350  0.5302  0.4272
 3885SOL    HW123117   2.627   1.963   9.535 -0.2958  0.5940  0.9248
 3885SOL    HW223118   2.721   1.926   9.642  0.7842 -1.8893  1.2254
 3886SOL     OW23119   3.369   0.416  13.885  0.3960 -0.2897 -0.8779
 3886SOL    HW123120   3.464   0.403  13.880  0.5072  0.3167 -0.3713
 3886SOL    HW223121   3.375   0.511  13.876 -0.1950 -0.1179  0.4877
 3887SOL     OW23122   0.078   3.942  14.388 -0.2687 -0.2289 -0.2775
 3887SOL    HW123123   0.135   3.873  14.421  0.6546  1.3654  1.4468
 3887SOL    HW223124   0.032   3.962  14.470 -0.6363  2.1409 -1.0486
 3888SOL     OW23125   4.592   3.112   8.327 -0.1232 -0.1655 -0.7493
 3888SOL    HW123126   4.629   3.117   8.415 -0.5777 -1.7824 -0.4696
 3888SOL    HW223127   4.616   3.200   8.298 -0.2520 -0.2298 -1.0472
 3889SOL     OW23128   2.174   4.241   8.156 -0.2358  0.3612  0.1237
 3889SOL    HW123129   2.255   4.190   8.164 -1.5626 -1.6511  0.7058
 3889SOL    HW223130   2.121   4.194   8.221  1.4259  0.3493  1.4591
 3890SOL     OW23131   2.135   2.711   8.454  0.8456 -0.7138 -0.2449
 3890SOL    HW123132   2.055   2.720   8.506  1.2200  0.2080  0.1818
 3890SOL    HW223133   2.179   2.636   8.494  1.7539  0.3027  0.6563
 3891SOL     OW23134   4.681   4.709  10.910  0.0251  0.1968  0.0118
 3891SOL    HW123135   4.712   4.708  11.001  0.3370 -0.6520 -0.1006
 3891SOL    HW223136   0.040   4.687  10.863  0.5893 -1.5944  1.8029
 3892SOL     OW23137   2.563   3.186   8.124  0.2136  0.1031 -0.7069
 3892SOL    HW123138   2.514   3.230   8.054  2.0990  0.5389 -1.7671
 3892SOL    HW223139   2.567   3.103   8.076 -0.3644 -0.7131  0.6729
 3893SOL     OW23140   2.491   0.226   5.905 -0.5232  0.1751  0.1284
 3893SOL    HW123141   2.558   0.250   5.841 -0.0629 -0.2669  0.4456
 3893SOL    HW223142   2.513   0.295   5.968 -3.7485  2.7884 -1.6038
 3894SOL     OW23143   0.787   0.446   7.387 -0.3395  0.3213 -0.4203
 3894SOL    HW123144   0.858   0.413   7.442 -0.3340 -0.0080 -0.6254
 3894SOL    HW223145   0.709   0.440   7.443  0.4468 -2.7123  0.3666
 3895SOL     OW23146   2.849   1.583   9.815  0.6412  0.5910  0.2399
 3895SOL    HW123147   2.898   1.509   9.778 -1.0304 -0.7358  0.6769
 3895SOL    HW223148   2.779   1.601   9.753  0.0435 -1.0201  0.4402
 3896SOL     OW23149   2.191   4.067  15.399  0.3721  0.7888  0.1345
 3896SOL    HW123150   2.156   4.086  15.312  2.7832  1.2216 -0.7332
 3896SOL    HW223151   2.138   3.991  15.423  1.8098  0.2247  1.4675
 3897SOL     OW23152   0.382   0.312   0.980  0.4711 -0.4687  0.3740
 3897SOL    HW123153   0.308   0.262   0.945  0.2716 -0.8759  1.3676
 3897SOL    HW223154   0.361   0.405   0.977  0.2134 -0.5094  0.8785
 3898SOL     OW23155   0.855   0.188   3.022 -0.0111 -0.2527  0.0435
 3898SOL    HW123156   0.832   0.271   2.981 -0.4043 -0.5189 -0.2779
 3898SOL    HW223157   0.916   0.220   3.089  0.7021  0.4508 -0.9412
 3899SOL     OW23158   0.719   4.660   3.102 -0.0607  0.0208 -0.3081
 3899SOL    HW123159   0.743   4.646   3.194 -0.8642  1.6035  0.1248
 3899SOL    HW223160   0.767   0.017   3.078 -0.5102  0.6046  0.6797
 3900SOL     OW23161   2.217   3.473   6.975 -0.5602  0.1304  0.0986
 3900SOL    HW123162   2.271   3.436   7.045 -0.2690 -2.2182 -1.3488
 3900SOL    HW223163   2.229   3.420   6.896 -1.2637 -0.2408  0.2430
 3901SOL     OW23164   1.633   1.657   7.484  0.3172  0.2753 -0.1144
 3901SOL    HW123165   1.603   1.623   7.400  2.5439 -1.2981 -0.2662
 3901SOL    HW223166   1.675   1.740   7.460 -0.4292  1.1163  1.4955
 3902SOL     OW23167   2.726   1.720   8.392 -0.2912 -0.2475  0.2130
 3902SOL    HW123168   2.645   1.771   8.396 -0.5733 -0.7220  0.5335
 3902SOL    HW223169   2.735   1.671   8.474  2.7539 -1.0374 -0.5824
 3903SOL     OW23170   2.646   0.996   1.452 -0.3567 -0.1724  0.0511
 3903SOL    HW123171   2.626   0.906   1.427  1.5575 -1.5784  3.5905
 3903SOL    HW223172   2.733   0.983   1.490  0.8324 -1.7864 -3.2379
 3904SOL     OW23173   0.169   4.122   7.327  0.2252 -0.4747  0.3063
 3904SOL    HW123174   0.256   4.162   7.334 -1.0816  2.5453 -0.5558
 3904SOL    HW223175   0.115   4.188   7.371 -1.2099 -0.9341 -0.7822
 3905SOL     OW23176   2.200   0.945   0.645  0.5016  0.5251 -0.3061
 3905SOL    HW123177   2.290   0.912   0.637  0.6658  0.9097  0.0068
 3905SOL    HW223178   2.194   0.996   0.565  1.1865  0.5353 -0.3495
 3906SOL     OW23179   3.109   1.129   6.963 -0.0450 -0.0451  0.0865
 3906SOL    HW123180   3.074   1.140   6.875 -1.0304  0.7941  0.5887
 3906SOL    HW223181   3.077   1.040   6.975  0.6428 -0.2245  0.6070
 3907SOL     OW23182   2.077   1.468   6.739 -0.5469  0.0881  0.2850
 3907SOL    HW123183   2.136   1.536   6.771  0.7881 -0.8082 -0.3017
 3907SOL    HW223184   2.081   1.481   6.644 -1.8996  0.3047  0.2611
 3908SOL     OW23185   4.433   1.909   2.789  0.4367  0.4704 -0.2278
 3908SOL    HW123186   4.381   1.846   2.740  0.4274 -0.0902  0.4990
 3908SOL    HW223187   4.479   1.937   2.710 -0.1103  0.3756 -0.5765
 3909SOL     OW23188   0.061   1.827   8.285 -0.0906 -0.1312  0.2125
 3909SOL    HW123189   0.055   1.873   8.369  0.9568  2.0689 -0.9222
 3909SOL    HW223190   0.156   1.814   8.284 -0.1887 -0.8236 -0.1770
 3910SOL     OW23191   1.924   4.283   8.664 -0.6047  0.3814 -0.1245
 3910SOL    HW123192   1.830   4.302   8.654 -1.2526 -2.5342  0.2311
 3910SOL    HW223193   1.947   4.301   8.574 -0.9394 -1.6042 -0.6170
 3911SOL     OW23194   2.317   4.586   3.698  0.1449  0.2965 -0.1084
 3911SOL    HW123195   2.322   4.497   3.733 -4.1983  0.3678  0.7256
 3911SOL    HW223196   2.222   4.589   3.691  0.2767  0.3916 -1.9244
 3912SOL     OW23197   0.746   4.506  16.017  0.3105 -0.1959  0.2561
 3912SOL    HW123198   0.719   4.563  15.944  1.9977 -3.2935 -2.8082
 3912SOL    HW223199   0.838   4.486  16.003  0.6722  1.6536 -0.0665
 3913SOL     OW23200   3.667   0.812   7.226 -0.5562  1.1704 -0.0589
 3913SOL    HW123201   3.666   0.772   7.139  0.4037 -0.4772  0.6795
 3913SOL    HW223202   3.627   0.744   7.281  0.8022 -1.5555 -2.4674
 3914SOL     OW23203   3.206   0.931   2.636  0.0806  0.0852  0.1956
 3914SOL    HW123204   3.231   0.891   2.719 -1.1230 -2.7546 -0.8252
 3914SOL    HW223205   3.116   0.942   2.668  0.1638  0.5745  0.2662
 3915SOL     OW23206   3.494   4.277   2.766  0.3081  0.1972 -0.6444
 3915SOL    HW123207   3.488   4.341   2.837  0.4091 -1.5430  0.9470
 3915SOL    HW223208   3.429   4.315   2.707  0.5559 -0.9460 -1.6409
 3916SOL     OW23209   4.095   1.017  13.927  0.1842 -0.1216 -0.2236
 3916SOL    HW123210   4.090   1.006  13.832  0.4506 -1.0553 -0.1254
 3916SOL    HW223211   4.149   0.942  13.950  0.6384  0.0814 -0.6377
 3917SOL     OW23212   2.979   2.139  15.542  0.0602 -0.6035 -0.0484
 3917SOL    HW123213   3.007   2.124  15.452  1.9450 -0.0473  0.4413
 3917SOL    HW223214   2.969   2.052  15.579  3.5651 -0.2822  1.6452
 3918SOL     OW23215   2.128   0.199  13.562  0.7782 -0.0087  0.0155
 3918SOL    HW123216   2.110   0.291  13.582  0.3129 -0.1711  0.3541
 3918SOL    HW223217   2.136   0.201  13.467  2.3817  1.5535  0.1886
 3919SOL     OW23218   1.238   0.522   9.349  0.0865 -0.1555  0.5199
 3919SOL    HW123219   1.213   0.469   9.424 -0.4212  2.1421  1.9636
 3919SOL    HW223220   1.153   0.549   9.314  0.3508 -0.7217 -0.5583
 3920SOL     OW23221   1.659   1.418  12.069 -0.5459  0.0730  0.6102
 3920SOL    HW123222   1.725   1.354  12.096  2.1655  1.8449 -1.8007
 3920SOL    HW223223   1.645   1.462  12.152  1.1334 -1.5244  1.7478
 3921SOL     OW23224   0.043   2.735   3.410  0.0239  0.0421 -0.6048
 3921SOL    HW123225   4.713   2.798   3.462  0.3989  0.9048 -1.2956
 3921SOL    HW223226   0.021   2.655   3.458 -0.5701 -0.1844 -1.2649
 3922SOL     OW23227   4.276   4.492   6.660  0.3442 -0.1312  0.2886
 3922SOL    HW123228   4.285   4.579   6.621 -0.3403 -0.2386 -0.1217
 3922SOL    HW223229   4.192   4.469   6.621  0.3811  0.8711 -0.3734
 3923SOL     OW23230   2.461   3.062   5.582  0.0242 -0.0879  0.7045
 3923SOL    HW123231   2.385   3.087   5.531  0.2176 -0.5045  0.2093
 3923SOL    HW223232   2.507   3.146   5.592  0.2376 -0.1135 -0.0493
 3924SOL     OW23233   1.272   3.648   4.636  0.3149 -0.8413 -0.2792
 3924SOL    HW123234   1.312   3.735   4.629 -0.5629 -0.1991  2.5635
 3924SOL    HW223235   1.336   3.602   4.689 -0.2706 -0.7503  0.5201
 3925SOL     OW23236   3.687   2.279   7.027 -0.3421 -0.6782 -0.0947
 3925SOL    HW123237   3.758   2.262   7.090 -1.1364 -2.7152  0.2549
 3925SOL    HW223238   3.640   2.201   7.055 -0.2278  0.2440  2.6371
 3926SOL     OW23239   3.381   1.922   9.813  0.0097 -0.2831  0.2424
 3926SOL    HW123240   3.332   1.854   9.857  2.3660 -2.2335 -0.1431
 3926SOL    HW223241   3.470   1.890   9.831  1.8973  2.9210 -3.1421
 3927SOL     OW23242   2.384   3.746   6.499  0.1391 -0.3394  0.0416
 3927SOL    HW123243   2.475   3.766   6.519  0.8180 -2.0117 -1.4536
 3927SOL    HW223244   2.343   3.808   6.559  0.9336 -0.6628  0.9207
 3928SOL     OW23245   4.663   4.596   5.301 -0.4231  0.1628  0.3984
 3928SOL    HW123246   4.665   4.665   5.368  3.9855 -0.5363  1.0205
 3928SOL    HW223247   4.620   4.530   5.355 -1.1581  0.1867 -0.1578
 3929SOL     OW23248   2.454   1.948  11.731  0.3890 -0.5445  0.5835
 3929SOL    HW123249   2.432   2.007  11.803  2.6442  1.9008 -0.7264
 3929SOL    HW223250   2.500   1.991  11.658  0.0542  0.3084  0.8686
 3930SOL     OW23251   0.846   4.688  12.024  0.1802 -0.1772 -0.2539
 3930SOL    HW123252   0.759   4.673  12.061  1.4037 -1.0905  2.2688
 3930SOL    HW223253   0.850   4.613  11.966  1.6950 -0.4269  0.1772
 3931SOL     OW23254   3.200   4.494   7.208  0.4243  0.2931 -0.2199
 3931SOL    HW123255   3.218   4.455   7.294  0.2333  0.3733 -0.1441
 3931SOL    HW223256   3.171   4.582   7.231  0.0112  0.0015  0.3835
 3932SOL     OW23257   1.748   3.917   6.654  0.0796 -0.2003 -0.3532
 3932SOL    HW123258   1.831   3.964   6.650 -0.9593  1.4671 -2.4199
 3932SOL    HW223259   1.763   3.841   6.710 -1.3505 -0.8737 -0.8902
 3933SOL     OW23260   2.524   1.106   8.870  0.0964 -0.7084  0.3610
 3933SOL    HW123261   2.479   1.142   8.793  0.3972 -0.7339  0.1745
 3933SOL    HW223262   2.566   1.031   8.827 -0.8836 -0.8655 -0.3476
 3934SOL     OW23263   4.376   2.868   4.240  0.3302  0.2730  0.0204
 3934SOL    HW123264   4.336   2.921   4.171  0.1366  0.8884  0.6054
 3934SOL    HW223265   4.353   2.783   4.204 -1.0479  0.9907 -0.7621
 3935SOL     OW23266   1.766   1.981   2.734  1.0308 -0.0265 -0.1626
 3935SOL    HW123267   1.765   2.072   2.763 -3.4686 -0.3567  0.7126
 3935SOL    HW223268   1.774   1.985   2.639  1.6800 -0.8318 -0.1423
 3936SOL     OW23269   1.432   0.920   5.767 -0.0927  0.2403 -0.2633
 3936SOL    HW123270   1.502   0.887   5.822 -0.1110  0.5013 -0.0849
 3936SOL    HW223271   1.417   0.834   5.728 -1.4109  1.3757 -2.2793
 3937SOL     OW23272   1.113   4.370  17.596  0.3173 -0.2371  0.7892
 3937SOL    HW123273   1.135   4.286  17.638  1.0183 -1.2668 -1.6639
 3937SOL    HW223274   1.144   4.430  17.664 -0.1266  0.3260  0.4966
 3938SOL     OW23275   0.218   1.950   8.762 -0.4918 -0.1323 -0.1312
 3938SOL    HW123276   0.256   1.876   8.810 -0.0731 -0.8606 -1.6031
 3938SOL    HW223277   0.193   1.999   8.841 -2.5060 -0.6468 -0.4529
 3939SOL     OW23278   4.111   4.009  14.336  0.2994 -0.3675 -0.0018
 3939SOL    HW123279   4.150   3.922  14.325  1.0284 -0.1732  1.1150
 3939SOL    HW223280   4.047   4.008  14.265 -1.4557  1.1062  1.5515
 3940SOL     OW23281   3.263   4.646   8.507 -0.2238  0.5195  0.7935
 3940SOL    HW123282   3.252   4.689   8.423  1.2611 -0.4766  0.0894
 3940SOL    HW223283   3.352   4.612   8.512 -0.4830 -0.0711  1.5528
 3941SOL     OW23284   4.110   3.862  16.523 -0.1293 -0.0227  0.5501
 3941SOL    HW123285   4.078   3.897  16.606 -0.4049  1.8289 -0.3572
 3941SOL    HW223286   4.031   3.862  16.468  0.5274  0.9509 -0.3869
 3942SOL     OW23287   0.715   1.510   3.545  0.1482 -0.2381  0.3230
 3942SOL    HW123288   0.700   1.416   3.534 -0.3248 -0.1439  0.1777
 3942SOL    HW223289   0.713   1.540   3.454  0.3556  0.7458  0.6360
 3943SOL     OW23290   4.702   1.507   3.049  0.1669  0.2027 -0.0551
 3943SOL    HW123291   4.639   1.435   3.045 -0.7761  1.0447 -0.3524
 3943SOL    HW223292   4.698   1.536   2.958  2.5538  1.5119  0.2567
 3944SOL     OW23293   4.526   3.962   9.185 -0.0990  0.1214 -0.0891
 3944SOL    HW123294   4.509   3.889   9.125 -3.3907  1.9985 -1.5079
 3944SOL    HW223295   4.596   4.009   9.140  2.3005 -1.8632  1.5767
 3945SOL     OW23296   1.805   4.644   0.431 -0.4636  0.3340  0.3329
 3945SOL    HW123297   1.842   4.686   0.509 -1.7976  1.4812  0.3447
 3945SOL    HW223298   1.759   0.003   0.406  1.2271  0.9865 -0.6552
 3946SOL     OW23299   2.590   1.607   4.967 -0.1279  0.4275 -0.2998
 3946SOL    HW123300   2.592   1.695   4.929  1.4624  0.7321  0.4776
 3946SOL    HW223301   2.589   1.559   4.884  1.5914 -3.7584  2.0864
 3947SOL     OW23302   2.488   4.495   1.707  0.3501  0.2172  0.3128
 3947SOL    HW123303   2.440   4.422   1.745  0.3571  1.9709  3.7384
 3947SOL    HW223304   2.547   4.448   1.649 -1.0815 -0.3081 -0.7068
 3948SOL     OW23305   2.832   4.467   1.397 -0.1372 -0.5178 -0.1108
 3948SOL    HW123306   2.903   4.443   1.457  0.5009  0.6390 -0.4154
 3948SOL    HW223307   2.868   4.440   1.313 -1.3677  1.8315 -1.3714
 3949SOL     OW23308   4.414   2.490   0.507  0.1731  0.2938  0.5971
 3949SOL    HW123309   4.409   2.489   0.411  0.7989  0.4971  0.5611
 3949SOL    HW223310   4.492   2.434   0.514  0.0955  0.0309 -0.5773
 3950SOL     OW23311   3.305   1.474   9.461  0.1409 -0.6127 -0.5193
 3950SOL    HW123312   3.338   1.408   9.523 -0.9438  0.0196  0.7460
 3950SOL    HW223313   3.323   1.558   9.505 -1.8273  0.0868 -1.0518
 3951SOL     OW23314   0.610   3.442   1.321  0.5011  0.3291 -0.5743
 3951SOL    HW123315   0.630   3.459   1.229  0.9026 -1.7706 -0.8777
 3951SOL    HW223316   0.689   3.479   1.361  0.3779 -1.6590  1.5445
 3952SOL     OW23317   4.455   0.886  16.952 -0.0591  0.4160 -0.4326
 3952SOL    HW123318   4.434   0.806  17.001 -0.7635  1.2029  0.5462
 3952SOL    HW223319   4.507   0.927  17.021  2.2981 -0.7514 -1.5315
 3953SOL     OW23320   3.822   2.933   0.612 -0.3405 -0.2240  0.1701
 3953SOL    HW123321   3.751   2.893   0.561 -0.2457 -1.7014  1.2188
 3953SOL    HW223322   3.795   2.929   0.704 -1.3125  0.2670 -0.0809
 3954SOL     OW23323   0.611   3.731  10.985 -0.1729 -0.1459 -0.4656
 3954SOL    HW123324   0.681   3.795  10.975 -0.5981  0.7108  1.9035
 3954SOL    HW223325   0.603   3.747  11.079  1.1006 -0.2669 -0.3399
 3955SOL     OW23326   0.034   3.668   0.939  0.2449  0.9957 -0.3317
 3955SOL    HW123327   4.699   3.621   1.001  1.2053 -0.3067 -0.4417
 3955SOL    HW223328   4.700   3.741   0.912 -0.1218  0.9129  0.1954
 3956SOL     OW23329   3.546   0.969   6.102  0.4016 -0.2585  0.1524
 3956SOL    HW123330   3.488   1.028   6.150  0.0853  1.3245 -2.1707
 3956SOL    HW223331   3.514   0.891   6.146  3.1112 -1.5055 -0.0861
 3957SOL     OW23332   3.200   0.604  15.210 -0.5422  0.1705  0.0751
 3957SOL    HW123333   3.116   0.623  15.170  0.1556 -2.1013 -2.3848
 3957SOL    HW223334   3.204   0.661  15.287 -2.7577  0.1879  0.1715
 3958SOL     OW23335   1.838   2.576  10.102  0.2608  0.5441 -0.1217
 3958SOL    HW123336   1.930   2.604  10.112  0.1625  1.2563 -1.1472
 3958SOL    HW223337   1.833   2.543  10.012  0.0116 -1.1632  0.5246
 3959SOL     OW23338   3.074   0.976   9.115  0.6665 -0.1149  0.2211
 3959SOL    HW123339   3.134   1.026   9.170  0.5969  2.3620 -1.9548
 3959SOL    HW223340   3.070   1.042   9.046  0.2787 -2.8205 -2.3908
 3960SOL     OW23341   2.970   2.880   8.059  0.1442 -0.3018  0.0599
 3960SOL    HW123342   2.907   2.859   8.127  1.1234 -0.6309  0.8739
 3960SOL    HW223343   3.035   2.925   8.112 -1.4503  1.1021  0.8039
 3961SOL     OW23344   1.883   1.595   9.944 -0.0163  0.1700 -0.8086
 3961SOL    HW123345   1.883   1.500   9.934 -1.2077  0.2348 -1.3830
 3961SOL    HW223346   1.795   1.614   9.976 -0.2019 -2.4240  0.2072
 3962SOL     OW23347   3.682   0.263   3.660 -0.2789  0.1070 -0.8719
 3962SOL    HW123348   3.714   0.288   3.573 -0.5982 -2.1826 -1.6449
 3962SOL    HW223349   3.693   0.168   3.658  3.1161  0.4522  1.4400
 3963SOL     OW23350   2.244   2.183   3.927  0.5134  0.4021  0.3033
 3963SOL    HW123351   2.339   2.187   3.940  0.5570 -0.2664  0.2084
 3963SOL    HW223352   2.249   2.165   3.833  1.2056 -0.8351  0.5771
 3964SOL     OW23353   1.746   1.661  15.870 -0.0542 -0.1946  0.0384
 3964SOL    HW123354   1.706   1.747  15.881  1.9811  0.8405 -0.5032
 3964SOL    HW223355   1.741   1.624  15.958 -0.4271 -1.0135 -0.3207
 3965SOL     OW23356   2.458   1.468   8.820  0.0082 -0.2898  0.4395
 3965SOL    HW123357   2.408   1.427   8.749  1.0104 -0.1169 -0.3724
 3965SOL    HW223358   2.387   1.475   8.883 -0.5793  0.9355 -0.3557
 3966SOL     OW23359   1.306   3.918   6.684  0.2183 -0.7031  0.1034
 3966SOL    HW123360   1.369   3.987   6.706 -0.8725  0.2255  0.2965
 3966SOL    HW223361   1.237   3.979   6.657  0.4019  0.0605  1.3423
 3967SOL     OW23362   2.603   1.841   9.291  0.2926  0.3121  0.7563
 3967SOL    HW123363   2.521   1.797   9.315 -0.4001  0.4318 -1.3787
 3967SOL    HW223364   2.629   1.883   9.373  2.3070 -0.8271  0.6987
 3968SOL     OW23365   4.717   3.220  14.590  0.2270 -0.0491 -0.4762
 3968SOL    HW123366   4.677   3.231  14.504  0.7624  3.8212 -0.2084
 3968SOL    HW223367   4.716   3.124  14.587 -0.4241 -0.0460 -0.2880
 3969SOL     OW23368   0.316   3.779   5.030  0.1524  0.0341  0.6231
 3969SOL    HW123369   0.228   3.808   5.007  0.7882  0.8944 -0.7268
 3969SOL    HW223370   0.322   3.695   4.984  2.6170  0.2773  0.4929
 3970SOL     OW23371   0.254   2.436   2.766 -0.2764 -0.7344 -0.4399
 3970SOL    HW123372   0.293   2.522   2.781  0.4987 -0.9765 -1.0311
 3970SOL    HW223373   0.327   2.375   2.781 -2.1979 -2.9651 -0.0671
 3971SOL     OW23374   0.198   3.727   4.014  0.0761 -0.3576  0.4843
 3971SOL    HW123375   0.135   3.724   4.086  0.6857 -0.5683  1.0101
 3971SOL    HW223376   0.166   3.784   3.944 -0.8860 -1.6388 -0.1194
 3972SOL     OW23377   4.325   2.242   7.028  0.5401 -0.0747  0.0573
 3972SOL    HW123378   4.360   2.289   7.103 -1.8516 -1.5952  2.1216
 3972SOL    HW223379   4.347   2.149   7.031  2.2086  0.2809 -1.0898
 3973SOL     OW23380   1.256   2.103   4.010 -0.0466 -0.2603  0.3295
 3973SOL    HW123381   1.290   2.192   4.017  0.2191 -0.2341 -1.2180
 3973SOL    HW223382   1.255   2.093   3.914  0.1749  1.7647  0.1256
 3974SOL     OW23383   4.139   1.606   5.901 -1.1329  0.7240 -0.2726
 3974SOL    HW123384   4.153   1.673   5.834 -2.2883  1.4614  0.2223
 3974SOL    HW223385   4.095   1.662   5.965  1.0686 -0.5501  2.3305
 3975SOL     OW23386   4.161   3.451   7.147  0.4099 -0.3944 -0.7819
 3975SOL    HW123387   4.114   3.504   7.211 -0.1928  0.5836 -2.0318
 3975SOL    HW223388   4.253   3.467   7.167  0.2692 -2.2495  1.3802
 3976SOL     OW23389   3.621   1.328  17.131  0.2765 -0.4052  0.1710
 3976SOL    HW123390   3.563   1.404  17.141  1.1348  0.4545 -1.3799
 3976SOL    HW223391   3.674   1.327  17.211  0.1195 -3.0496  0.2452
 3977SOL     OW23392   0.783   2.124   2.914  0.4889  0.0760  0.1554
 3977SOL    HW123393   0.766   2.049   2.857  0.9322  0.7061 -0.8246
 3977SOL    HW223394   0.865   2.089   2.950  0.5973  0.9894  0.8137
 3978SOL     OW23395   0.001   4.168  15.764 -0.4683 -0.3241 -0.1398
 3978SOL    HW123396   4.641   4.218  15.751 -1.8514 -2.1899  1.1872
 3978SOL    HW223397   4.712   4.149  15.858 -1.9309  0.3972 -0.1453
 3979SOL     OW23398   4.204   2.810   4.448 -0.5811 -0.5534  0.3381
 3979SOL    HW123399   4.248   2.846   4.371 -0.4248 -0.6959  0.3622
 3979SOL    HW223400   4.170   2.727   4.414 -0.5446  0.3868 -2.0410
 3980SOL     OW23401   4.449   3.662   4.352  0.1322  0.3628 -0.4059
 3980SOL    HW123402   4.515   3.712   4.304 -0.1594  1.2655  0.1450
 3980SOL    HW223403   4.395   3.637   4.277 -0.8458  0.8909  0.1243
 3981SOL     OW23404   2.731   1.379   5.080  0.0601 -0.1344  0.0157
 3981SOL    HW123405   2.674   1.456   5.075  0.2758  0.0082 -0.2672
 3981SOL    HW223406   2.670   1.321   5.035  0.2115  0.9061 -1.5285
 3982SOL     OW23407   0.208   2.221   7.172 -0.2565 -0.3482  0.2707
 3982SOL    HW123408   0.116   2.197   7.177 -0.8069  1.4484 -1.3367
 3982SOL    HW223409   0.250   2.160   7.112 -0.7376 -0.4591  0.0530
 3983SOL     OW23410   0.563   2.972   8.655  0.1640 -0.2845 -0.3687
 3983SOL    HW123411   0.486   2.994   8.707  0.2627 -0.7633 -0.0194
 3983SOL    HW223412   0.535   2.909   8.588  2.8903  0.8487 -2.5655
 3984SOL     OW23413   0.906   2.192   3.713 -0.1190  0.1044 -0.3149
 3984SOL    HW123414   0.817   2.170   3.684 -0.5071 -2.2119  2.6586
 3984SOL    HW223415   0.960   2.118   3.684 -0.6236 -0.2349 -0.3870
 3985SOL     OW23416   4.002   0.146   9.243  0.1681  0.3374 -0.2766
 3985SOL    HW123417   4.054   0.219   9.207 -0.4796  0.4750 -0.9245
 3985SOL    HW223418   4.071   0.105   9.295  0.6946  1.2299 -0.2627
 3986SOL     OW23419   4.541   0.303   6.072 -0.2362 -0.2025 -0.2860
 3986SOL    HW123420   4.467   0.360   6.094 -0.2388 -0.3250  0.0154
 3986SOL    HW223421   4.591   0.318   6.152  0.0942 -1.3049 -0.2867
 3987SOL     OW23422   0.771   3.337   7.927 -0.1775  0.4695 -0.3880
 3987SOL    HW123423   0.755   3.410   7.867  1.1127 -0.1712 -1.5170
 3987SOL    HW223424   0.784   3.382   8.010  0.5604 -0.4432 -0.0155
 3988SOL     OW23425   3.413   3.163   4.309  0.4226 -0.1031 -0.1255
 3988SOL    HW123426   3.460   3.168   4.393 -1.7068  0.3728  1.0218
 3988SOL    HW223427   3.386   3.252   4.285  2.7459  0.2776 -1.3935
 3989SOL     OW23428   4.185   2.049   8.901  0.2712  0.1106 -0.4461
 3989SOL    HW123429   4.146   2.128   8.864 -0.7469 -0.7455 -1.1941
 3989SOL    HW223430   4.263   2.077   8.950  0.1065 -0.2674  0.0236
 3990SOL     OW23431   0.738   2.427   7.054  0.0654  0.2084  0.0616
 3990SOL    HW123432   0.775   2.342   7.029 -0.8599 -0.9912  2.6723
 3990SOL    HW223433   0.671   2.451   6.990  1.0761 -0.3966 -1.2291
 3991SOL     OW23434   4.486   4.635   8.033  0.4286  0.3356 -0.1913
 3991SOL    HW123435   4.536   4.558   8.007 -1.2058 -0.6992 -0.2929
 3991SOL    HW223436   4.528   4.710   7.992 -2.1803  1.2842 -1.1304
 3992SOL     OW23437   4.624   2.461  11.200  0.2588 -0.0718 -0.8004
 3992SOL    HW123438   4.601   2.436  11.289 -3.1012  0.1431 -1.6274
 3992SOL    HW223439   4.573   2.539  11.179 -0.0338  0.1745  0.8215
 3993SOL     OW23440   1.604   1.576   3.635 -0.4694 -0.5366 -0.0927
 3993SOL    HW123441   1.558   1.645   3.682  1.4618  1.7410 -1.5511
 3993SOL    HW223442   1.575   1.596   3.546 -0.2617 -0.5216 -0.1562
 3994SOL     OW23443   3.338   3.120   3.127 -0.6362  0.2845  0.4974
 3994SOL    HW123444   3.341   3.026   3.106 -0.8818  0.3270  0.2716
 3994SOL    HW223445   3.244   3.130   3.145 -0.9289  0.4271 -1.1092
 3995SOL     OW23446   2.206   0.738   8.064 -0.3695  0.7542  0.7979
 3995SOL    HW123447   2.242   0.800   8.127 -1.4689  0.2998  1.8817
 3995SOL    HW223448   2.113   0.759   8.064 -0.8507 -1.3679 -0.2451
 3996SOL     OW23449   2.331   0.167   7.908 -0.0134 -0.0030  0.3165
 3996SOL    HW123450   2.263   0.100   7.912 -2.5289  2.5202 -0.4188
 3996SOL    HW223451   2.391   0.128   7.971 -1.0574 -1.4371  0.4266
 3997SOL     OW23452   1.409   3.374   5.016  0.2149 -0.2567  0.0673
 3997SOL    HW123453   1.498   3.390   4.986  0.2299  0.3901  0.4662
 3997SOL    HW223454   1.368   3.325   4.944  0.2801 -0.8399  0.4327
 3998SOL     OW23455   2.980   1.422   6.711  0.1446 -0.1756  0.5117
 3998SOL    HW123456   2.965   1.469   6.793 -4.1998 -2.1577  0.8398
 3998SOL    HW223457   2.988   1.489   6.642 -0.4799 -0.9867 -0.3466
 3999SOL     OW23458   3.112   0.864   3.689 -0.1119 -0.1459  0.6823
 3999SOL    HW123459   3.061   0.790   3.723 -0.5025 -0.6710 -1.0297
 3999SOL    HW223460   3.046   0.925   3.656 -0.3170 -0.3359  0.7402
 4000SOL     OW23461   3.558   1.618  14.725 -0.3796 -0.3660  0.3446
 4000SOL    HW123462   3.614   1.610  14.803 -0.4996 -0.2954  0.4366
 4000SOL    HW223463   3.519   1.532  14.709  1.5223 -0.7669 -2.2178
 4001SOL     OW23464   3.198   2.179   3.077 -0.4937 -0.2766 -0.8610
 4001SOL    HW123465   3.174   2.265   3.043 -0.4533 -0.2677 -0.8666
 4001SOL    HW223466   3.227   2.124   3.004  1.1209  1.0170 -1.1885
 4002SOL     OW23467   4.120   3.549   8.367  0.0996 -0.2958  0.3663
 4002SOL    HW123468   4.031   3.582   8.352  0.7747  0.2406 -2.4128
 4002SOL    HW223469   4.135   3.601   8.446  2.2218 -1.9848  1.0691
 4003SOL     OW23470   1.175   1.680   1.726  0.6635  0.4418 -0.2317
 4003SOL    HW123471   1.089   1.692   1.765  0.5854  1.0367 -0.5826
 4003SOL    HW223472   1.220   1.763   1.743 -0.2919  0.6587  1.2534
 4004SOL     OW23473   1.470   4.399   1.728  0.4054  0.4627  0.1522
 4004SOL    HW123474   1.494   4.355   1.647  0.8805 -0.6848  0.9046
 4004SOL    HW223475   1.482   4.489   1.698  0.0357  1.4251  2.8553
 4005SOL     OW23476   3.395   4.016  15.458 -0.2889  0.1858  0.2055
 4005SOL    HW123477   3.377   3.957  15.385 -0.2253 -0.4631  0.7169
 4005SOL    HW223478   3.316   4.003  15.512  0.6679 -0.0102  1.5525
 4006SOL     OW23479   3.682   4.193   3.054  1.1698  0.6026  0.3503
 4006SOL    HW123480   3.647   4.252   2.987  1.1144  2.6275  2.1664
 4006SOL    HW223481   3.741   4.249   3.105  1.6668  0.3206  0.0871
 4007SOL     OW23482   4.171   1.751   7.977 -0.1516 -0.6334  0.0842
 4007SOL    HW123483   4.202   1.841   7.967 -1.1374 -0.4295 -1.1487
 4007SOL    HW223484   4.186   1.708   7.893  2.1522 -2.3834  1.3790
 4008SOL     OW23485   4.315   0.933   8.129 -0.0500 -0.4019  1.0504
 4008SOL    HW123486   4.305   0.862   8.066  1.0626 -1.5104  2.1104
 4008SOL    HW223487   4.298   1.008   8.073  0.6180 -0.1172  1.2213
 4009SOL     OW23488   3.795   2.490   2.569 -0.0146  0.0225  0.1778
 4009SOL    HW123489   3.836   2.467   2.485  1.3678 -1.2447  1.1836
 4009SOL    HW223490   3.761   2.404   2.596  1.7109 -0.5642  0.4649
 4010SOL     OW23491   2.860   3.454  10.778 -0.3472  0.2020  0.7276
 4010SOL    HW123492   2.792   3.456  10.846  2.7686 -1.0750  3.9031
 4010SOL    HW223493   2.872   3.363  10.750  1.0134  0.4893  0.3575
 4011SOL     OW23494   2.858   1.146   1.619 -0.1580 -0.2470  0.8070
 4011SOL    HW123495   2.831   1.206   1.549 -0.7437 -0.8028  0.5621
 4011SOL    HW223496   2.861   1.198   1.700 -2.1001  1.4018 -0.1876
 4012SOL     OW23497   0.055   0.185  16.723 -0.3556  0.2943  0.0103
 4012SOL    HW123498   4.684   0.159  16.725 -0.4340  0.5267 -0.8008
 4012SOL    HW223499   0.095   0.099  16.736  2.6426  1.9948  2.1803
 4013SOL     OW23500   0.396   0.682   2.300  0.5621 -0.3184  0.6297
 4013SOL    HW123501   0.368   0.661   2.211  0.1215 -0.1317  0.7232
 4013SOL    HW223502   0.429   0.772   2.302 -0.3272 -0.0188  1.9793
 4014SOL     OW23503   3.205   3.437   6.882 -0.5004 -0.4757  0.1664
 4014SOL    HW123504   3.260   3.370   6.842  2.3711  1.7280  0.4900
 4014SOL    HW223505   3.218   3.516   6.830 -0.9869 -1.7177 -1.8594
 4015SOL     OW23506   2.659   2.250  11.968 -0.1304 -0.0094  0.3419
 4015SOL    HW123507   2.715   2.212  11.900 -2.0067 -0.4981 -0.9160
 4015SOL    HW223508   2.664   2.186  12.039 -1.7335  0.6083  1.0117
 4016SOL     OW23509   0.466   0.737   9.610  0.1147 -0.4717 -0.0313
 4016SOL    HW123510   0.422   0.653   9.603  0.5811 -0.6464 -0.8603
 4016SOL    HW223511   0.400   0.791   9.566  1.2807  1.8492  1.0239
 4017SOL     OW23512   4.078   3.916   2.376 -0.0331 -0.2948 -0.2209
 4017SOL    HW123513   4.056   3.862   2.451  0.6789 -0.1627  0.0850
 4017SOL    HW223514   4.009   3.898   2.312  0.1210 -0.5917 -0.3053
 4018SOL     OW23515   1.068   3.555   8.040 -0.4498  0.5693  0.0137
 4018SOL    HW123516   1.139   3.493   8.054 -0.8294 -0.4150 -2.2715
 4018SOL    HW223517   0.998   3.519   8.095 -1.1701 -1.5035 -2.2329
 4019SOL     OW23518   0.063   2.247   5.055  0.2923 -0.4384  0.4594
 4019SOL    HW123519   0.106   2.189   5.117 -1.4949 -0.9628  1.2230
 4019SOL    HW223520   0.120   2.243   4.978  1.0492 -1.5775  1.0777
 4020SOL     OW23521   2.977   1.386   2.804 -0.0708  0.5549 -0.3689
 4020SOL    HW123522   2.882   1.378   2.799 -0.1086  1.1607 -0.7543
 4020SOL    HW223523   2.987   1.481   2.811 -1.3204  0.7059 -0.7587
 4021SOL     OW23524   1.354   4.338   3.862  0.0187 -0.1148  0.0163
 4021SOL    HW123525   1.368   4.392   3.785 -0.7717 -0.0642 -0.0919
 4021SOL    HW223526   1.259   4.332   3.867 -0.0832 -1.5600 -3.4506
 4022SOL     OW23527   1.910   2.940   4.874  0.5988 -0.2747 -0.6385
 4022SOL    HW123528   1.894   2.916   4.965 -0.8937 -0.0702 -0.8426
 4022SOL    HW223529   1.952   2.860   4.843  2.2529  0.4163 -0.1476
 4023SOL     OW23530   2.500   2.746   1.581  0.1409  0.4358 -0.1095
 4023SOL    HW123531   2.542   2.667   1.614 -0.8116  0.0394  0.1621
 4023SOL    HW223532   2.452   2.714   1.504  3.4911  0.0016 -2.0089
 4024SOL     OW23533   4.654   1.766   9.871  0.3358  0.6042 -0.0302
 4024SOL    HW123534   4.721   1.755   9.939  2.5834  3.2084 -1.8552
 4024SOL    HW223535   4.595   1.691   9.880  0.9218  0.2994  1.2254
 4025SOL     OW23536   3.172   3.144   2.289  0.0753  0.5333  0.2833
 4025SOL    HW123537   3.216   3.113   2.210 -1.2646 -2.7776  0.8281
 4025SOL    HW223538   3.247   3.161   2.346 -0.7290  1.1080  1.1671
 4026SOL     OW23539   0.200   3.008   2.143 -0.2432 -0.3067  0.2045
 4026SOL    HW123540   0.271   3.072   2.136  0.0668 -0.8088 -1.1279
 4026SOL    HW223541   0.219   2.957   2.064  0.4107  2.0884 -1.1821
 4027SOL     OW23542   3.506   0.611   1.656  0.5847  0.1506  0.3008
 4027SOL    HW123543   3.435   0.672   1.638  0.0118 -0.8832 -0.9502
 4027SOL    HW223544   3.566   0.636   1.585  0.5381  0.3324  0.3276
 4028SOL     OW23545   3.508   0.937   6.990  0.5957 -0.4399  0.3944
 4028SOL    HW123546   3.438   0.927   7.054 -0.0901  1.6467 -0.0266
 4028SOL    HW223547   3.580   0.896   7.038  0.8896  0.1979  0.4988
 4029SOL     OW23548   2.693   1.124  11.491 -0.4353 -0.0158 -0.2357
 4029SOL    HW123549   2.691   1.028  11.493  2.1205 -0.0590  0.2817
 4029SOL    HW223550   2.733   1.135  11.405 -1.5053 -1.1152 -0.8591
 4030SOL     OW23551   0.407   1.820  16.547  0.3492  0.1676  0.1269
 4030SOL    HW123552   0.315   1.796  16.531  0.5585 -0.1136 -0.6405
 4030SOL    HW223553   0.462   1.748  16.517 -0.1719  0.4208 -1.4660
 4031SOL     OW23554   1.345   2.757   4.165 -0.0578 -0.3614  0.2009
 4031SOL    HW123555   1.377   2.767   4.076  0.1124  0.2532  0.3314
 4031SOL    HW223556   1.366   2.665   4.177  1.9475  0.0409 -0.2445
 4032SOL     OW23557   3.944   0.260  13.323  0.2738  0.3116 -0.3389
 4032SOL    HW123558   3.885   0.197  13.282  0.4368  1.2168 -1.9767
 4032SOL    HW223559   4.007   0.204  13.367 -1.2828 -1.2342 -0.0551
 4033SOL     OW23560   0.120   1.763   2.510 -0.4071  0.0377 -0.6548
 4033SOL    HW123561   0.083   1.732   2.593  1.5152  3.1015  1.3536
 4033SOL    HW223562   0.042   1.792   2.464 -0.5930  1.1968  0.4070
 4034SOL     OW23563   1.241   1.657   2.834 -0.0566 -0.2531 -0.3584
 4034SOL    HW123564   1.227   1.750   2.854  0.3552  0.3506 -2.9018
 4034SOL    HW223565   1.269   1.635   2.923 -1.8114 -2.0457 -0.2684
 4035SOL     OW23566   3.495   1.939  16.825 -0.0987 -1.2569 -0.5413
 4035SOL    HW123567   3.502   1.849  16.857 -0.5609 -0.5837  1.4485
 4035SOL    HW223568   3.418   1.944  16.769  0.8971 -0.0189 -1.7991
 4036SOL     OW23569   3.911   1.423   8.348 -0.2768 -0.2631  0.5838
 4036SOL    HW123570   3.874   1.510   8.362  0.6744 -0.0110  1.4897
 4036SOL    HW223571   3.853   1.395   8.277  1.4668 -1.2553 -0.4618
 4037SOL     OW23572   4.699   2.209   3.682 -0.4411 -0.0101 -0.4135
 4037SOL    HW123573   4.627   2.174   3.629 -1.4766 -1.9670  2.3441
 4037SOL    HW223574   4.689   2.165   3.766 -0.2763  2.4836  0.9207
 4038SOL     OW23575   3.499   0.479   7.112 -0.0084 -0.5511 -0.3046
 4038SOL    HW123576   3.412   0.473   7.153  0.2566  2.3921  0.7387
 4038SOL    HW223577   3.506   0.391   7.074 -0.2476 -0.0425 -1.5392
 4039SOL     OW23578   2.565   2.602   5.034 -0.1793 -0.3969  0.4775
 4039SOL    HW123579   2.611   2.646   5.105  1.2372 -2.7310  1.0045
 4039SOL    HW223580   2.479   2.583   5.071 -0.3048 -1.8475 -0.5451
 4040SOL     OW23581   3.039   2.079  10.413  0.1835  0.0888 -0.4437
 4040SOL    HW123582   3.075   2.012  10.470  1.2034  1.6074  0.6823
 4040SOL    HW223583   3.071   2.159  10.455 -3.5148  1.3762 -0.0844
 4041SOL     OW23584   0.653   4.710   7.440 -0.1504 -0.1469  0.8111
 4041SOL    HW123585   0.697   0.012   7.358  1.6266  2.6961  2.5885
 4041SOL    HW223586   0.694   4.627   7.462  0.2358 -0.8098 -2.4453
 4042SOL     OW23587   4.305   0.660   5.306 -0.4463 -0.1189  0.0665
 4042SOL    HW123588   4.386   0.644   5.259  0.3389 -1.0992  1.7446
 4042SOL    HW223589   4.237   0.644   5.240 -0.3958  1.2622 -0.3113
 4043SOL     OW23590   3.228   4.540  11.677  0.3669  0.3122  0.3739
 4043SOL    HW123591   3.133   4.532  11.686  0.4655 -0.2442  0.9264
 4043SOL    HW223592   3.221   4.604  11.607  2.5105 -1.1807 -1.2203
 4044SOL     OW23593   2.786   4.634   0.470  0.4657  0.5215  0.3193
 4044SOL    HW123594   2.763   4.718   0.508 -0.6372  1.0395 -1.4777
 4044SOL    HW223595   2.881   4.630   0.474  0.5467  0.7673 -1.0559
 4045SOL     OW23596   2.581   3.342   2.604  0.3133 -0.2946  0.4928
 4045SOL    HW123597   2.486   3.354   2.609  0.5929  2.7132 -1.1998
 4045SOL    HW223598   2.612   3.428   2.633  2.4162 -1.8261  2.7092
 4046SOL     OW23599   1.863   0.633  16.710  0.3204 -0.4718 -0.0624
 4046SOL    HW123600   1.878   0.703  16.647  0.3366 -0.2852  0.1491
 4046SOL    HW223601   1.875   0.552  16.660 -0.0023 -1.0142  0.7326
 4047SOL     OW23602   4.711   2.078   7.238  0.3219  0.5676 -0.5276
 4047SOL    HW123603   4.617   2.061   7.244  0.9470 -2.8031 -0.2681
 4047SOL    HW223604   0.017   2.078   7.330 -0.0650 -3.1075 -0.4279
 4048SOL     OW23605   3.078   1.140   2.489  0.6101 -0.6803  0.5877
 4048SOL    HW123606   2.995   1.099   2.464  0.1088  0.7261 -0.0746
 4048SOL    HW223607   3.123   1.071   2.538 -1.4997 -1.4713  1.4323
 4049SOL     OW23608   0.629   4.389  16.654  0.3848  0.5501  0.0907
 4049SOL    HW123609   0.666   4.387  16.566 -0.6028  1.1159 -0.3377
 4049SOL    HW223610   0.583   4.306  16.654  1.3575  0.0166 -1.1423
 4050SOL     OW23611   2.260   1.230   6.200 -0.4071  0.5552 -0.0515
 4050SOL    HW123612   2.323   1.197   6.137  0.1944  3.1486 -0.7975
 4050SOL    HW223613   2.211   1.286   6.140 -0.8672 -0.3132 -0.4855
 4051SOL     OW23614   3.420   4.366   4.872  0.0566  0.2642  0.0598
 4051SOL    HW123615   3.422   4.371   4.777 -0.7086  1.3479  0.1071
 4051SOL    HW223616   3.401   4.455   4.901 -0.8110 -0.0640  0.5025
 4052SOL     OW23617   2.017   0.186   2.831 -0.1140  0.5893  0.0961
 4052SOL    HW123618   1.955   0.121   2.797  0.2951  0.1699  0.1469
 4052SOL    HW223619   1.954   0.246   2.870 -0.0191  0.2364  0.7990
 4053SOL     OW23620   2.390   3.373   7.154  0.3468  0.0684 -0.6995
 4053SOL    HW123621   2.410   3.281   7.174 -1.5680 -0.6869 -2.2324
 4053SOL    HW223622   2.473   3.406   7.189  0.7001 -0.4769 -1.0255
 4054SOL     OW23623   1.754   3.222   3.100  0.2910 -0.6342  0.3831
 4054SOL    HW123624   1.668   3.240   3.136 -0.6453 -0.6362 -1.8623
 4054SOL    HW223625   1.808   3.235   3.178  0.8250 -0.4669 -0.0144
 4055SOL     OW23626   0.231   1.316   2.556 -0.6002  0.3398 -0.4457
 4055SOL    HW123627   0.272   1.231   2.544 -0.2255  0.5109 -0.3900
 4055SOL    HW223628   0.137   1.299   2.544 -0.4525  0.6430 -2.0055
 4056SOL     OW23629   0.165   3.723   0.360 -0.1373 -0.6688 -0.4924
 4056SOL    HW123630   0.238   3.661   0.353 -1.1628 -1.9538  0.3875
 4056SOL    HW223631   0.178   3.741   0.453  4.1934 -0.2929 -1.1591
 4057SOL     OW23632   3.574   1.433   5.311 -0.3743 -0.7264 -0.0397
 4057SOL    HW123633   3.663   1.460   5.290 -1.3309  1.2674 -1.5211
 4057SOL    HW223634   3.525   1.495   5.257  0.8248  0.4385  0.1977
 4058SOL     OW23635   0.240   3.818   3.207  0.5191  0.5272  0.5437
 4058SOL    HW123636   0.204   3.827   3.295 -0.6794 -1.2611  0.2191
 4058SOL    HW223637   0.333   3.839   3.216  1.7431 -4.1580 -1.5335
 4059SOL     OW23638   1.460   4.631   7.665 -0.1235  0.0292 -0.5587
 4059SOL    HW123639   1.427   4.705   7.717  1.3643  0.5517 -0.3520
 4059SOL    HW223640   1.380   4.592   7.631 -0.2728 -1.1135  1.0836
 4060SOL     OW23641   2.060   2.206   3.312 -0.3383  0.8734 -0.7189
 4060SOL    HW123642   2.082   2.296   3.336 -1.4911  1.4165 -1.6827
 4060SOL    HW223643   2.110   2.195   3.231  0.8599 -1.7699  0.3825
 4061SOL     OW23644   0.021   2.053  17.539 -0.5166 -0.2277  0.4580
 4061SOL    HW123645   4.721   2.117  17.472  0.9784  0.0992  0.2941
 4061SOL    HW223646   0.114   2.075  17.547 -0.2912 -0.8295 -0.5362
 4062SOL     OW23647   1.489   3.831  11.513 -0.0293 -0.2019 -0.2738
 4062SOL    HW123648   1.541   3.876  11.580 -1.2506 -0.9391  1.1728
 4062SOL    HW223649   1.443   3.907  11.478  2.8397  1.7472  0.2357
 4063SOL     OW23650   2.239   1.368   8.678  0.2839  0.3625  0.2443
 4063SOL    HW123651   2.225   1.370   8.773  1.0798  0.0079  0.3758
 4063SOL    HW223652   2.156   1.327   8.654 -0.2174  1.3469  0.3313
 4064SOL     OW23653   1.175   3.644   3.341 -0.0492  0.3050  0.7879
 4064SOL    HW123654   1.155   3.565   3.391  2.0086 -0.8836 -0.2532
 4064SOL    HW223655   1.087   3.662   3.309  0.1203  0.0760  0.1761
 4065SOL     OW23656   0.186   4.654  10.773 -0.3416 -0.1987  0.2442
 4065SOL    HW123657   0.208   0.020  10.741  1.3725 -1.0896 -1.0340
 4065SOL    HW223658   0.133   4.621  10.700 -0.1542 -0.7160  0.3407
 4066SOL     OW23659   2.032   2.363   6.618 -0.3636 -0.1420  0.5340
 4066SOL    HW123660   2.112   2.382   6.668 -0.7107 -0.9649  1.4141
 4066SOL    HW223661   1.984   2.323   6.691 -1.4566  1.0909  0.4770
 4067SOL     OW23662   0.246   1.480   8.369 -0.7129  0.2004 -0.5145
 4067SOL    HW123663   0.259   1.404   8.426  1.9895  1.6851  0.8735
 4067SOL    HW223664   0.258   1.550   8.433  0.1955  0.6103 -1.1343
 4068SOL     OW23665   2.011   1.201  10.261 -0.4772  0.9292 -0.0418
 4068SOL    HW123666   2.062   1.208  10.341  2.7327 -0.2622 -1.9839
 4068SOL    HW223667   2.064   1.134  10.218  1.5646  2.2328  0.4667
 4069SOL     OW23668   4.146   0.316   9.782  0.0381 -0.6280  0.9989
 4069SOL    HW123669   4.200   0.249   9.739  0.6589 -0.5070  1.5953
 4069SOL    HW223670   4.213   0.358   9.836 -0.0024 -0.2451  0.7520
 4070SOL     OW23671   3.748   3.920   3.729  0.1701 -0.5177  0.6335
 4070SOL    HW123672   3.812   3.937   3.660 -0.9658  1.8966  0.1983
 4070SOL    HW223673   3.665   3.959   3.703 -0.3754 -2.0155  0.1267
 4071SOL     OW23674   4.586   0.053   9.716  0.7415 -0.4562  0.2412
 4071SOL    HW123675   4.578   4.682   9.740 -1.1754 -1.2211 -3.3908
 4071SOL    HW223676   4.571   0.054   9.622 -2.9461 -0.3290  0.8415
 4072SOL     OW23677   3.726   4.225   2.637 -0.0917 -0.2581 -0.1490
 4072SOL    HW123678   3.754   4.157   2.698 -0.1468  1.1217  1.4149
 4072SOL    HW223679   3.637   4.237   2.672 -0.1357  2.3365 -1.2085
 4073SOL     OW23680   1.629   4.229   8.363  0.3244  0.5770  0.5255
 4073SOL    HW123681   1.625   4.162   8.294  1.3220  1.0934 -0.0361
 4073SOL    HW223682   1.537   4.250   8.378  0.5798  1.8987  0.1990
 4074SOL     OW23683   0.473   1.173   3.908 -0.7743  0.6228 -0.9642
 4074SOL    HW123684   0.429   1.135   3.832  0.0127  0.0104 -1.1057
 4074SOL    HW223685   0.510   1.092   3.942 -0.9855  0.9446  0.0382
 4075SOL     OW23686   1.282   4.278  15.259  0.5505 -0.5915 -0.1853
 4075SOL    HW123687   1.356   4.218  15.253 -0.2471 -1.3538 -2.4419
 4075SOL    HW223688   1.213   4.225  15.219  1.4354  0.9092 -3.6569
 4076SOL     OW23689   0.868   1.151   3.641 -0.3730  0.5555 -0.3809
 4076SOL    HW123690   0.852   1.191   3.556  0.4884 -1.7147 -1.5917
 4076SOL    HW223691   0.791   1.094   3.638 -0.4183  0.5911  0.0986
 4077SOL     OW23692   1.593   3.488   3.179  0.1281 -0.6290  0.6801
 4077SOL    HW123693   1.572   3.418   3.241 -0.2460 -1.1170 -0.0007
 4077SOL    HW223694   1.530   3.465   3.111 -1.6094 -0.5941  2.2820
 4078SOL     OW23695   0.346   1.443   6.271  0.1569  0.2690 -0.5745
 4078SOL    HW123696   0.296   1.361   6.266 -2.2680  1.9098 -3.2491
 4078SOL    HW223697   0.431   1.413   6.304 -1.0961 -0.4395  2.0027
 4079SOL     OW23698   1.221   4.443   4.552 -0.0143  0.6010  0.4484
 4079SOL    HW123699   1.135   4.402   4.540 -0.5401  1.5154  1.1012
 4079SOL    HW223700   1.199   4.535   4.567  1.1018  1.4183 -2.8612
 4080SOL     OW23701   0.737   0.305   6.808  0.4288  0.5492  0.0839
 4080SOL    HW123702   0.647   0.333   6.793  0.0687 -0.4557  0.3849
 4080SOL    HW223703   0.762   0.271   6.722  0.2416  0.7349 -0.0440
 4081SOL     OW23704   3.322   4.075   5.520 -0.0215  0.0623  0.3362
 4081SOL    HW123705   3.331   3.988   5.481 -1.1928  0.5369 -0.9813
 4081SOL    HW223706   3.315   4.063   5.615 -0.3683 -0.7124  0.2100
 4082SOL     OW23707   1.622   2.000  11.075 -0.2391 -0.7389  0.1235
 4082SOL    HW123708   1.681   1.971  11.144  0.0781  1.4767  0.7897
 4082SOL    HW223709   1.683   2.058  11.030  2.9160 -3.4681  0.8810
 4083SOL     OW23710   2.463   4.413  14.535 -0.7848 -0.4687 -0.2352
 4083SOL    HW123711   2.388   4.468  14.557  0.9638  1.6790  0.3818
 4083SOL    HW223712   2.451   4.333  14.585 -0.7909  0.2399  0.9080
 4084SOL     OW23713   3.822   0.415  14.799  0.3920 -0.5809 -0.1386
 4084SOL    HW123714   3.734   0.445  14.779  1.0167 -0.3699 -2.5540
 4084SOL    HW223715   3.816   0.333  14.752  0.9009 -0.0082 -1.2022
 4085SOL     OW23716   3.801   2.479   7.724  0.0938 -0.5948 -0.3077
 4085SOL    HW123717   3.777   2.526   7.644 -0.4112  0.8644  0.6974
 4085SOL    HW223718   3.883   2.444   7.690 -0.2663 -0.8338 -0.9223
 4086SOL     OW23719   4.527   1.957   2.117  0.1217 -0.3262  0.6237
 4086SOL    HW123720   4.467   2.029   2.098  0.5254 -0.1172  0.1504
 4086SOL    HW223721   4.610   2.003   2.125  1.0548 -1.7475 -0.9699
 4087SOL     OW23722   2.519   2.135  17.571 -0.0463 -0.1774  0.3205
 4087SOL    HW123723   2.513   2.114  17.477  1.2208  1.2404 -0.0906
 4087SOL    HW223724   2.435   2.097  17.598 -0.1338  0.3418  0.7721
 4088SOL     OW23725   0.681   4.064   8.806 -0.4040 -0.0599 -0.5038
 4088SOL    HW123726   0.585   4.062   8.803 -0.4254 -2.3305  0.8821
 4088SOL    HW223727   0.711   4.062   8.716 -0.3375  1.6291 -0.5079
 4089SOL     OW23728   0.471   4.411   4.569  0.1491  0.3560  0.5243
 4089SOL    HW123729   0.502   4.371   4.650 -0.9900  2.0724  1.8183
 4089SOL    HW223730   0.477   4.505   4.588 -0.2340  0.1553  1.6212
 4090SOL     OW23731   1.847   2.413   9.828  0.5498 -0.4853  0.1093
 4090SOL    HW123732   1.915   2.355   9.794  1.2853  0.5959 -0.2763
 4090SOL    HW223733   1.793   2.348   9.872 -1.5867  0.2666 -1.4359
 4091SOL     OW23734   3.668   3.672   9.448  0.0460 -0.1462 -0.0358
 4091SOL    HW123735   3.698   3.628   9.527 -0.9233  0.4439  0.6542
 4091SOL    HW223736   3.644   3.595   9.396  1.1278  0.4349 -1.3962
 4092SOL     OW23737   0.620   2.859   8.327 -0.6202  0.1629 -0.2873
 4092SOL    HW123738   0.564   2.782   8.318  1.4069 -1.1758 -1.4383
 4092SOL    HW223739   0.556   2.929   8.340  0.0660  1.0348 -1.5774
 4093SOL     OW23740   2.211   4.292   5.927  0.3998 -0.0685 -0.7849
 4093SOL    HW123741   2.206   4.217   5.986  0.6802 -0.3997 -1.1746
 4093SOL    HW223742   2.247   4.359   5.984 -0.4937 -0.4641  0.2460
 4094SOL     OW23743   3.086   1.231   4.079 -0.1578  0.2422 -0.0408
 4094SOL    HW123744   3.089   1.224   3.983 -0.5499 -1.2341  0.0677
 4094SOL    HW223745   3.123   1.317   4.100 -1.7649  0.8079  0.4591
 4095SOL     OW23746   1.284   3.980   3.669 -0.3971 -0.0782  0.2068
 4095SOL    HW123747   1.319   3.892   3.659  0.6634  0.1410  1.8436
 4095SOL    HW223748   1.312   4.003   3.758  0.7065 -0.4475 -0.0381
 4096SOL     OW23749   0.466   0.045  13.073  0.5666  0.5452 -0.9094
 4096SOL    HW123750   0.447   4.676  13.046  0.7150  0.0930  0.4874
 4096SOL    HW223751   0.406   0.074  13.142  0.9070  2.8190 -1.5749
 4097SOL     OW23752   1.555   2.024  10.745  0.1432 -0.1211  0.1355
 4097SOL    HW123753   1.644   2.020  10.782  0.2539  1.5084  0.0513
 4097SOL    HW223754   1.529   1.932  10.736 -0.8727  0.1462  0.3641
 4098SOL     OW23755   4.435   1.674  13.633 -0.1262  0.0023  0.4155
 4098SOL    HW123756   4.362   1.736  13.645  0.3086  0.8768 -1.3728
 4098SOL    HW223757   4.500   1.728  13.588 -0.0929 -0.7665 -0.4622
 4099SOL     OW23758   4.231   0.381   9.509 -0.6088 -0.7189  0.2525
 4099SOL    HW123759   4.145   0.339   9.502 -0.2323 -1.3746 -0.4073
 4099SOL    HW223760   4.228   0.458   9.453 -2.5993 -0.2802  0.9444
 4100SOL     OW23761   1.459   0.902  14.780  0.2446  0.3839 -1.1144
 4100SOL    HW123762   1.473   0.924  14.688 -1.6622  1.2263 -1.2030
 4100SOL    HW223763   1.546   0.896  14.817  0.5120 -1.5777 -2.0274
 4101SOL     OW23764   2.727   0.681  14.614  0.0049 -0.4287 -0.0092
 4101SOL    HW123765   2.780   0.654  14.539  0.3384  0.6398 -0.1673
 4101SOL    HW223766   2.704   0.598  14.655  0.2847 -0.7603 -0.5274
 4102SOL     OW23767   2.463   4.673   2.980  0.0657 -0.1657  0.3447
 4102SOL    HW123768   2.419   0.017   2.927 -0.0281 -0.1647  0.4238
 4102SOL    HW223769   2.513   0.016   3.031 -0.4835 -0.5216  1.3329
 4103SOL     OW23770   2.356   1.520   2.883 -0.4424 -0.3010 -0.4400
 4103SOL    HW123771   2.273   1.486   2.852 -1.0728  1.8805 -1.1719
 4103SOL    HW223772   2.406   1.540   2.804  0.2046  1.5452  0.4190
 4104SOL     OW23773   0.906   1.325   1.962  0.0317  0.2408 -0.1570
 4104SOL    HW123774   0.967   1.288   1.898 -0.9241 -0.5552 -0.6069
 4104SOL    HW223775   0.970   1.324   2.033  1.2289 -2.3380 -1.2592
 4105SOL     OW23776   2.126   2.254   0.629  0.1393  0.0149 -0.7983
 4105SOL    HW123777   2.210   2.211   0.615  0.0455 -0.5817  0.4596
 4105SOL    HW223778   2.131   2.325   0.565  0.5811  1.2573  0.6213
 4106SOL     OW23779   0.575   4.314   0.391 -0.1481  0.2402 -0.1118
 4106SOL    HW123780   0.526   4.259   0.331  0.8009  1.2143 -1.7831
 4106SOL    HW223781   0.606   4.250   0.454 -0.1318  0.7594  0.4113
 4107SOL     OW23782   3.599   2.161   7.699  0.5812  0.3881 -0.6960
 4107SOL    HW123783   3.590   2.135   7.791  1.8105  0.6145 -0.5089
 4107SOL    HW223784   3.570   2.250   7.683  0.1068  0.5200  0.9219
 4108SOL     OW23785   2.940   1.089   3.614  0.4415 -0.6352 -0.0496
 4108SOL    HW123786   2.887   1.135   3.549  1.6046  1.4143  0.4339
 4108SOL    HW223787   2.883   1.085   3.691  3.0974 -3.8834  1.7169
 4109SOL     OW23788   1.424   3.377  11.983 -0.5436  0.6611 -0.5037
 4109SOL    HW123789   1.516   3.405  11.988  0.4246 -2.6366 -0.1336
 4109SOL    HW223790   1.428   3.302  11.924  0.8169  0.0323  0.3831
 4110SOL     OW23791   3.928   4.464   4.486 -0.1365 -0.0440  0.1552
 4110SOL    HW123792   3.988   4.490   4.556  0.1167  1.2477 -0.5318
 4110SOL    HW223793   3.843   4.470   4.528  0.3220 -1.1762  1.2312
 4111SOL     OW23794   1.535   2.919   3.762  0.1888 -0.0894  0.2485
 4111SOL    HW123795   1.521   2.943   3.670  0.7769 -0.0712  0.1604
 4111SOL    HW223796   1.482   2.989   3.799 -0.1163  0.1563 -0.6526
 4112SOL     OW23797   2.422   0.787   4.282  0.0190  0.4186 -0.2287
 4112SOL    HW123798   2.363   0.854   4.247  0.5729  1.0544  0.0447
 4112SOL    HW223799   2.490   0.844   4.318  1.4801 -0.6078 -1.3753
 4113SOL     OW23800   1.697   0.319  14.258 -0.5574 -0.5775 -0.2897
 4113SOL    HW123801   1.691   0.387  14.190  1.7145  1.0655  1.1735
 4113SOL    HW223802   1.647   0.251  14.212 -1.2671 -0.7275  0.7020
 4114SOL     OW23803   3.948   2.518   4.185 -0.0154 -0.5068 -0.2835
 4114SOL    HW123804   3.899   2.543   4.106  0.7088  0.6916 -0.3509
 4114SOL    HW223805   4.001   2.451   4.142  1.6946  2.2169 -2.4256
 4115SOL     OW23806   2.819   4.407  10.991 -0.0044  0.5600 -0.3273
 4115SOL    HW123807   2.866   4.327  11.017 -0.1354  1.1798  1.8122
 4115SOL    HW223808   2.770   4.415  11.073 -0.9803  2.7479 -1.1286
 4116SOL     OW23809   1.603   2.957   1.155 -0.4305 -0.5401 -0.4268
 4116SOL    HW123810   1.651   3.039   1.143  0.9408 -1.3477 -0.4518
 4116SOL    HW223811   1.656   2.910   1.091  2.6336  0.9100  1.0359
 4117SOL     OW23812   3.982   4.536   1.868  0.3288 -0.4446  0.3329
 4117SOL    HW123813   3.975   4.581   1.783  1.4433 -1.7788 -0.4631
 4117SOL    HW223814   3.927   4.591   1.924 -0.2089 -0.8096  0.1666
 4118SOL     OW23815   1.616   2.029   0.534 -0.1144  0.0814  0.0101
 4118SOL    HW123816   1.695   2.079   0.554  0.2228 -0.3308 -0.2810
 4118SOL    HW223817   1.618   2.032   0.439 -3.1706  0.2092 -0.0377
 4119SOL     OW23818   4.347   2.989   5.971  0.2425 -0.0150  0.3217
 4119SOL    HW123819   4.416   2.988   6.036  1.3223  1.1135 -0.7929
 4119SOL    HW223820   4.282   3.042   6.018 -0.6484  0.5747 -1.5613
 4120SOL     OW23821   2.798   0.241   5.437 -0.0127  0.0619 -0.9249
 4120SOL    HW123822   2.855   0.317   5.432  0.9859 -0.5423  1.2804
 4120SOL    HW223823   2.778   0.220   5.346 -3.1744 -1.2253  0.0723
 4121SOL     OW23824   3.818   3.653   6.507 -0.0719 -0.1966 -0.7770
 4121SOL    HW123825   3.874   3.591   6.461  0.1592  0.2581 -1.1100
 4121SOL    HW223826   3.781   3.703   6.434 -0.8401 -1.2620 -1.1186
 4122SOL     OW23827   2.865   1.066   9.415 -0.3648  0.6292  0.0885
 4122SOL    HW123828   2.795   1.117   9.456  0.7106  0.4056  2.1990
 4122SOL    HW223829   2.815   1.021   9.348 -1.1431 -0.6956  1.5507
 4123SOL     OW23830   1.802   4.096   9.931 -0.1478  0.1388 -0.4120
 4123SOL    HW123831   1.720   4.091   9.883  0.3809 -1.6276 -1.1285
 4123SOL    HW223832   1.760   4.097  10.017  1.9034  2.4040  0.5922
 4124SOL     OW23833   2.715   4.320   4.749 -0.1678  0.0118  0.1742
 4124SOL    HW123834   2.751   4.377   4.680  0.2191  1.0489  1.2284
 4124SOL    HW223835   2.713   4.382   4.822 -2.0976 -0.0561  0.1730
 4125SOL     OW23836   1.038   3.062  15.306 -0.3352  0.2386  0.5477
 4125SOL    HW123837   1.120   3.100  15.336  0.5328 -0.4565 -0.9580
 4125SOL    HW223838   1.058   2.969  15.295  1.4342  0.6054  0.7626
 4126SOL     OW23839   1.886   0.061   7.615 -0.7492  0.0288  0.0762
 4126SOL    HW123840   1.944   0.001   7.568  2.0915  1.8489  1.2710
 4126SOL    HW223841   1.940   0.139   7.605  0.2189 -0.6766 -0.1958
 4127SOL     OW23842   0.590   1.986  14.514  0.0130  0.0588  0.1474
 4127SOL    HW123843   0.651   2.050  14.478  0.6531  1.0884  3.0405
 4127SOL    HW223844   0.643   1.907  14.525  0.5392  0.4089  0.1109
 4128SOL     OW23845   0.053   4.254   6.446  0.2376 -0.3658 -0.6130
 4128SOL    HW123846   0.071   4.347   6.440  3.7088 -1.0150 -0.2964
 4128SOL    HW223847   0.109   4.229   6.520  2.4149 -0.8560 -2.4116
 4129SOL     OW23848   0.880   1.138   3.919  0.0947  0.2141  0.3196
 4129SOL    HW123849   0.918   1.065   3.967  0.7464 -0.6927 -1.5962
 4129SOL    HW223850   0.846   1.095   3.841 -0.7436  0.7688  0.3777
 4130SOL     OW23851   2.421   1.210   3.868 -0.0251 -0.2322 -0.4244
 4130SOL    HW123852   2.392   1.300   3.883 -0.1824 -0.7796  2.5938
 4130SOL    HW223853   2.459   1.197   3.955 -0.3468 -1.4032 -0.4545
 4131SOL     OW23854   1.783   3.162   6.538  0.6956  0.2110  0.8669
 4131SOL    HW123855   1.837   3.227   6.584  1.4003 -0.2257  0.6643
 4131SOL    HW223856   1.841   3.146   6.464 -0.5184  1.0562 -0.2510
 4132SOL     OW23857   1.267   1.683   3.553  0.3063  0.2851 -0.2091
 4132SOL    HW123858   1.185   1.649   3.588 -0.7203  0.4493 -2.4347
 4132SOL    HW223859   1.308   1.740   3.617  0.2414 -0.3745  0.4177
 4133SOL     OW23860   1.954   2.761   4.410 -0.3286 -0.3219 -0.0747
 4133SOL    HW123861   1.973   2.847   4.373 -3.6135  0.4978  0.1209
 4133SOL    HW223862   2.018   2.768   4.481  1.6731 -2.3290 -1.6641
 4134SOL     OW23863   4.601   0.423   7.044  1.2639 -0.1742 -0.3217
 4134SOL    HW123864   4.678   0.389   7.090 -0.0802 -1.0909  1.2389
 4134SOL    HW223865   4.554   0.470   7.113  1.2847  0.3375 -0.6476
 4135SOL     OW23866   1.265   3.657   5.905  0.2817  0.0863 -0.2131
 4135SOL    HW123867   1.325   3.596   5.862 -1.8795 -1.6939 -0.6310
 4135SOL    HW223868   1.271   3.624   5.994 -2.4757  1.4960  0.4991
 4136SOL     OW23869   0.549   1.031   4.236  0.6595 -0.0007 -0.5994
 4136SOL    HW123870   0.532   1.006   4.145 -1.2361 -0.2501 -0.1862
 4136SOL    HW223871   0.459   1.034   4.271 -0.1824  0.4463 -2.7992
 4137SOL     OW23872   4.189   1.532   2.728 -0.0227  0.9094  0.5889
 4137SOL    HW123873   4.101   1.547   2.762  0.1677 -0.7423  1.8236
 4137SOL    HW223874   4.177   1.503   2.637  0.7959 -0.0040  0.7723
 4138SOL     OW23875   3.620   0.660   9.038 -0.2195  0.3198 -0.4509
 4138SOL    HW123876   3.707   0.621   9.032  0.0726  1.3893 -3.1830
 4138SOL    HW223877   3.566   0.602   9.091 -0.1393 -0.3042 -1.0538
 4139SOL     OW23878   2.405   1.501   3.843 -0.3251  0.5285  0.2381
 4139SOL    HW123879   2.457   1.500   3.923 -0.2583  3.3434  0.2121
 4139SOL    HW223880   2.437   1.582   3.803  0.8663 -0.0778 -0.0400
 4140SOL     OW23881   1.382   2.092   6.001 -0.1985  0.3706  0.6442
 4140SOL    HW123882   1.446   2.053   5.942 -0.3249  0.6026  0.3525
 4140SOL    HW223883   1.439   2.153   6.049 -0.7955  1.4626 -0.0237
 4141SOL     OW23884   1.272   3.851  11.049 -0.6144 -0.0279  0.6671
 4141SOL    HW123885   1.181   3.835  11.071 -0.2341 -1.5972  1.0794
 4141SOL    HW223886   1.310   3.805  11.124  0.9213 -0.3641 -0.3179
 4142SOL     OW23887   4.529   1.498   0.807  0.0006 -0.3068 -0.2892
 4142SOL    HW123888   4.462   1.431   0.792 -0.4754 -0.2953  1.7910
 4142SOL    HW223889   4.509   1.515   0.899 -0.6728 -2.9021  0.0418
 4143SOL     OW23890   4.301   0.707   4.398 -0.3604 -0.2829  0.0569
 4143SOL    HW123891   4.338   0.770   4.336 -0.3047 -0.4050 -0.0337
 4143SOL    HW223892   4.310   0.626   4.348 -0.4139  1.2710 -2.5088
 4144SOL     OW23893   0.123   1.765   6.811  0.1068  0.1823  0.6024
 4144SOL    HW123894   0.060   1.834   6.833 -0.5720  0.1262 -1.0818
 4144SOL    HW223895   0.130   1.786   6.717 -3.8568 -1.1432 -0.0082
 4145SOL     OW23896   3.552   0.433   5.526  0.2147 -0.4129 -0.5018
 4145SOL    HW123897   3.483   0.493   5.501 -1.4642 -2.8723 -1.8238
 4145SOL    HW223898   3.594   0.490   5.590 -2.7783  1.2123 -0.0161
 4146SOL     OW23899   0.334   1.796   0.128 -0.1519  0.0903  0.8394
 4146SOL    HW123900   0.363   1.827   0.213  2.2194  1.0144 -0.3046
 4146SOL    HW223901   0.296   1.720   0.173 -2.2527 -0.3901 -1.7179
 4147SOL     OW23902   2.806   3.493   6.441 -0.1661  0.0008 -0.4077
 4147SOL    HW123903   2.874   3.560   6.448 -0.0669 -0.3131  1.6087
 4147SOL    HW223904   2.735   3.553   6.418 -1.9494 -0.6706  3.2696
 4148SOL     OW23905   4.281   0.122   6.061  0.8220  0.2392 -0.3357
 4148SOL    HW123906   4.261   0.176   5.984 -0.8111 -0.2867 -0.2712
 4148SOL    HW223907   4.376   0.123   6.047  0.7565 -0.3735 -0.7884
 4149SOL     OW23908   3.489   1.238   1.917  0.0755  0.1295 -0.0634
 4149SOL    HW123909   3.550   1.173   1.883  0.1278 -0.0463  0.3609
 4149SOL    HW223910   3.430   1.182   1.968 -2.3498 -0.7487 -3.8140
 4150SOL     OW23911   1.156   1.746  16.596 -0.6236 -0.4438  0.6708
 4150SOL    HW123912   1.203   1.819  16.556 -3.7322  0.5286 -1.1646
 4150SOL    HW223913   1.116   1.775  16.678  1.1666  2.5203  0.5129
 4151SOL     OW23914   3.342   3.082   3.843 -0.1997 -0.4952  0.1039
 4151SOL    HW123915   3.419   3.098   3.788 -1.0220 -2.3978 -1.6010
 4151SOL    HW223916   3.350   3.160   3.898 -2.0736 -1.1460  1.2757
 4152SOL     OW23917   3.208   2.075   8.285  0.3891 -0.4173 -0.1242
 4152SOL    HW123918   3.151   2.145   8.252 -0.3411 -1.1973 -0.5134
 4152SOL    HW223919   3.141   2.029   8.336 -0.4282  0.3528 -0.5087
 4153SOL     OW23920   3.403   3.963   3.508 -0.6797 -0.4999 -0.2340
 4153SOL    HW123921   3.459   4.007   3.571 -0.3834 -1.2037 -0.0020
 4153SOL    HW223922   3.358   3.900   3.566 -1.5823  0.8355  0.5154
 4154SOL     OW23923   1.324   0.808   2.576 -0.5942 -0.1990  0.4107
 4154SOL    HW123924   1.406   0.800   2.625 -0.4988  0.3211  0.3292
 4154SOL    HW223925   1.341   0.869   2.504  2.1212  0.0972  1.2955
 4155SOL     OW23926   0.588   2.650   2.229  0.0757  0.3611 -0.0880
 4155SOL    HW123927   0.600   2.649   2.134 -1.2311  2.7611 -0.2560
 4155SOL    HW223928   0.659   2.594   2.262  0.0922 -0.5704 -1.7453
 4156SOL     OW23929   3.197   0.864   4.159 -0.3659 -0.3035  0.4739
 4156SOL    HW123930   3.104   0.844   4.147 -0.2389 -1.0483  0.6717
 4156SOL    HW223931   3.231   0.775   4.144 -0.8733 -0.1905 -1.2975
 4157SOL     OW23932   2.653   2.765   3.833  0.4216  0.4148 -0.2731
 4157SOL    HW123933   2.670   2.839   3.775 -1.2924  2.0249  1.2735
 4157SOL    HW223934   2.704   2.778   3.912 -0.5598  0.5378  0.3408
 4158SOL     OW23935   0.622   4.533  14.755 -0.5674  0.2339 -0.4259
 4158SOL    HW123936   0.669   4.458  14.718 -2.4600 -1.8773  1.3816
 4158SOL    HW223937   0.603   4.582  14.675  1.8391  0.1054 -1.0731
 4159SOL     OW23938   1.497   4.313   1.973 -0.1617 -0.4315 -0.8098
 4159SOL    HW123939   1.482   4.334   1.881  1.0297  1.1252 -0.6369
 4159SOL    HW223940   1.592   4.298   1.972 -0.3445 -1.6619 -0.2269
 4160SOL     OW23941   1.531   1.840  12.577  0.7031 -0.2256  0.3240
 4160SOL    HW123942   1.623   1.817  12.568  0.4708  0.0283 -2.9373
 4160SOL    HW223943   1.535   1.933  12.553  0.5361  0.3651  2.6112
 4161SOL     OW23944   2.223   1.550   2.503 -0.2758 -0.3680 -0.0054
 4161SOL    HW123945   2.236   1.645   2.502  0.6556 -0.4957 -0.4838
 4161SOL    HW223946   2.244   1.515   2.416 -0.5839  4.0794 -1.9299
 4162SOL     OW23947   1.897   3.439   6.054  0.1500 -0.4304  0.0266
 4162SOL    HW123948   1.960   3.507   6.080  0.6854 -0.7903 -0.3347
 4162SOL    HW223949   1.960   3.373   6.024 -0.2485  0.2921 -2.3960
 4163SOL     OW23950   1.011   2.763  12.870 -0.1275  0.0260 -0.6446
 4163SOL    HW123951   1.030   2.772  12.963 -1.1576  1.1315 -0.5440
 4163SOL    HW223952   1.012   2.667  12.863  0.4745  0.0136 -0.3908
 4164SOL     OW23953   2.260   0.380   4.272  1.0460 -0.0008  0.8886
 4164SOL    HW123954   2.214   0.435   4.208  1.1920 -3.3235 -2.0802
 4164SOL    HW223955   2.271   0.448   4.338 -0.5970  0.1569  1.0109
 4165SOL     OW23956   2.149   3.398   3.730  0.2776  0.4492 -0.1211
 4165SOL    HW123957   2.054   3.409   3.721  0.3673  1.2799 -0.0750
 4165SOL    HW223958   2.171   3.468   3.791  1.0680  0.0918  0.0017
 4166SOL     OW23959   4.691   2.726  14.095  0.0860  0.1598 -0.0287
 4166SOL    HW123960   0.045   2.671  14.115  0.1094 -0.2205 -1.1408
 4166SOL    HW223961   0.010   2.790  14.038  1.6097 -0.0013  0.8741
 4167SOL     OW23962   2.454   1.287  17.076  0.0466  0.7176  0.0997
 4167SOL    HW123963   2.454   1.361  17.136 -0.0939  1.1265 -0.3980
 4167SOL    HW223964   2.368   1.287  17.034  1.1331  1.4348 -2.1247
 4168SOL     OW23965   3.461   3.991   2.774  0.1249 -0.0438  1.1428
 4168SOL    HW123966   3.509   3.969   2.853  0.4382  0.3798  1.0689
 4168SOL    HW223967   3.478   4.084   2.760  1.8640 -0.5112  0.1034
 4169SOL     OW23968   0.846   1.086   9.348  0.0667  0.1380 -0.2002
 4169SOL    HW123969   0.835   1.181   9.350  1.2357  0.2570  1.2339
 4169SOL    HW223970   0.941   1.076   9.345  0.2805  2.2845 -0.5938
 4170SOL     OW23971   2.677   2.044   4.708  0.4452  0.4269  0.2222
 4170SOL    HW123972   2.620   2.041   4.632  3.0693  1.1167 -1.7512
 4170SOL    HW223973   2.760   2.063   4.665  0.7873  0.0100  0.6895
 4171SOL     OW23974   2.277   3.133   2.549 -0.8046 -0.1657  0.1731
 4171SOL    HW123975   2.342   3.122   2.618 -4.1210 -0.6031  3.2410
 4171SOL    HW223976   2.235   3.047   2.555  0.0861 -0.6194 -0.0569
 4172SOL     OW23977   0.940   2.575  10.107  0.2063  0.8503 -0.3990
 4172SOL    HW123978   0.996   2.630  10.162  2.0501 -1.6144  0.2149
 4172SOL    HW223979   0.889   2.519  10.166  0.4697 -0.8160 -1.7623
 4173SOL     OW23980   3.038   1.979   9.544  0.1890  0.2986 -0.0880
 4173SOL    HW123981   2.969   2.046   9.538 -1.1343 -1.0050  0.6414
 4173SOL    HW223982   3.118   2.020   9.510  0.4431  1.3171  1.7232
 4174SOL     OW23983   3.617   0.999   7.713 -0.0426  0.7174 -0.2576
 4174SOL    HW123984   3.609   1.062   7.784  1.2392 -1.0049  1.4092
 4174SOL    HW223985   3.546   1.028   7.656 -0.8403  2.6103  1.7341
 4175SOL     OW23986   0.523   0.622   4.870  0.4737  0.0815  0.0431
 4175SOL    HW123987   0.609   0.663   4.860  1.0308 -1.2039 -0.5379
 4175SOL    HW223988   0.511   0.648   4.961 -0.4488  0.6232 -0.2395
 4176SOL     OW23989   4.578   3.884  14.142  0.4576 -0.1557  0.5386
 4176SOL    HW123990   4.649   3.943  14.168  1.2019 -1.0481  0.5104
 4176SOL    HW223991   4.525   3.884  14.222  0.7526  2.0425  0.7302
 4177SOL     OW23992   3.914   1.592   4.549 -0.1376  0.2020 -0.5657
 4177SOL    HW123993   3.863   1.657   4.500 -2.9932  0.0172  2.1844
 4177SOL    HW223994   3.924   1.519   4.488  0.7333 -0.1964  0.0561
 4178SOL     OW23995   3.276   1.943   3.708  0.4906 -0.1463  0.0706
 4178SOL    HW123996   3.211   1.892   3.660 -1.0262  0.1652  1.8124
 4178SOL    HW223997   3.264   1.900   3.793 -1.3716 -1.8901 -1.0795
 4179SOL     OW23998   3.925   4.024   5.518 -0.3777  0.4005 -0.0299
 4179SOL    HW123999   3.858   4.048   5.454  0.7457 -1.1170 -1.7596
 4179SOL    HW224000   3.915   4.098   5.578  0.4161  0.2795  0.2580
 4180SOL     OW24001   0.808   1.938   4.337 -0.6125  0.1736 -0.1772
 4180SOL    HW124002   0.827   1.966   4.247  1.5140 -2.5181 -0.5817
 4180SOL    HW224003   0.882   1.980   4.382 -1.5273  1.7361 -0.1253
 4181SOL     OW24004   2.038   1.322  15.136 -0.0069  0.4422 -0.6466
 4181SOL    HW124005   2.092   1.397  15.110  0.5933  0.0195 -0.6297
 4181SOL    HW224006   2.059   1.257  15.069 -1.9154 -2.0472  1.1818
 4182SOL     OW24007   0.894   1.155  12.939  0.1216 -0.4979 -0.3300
 4182SOL    HW124008   0.907   1.164  12.845  0.5560  1.4703 -0.0953
 4182SOL    HW224009   0.972   1.201  12.969 -1.6316  1.5287  1.1856
 4183SOL     OW24010   2.406   0.162   7.504 -0.1354 -0.2369 -0.0931
 4183SOL    HW124011   2.465   0.217   7.453  0.7007  0.6836  1.8702
 4183SOL    HW224012   2.347   0.220   7.552  0.1333 -0.5001  0.5617
 4184SOL     OW24013   2.199   2.294  11.743  0.2141  0.3589 -0.2763
 4184SOL    HW124014   2.215   2.378  11.701 -0.8331  1.5811  1.7922
 4184SOL    HW224015   2.105   2.284  11.733  0.3071 -1.0357  0.2186
 4185SOL     OW24016   1.143   2.265   7.610 -0.0541 -0.3795 -0.1893
 4185SOL    HW124017   1.106   2.306   7.532 -0.5979 -1.7366 -0.6465
 4185SOL    HW224018   1.154   2.176   7.576  1.4349  0.2058 -1.2035
 4186SOL     OW24019   4.528   1.789   4.671 -0.1117  0.3160  0.4643
 4186SOL    HW124020   4.579   1.839   4.735  0.9094 -0.4439  0.2509
 4186SOL    HW224021   4.523   1.848   4.596  2.2587 -0.1654 -0.0916
 4187SOL     OW24022   1.266   4.238   8.749  0.6682  0.1317 -0.8001
 4187SOL    HW124023   1.343   4.198   8.708 -0.3197 -1.9656 -0.5916
 4187SOL    HW224024   1.202   4.167   8.742  0.2748  0.4723 -0.6726
 4188SOL     OW24025   1.090   1.523   4.706 -0.2831 -0.5931 -0.4781
 4188SOL    HW124026   1.030   1.573   4.651  2.0916 -1.0659 -3.5268
 4188SOL    HW224027   1.050   1.538   4.792  0.1881 -3.1944  0.1953
 4189SOL     OW24028   2.243   3.871  17.105  0.1325 -0.3856  0.3651
 4189SOL    HW124029   2.284   3.890  17.189  1.3191  1.3307 -0.6160
 4189SOL    HW224030   2.161   3.828  17.130 -0.2708  0.1391 -0.0409
 4190SOL     OW24031   0.466   2.745   7.988  0.0584  0.0422  0.4801
 4190SOL    HW124032   0.501   2.673   8.039  0.2925 -0.4524 -0.3747
 4190SOL    HW224033   0.533   2.812   8.004 -0.4669  0.2194  1.9553
 4191SOL     OW24034   1.838   4.410  11.279 -0.0990 -0.2222 -0.3459
 4191SOL    HW124035   1.829   4.495  11.323 -0.6701  0.1568 -1.1875
 4191SOL    HW224036   1.791   4.419  11.196 -1.0446 -1.9288 -0.0034
 4192SOL     OW24037   2.340   3.912   1.223  0.3085  0.3577 -0.8492
 4192SOL    HW124038   2.252   3.884   1.250 -0.0419  2.7781  0.5022
 4192SOL    HW224039   2.343   3.899   1.129 -1.7292 -1.0697 -0.7251
 4193SOL     OW24040   1.604   2.322   8.279 -0.6257 -0.6574  0.0270
 4193SOL    HW124041   1.553   2.396   8.244  0.8833 -0.2985 -1.4618
 4193SOL    HW224042   1.534   2.272   8.318 -1.8033  1.2397  0.3643
 4194SOL     OW24043   2.171   2.668  11.331  0.2532 -0.4436 -0.0076
 4194SOL    HW124044   2.229   2.653  11.406  0.4593  0.7678  0.0739
 4194SOL    HW224045   2.188   2.762  11.326 -1.3275 -0.1522  0.1364
 4195SOL     OW24046   0.722   3.237   5.234  0.1998  0.0633 -0.1589
 4195SOL    HW124047   0.798   3.246   5.290 -0.7876  0.8816  1.0573
 4195SOL    HW224048   0.649   3.288   5.269  0.3900  1.2601 -1.5132
 4196SOL     OW24049   3.014   1.759   3.212 -0.1371  0.3680 -0.0534
 4196SOL    HW124050   2.954   1.696   3.251 -1.3300  0.1386 -2.2581
 4196SOL    HW224051   2.960   1.837   3.198  0.4891  1.1428  1.9034
 4197SOL     OW24052   0.632   2.090   7.729 -0.4723  0.1161 -0.5307
 4197SOL    HW124053   0.720   2.070   7.760 -1.6353 -0.9916  2.0056
 4197SOL    HW224054   0.589   2.138   7.799  1.3880  0.3207  0.4685
 4198SOL     OW24055   3.278   2.908  11.165 -0.6481  0.4188 -0.0296
 4198SOL    HW124056   3.317   2.823  11.144  1.8981  1.5664  0.0174
 4198SOL    HW224057   3.360   2.954  11.146 -1.1553  1.4544  0.2989
 4199SOL     OW24058   2.601   2.262   8.071  0.5923  0.2164 -0.2523
 4199SOL    HW124059   2.521   2.219   8.041 -0.4528  1.5048  0.7364
 4199SOL    HW224060   2.606   2.237   8.163 -1.7264  0.7669  0.0309
 4200SOL     OW24061   0.332   0.949  13.601 -0.6388  0.7386  0.2135
 4200SOL    HW124062   0.264   0.886  13.625 -0.8154  1.0872  0.6120
 4200SOL    HW224063   0.320   1.010  13.673  0.1378 -0.1320  1.0713
 4201SOL     OW24064   3.108   3.558   5.077 -0.2131 -0.1208  0.8744
 4201SOL    HW124065   3.142   3.489   5.020  3.0878  1.1762  1.2786
 4201SOL    HW224066   3.041   3.511   5.126 -3.6005  2.4414 -1.2131
 4202SOL     OW24067   3.529   1.309   7.139  0.0765  0.9159  0.1413
 4202SOL    HW124068   3.440   1.304   7.104 -0.1751  1.5910  0.6945
 4202SOL    HW224069   3.559   1.393   7.103 -0.7824 -0.5982 -4.1229
 4203SOL     OW24070   0.858   3.843  10.955 -0.4296  0.2051  0.1565
 4203SOL    HW124071   0.914   3.832  11.032  0.5699 -1.7384 -0.8318
 4203SOL    HW224072   0.919   3.803  10.892 -2.8228  0.9234 -2.5945
 4204SOL     OW24073   1.164   2.184   5.880 -0.3668 -0.4334  0.0658
 4204SOL    HW124074   1.253   2.175   5.912  0.2312  1.1591 -1.1207
 4204SOL    HW224075   1.128   2.150   5.962  3.5994 -0.4951  1.7319
 4205SOL     OW24076   2.624   0.835   2.989  0.1879 -0.1252  0.4251
 4205SOL    HW124077   2.627   0.783   3.069 -0.8068 -0.6786  0.1130
 4205SOL    HW224078   2.535   0.870   2.991  0.6531  1.2181 -1.9044
 4206SOL     OW24079   0.608   2.155  16.910  0.0768  0.6658  0.0397
 4206SOL    HW124080   0.677   2.203  16.955 -0.4678  1.3115  0.1764
 4206SOL    HW224081   0.585   2.090  16.976  2.2662 -2.4884 -2.3078
 4207SOL     OW24082   2.181   2.703  15.883  0.0534 -0.0938 -0.3357
 4207SOL    HW124083   2.093   2.713  15.847  0.6302 -2.4830 -2.3775
 4207SOL    HW224084   2.197   2.613  15.854  0.1800  0.3620 -1.6698
 4208SOL     OW24085   4.517   3.282   6.387 -0.6384  0.4530 -0.0010
 4208SOL    HW124086   4.588   3.283   6.323  1.0741 -0.1920  1.9007
 4208SOL    HW224087   4.544   3.339   6.458 -2.3316  2.0914 -0.6623
 4209SOL     OW24088   2.845   0.409  14.758  0.2226 -0.0623  0.3695
 4209SOL    HW124089   2.770   0.391  14.701  2.5809 -1.8263 -2.1511
 4209SOL    HW224090   2.908   0.351  14.716 -0.9835 -0.9687 -0.1523
 4210SOL     OW24091   2.992   3.657   3.787 -0.0015 -0.3951 -0.1049
 4210SOL    HW124092   2.963   3.574   3.826 -1.5799 -0.4076 -1.3033
 4210SOL    HW224093   3.000   3.641   3.693 -1.0295 -0.4834 -0.1769
 4211SOL     OW24094   2.162   0.800  11.482 -0.1533 -0.2754  0.0511
 4211SOL    HW124095   2.230   0.868  11.481 -0.6105  0.1857  0.1622
 4211SOL    HW224096   2.084   0.852  11.501  0.8933  1.7695 -1.1496
 4212SOL     OW24097   1.928   2.186   5.796 -0.4492  0.0399 -0.0538
 4212SOL    HW124098   1.940   2.216   5.886  2.0806  0.3736 -0.4941
 4212SOL    HW224099   2.016   2.188   5.759 -0.8528 -0.4995 -1.0563
 4213SOL     OW24100   0.301   2.836   1.663 -0.0584 -0.3239 -0.6293
 4213SOL    HW124101   0.262   2.853   1.749 -0.6134 -3.0356 -0.3372
 4213SOL    HW224102   0.242   2.890   1.610 -0.4349 -0.4647 -0.3566
 4214SOL     OW24103   2.164   0.286   6.650 -0.0014  0.3516 -0.7748
 4214SOL    HW124104   2.164   0.221   6.579  0.1634 -2.0733  1.4599
 4214SOL    HW224105   2.184   0.232   6.726 -1.9294 -1.4647 -1.5535
 4215SOL     OW24106   4.543   3.293   3.544 -0.4175  0.1758 -0.4857
 4215SOL    HW124107   4.633   3.271   3.517 -0.0952  0.4351  0.3561
 4215SOL    HW224108   4.501   3.251   3.469  0.5898 -0.6553 -0.5959
 4216SOL     OW24109   3.683   0.750   8.673  0.5393 -0.1813  0.0200
 4216SOL    HW124110   3.626   0.712   8.606  2.2452 -1.1471 -0.8797
 4216SOL    HW224111   3.693   0.673   8.729  0.5209 -1.4156 -1.6773
 4217SOL     OW24112   3.283   3.116   8.212 -0.8697  0.3078 -0.1854
 4217SOL    HW124113   3.220   3.163   8.267 -0.0546  0.7168  0.4098
 4217SOL    HW224114   3.261   3.027   8.237 -1.0962  0.6775  0.9739
 4218SOL     OW24115   3.164   3.825   3.324  0.6161 -0.0081 -0.1827
 4218SOL    HW124116   3.126   3.806   3.238  1.2852 -2.6356  0.1016
 4218SOL    HW224117   3.199   3.739   3.350  0.3270 -0.1026 -0.1083
 4219SOL     OW24118   1.569   4.662  14.602  0.0690  0.0982 -0.2410
 4219SOL    HW124119   1.623   0.014  14.573 -0.3959  0.7058  0.4617
 4219SOL    HW224120   1.520   4.688  14.679  1.0985  0.6529  0.2268
 4220SOL     OW24121   1.527   4.321   1.483  0.0836  0.2387  0.1147
 4220SOL    HW124122   1.460   4.254   1.498 -0.3993  0.9735  1.3005
 4220SOL    HW224123   1.536   4.313   1.389 -0.8741  0.3919  0.0032
 4221SOL     OW24124   2.013   1.182   6.531 -0.2078 -0.3315  0.5326
 4221SOL    HW124125   1.997   1.088   6.526 -1.9867 -0.0409  0.9762
 4221SOL    HW224126   2.103   1.184   6.497 -0.0473 -0.1409  0.9715
 4222SOL     OW24127   0.819   3.490   8.163 -0.3110  0.0072  0.4281
 4222SOL    HW124128   0.727   3.518   8.162 -0.1079  0.7307  1.4529
 4222SOL    HW224129   0.823   3.443   8.246  1.0046 -0.5240  0.0506
 4223SOL     OW24130   2.401   2.994   6.600 -0.2326  0.1352  0.6151
 4223SOL    HW124131   2.326   3.041   6.564  0.2457 -0.1977 -0.8579
 4223SOL    HW224132   2.394   3.011   6.693  1.7304 -0.9453  0.9655
 4224SOL     OW24133   2.281   3.093  16.030  0.1105 -0.3595  0.2421
 4224SOL    HW124134   2.357   3.087  16.088 -0.0622 -0.7821  0.4234
 4224SOL    HW224135   2.228   3.161  16.071 -0.4195  0.4293 -1.7662
 4225SOL     OW24136   3.352   0.745   1.357 -0.3168  0.1293 -0.0658
 4225SOL    HW124137   3.443   0.718   1.346  0.1711  1.5148  0.6747
 4225SOL    HW224138   3.310   0.664   1.326  1.8592  0.3734 -3.5940
 4226SOL     OW24139   4.513   3.173  11.868 -0.2100 -0.1075 -0.1775
 4226SOL    HW124140   4.512   3.143  11.777 -2.6689  0.1620 -0.2259
 4226SOL    HW224141   4.601   3.211  11.875 -0.0558 -0.5411  0.2687
 4227SOL     OW24142   3.907   1.176  11.110 -0.4533  0.5931  0.6951
 4227SOL    HW124143   3.936   1.111  11.174  2.7762  2.1461  0.8077
 4227SOL    HW224144   3.826   1.128  11.090 -0.8181  0.5086  2.3403
 4228SOL     OW24145   3.468   1.576   6.485 -0.8441 -0.0378 -0.2426
 4228SOL    HW124146   3.392   1.634   6.486  0.2342  1.3655  0.0221
 4228SOL    HW224147   3.532   1.638   6.449  1.3671 -0.8223  2.4050
 4229SOL     OW24148   1.548   4.035   6.453 -0.1203 -0.5263 -0.3760
 4229SOL    HW124149   1.579   4.000   6.536 -0.2947  2.0945  0.7771
 4229SOL    HW224150   1.630   4.036   6.404 -0.6550 -2.8977 -1.3267
 4230SOL     OW24151   3.206   4.590   1.668 -0.0272  0.2939 -0.0094
 4230SOL    HW124152   3.152   4.520   1.632  0.3312 -0.4915  0.9764
 4230SOL    HW224153   3.289   4.543   1.677 -0.3263  0.4051  3.1567
 4231SOL     OW24154   4.414   2.480   4.727  0.6982 -0.0088  0.0993
 4231SOL    HW124155   4.397   2.432   4.646  0.3416  0.3659 -0.0524
 4231SOL    HW224156   4.361   2.559   4.712  2.1383  0.2898 -3.3580
 4232SOL     OW24157   0.143   4.637   3.992 -0.4522  0.6996  0.2363
 4232SOL    HW124158   0.167   4.590   4.072  2.7726  2.7668  0.4615
 4232SOL    HW224159   0.158   4.573   3.922 -0.7426  0.6471  0.2203
 4233SOL     OW24160   3.174   1.732   7.787  0.2122  0.0919  0.4124
 4233SOL    HW124161   3.116   1.670   7.831  0.2611  0.3700  0.8591
 4233SOL    HW224162   3.211   1.777   7.863  0.8981  1.2344 -0.6123
 4234SOL     OW24163   2.154   0.520   3.305 -0.0526  0.1149  0.0908
 4234SOL    HW124164   2.241   0.537   3.271 -1.4515  0.7679 -3.1474
 4234SOL    HW224165   2.177   0.475   3.386  0.5065 -0.8455 -0.6079
 4235SOL     OW24166   3.611   2.575   3.731 -0.0974  0.8862 -0.3370
 4235SOL    HW124167   3.561   2.500   3.699 -1.3828  0.5578  2.4745
 4235SOL    HW224168   3.640   2.613   3.648 -1.0369 -1.5235 -1.7839
 4236SOL     OW24169   2.823   4.721   5.558  0.5148 -0.0473  0.6402
 4236SOL    HW124170   2.794   4.668   5.484  1.0138 -2.5811  2.2321
 4236SOL    HW224171   2.811   0.085   5.517  1.6747  0.5476  1.5263
 4237SOL     OW24172   2.527   1.292   1.141  0.7699  0.0792 -0.3213
 4237SOL    HW124173   2.519   1.304   1.236  0.1756 -0.8193 -0.2520
 4237SOL    HW224174   2.440   1.300   1.101  1.0432 -1.1968 -1.1865
 4238SOL     OW24175   2.135   1.904   1.218 -0.5685  0.1617  0.6427
 4238SOL    HW124176   2.064   1.850   1.185  0.0511  1.1806 -2.3811
 4238SOL    HW224177   2.133   1.986   1.169 -0.1585  0.2890  0.8323
 4239SOL     OW24178   4.150   3.003   9.225 -0.3516 -0.3287  0.2619
 4239SOL    HW124179   4.131   3.044   9.309  2.3263  0.9444  0.2283
 4239SOL    HW224180   4.144   2.910   9.249 -1.0158  0.0738  1.6295
 4240SOL     OW24181   0.393   2.584   8.850  0.1190  0.1790  0.6368
 4240SOL    HW124182   0.404   2.664   8.901  2.0638  1.2463 -1.4743
 4240SOL    HW224183   0.335   2.624   8.785  0.2755  0.3028  0.5725
 4241SOL     OW24184   1.644   3.569  16.575 -0.8378  0.0057  0.3201
 4241SOL    HW124185   1.574   3.537  16.519  0.0449 -1.5103  0.0528
 4241SOL    HW224186   1.590   3.624  16.632 -0.4820  1.4242 -0.7348
 4242SOL     OW24187   4.418   0.454   8.860  0.3205 -0.1057  0.7765
 4242SOL    HW124188   4.323   0.462   8.850  0.2432 -0.3513  1.3627
 4242SOL    HW224189   4.422   0.473   8.953  0.9972  0.7137  0.5751
 4243SOL     OW24190   3.306   2.797  14.946  0.0025  0.6195 -0.0776
 4243SOL    HW124191   3.310   2.857  14.871  0.9974 -0.5636 -0.9757
 4243SOL    HW224192   3.398   2.797  14.971  0.4001  0.6201 -1.5322
 4244SOL     OW24193   0.616   0.204   0.941 -0.2990 -0.7415 -0.0737
 4244SOL    HW124194   0.536   0.254   0.958 -0.0930 -0.8782  1.2431
 4244SOL    HW224195   0.579   0.116   0.932  1.2629 -1.3987 -0.0892
 4245SOL     OW24196   2.671   2.990   4.682  0.2879  0.1566  0.6194
 4245SOL    HW124197   2.632   3.066   4.638 -2.7937 -0.8819  1.5790
 4245SOL    HW224198   2.667   3.027   4.770 -0.0712 -0.1447  0.7323
 4246SOL     OW24199   3.625   1.632   0.477 -0.2870 -0.4047  0.1573
 4246SOL    HW124200   3.618   1.723   0.447 -0.3535 -0.4143  0.1425
 4246SOL    HW224201   3.674   1.648   0.558  0.0338 -2.8455  0.4393
 4247SOL     OW24202   1.938   2.207   6.199  0.8223 -0.1956 -0.4533
 4247SOL    HW124203   1.859   2.154   6.208 -0.5497  1.5100 -2.5815
 4247SOL    HW224204   1.980   2.184   6.282 -1.3747 -0.9236  0.4588
 4248SOL     OW24205   2.836   1.314   8.438 -0.1115  0.1661  0.5553
 4248SOL    HW124206   2.787   1.341   8.516 -1.5733 -0.5326 -0.1080
 4248SOL    HW224207   2.845   1.220   8.454  0.3126  0.0999 -0.0592
 4249SOL     OW24208   0.749   4.220   5.295 -0.2062  0.6555  0.1012
 4249SOL    HW124209   0.675   4.230   5.235 -0.0848  1.5115  0.0914
 4249SOL    HW224210   0.807   4.180   5.230  0.1913  1.9375 -0.3300
 4250SOL     OW24211   2.564   2.323   4.742  0.6696 -0.2481 -0.1790
 4250SOL    HW124212   2.589   2.306   4.651 -0.6978  0.3324 -0.6568
 4250SOL    HW224213   2.562   2.233   4.775  2.3333  0.0688  0.7798
 4251SOL     OW24214   0.762   1.185   7.263 -0.1294 -0.1920  0.0972
 4251SOL    HW124215   0.796   1.252   7.205 -1.4502  1.5806  1.3884
 4251SOL    HW224216   0.684   1.231   7.292 -0.6304  0.2036 -1.9094
 4252SOL     OW24217   2.481   4.694  16.717  0.1677 -0.3818  0.2506
 4252SOL    HW124218   2.413   4.636  16.751 -0.4716  0.9566  1.2914
 4252SOL    HW224219   2.541   4.672  16.788 -1.6937 -0.9558  1.6433
 4253SOL     OW24220   0.261   3.455  16.112  0.5141 -0.0034  0.1278
 4253SOL    HW124221   0.301   3.438  16.198  3.1644  1.4815 -0.8292
 4253SOL    HW224222   0.197   3.521  16.137 -1.7661 -1.9041 -0.6283
 4254SOL     OW24223   3.271   1.170   0.199 -0.1064 -0.1622 -0.3665
 4254SOL    HW124224   3.356   1.129   0.212 -0.2931 -0.2312  0.6575
 4254SOL    HW224225   3.269   1.229   0.274  0.7417  2.7701 -2.6407
 4255SOL     OW24226   2.857   2.583   2.196  0.0688  0.5763  0.1428
 4255SOL    HW124227   2.915   2.572   2.271  0.3900 -0.7282 -0.2897
 4255SOL    HW224228   2.788   2.518   2.207 -1.7637  2.3145 -1.0790
 4256SOL     OW24229   2.687   1.336  15.474  0.8919 -0.1957 -0.9204
 4256SOL    HW124230   2.770   1.380  15.454  0.7786  0.7277  0.6318
 4256SOL    HW224231   2.634   1.415  15.489  1.7306 -0.0327  1.1211
 4257SOL     OW24232   2.690   0.939   4.051 -0.3706 -0.2458 -0.0200
 4257SOL    HW124233   2.630   0.866   4.066 -0.1797 -0.0758  1.5467
 4257SOL    HW224234   2.777   0.900   4.047  0.5622  1.7505  0.9069
 4258SOL     OW24235   2.173   2.457  12.022 -0.0953  0.0551  0.3044
 4258SOL    HW124236   2.253   2.416  12.056 -1.6239 -0.7610  2.9183
 4258SOL    HW224237   2.102   2.396  12.041  1.7645 -1.9387  0.8212
 4259SOL     OW24238   0.404   0.289   2.512  0.3063  0.4262 -0.4112
 4259SOL    HW124239   0.494   0.256   2.507  0.5752  1.0439  0.3374
 4259SOL    HW224240   0.391   0.275   2.605  2.3260 -1.2161 -0.3784
 4260SOL     OW24241   1.959   2.762   0.684  0.0521 -0.4029  0.3954
 4260SOL    HW124242   1.992   2.752   0.773  1.9427  0.7397 -0.1694
 4260SOL    HW224243   2.039   2.770   0.631 -0.8992  0.3588 -0.9428
 4261SOL     OW24244   4.719   0.231   1.076 -0.1375  0.4107  0.4320
 4261SOL    HW124245   4.626   0.253   1.081 -0.6981 -1.8407 -0.3160
 4261SOL    HW224246   4.718   0.156   1.135  2.1450 -0.8616 -1.1498
 4262SOL     OW24247   3.485   2.839  17.231 -0.5258 -0.0810  0.2342
 4262SOL    HW124248   3.499   2.925  17.270 -1.3521  0.0138  0.3233
 4262SOL    HW224249   3.399   2.811  17.263 -0.2856 -1.0592  0.0137
 4263SOL     OW24250   3.781   0.119  12.319 -0.3960 -0.9848 -0.1638
 4263SOL    HW124251   3.722   0.049  12.349  1.7153 -2.4855  0.4525
 4263SOL    HW224252   3.831   0.074  12.251 -2.2498 -1.8473 -0.9856
 4264SOL     OW24253   2.605   2.063   6.094  0.1604 -0.4821  0.1269
 4264SOL    HW124254   2.556   2.077   6.013 -0.3739 -2.1899  0.1587
 4264SOL    HW224255   2.672   2.131   6.086  0.3583 -0.6365  0.4613
 4265SOL     OW24256   3.760   3.902   0.516  0.1422 -0.0947  0.8358
 4265SOL    HW124257   3.745   3.995   0.530 -1.2885 -0.0483 -0.9888
 4265SOL    HW224258   3.675   3.866   0.541 -0.0905 -0.6977 -0.8152
 4266SOL     OW24259   2.999   1.676   2.869  0.3927  0.0582 -0.5818
 4266SOL    HW124260   2.939   1.729   2.816  0.0058  0.0993 -0.1037
 4266SOL    HW224261   2.941   1.653   2.942  0.2455  0.8875 -0.4342
 4267SOL     OW24262   2.168   0.346   0.369  0.2356  0.2282 -0.1812
 4267SOL    HW124263   2.228   0.291   0.318 -0.6235  1.1911 -2.2500
 4267SOL    HW224264   2.099   0.284   0.392  0.2574  0.7468  1.3052
 4268SOL     OW24265   1.587   0.062   8.564  0.2477 -0.2842 -0.1472
 4268SOL    HW124266   1.625   0.130   8.620  1.1105 -0.7680 -0.1417
 4268SOL    HW224267   1.579   0.107   8.480  2.4563 -0.0699 -0.2596
 4269SOL     OW24268   1.636   2.704  16.163  0.4351 -0.3419  0.7663
 4269SOL    HW124269   1.562   2.645  16.178  0.4215 -0.1034  1.6878
 4269SOL    HW224270   1.638   2.749  16.248 -0.2991  2.7930 -0.9004
 4270SOL     OW24271   1.403   0.035   4.186  0.2915 -0.0011  0.0335
 4270SOL    HW124272   1.427   0.042   4.278 -0.2030 -0.1828  0.1742
 4270SOL    HW224273   1.493   0.048   4.155  0.0853 -0.9835 -0.9723
 4271SOL     OW24274   3.624   0.024   9.295 -0.3387  0.0009 -0.5301
 4271SOL    HW124275   3.690   0.083   9.331  0.3559 -1.5320  0.7560
 4271SOL    HW224276   3.567   4.713   9.365  1.1564  0.5146  0.9297
 4272SOL     OW24277   1.684   1.511   7.722 -0.1965 -0.3561  0.5176
 4272SOL    HW124278   1.664   1.569   7.649 -0.0927  0.4495  1.1303
 4272SOL    HW224279   1.612   1.448   7.729 -0.1082 -0.3649  1.3084
 4273SOL     OW24280   1.142   1.823   8.005  0.1562  0.1579 -0.4489
 4273SOL    HW124281   1.089   1.820   7.925 -1.2161  0.5238  0.4394
 4273SOL    HW224282   1.199   1.899   7.993  1.2898 -0.8176 -1.1539
 4274SOL     OW24283   2.138   1.146  14.937 -0.5607 -0.7901 -0.1711
 4274SOL    HW124284   2.145   1.057  14.902 -2.0898 -1.0503  0.1931
 4274SOL    HW224285   2.219   1.156  14.988 -0.9851  2.0065 -0.0428
 4275SOL     OW24286   4.100   2.527   6.790  0.3478 -0.2404 -0.8681
 4275SOL    HW124287   4.046   2.477   6.729 -1.1839  1.4097 -0.9055
 4275SOL    HW224288   4.162   2.578   6.737  1.2868 -1.0041 -0.4880
 4276SOL     OW24289   1.284   2.366   9.039 -0.5145 -0.2626 -0.5013
 4276SOL    HW124290   1.360   2.423   9.039 -1.7910  1.4556  1.7216
 4276SOL    HW224291   1.215   2.420   9.079 -1.8442 -3.4692  1.5986
 4277SOL     OW24292   1.922   0.996   4.841 -0.6359 -0.1814  0.3656
 4277SOL    HW124293   1.958   1.010   4.753  0.4735 -0.1596  0.8230
 4277SOL    HW224294   1.866   0.921   4.823  1.5681 -1.1021 -2.6562
 4278SOL     OW24295   3.253   2.304   8.543  0.2362  0.4726  0.6426
 4278SOL    HW124296   3.229   2.347   8.461  2.0519  0.3856  0.0629
 4278SOL    HW224297   3.183   2.327   8.604 -0.6701 -1.1469  0.2264
 4279SOL     OW24298   1.247   2.394  14.666 -0.3991  0.3244 -0.4639
 4279SOL    HW124299   1.191   2.439  14.730  0.9212 -0.6331  1.3671
 4279SOL    HW224300   1.327   2.385  14.718  0.0128  0.6525 -1.0470
 4280SOL     OW24301   1.523   4.445   0.599 -0.3728  0.0286 -0.1477
 4280SOL    HW124302   1.603   4.438   0.651 -0.4414  0.2899 -0.0112
 4280SOL    HW224303   1.524   4.534   0.563 -1.9722 -0.6277 -1.7905
 4281SOL     OW24304   4.486   4.303   2.747  0.2344  0.3173 -0.4223
 4281SOL    HW124305   4.467   4.326   2.837  0.2370 -0.0481 -0.3283
 4281SOL    HW224306   4.574   4.265   2.754  0.5896  1.2979  0.3088
 4282SOL     OW24307   2.944   4.091  17.388 -0.8606 -0.1328  0.2324
 4282SOL    HW124308   2.973   4.035  17.316 -0.6887  2.0726 -1.4203
 4282SOL    HW224309   2.850   4.093  17.368 -1.0136 -0.2820  0.9389
 4283SOL     OW24310   3.929   4.178  12.345 -1.1874  0.1343  0.4567
 4283SOL    HW124311   3.955   4.087  12.335  0.8032  0.6351  1.0680
 4283SOL    HW224312   3.911   4.207  12.256  1.6159 -0.5022 -0.3108
 4284SOL     OW24313   4.243   1.853   7.718 -0.0484 -0.2418 -0.0281
 4284SOL    HW124314   4.257   1.932   7.770  0.8133  0.7885 -1.8500
 4284SOL    HW224315   4.158   1.869   7.677  0.2149  1.5994  0.1676
 4285SOL     OW24316   1.858   2.136   0.612 -0.1541  0.1761 -0.1496
 4285SOL    HW124317   1.819   2.144   0.699 -1.7307 -0.0641 -0.8313
 4285SOL    HW224318   1.929   2.197   0.631 -1.4849  1.6976 -0.0639
 4286SOL     OW24319   1.799   3.393   9.832 -0.5211 -0.0587  0.3911
 4286SOL    HW124320   1.856   3.320   9.807 -0.7898 -0.6141  1.4339
 4286SOL    HW224321   1.865   3.460   9.849  0.9653 -2.6355  4.4855
 4287SOL     OW24322   2.601   1.766   3.482  0.1393 -0.1359  0.1193
 4287SOL    HW124323   2.688   1.731   3.462  0.8008  0.7622  1.4720
 4287SOL    HW224324   2.559   1.700   3.427 -1.8190  3.1374 -2.2982
 4288SOL     OW24325   0.227   0.822  14.394 -0.0521  0.7192  0.3532
 4288SOL    HW124326   0.303   0.793  14.445 -0.1289 -0.3510 -0.1536
 4288SOL    HW224327   0.231   0.765  14.317  0.8095 -0.4632  1.2749
 4289SOL     OW24328   3.072   2.408   2.018 -0.4086  0.6735 -0.4175
 4289SOL    HW124329   2.983   2.418   2.052 -0.9675 -2.6176 -0.8487
 4289SOL    HW224330   3.058   2.339   1.953  3.1806 -0.0362 -0.4534
 4290SOL     OW24331   0.215   4.635  17.609  0.0768  0.4969  0.2218
 4290SOL    HW124332   0.141   4.636  17.669 -1.8498  0.3037 -2.1609
 4290SOL    HW224333   0.274   4.697  17.652 -0.6034  1.1672  0.1852
 4291SOL     OW24334   3.599   3.082   0.710 -0.5704 -0.4203 -0.2463
 4291SOL    HW124335   3.598   3.025   0.633 -1.3344 -1.1242  0.2882
 4291SOL    HW224336   3.573   3.163   0.665  0.2726  0.6590  1.2255
 4292SOL     OW24337   1.194   3.876   5.351  0.3611 -0.0695 -0.4387
 4292SOL    HW124338   1.266   3.820   5.378  0.8835  0.9426  0.2667
 4292SOL    HW224339   1.134   3.859   5.424  1.3823 -1.5933  0.0420
 4293SOL     OW24340   1.380   3.394   4.418 -0.5693 -0.3626 -0.3328
 4293SOL    HW124341   1.460   3.360   4.459 -0.8799  0.9979  1.4069
 4293SOL    HW224342   1.318   3.394   4.491 -1.1932  0.9457 -0.8771
 4294SOL     OW24343   1.742   0.264   4.435 -0.3099  0.7348 -0.0792
 4294SOL    HW124344   1.670   0.265   4.498 -0.3528 -3.6439 -0.1102
 4294SOL    HW224345   1.745   0.172   4.410 -1.4180  0.9370 -0.8994
 4295SOL     OW24346   4.557   0.037  16.820 -0.4144  0.2753 -0.1190
 4295SOL    HW124347   4.603   4.704  16.884  1.0148  0.6621 -0.8170
 4295SOL    HW224348   4.463   0.026  16.835 -0.6461  0.6613 -1.2967
 4296SOL     OW24349   2.215   2.449   5.910  0.1183 -0.4651  0.4963
 4296SOL    HW124350   2.184   2.524   5.961 -0.8687  0.0577 -0.8784
 4296SOL    HW224351   2.178   2.380   5.964  0.5090  0.0645  1.4450
 4297SOL     OW24352   0.966   0.461   2.941  0.2339  0.2476 -0.6644
 4297SOL    HW124353   1.027   0.388   2.932 -0.1682 -0.1761  0.0710
 4297SOL    HW224354   0.993   0.528   2.879  1.3769 -0.5295 -1.0031
 4298SOL     OW24355   0.399   2.886   7.459 -0.1184 -0.0006  1.2906
 4298SOL    HW124356   0.342   2.815   7.429  1.4943 -1.1536  0.9193
 4298SOL    HW224357   0.420   2.855   7.547  0.9565  1.6130  1.5997
 4299SOL     OW24358   1.815   1.118   8.057  0.6347 -0.9832 -0.8473
 4299SOL    HW124359   1.888   1.084   8.109 -0.9636 -0.8154  1.4746
 4299SOL    HW224360   1.802   1.060   7.982  1.3619 -1.3387 -0.7019
 4300SOL     OW24361   1.362   4.362  17.442  0.3703  0.3795 -0.0773
 4300SOL    HW124362   1.281   4.340  17.489  1.1262 -0.1063  0.9921
 4300SOL    HW224363   1.354   4.453  17.413  3.8561  0.9548  0.7656
 4301SOL     OW24364   2.122   3.878   5.818 -0.1020  0.1064 -0.2425
 4301SOL    HW124365   2.193   3.887   5.881  0.4092  1.3979 -1.0102
 4301SOL    HW224366   2.142   3.796   5.773  1.2617 -0.6055  1.6264
 4302SOL     OW24367   3.399   4.081  14.953 -0.0407 -1.2638  0.6919
 4302SOL    HW124368   3.339   4.081  14.878 -0.0030  1.1871  0.6687
 4302SOL    HW224369   3.477   4.105  14.904  0.0673 -0.3958  1.2898
 4303SOL     OW24370   1.202   4.579   4.110 -0.6424 -0.3098 -0.2342
 4303SOL    HW124371   1.292   4.604   4.129 -0.9964  0.1933  0.8039
 4303SOL    HW224372   1.181   4.624   4.028 -3.8208  0.0648  0.7929
 4304SOL     OW24373   4.491   0.773   8.948 -0.4125  0.1343  0.9178
 4304SOL    HW124374   4.553   0.746   8.880 -1.3184 -0.7141  0.4293
 4304SOL    HW224375   4.537   0.849   8.982  2.4907 -1.6596  1.0489
 4305SOL     OW24376   4.292   0.227   9.169 -0.4847  0.3297  0.8703
 4305SOL    HW124377   4.359   0.294   9.177 -0.2641  0.1388  0.6178
 4305SOL    HW224378   4.276   0.210   9.076  1.2015  0.9799  0.4597
 4306SOL     OW24379   3.016   3.550   5.805  0.0885  0.4857  0.1850
 4306SOL    HW124380   3.081   3.605   5.849  1.6978 -0.3043 -1.2129
 4306SOL    HW224381   3.000   3.608   5.730  0.4740  0.0747 -0.2197
 4307SOL     OW24382   2.053   0.592   0.326 -0.3002  0.1331 -0.1873
 4307SOL    HW124383   2.093   0.506   0.330  0.9867  0.7074 -0.7504
 4307SOL    HW224384   2.027   0.603   0.418  0.8016  1.7365 -0.0630
 4308SOL     OW24385   1.132   0.350  17.023 -0.5499 -0.6048  0.6413
 4308SOL    HW124386   1.154   0.419  17.086 -0.5059 -1.2928  1.3750
 4308SOL    HW224387   1.043   0.370  16.995  0.1806 -1.0070 -1.9323
 4309SOL     OW24388   3.917   0.640   7.045  0.5286  0.1743  0.5426
 4309SOL    HW124389   3.831   0.683   7.043  0.4972 -0.0139 -1.4976
 4309SOL    HW224390   3.904   0.556   7.000  3.0296 -0.3118  0.7238
 4310SOL     OW24391   2.292   4.392   1.376 -0.1756  0.5834  0.0838
 4310SOL    HW124392   2.209   4.430   1.405  0.4620  1.8266  0.2862
 4310SOL    HW224393   2.287   4.405   1.281  0.5951  0.3697  0.0101
 4311SOL     OW24394   3.757   2.263  12.878 -0.1953 -0.3739  0.4504
 4311SOL    HW124395   3.699   2.214  12.936  0.0848 -0.5787  0.5607
 4311SOL    HW224396   3.770   2.188  12.819  0.9446 -0.9219  1.4045
 4312SOL     OW24397   3.156   1.562   4.490  0.1764 -0.1227  0.1606
 4312SOL    HW124398   3.213   1.492   4.458  1.0328  0.6831 -0.1036
 4312SOL    HW224399   3.118   1.588   4.406  0.4576 -0.0054  0.0684
 4313SOL     OW24400   1.514   4.676   1.696  0.2765  0.2795 -0.3289
 4313SOL    HW124401   1.480   4.718   1.775 -1.1415  0.0357 -0.8073
 4313SOL    HW224402   1.606   4.703   1.698  0.4297 -0.3235  1.0858
 4314SOL     OW24403   1.139   4.544  11.071 -0.0351  0.1491  0.2595
 4314SOL    HW124404   1.178   4.505  10.993 -1.4413 -0.9835  0.1176
 4314SOL    HW224405   1.046   4.523  11.069 -0.1304  0.5613  0.2692
 4315SOL     OW24406   0.171   1.283   7.493 -0.2175  0.5819 -0.2167
 4315SOL    HW124407   0.239   1.217   7.478 -1.1117 -0.5007  0.5261
 4315SOL    HW224408   0.214   1.320   7.570  2.2526 -1.6014 -0.5404
 4316SOL     OW24409   1.479   1.684   4.622  0.4500 -0.1732  0.1598
 4316SOL    HW124410   1.423   1.606   4.625  0.6304 -0.3685 -1.5547
 4316SOL    HW224411   1.564   1.646   4.646  0.5459  0.5812  1.0137
 4317SOL     OW24412   4.347   4.711   2.711  0.0784  0.1243  0.3730
 4317SOL    HW124413   4.395   0.039   2.778 -1.3222  0.9265  0.7800
 4317SOL    HW224414   4.396   4.629   2.701  0.5775  0.5342 -0.5569
 4318SOL     OW24415   3.344   4.599   6.159  0.6246  0.2376  0.2805
 4318SOL    HW124416   3.339   4.669   6.223  2.4992  0.5501  0.0889
 4318SOL    HW224417   3.388   4.647   6.089 -4.0343  1.8461 -1.5659
 4319SOL     OW24418   3.009   3.128   5.561 -0.3824  0.1144  0.2177
 4319SOL    HW124419   3.022   3.063   5.630 -2.3924  1.2168  1.6163
 4319SOL    HW224420   2.969   3.197   5.614 -1.3707  1.7529 -2.6666
 4320SOL     OW24421   0.251   0.944   3.943 -0.1176  0.0359 -0.1262
 4320SOL    HW124422   0.235   0.982   4.030 -0.5559 -0.1183 -0.1418
 4320SOL    HW224423   0.164   0.904   3.942 -1.3346  2.6360  0.8009
 4321SOL     OW24424   1.994   3.287   2.895  0.0483 -0.3529  0.2563
 4321SOL    HW124425   1.967   3.363   2.946  2.6636  0.6673  0.1103
 4321SOL    HW224426   1.929   3.222   2.921  1.0343 -1.0653  0.9307
 4322SOL     OW24427   0.593   1.920   9.627  0.5536 -0.3336  0.3546
 4322SOL    HW124428   0.515   1.881   9.666 -1.1382  0.7625 -1.9251
 4322SOL    HW224429   0.556   1.988   9.570 -1.0031 -3.0070 -1.8458
 4323SOL     OW24430   3.563   4.314   4.102  0.3016  0.0639 -0.0223
 4323SOL    HW124431   3.601   4.284   4.020 -0.6581 -1.1429 -0.0252
 4323SOL    HW224432   3.602   4.254   4.166  0.3999  1.4137  1.1909
 4324SOL     OW24433   3.295   2.365   4.857 -0.7605 -0.0087  1.1710
 4324SOL    HW124434   3.237   2.441   4.866 -2.5464 -0.8873 -3.0729
 4324SOL    HW224435   3.288   2.314   4.938 -0.1948 -0.7673  0.7419
 4325SOL     OW24436   3.697   0.155   5.041 -0.5749  0.5109  0.2235
 4325SOL    HW124437   3.683   0.084   4.978  3.2469  1.0484 -1.2218
 4325SOL    HW224438   3.759   0.106   5.095  0.7615 -0.4503 -2.1933
 4326SOL     OW24439   0.204   2.256  17.669 -0.5657  0.0812  0.4054
 4326SOL    HW124440   0.289   2.216  17.683 -0.2912  0.7871  0.7466
 4326SOL    HW224441   0.170   2.236   0.069 -1.9832 -2.2009 -0.6611
 4327SOL     OW24442   2.358   2.838   2.573  0.0488  0.0327 -0.0687
 4327SOL    HW124443   2.444   2.869   2.544  0.4479 -0.1129  0.9631
 4327SOL    HW224444   2.390   2.811   2.660  0.7488  0.1146 -0.2967
 4328SOL     OW24445   3.670   0.561   4.930  0.4967  1.1363  0.4323
 4328SOL    HW124446   3.658   0.470   4.957 -0.4135  1.5295  1.3571
 4328SOL    HW224447   3.612   0.595   4.998 -1.4434 -0.1112 -0.6046
 4329SOL     OW24448   4.625   3.275   5.541  0.1215  0.3450  0.4289
 4329SOL    HW124449   4.688   3.269   5.613 -0.0841  1.1421  0.6747
 4329SOL    HW224450   4.551   3.310   5.590  0.6645  0.1172  1.4180
 4330SOL     OW24451   3.330   2.881   9.647  0.2220  0.4346 -0.6961
 4330SOL    HW124452   3.282   2.804   9.616 -2.1596  1.6573 -0.0847
 4330SOL    HW224453   3.260   2.921   9.698  2.4659 -0.6061  3.1287
 4331SOL     OW24454   1.929   1.534   8.829  0.0433 -0.3317 -0.0325
 4331SOL    HW124455   1.968   1.555   8.744 -0.8499  0.8891 -0.1348
 4331SOL    HW224456   1.838   1.528   8.800  0.2835 -4.5758  0.1435
 4332SOL     OW24457   1.724   1.487   5.586 -0.0632 -0.2810  0.0330
 4332SOL    HW124458   1.746   1.418   5.523 -0.9631 -0.0184 -0.5764
 4332SOL    HW224459   1.632   1.507   5.568 -0.4504 -2.1488 -0.0923
 4333SOL     OW24460   1.875   0.783  12.379 -0.0352 -0.8947  0.0214
 4333SOL    HW124461   1.971   0.782  12.374 -0.1012 -0.4506 -1.6003
 4333SOL    HW224462   1.861   0.703  12.428 -1.4047  1.1723  3.0038
 4334SOL     OW24463   1.641   0.308   1.770 -0.0582  0.5696  0.1404
 4334SOL    HW124464   1.661   0.215   1.758 -0.0706  0.6216 -0.2761
 4334SOL    HW224465   1.674   0.320   1.859  0.4488 -2.6977  0.4263
 4335SOL     OW24466   4.677   0.555   2.917  0.2880  0.3057  0.7457
 4335SOL    HW124467   4.586   0.579   2.936 -0.5576 -2.3566  0.0515
 4335SOL    HW224468   4.719   0.600   2.990  3.4605 -0.9326 -0.3476
 4336SOL     OW24469   4.303   4.265  12.513 -0.0331  0.3110 -0.0098
 4336SOL    HW124470   4.378   4.207  12.526  0.3679  0.7560 -0.3309
 4336SOL    HW224471   4.229   4.213  12.543  1.1302 -0.0656  2.2040
 4337SOL     OW24472   3.584   0.762   6.298  0.2553 -0.3496  0.0313
 4337SOL    HW124473   3.573   0.668   6.310  0.6782 -0.2213  1.4198
 4337SOL    HW224474   3.675   0.773   6.272 -0.0371 -1.3840 -1.4769
 4338SOL     OW24475   2.766   0.393   7.686  0.0442 -0.3051  0.1588
 4338SOL    HW124476   2.687   0.339   7.679 -0.2172 -0.1376  1.7832
 4338SOL    HW224477   2.747   0.454   7.757  1.1986 -0.3502  0.5033
 4339SOL     OW24478   0.965   1.510  10.455 -0.2017  0.5512 -0.1443
 4339SOL    HW124479   0.937   1.492  10.545 -0.3382  0.4057 -0.2151
 4339SOL    HW224480   0.993   1.596  10.485  0.0132  0.8928 -1.3190
 4340SOL     OW24481   2.363   0.972   7.668 -0.2160 -0.0333 -0.4445
 4340SOL    HW124482   2.424   0.972   7.742 -2.5703 -1.7243  1.4998
 4340SOL    HW224483   2.413   1.016   7.600  0.7753  3.1997  2.3888
 4341SOL     OW24484   0.544   0.592   6.506  0.5099 -0.2349 -0.2917
 4341SOL    HW124485   0.550   0.686   6.492  3.1386 -0.3308  0.3475
 4341SOL    HW224486   0.627   0.547   6.496  0.5641 -0.6573  2.0146
 4342SOL     OW24487   1.535   2.018   9.588 -0.1611 -0.6093 -0.0461
 4342SOL    HW124488   1.491   1.981   9.665  1.5655 -2.0044  0.2760
 4342SOL    HW224489   1.469   2.080   9.557 -0.7429 -0.6580  1.1050
 4343SOL     OW24490   4.413   2.665   6.330 -0.4989 -0.5261 -0.0609
 4343SOL    HW124491   4.344   2.731   6.322 -2.0747 -1.9079  2.1211
 4343SOL    HW224492   4.478   2.705   6.389 -0.6757  1.1228 -0.9700
 4344SOL     OW24493   1.464   1.255   3.854 -0.0429 -0.1260 -0.1342
 4344SOL    HW124494   1.484   1.180   3.910  0.7261  0.5895  0.5555
 4344SOL    HW224495   1.547   1.285   3.816  1.3404 -0.8133  2.3700
 4345SOL     OW24496   3.601   0.889   5.558  0.1502  0.5341  0.3288
 4345SOL    HW124497   3.559   0.884   5.644  1.4522 -1.1511  0.8650
 4345SOL    HW224498   3.539   0.946   5.512  0.7292 -0.2003 -1.3786
 4346SOL     OW24499   2.868   4.395   7.341 -0.8209 -0.1078 -0.0088
 4346SOL    HW124500   2.951   4.431   7.373 -0.5206 -1.5673  0.8625
 4346SOL    HW224501   2.819   4.410   7.422  0.3136 -2.9584  1.2402
 4347SOL     OW24502   2.814   4.341  12.096 -0.2231  0.1396 -0.0152
 4347SOL    HW124503   2.860   4.266  12.057 -0.1720 -0.2273  0.7534
 4347SOL    HW224504   2.800   4.302  12.182 -0.6495  1.5035  0.5236
 4348SOL     OW24505   1.764   3.909  13.936  0.0551 -0.0940  0.8014
 4348SOL    HW124506   1.805   3.852  14.001 -2.3620 -1.0123  1.5206
 4348SOL    HW224507   1.722   3.966  14.000 -2.7547 -1.0791 -0.1552
 4349SOL     OW24508   2.515   1.778  14.510  1.1950 -0.1124 -0.0695
 4349SOL    HW124509   2.555   1.794  14.596  0.7027 -2.8313  0.6675
 4349SOL    HW224510   2.586   1.727  14.471  0.8268 -0.7690  0.1058
 4350SOL     OW24511   1.307   1.121   9.968 -0.2730  0.0612 -0.2724
 4350SOL    HW124512   1.222   1.089   9.937 -0.8339 -1.1476  2.5133
 4350SOL    HW224513   1.314   1.194   9.906  1.3112  1.0991  1.1460
 4351SOL     OW24514   3.052   2.834   4.466  0.3125  0.3170  0.1828
 4351SOL    HW124515   3.012   2.816   4.551 -1.9563 -0.0522 -0.9704
 4351SOL    HW224516   3.003   2.913   4.444  0.3277  0.3380  0.2259
 4352SOL     OW24517   4.580   2.985   7.059 -0.2177 -0.5232  0.1709
 4352SOL    HW124518   4.646   2.916   7.054 -0.1430 -0.5952  2.4668
 4352SOL    HW224519   4.519   2.944   7.120 -2.2520  0.3871 -1.2216
 4353SOL     OW24520   0.304   3.158   8.037 -0.1929 -0.6451 -0.0321
 4353SOL    HW124521   0.299   3.238   8.089 -0.5780 -0.5983 -0.1410
 4353SOL    HW224522   0.209   3.141   8.038 -0.0047 -1.7142 -0.0516
 4354SOL     OW24523   3.358   2.881   6.981  0.7188 -0.6272 -0.2676
 4354SOL    HW124524   3.450   2.856   6.992  0.9912 -0.8401 -2.9573
 4354SOL    HW224525   3.372   2.969   6.945  0.5601 -0.1430  0.8663
 4355SOL     OW24526   2.640   4.701  10.187 -0.0221  0.3527  0.0769
 4355SOL    HW124527   2.646   0.039  10.112  2.5878  1.2982  1.0227
 4355SOL    HW224528   2.729   4.713  10.221 -0.7014  0.8499  1.6776
 4356SOL     OW24529   1.940   1.192   3.791  0.1645 -0.2216  0.0634
 4356SOL    HW124530   1.991   1.262   3.750 -0.2034 -0.8669 -1.5253
 4356SOL    HW224531   1.854   1.206   3.751  1.0568  1.3318 -1.3259
 4357SOL     OW24532   4.322   0.485   4.208 -0.4265  0.4196 -0.1858
 4357SOL    HW124533   4.331   0.427   4.284 -0.2176  1.0572  0.2831
 4357SOL    HW224534   4.398   0.467   4.153 -2.1837 -0.3850 -2.3454
 4358SOL     OW24535   0.137   2.413   6.134 -0.5177 -0.1003 -0.3196
 4358SOL    HW124536   0.088   2.434   6.055 -1.1473  3.3324  0.9638
 4358SOL    HW224537   0.082   2.434   6.210  1.7630 -2.2730  1.9563
 4359SOL     OW24538   2.220   2.582  16.192 -0.2626 -0.0165 -0.0853
 4359SOL    HW124539   2.164   2.610  16.264 -1.5805  0.3448 -1.2598
 4359SOL    HW224540   2.217   2.662  16.139 -2.4447 -0.7417 -1.0602
 4360SOL     OW24541   2.102   0.638  11.810 -0.1834  0.1339  0.1479
 4360SOL    HW124542   2.147   0.720  11.789 -1.9403  0.6347 -1.6000
 4360SOL    HW224543   2.123   0.623  11.903 -0.3891 -1.1163 -0.0171
 4361SOL     OW24544   3.991   1.894   7.595 -0.2501  0.4062 -0.1820
 4361SOL    HW124545   3.962   1.965   7.652 -1.2545  0.6751 -1.0316
 4361SOL    HW224546   3.928   1.885   7.523 -1.2930  0.6281  0.7039
 4362SOL     OW24547   3.656   1.005   8.930 -0.2127 -0.4627 -0.0747
 4362SOL    HW124548   3.631   0.989   9.021  1.3221  0.8077  0.5861
 4362SOL    HW224549   3.749   0.983   8.931 -0.1589 -0.1917  1.1503
 4363SOL     OW24550   1.604   3.350  13.279  0.0479  0.1308 -0.0095
 4363SOL    HW124551   1.635   3.371  13.191  1.5875  0.3723  0.5977
 4363SOL    HW224552   1.644   3.418  13.332 -1.8242  0.8385  0.4934
 4364SOL     OW24553   3.527   2.155   5.225  0.0013 -0.0249  0.3298
 4364SOL    HW124554   3.480   2.072   5.233  0.2631 -0.1862  0.2131
 4364SOL    HW224555   3.608   2.138   5.273 -1.2993 -2.6614  1.5860
 4365SOL     OW24556   2.080   1.489   2.737 -0.0817 -0.3853  0.4210
 4365SOL    HW124557   2.122   1.468   2.654 -0.1146 -1.5557  0.7031
 4365SOL    HW224558   2.049   1.578   2.721  3.1637  0.4288 -1.2432
 4366SOL     OW24559   4.235   1.254  11.503  0.2969 -0.6266 -0.4271
 4366SOL    HW124560   4.323   1.290  11.495  0.7126 -0.7205  3.5098
 4366SOL    HW224561   4.242   1.216  11.590 -1.4369  2.8762  1.2647
 4367SOL     OW24562   3.441   2.841   5.113 -0.1242 -0.2885 -0.1185
 4367SOL    HW124563   3.419   2.846   5.020 -0.5798 -0.6940 -0.0293
 4367SOL    HW224564   3.351   2.840   5.146  0.3506  1.5930  1.2544
 4368SOL     OW24565   1.509   2.292   7.942 -0.1830 -0.0322 -0.3214
 4368SOL    HW124566   1.426   2.300   7.896  0.0127 -1.1386 -0.8653
 4368SOL    HW224567   1.493   2.364   8.003  0.2643 -0.0969 -0.1243
 4369SOL     OW24568   4.212   3.295   7.957 -0.2031 -0.0993 -0.0862
 4369SOL    HW124569   4.122   3.290   7.990  0.0411  0.8067  0.7066
 4369SOL    HW224570   4.250   3.305   8.044  0.9123 -0.7792 -0.4931
 4370SOL     OW24571   0.893   2.177  13.993  0.2408 -0.5925 -0.0566
 4370SOL    HW124572   0.894   2.237  13.919 -1.1788 -3.2951 -2.2624
 4370SOL    HW224573   0.874   2.088  13.963 -0.0502 -0.5798  0.0843
 4371SOL     OW24574   3.696   3.777   6.305  0.2881  0.1170 -0.0021
 4371SOL    HW124575   3.604   3.775   6.331 -0.0880 -0.9646 -1.4351
 4371SOL    HW224576   3.676   3.793   6.213  1.1676  2.7252  0.2486
 4372SOL     OW24577   2.134   4.702   7.913 -0.1395  0.0641 -0.0376
 4372SOL    HW124578   2.122   4.655   7.831  0.6925  1.6512 -1.0442
 4372SOL    HW224579   2.100   4.637   7.975 -0.1544 -1.1012 -1.2564
 4373SOL     OW24580   4.476   0.798   6.256  0.0033 -0.3885 -0.3187
 4373SOL    HW124581   4.389   0.801   6.295  0.2182  0.0306  0.1231
 4373SOL    HW224582   4.529   0.759   6.325  1.2186 -2.2697 -2.3057
 4374SOL     OW24583   4.274   0.664   8.608  0.0292 -0.2357  0.2955
 4374SOL    HW124584   4.185   0.651   8.640 -0.4379  3.7795  0.5678
 4374SOL    HW224585   4.257   0.739   8.552 -0.8112 -1.0620 -0.5639
 4375SOL     OW24586   3.558   3.747   7.548 -0.1092 -0.0291  0.6715
 4375SOL    HW124587   3.495   3.742   7.620  1.0654  2.5467  1.8739
 4375SOL    HW224588   3.567   3.656   7.519 -0.7606  0.5281 -1.2878
 4376SOL     OW24589   3.347   3.312   1.660  0.1832  0.0434 -0.0123
 4376SOL    HW124590   3.290   3.370   1.610 -2.9697 -1.3066  2.0050
 4376SOL    HW224591   3.394   3.267   1.589  1.5958  1.9732 -0.3130
 4377SOL     OW24592   4.510   2.832   5.360  0.4329 -0.4765  0.0388
 4377SOL    HW124593   4.510   2.737   5.356 -0.1153 -0.4732 -0.1018
 4377SOL    HW224594   4.527   2.856   5.269  0.7005  0.7067  0.3930
 4378SOL     OW24595   1.200   2.662   6.215 -0.7839  0.1688 -0.3417
 4378SOL    HW124596   1.117   2.662   6.169  2.1021  1.2392 -5.4937
 4378SOL    HW224597   1.188   2.588   6.275 -0.2755 -1.2116 -1.9355
 4379SOL     OW24598   2.369   2.435   3.125  0.1912 -0.4895 -0.4308
 4379SOL    HW124599   2.402   2.348   3.147  0.4078  0.4549  3.0016
 4379SOL    HW224600   2.302   2.402   3.065  0.1680  0.9039 -1.1724
 4380SOL     OW24601   1.342   2.185  12.472  0.6233 -0.0210  0.2490
 4380SOL    HW124602   1.248   2.202  12.464 -0.0003 -1.1750  5.3786
 4380SOL    HW224603   1.352   2.140  12.388  1.3449 -0.4025  0.5373
 4381SOL     OW24604   4.705   1.653   5.107  0.2775 -0.1639  0.3023
 4381SOL    HW124605   0.025   1.603   5.037 -1.8992 -1.0935 -0.3009
 4381SOL    HW224606   0.059   1.701   5.141  0.0809  0.3967 -0.0559
 4382SOL     OW24607   4.583   1.760   4.182 -0.1372  0.0418 -0.1178
 4382SOL    HW124608   4.544   1.692   4.127 -2.0066  1.4652 -0.5736
 4382SOL    HW224609   4.498   1.798   4.204  1.1497  1.9511  1.5531
 4383SOL     OW24610   3.884   0.712   4.505 -0.1673  0.0003  0.0956
 4383SOL    HW124611   3.936   0.775   4.454  0.8916  0.7756  2.1560
 4383SOL    HW224612   3.842   0.657   4.438  0.7643  0.9435 -1.2754
 4384SOL     OW24613   2.764   3.436   3.430  0.5833 -0.6931  0.7982
 4384SOL    HW124614   2.674   3.465   3.449  1.4811  0.8467  2.6940
 4384SOL    HW224615   2.817   3.511   3.458 -1.6053  0.5116  1.7419
 4385SOL     OW24616   0.129   3.836   2.967  0.0280  0.2705  0.0228
 4385SOL    HW124617   0.208   3.857   2.918 -1.1598 -3.4632 -3.4925
 4385SOL    HW224618   0.155   3.856   3.057 -1.0592  1.2538  0.1168
 4386SOL     OW24619   2.524   2.219   6.796 -0.1934 -0.5016  0.0022
 4386SOL    HW124620   2.577   2.298   6.805 -1.1390  0.0750  0.5201
 4386SOL    HW224621   2.559   2.174   6.719 -0.1238  0.1148 -0.3227
 4387SOL     OW24622   3.337   0.264   1.692  0.1171 -0.1519  0.1324
 4387SOL    HW124623   3.288   0.280   1.773 -1.0602  0.1734 -0.6471
 4387SOL    HW224624   3.418   0.220   1.718  0.8008  1.0439  0.0130
 4388SOL     OW24625   4.014   1.067   1.915 -0.0290 -0.8201  1.2796
 4388SOL    HW124626   4.053   0.991   1.959  0.7533 -0.9980  0.2640
 4388SOL    HW224627   4.082   1.086   1.851 -0.6544 -1.4713  0.4269
 4389SOL     OW24628   3.838   1.882  12.934  0.2468 -0.7748 -0.0975
 4389SOL    HW124629   3.887   1.874  13.016  0.4287 -0.3072 -0.1575
 4389SOL    HW224630   3.903   1.921  12.875 -0.7013  0.7098 -0.1613
 4390SOL     OW24631   1.512   1.573   0.673 -0.1749  0.8205  0.0341
 4390SOL    HW124632   1.553   1.543   0.592  1.8097  3.8760 -0.0978
 4390SOL    HW224633   1.572   1.643   0.700  1.3743  0.5505 -2.7048
 4391SOL     OW24634   1.920   3.315   6.891  0.0847 -0.7549  0.9913
 4391SOL    HW124635   1.976   3.314   6.968 -1.5565 -4.9257  2.1128
 4391SOL    HW224636   1.865   3.241   6.917 -2.5930  0.2294 -1.7833
 4392SOL     OW24637   2.729   0.378   4.240 -0.4249 -0.4558  0.2987
 4392SOL    HW124638   2.775   0.317   4.298 -1.2624 -0.0143  1.4141
 4392SOL    HW224639   2.643   0.370   4.280 -0.8706 -0.8886 -0.7260
 4393SOL     OW24640   3.664   1.927   3.952 -0.1947 -0.1024  0.1291
 4393SOL    HW124641   3.687   1.841   3.917  1.8109  1.0667 -1.4182
 4393SOL    HW224642   3.748   1.943   3.995 -0.4517 -2.4563  1.5183
 4394SOL     OW24643   2.327   2.320   2.834  0.2408  0.0211  0.0857
 4394SOL    HW124644   2.296   2.356   2.751  0.9793 -0.1530 -0.2648
 4394SOL    HW224645   2.245   2.309   2.883  0.3492  2.7617  0.8756
 4395SOL     OW24646   3.773   1.090  13.315  0.2600 -0.4155 -0.2976
 4395SOL    HW124647   3.830   1.136  13.253 -2.6456  0.3448 -2.3844
 4395SOL    HW224648   3.731   1.028  13.256 -2.0739 -0.7153  1.6963
 4396SOL     OW24649   0.344   0.537   1.769  0.3734 -0.1063 -0.2818
 4396SOL    HW124650   0.306   0.577   1.691 -0.3482 -1.5566 -0.6685
 4396SOL    HW224651   0.415   0.476   1.747  0.3040 -0.4038  0.3269
 4397SOL     OW24652   0.221   2.372   8.796 -0.2871  0.0129  0.3604
 4397SOL    HW124653   0.229   2.310   8.869  1.2836 -1.7526 -1.2917
 4397SOL    HW224654   0.290   2.435   8.817 -1.4675  1.9863 -1.7232
 4398SOL     OW24655   4.290   2.724   6.976  0.0554  0.6356 -0.1798
 4398SOL    HW124656   4.327   2.776   7.048  0.0609  1.4144 -0.7497
 4398SOL    HW224657   4.298   2.635   7.010  2.7422  0.2920 -1.6987
 4399SOL     OW24658   3.191   0.901  11.654  0.2184 -0.1122 -0.2670
 4399SOL    HW124659   3.168   0.808  11.659 -4.1855  1.1045  1.6277
 4399SOL    HW224660   3.221   0.911  11.744 -0.2810  1.7477 -0.3134
 4400SOL     OW24661   2.791   0.626   6.554  0.2505  0.3501  0.2667
 4400SOL    HW124662   2.847   0.549   6.562 -0.4978 -0.3751 -1.5764
 4400SOL    HW224663   2.842   0.666   6.484 -0.1468 -1.0506 -0.8071
 4401SOL     OW24664   3.576   2.695   4.752  0.1802 -0.4596  0.7277
 4401SOL    HW124665   3.643   2.753   4.790  2.3351 -2.0609 -0.5948
 4401SOL    HW224666   3.606   2.691   4.661  2.4464 -2.4688  1.5677
 4402SOL     OW24667   1.496   2.958   3.490  0.0228 -0.2452 -0.4682
 4402SOL    HW124668   1.481   2.869   3.457 -0.6090 -0.4884  0.4784
 4402SOL    HW224669   1.425   3.009   3.451 -0.4310 -0.5144  0.0149
 4403SOL     OW24670   4.462   1.935   3.832 -0.0607 -0.3174  0.2661
 4403SOL    HW124671   4.464   1.973   3.920 -2.1769  2.3109 -0.8472
 4403SOL    HW224672   4.554   1.910   3.823  0.5187  0.9712  2.5458
 4404SOL     OW24673   1.606   0.123   8.317  0.1557 -0.0938 -0.3712
 4404SOL    HW124674   1.511   0.133   8.312  0.5050  2.3409 -1.6102
 4404SOL    HW224675   1.637   0.149   8.231 -0.3893 -0.7412 -0.7686
 4405SOL     OW24676   0.250   1.723  14.473 -0.3410 -0.0048 -0.1243
 4405SOL    HW124677   0.175   1.774  14.503  1.3814  2.0200  0.7676
 4405SOL    HW224678   0.210   1.636  14.481  1.2414 -0.6550  0.7559
 4406SOL     OW24679   2.172   2.154   1.115  0.2361  0.3293  0.5706
 4406SOL    HW124680   2.140   2.217   1.050  2.4660  0.7333 -0.1281
 4406SOL    HW224681   2.227   2.209   1.170  0.3161 -0.7450  1.5532
 4407SOL     OW24682   4.438   4.480   7.359 -0.5584 -0.4393 -0.4267
 4407SOL    HW124683   4.348   4.498   7.385 -0.7942  0.7435 -2.0258
 4407SOL    HW224684   4.456   4.562   7.313  1.9226  0.5004  2.1959
 4408SOL     OW24685   2.437   3.620   1.028  0.2309  0.5019  0.0382
 4408SOL    HW124686   2.467   3.573   1.106  2.3933  1.5531 -0.1842
 4408SOL    HW224687   2.369   3.676   1.066 -1.3854  0.4439 -2.7742
 4409SOL     OW24688   2.835   1.278   8.161 -0.5559 -0.7401 -0.0041
 4409SOL    HW124689   2.819   1.372   8.153  0.3089 -0.3401  2.7519
 4409SOL    HW224690   2.873   1.286   8.249  0.3085  1.1875 -0.5675
 4410SOL     OW24691   3.217   3.472   2.428 -0.5824 -0.3727  0.3147
 4410SOL    HW124692   3.250   3.415   2.497  2.3219  2.8344  1.5190
 4410SOL    HW224693   3.275   3.451   2.355  1.8295 -1.6570  2.6028
 4411SOL     OW24694   0.424   3.646   2.977 -0.3113 -0.0405  0.4042
 4411SOL    HW124695   0.500   3.616   3.026 -0.3633  0.0704  0.5556
 4411SOL    HW224696   0.387   3.718   3.029 -0.0142  0.1159  0.3965
 4412SOL     OW24697   1.020   2.927  12.336 -0.2154  0.4481 -0.1096
 4412SOL    HW124698   1.114   2.944  12.330  0.2718 -2.9258 -1.7310
 4412SOL    HW224699   0.983   3.001  12.287  1.7813  1.4520 -0.0568
 4413SOL     OW24700   0.748   1.310   8.226  0.0554 -0.0229  0.0641
 4413SOL    HW124701   0.834   1.269   8.212  0.2504  0.4360 -0.0747
 4413SOL    HW224702   0.689   1.242   8.193 -0.5568 -0.2767  1.7022
 4414SOL     OW24703   4.433   2.057  11.518  0.0429 -0.5602  0.1045
 4414SOL    HW124704   4.439   2.113  11.596 -1.6396  0.0934 -0.2341
 4414SOL    HW224705   4.523   2.025  11.517  0.2905  0.2344 -2.6004
 4415SOL     OW24706   4.676   4.116   0.304  0.7228 -0.2918  0.5126
 4415SOL    HW124707   4.600   4.145   0.355  0.4726  0.1911 -0.1265
 4415SOL    HW224708   4.637   4.070   0.230  1.1562 -1.9379  1.3203
 4416SOL     OW24709   1.075   3.558  10.494  0.2521  0.0828  0.1762
 4416SOL    HW124710   0.994   3.594  10.459 -0.4178 -2.2530 -0.7170
 4416SOL    HW224711   1.051   3.479  10.544  1.3576 -0.6256 -0.4177
 4417SOL     OW24712   2.603   2.898   8.120 -0.3145 -0.3808 -0.7789
 4417SOL    HW124713   2.683   2.858   8.156  0.5409  0.1848 -2.0510
 4417SOL    HW224714   2.541   2.828   8.139  1.0538 -0.8735  1.9720
 4418SOL     OW24715   2.018   0.940   3.226  0.1592 -0.0205  0.2253
 4418SOL    HW124716   2.100   0.956   3.272  0.6682 -0.8806 -0.3773
 4418SOL    HW224717   2.055   0.958   3.140  1.0378  0.8944  0.8054
 4419SOL     OW24718   0.626   0.744   9.345  0.4845 -0.0264  0.4609
 4419SOL    HW124719   0.638   0.669   9.286 -0.5852 -0.1093  0.3417
 4419SOL    HW224720   0.608   0.812   9.280 -0.5251 -0.2742  0.4722
 4420SOL     OW24721   0.654   2.893  10.533 -0.3007 -0.1731  0.0100
 4420SOL    HW124722   0.699   2.817  10.496  0.5800 -0.8973  2.5859
 4420SOL    HW224723   0.680   2.873  10.623  1.7535 -0.4747 -0.6450
 4421SOL     OW24724   3.687   2.944   5.148  0.4679 -0.0524  0.7526
 4421SOL    HW124725   3.654   2.936   5.238  0.9064  1.9818  1.0925
 4421SOL    HW224726   3.607   2.905   5.110  0.3659 -1.9454  2.8904
 4422SOL     OW24727   2.804   1.895   3.947  0.0272  0.3970  0.0343
 4422SOL    HW124728   2.807   1.925   3.857 -0.0112 -4.8473 -1.7351
 4422SOL    HW224729   2.715   1.921   3.971  0.3818  0.4111  1.3504
 4423SOL     OW24730   2.558   2.619   7.800 -0.1654 -0.0124  0.1993
 4423SOL    HW124731   2.613   2.561   7.853  2.6202  1.4562 -1.1219
 4423SOL    HW224732   2.609   2.700   7.808  1.3235 -1.1295  2.0130
 4424SOL     OW24733   0.952   0.781   0.915  0.7417 -0.1286 -0.5963
 4424SOL    HW124734   0.942   0.733   0.833 -0.8948  0.0630 -0.4970
 4424SOL    HW224735   0.916   0.714   0.974 -0.6345  1.8564  0.8032
 4425SOL     OW24736   4.715   0.238  14.551  0.0609  0.5363 -0.0387
 4425SOL    HW124737   4.701   0.150  14.586  3.4725  0.3394  0.8645
 4425SOL    HW224738   4.644   0.286  14.594 -0.3116 -1.0316  1.1048
 4426SOL     OW24739   0.643   2.808   5.249 -0.0854 -0.3636  0.0502
 4426SOL    HW124740   0.666   2.866   5.321 -0.8403 -0.8545  0.6771
 4426SOL    HW224741   0.564   2.763   5.278  1.5341 -2.1889  1.6164
 4427SOL     OW24742   1.464   3.053   4.630  0.4840  0.1309  0.1302
 4427SOL    HW124743   1.408   3.006   4.568 -0.9997  1.8361  0.1808
 4427SOL    HW224744   1.508   2.976   4.666 -1.1947 -0.3495  1.1526
 4428SOL     OW24745   1.492   0.124  13.695 -0.4596  0.1761  0.2878
 4428SOL    HW124746   1.548   0.056  13.734 -2.1734 -1.2711  0.1976
 4428SOL    HW224747   1.550   0.158  13.626 -1.0426  0.6419  0.0269
 4429SOL     OW24748   2.047   1.336   6.053  0.0505 -0.7910  0.1986
 4429SOL    HW124749   2.003   1.271   6.108  0.3984 -0.1306  1.2597
 4429SOL    HW224750   2.021   1.304   5.966  3.2333 -1.4416 -0.5229
 4430SOL     OW24751   2.994   3.761   3.103 -0.0536 -0.1933 -0.7908
 4430SOL    HW124752   2.916   3.780   3.051 -1.3550  0.1297  1.2390
 4430SOL    HW224753   3.050   3.740   3.029 -0.0173 -1.7380 -0.3164
 4431SOL     OW24754   4.059   2.407   3.146  0.4473  0.2461 -0.0079
 4431SOL    HW124755   4.078   2.491   3.104  1.7046 -0.0061  0.0648
 4431SOL    HW224756   3.973   2.389   3.106 -0.0145 -1.0785  1.5724
 4432SOL     OW24757   3.481   2.776  13.645 -0.3022 -0.4878 -0.0762
 4432SOL    HW124758   3.546   2.827  13.693  0.2428 -1.8089  0.5672
 4432SOL    HW224759   3.525   2.760  13.561  0.0658  0.2765 -0.0331
 4433SOL     OW24760   0.903   2.739   8.489  1.0086  0.2104 -0.9440
 4433SOL    HW124761   0.817   2.776   8.467  0.0152 -0.8794  1.1106
 4433SOL    HW224762   0.918   2.689   8.409  2.6529 -2.7263  1.2274
 4434SOL     OW24763   0.927   0.673  15.090 -0.4083  0.1573  0.5677
 4434SOL    HW124764   0.945   0.617  15.015  1.3629  2.1425 -0.5147
 4434SOL    HW224765   0.936   0.756  15.043 -0.1207 -0.7503 -0.9727
 4435SOL     OW24766   4.488   4.220   8.605 -0.0143 -0.3455 -0.1411
 4435SOL    HW124767   4.528   4.221   8.692  0.9684 -1.5220 -0.5646
 4435SOL    HW224768   4.564   4.249   8.554  1.1841 -1.4354  1.0197
 4436SOL     OW24769   2.001   1.578  15.924 -0.6214  0.5419  0.0952
 4436SOL    HW124770   1.947   1.628  15.862 -1.5904 -2.6241 -1.6027
 4436SOL    HW224771   1.984   1.606  16.014 -1.0890  1.0483 -0.1497
 4437SOL     OW24772   2.275   2.274   7.466  0.0901 -0.1191 -0.1281
 4437SOL    HW124773   2.226   2.205   7.511 -0.2812  0.2914  0.0995
 4437SOL    HW224774   2.269   2.246   7.374 -0.2682 -0.6969  0.0662
 4438SOL     OW24775   1.201   1.603   2.411 -0.5148 -0.7925 -0.2078
 4438SOL    HW124776   1.205   1.582   2.317 -0.8861 -0.9170 -0.1978
 4438SOL    HW224777   1.268   1.547   2.451 -1.0264  0.1060  1.8937
 4439SOL     OW24778   1.850   2.432  17.092  0.9992  0.1100  0.1707
 4439SOL    HW124779   1.897   2.423  17.175 -1.9603  2.1240  2.0785
 4439SOL    HW224780   1.861   2.339  17.069  2.1509 -0.3656  2.5814
 4440SOL     OW24781   1.724   1.603   3.234 -0.4506 -0.0612  0.3773
 4440SOL    HW124782   1.649   1.618   3.292  0.2035 -1.2099  1.5228
 4440SOL    HW224783   1.676   1.562   3.163 -0.8017 -2.6655  2.1169
 4441SOL     OW24784   1.973   2.435  14.789 -0.0486  0.4947  0.3649
 4441SOL    HW124785   2.047   2.463  14.843  0.5808 -0.3522 -0.0731
 4441SOL    HW224786   1.914   2.510  14.800  0.6316  1.3081 -1.4686
 4442SOL     OW24787   1.211   4.258   9.101 -0.1826 -0.2594 -0.0006
 4442SOL    HW124788   1.204   4.352   9.118  1.3010 -0.5870  2.2895
 4442SOL    HW224789   1.149   4.260   9.028  0.4671 -1.0636 -0.5823
 4443SOL     OW24790   0.467   0.613   3.876 -0.7381  0.4828 -0.4201
 4443SOL    HW124791   0.551   0.589   3.915 -0.6959  1.7242  0.2420
 4443SOL    HW224792   0.488   0.650   3.790  3.8348 -0.2544  0.3965
 4444SOL     OW24793   4.439   1.449   4.972 -0.0396 -0.1798  0.0962
 4444SOL    HW124794   4.363   1.424   4.920 -1.3468  2.0873  0.8961
 4444SOL    HW224795   4.430   1.542   4.950  2.2641  0.1203  0.4383
 4445SOL     OW24796   1.846   1.926   0.918  0.0939  0.4447 -0.0221
 4445SOL    HW124797   1.934   1.904   0.885 -0.8521 -2.7693 -0.4020
 4445SOL    HW224798   1.873   1.932   1.010  1.4790 -2.4616 -0.2418
 4446SOL     OW24799   1.383   2.016   7.762 -0.8577 -0.0999  0.4620
 4446SOL    HW124800   1.386   1.925   7.733  2.0223  0.3430 -0.6138
 4446SOL    HW224801   1.370   2.058   7.677 -0.4359  0.8809  0.8733
 4447SOL     OW24802   0.365   1.757   5.711  0.2401  0.2435  0.0849
 4447SOL    HW124803   0.414   1.692   5.761  0.4520  0.7405  0.5200
 4447SOL    HW224804   0.311   1.713   5.645  1.4544 -0.1822 -0.6274
 4448SOL     OW24805   2.362   3.253   3.821 -0.6918 -0.0167  0.2719
 4448SOL    HW124806   2.382   3.325   3.881  0.9616 -0.1340 -0.1535
 4448SOL    HW224807   2.273   3.281   3.798 -0.7968 -0.1227  0.5397
 4449SOL     OW24808   0.840   2.882   2.444  0.2131 -0.0545  0.3395
 4449SOL    HW124809   0.846   2.795   2.405 -1.4768  0.3619 -0.8284
 4449SOL    HW224810   0.885   2.875   2.529  0.6444 -2.6291 -0.0968
 4450SOL     OW24811   4.660   2.195  11.684  0.4688 -0.0815 -0.5458
 4450SOL    HW124812   4.710   2.128  11.730  2.1616  1.0251 -0.7559
 4450SOL    HW224813   4.705   2.181  11.601  1.9778  1.2469  0.0435
 4451SOL     OW24814   0.563   0.432   7.526 -0.6153 -0.6062 -0.5866
 4451SOL    HW124815   0.591   0.364   7.588  0.6453 -0.0533 -0.5331
 4451SOL    HW224816   0.468   0.430   7.532 -0.6192  1.2953  0.1703
 4452SOL     OW24817   3.422   0.758   1.031 -0.3195 -0.4827  0.4512
 4452SOL    HW124818   3.478   0.776   0.956 -2.5570  1.2272 -0.8045
 4452SOL    HW224819   3.488   0.761   1.100 -0.1313 -0.9720  0.2972
 4453SOL     OW24820   2.335   1.543   5.784  0.1953  0.4414  0.1120
 4453SOL    HW124821   2.252   1.568   5.825  0.5968 -0.2419  1.3416
 4453SOL    HW224822   2.343   1.607   5.714 -0.7376  2.4422  1.8275
 4454SOL     OW24823   0.829   2.386   0.617  0.4662  0.3042 -0.3507
 4454SOL    HW124824   0.771   2.328   0.667 -1.6424  2.3426 -0.4278
 4454SOL    HW224825   0.790   2.473   0.628 -1.2433 -0.5350  0.2449
 4455SOL     OW24826   2.073   1.048  17.673  0.0383  0.7103  0.4522
 4455SOL    HW124827   2.109   1.033   0.074 -2.9520 -0.2538  1.4920
 4455SOL    HW224828   2.091   0.967  17.627 -0.7571  0.8191 -0.0496
 4456SOL     OW24829   4.233   0.097   9.397 -0.5538 -0.0661  0.1832
 4456SOL    HW124830   4.268   0.154   9.465 -0.2239 -1.1230  0.9137
 4456SOL    HW224831   4.271   0.132   9.317 -0.4175 -1.3768 -0.3328
 4457SOL     OW24832   3.309   3.032   4.656  0.0296 -0.4816  0.1315
 4457SOL    HW124833   3.221   3.060   4.629 -0.4857 -1.3107  0.9379
 4457SOL    HW224834   3.355   3.115   4.664 -1.0538  0.2125 -0.7864
 4458SOL     OW24835   2.625   1.423  16.722  0.2381  0.1902  0.7046
 4458SOL    HW124836   2.553   1.436  16.661  0.7708  0.0672  0.0449
 4458SOL    HW224837   2.622   1.331  16.746  0.8114  0.2578  1.0541
 4459SOL     OW24838   3.065   1.577   2.217 -0.2329 -0.4216 -0.4597
 4459SOL    HW124839   3.124   1.646   2.186 -0.3348  1.0051  2.5001
 4459SOL    HW224840   3.107   1.501   2.178  2.3711  0.3263  0.8643
 4460SOL     OW24841   3.792   2.133   7.511 -0.2636 -0.4125  0.0342
 4460SOL    HW124842   3.727   2.160   7.576 -2.6398 -0.8309 -2.1732
 4460SOL    HW224843   3.860   2.200   7.521  0.7913 -1.0926 -2.7337
 4461SOL     OW24844   1.303   4.707   6.720  0.5273  0.6564 -0.4530
 4461SOL    HW124845   1.339   4.681   6.635  0.7765  0.3407 -0.2484
 4461SOL    HW224846   1.386   4.708   6.766  0.0704  2.0766  0.3358
 4462SOL     OW24847   1.133   2.684  10.249 -0.1753 -0.2950 -0.2650
 4462SOL    HW124848   1.179   2.731  10.179 -0.2560  1.0492  0.6041
 4462SOL    HW224849   1.193   2.611  10.261 -0.1408 -0.0826  0.7817
 4463SOL     OW24850   3.766   1.742   4.344  0.5359 -0.1651 -0.2165
 4463SOL    HW124851   3.677   1.745   4.381  1.3707  1.5298  1.6760
 4463SOL    HW224852   3.780   1.837   4.346 -1.4479  0.1128  0.7655
 4464SOL     OW24853   0.408   2.251  10.387 -0.1186  0.1141 -0.0184
 4464SOL    HW124854   0.398   2.318  10.454 -1.7425 -1.0414  0.9016
 4464SOL    HW224855   0.398   2.287  10.299  1.3912 -1.7751 -0.9679
 4465SOL     OW24856   2.881   0.186  15.006 -0.4751 -0.3228 -0.0796
 4465SOL    HW124857   2.800   0.212  15.050 -2.4123  0.0151 -3.8472
 4465SOL    HW224858   2.851   0.185  14.915 -2.3827 -1.3083  0.5620
 4466SOL     OW24859   2.710   4.386   6.904  0.1231  0.2915  1.0025
 4466SOL    HW124860   2.740   4.477   6.905 -1.3377  0.7982  0.2012
 4466SOL    HW224861   2.791   4.341   6.927 -0.6084 -1.3042  0.4519
 4467SOL     OW24862   4.615   4.122  16.036 -0.1125 -0.1466 -0.4973
 4467SOL    HW124863   4.700   4.144  16.075  0.3595 -0.6692 -1.2433
 4467SOL    HW224864   4.604   4.037  16.079 -0.5499 -0.1240 -0.5703
 4468SOL     OW24865   2.304   2.098   9.864  0.5157 -0.4050 -0.0640
 4468SOL    HW124866   2.273   2.065   9.948 -1.5058  0.1423 -0.5993
 4468SOL    HW224867   2.321   2.013   9.823 -1.3991 -0.2083 -1.2676
 4469SOL     OW24868   1.913   4.530   3.004 -0.5387  0.0909 -0.1732
 4469SOL    HW124869   1.958   4.577   3.073  0.5658  1.9023 -2.1219
 4469SOL    HW224870   1.985   4.504   2.947 -0.4251 -1.9423  0.8760
 4470SOL     OW24871   0.598   1.394  13.090  0.0883  0.2856 -0.6516
 4470SOL    HW124872   0.661   1.438  13.034  0.4649 -0.3430 -0.7285
 4470SOL    HW224873   0.530   1.368  13.028  0.3789  0.1120 -0.8983
 4471SOL     OW24874   3.045   0.153   3.241 -0.3278  0.2786  0.1065
 4471SOL    HW124875   2.950   0.140   3.245 -0.4882  1.3420 -0.1457
 4471SOL    HW224876   3.046   0.242   3.206  3.1868  0.1660 -0.0996
 4472SOL     OW24877   2.077   1.610   1.769  0.5573 -0.2042 -0.4278
 4472SOL    HW124878   2.047   1.520   1.781 -0.2381  0.2587  0.9978
 4472SOL    HW224879   2.008   1.643   1.710  2.1943 -0.5174 -2.5187
 4473SOL     OW24880   1.271   4.353   3.334 -0.6737 -0.1322  0.2492
 4473SOL    HW124881   1.183   4.321   3.349 -0.5131 -0.1941  1.0421
 4473SOL    HW224882   1.309   4.275   3.374 -0.9963 -0.3142  0.1984
 4474SOL     OW24883   0.564   2.506  16.151  0.2382  0.0787  0.0948
 4474SOL    HW124884   0.500   2.473  16.088  0.0151 -2.4074  1.6240
 4474SOL    HW224885   0.529   2.594  16.138  1.3965  0.6854  1.1584
 4475SOL     OW24886   1.864   1.774   3.586  0.1088 -0.0162 -0.4539
 4475SOL    HW124887   1.771   1.754   3.579 -0.2241  1.5284 -0.2655
 4475SOL    HW224888   1.873   1.834   3.659  0.9050  0.2247 -0.7511
 4476SOL     OW24889   1.974   4.367  16.644 -0.5462 -0.5698 -0.2987
 4476SOL    HW124890   1.965   4.330  16.556 -1.9824 -0.9175 -0.0015
 4476SOL    HW224891   2.069   4.377  16.655 -0.4864 -0.8067 -0.6075
 4477SOL     OW24892   4.695   1.863   3.505 -0.6163 -0.3264  0.0215
 4477SOL    HW124893   4.632   1.933   3.520  0.1949 -0.2922  3.1744
 4477SOL    HW224894   4.677   1.852   3.412  0.3065  0.5576 -0.2717
 4478SOL     OW24895   0.432   2.524  12.236  0.5314 -0.0401 -0.1792
 4478SOL    HW124896   0.357   2.519  12.177  0.1803  0.9697  0.1836
 4478SOL    HW224897   0.397   2.532  12.324 -0.9822  1.3242 -0.9244
 4479SOL     OW24898   3.143   3.014   4.099 -0.2136  0.7810 -0.2835
 4479SOL    HW124899   3.171   2.948   4.036 -0.6939  0.0042  0.3118
 4479SOL    HW224900   3.178   2.974   4.179 -0.3672  0.7845 -0.2136
 4480SOL     OW24901   0.852   3.201   4.985 -0.6318 -0.5383 -0.1326
 4480SOL    HW124902   0.801   3.209   5.065 -1.8163  1.1786 -1.0374
 4480SOL    HW224903   0.835   3.110   4.963  1.0461 -1.2760  1.6966
 4481SOL     OW24904   0.249   1.692   1.077  0.9969  0.2742 -0.1377
 4481SOL    HW124905   0.173   1.728   1.121  1.7551  0.7860  0.7527
 4481SOL    HW224906   0.308   1.669   1.149  2.7956  1.4099 -1.2302
 4482SOL     OW24907   2.039   0.978   4.619  0.2214  0.5924 -0.5173
 4482SOL    HW124908   2.014   0.909   4.557 -0.7062  1.6986 -1.3853
 4482SOL    HW224909   2.057   1.052   4.561  1.4075  0.2746 -0.5431
 4483SOL     OW24910   1.090   1.681   5.380 -0.4144  0.1049  0.1529
 4483SOL    HW124911   1.014   1.654   5.330 -2.0417  1.0984  2.0906
 4483SOL    HW224912   1.070   1.632   5.460 -1.2560  0.3510  0.0886
 4484SOL     OW24913   3.000   0.161   9.334 -0.2932 -0.3416 -0.1655
 4484SOL    HW124914   3.058   0.211   9.276 -0.7645  0.8098  0.3683
 4484SOL    HW224915   3.029   0.072   9.312  2.2011  0.3838  0.2466
 4485SOL     OW24916   0.209   4.413  15.893  0.1008 -0.0322  0.4303
 4485SOL    HW124917   0.121   4.381  15.876 -0.2508  1.2251 -0.0877
 4485SOL    HW224918   0.180   4.490  15.942  2.0256  0.5745  0.6344
 4486SOL     OW24919   0.500   1.163   9.299 -0.4830  0.6591  0.2885
 4486SOL    HW124920   0.574   1.223   9.293  1.2605 -1.4527  0.6893
 4486SOL    HW224921   0.535   1.101   9.363 -0.0438  0.9619  0.3439
 4487SOL     OW24922   1.491   2.496   8.542  0.1479 -0.1938  0.5809
 4487SOL    HW124923   1.421   2.531   8.487  0.4831  2.8101  2.0775
 4487SOL    HW224924   1.514   2.422   8.485  0.2498 -0.3257  0.7903
 4488SOL     OW24925   2.219   3.161   6.196 -0.6446  0.0510 -0.0540
 4488SOL    HW124926   2.302   3.199   6.168 -0.5776 -1.1376 -1.4637
 4488SOL    HW224927   2.246   3.072   6.217 -0.3101  0.6799  2.2547
 4489SOL     OW24928   1.553   1.910   5.855  0.1592  0.0004  0.0050
 4489SOL    HW124929   1.497   1.877   5.785 -0.8758 -0.5942  1.1159
 4489SOL    HW224930   1.519   1.858   5.928  0.2824  0.0620  0.1067
 4490SOL     OW24931   3.370   2.315  14.907 -0.0671 -0.9490  0.1347
 4490SOL    HW124932   3.282   2.293  14.939  0.9677 -1.5938  2.5651
 4490SOL    HW224933   3.400   2.237  14.859 -1.6114 -1.5370  0.1083
 4491SOL     OW24934   4.294   3.074  10.738  0.2248 -0.1233  0.3348
 4491SOL    HW124935   4.278   2.981  10.726 -3.2311  0.3851  1.0386
 4491SOL    HW224936   4.253   3.109  10.659 -1.0817 -1.0949  0.5962
 4492SOL     OW24937   2.801   0.641   4.228  0.3898  0.8542 -0.0325
 4492SOL    HW124938   2.831   0.660   4.317 -0.3456  0.4369  0.3082
 4492SOL    HW224939   2.792   0.546   4.228 -1.8046  1.0612  1.1110
 4493SOL     OW24940   4.280   1.585   7.214  0.1874  0.1306 -0.6452
 4493SOL    HW124941   4.224   1.509   7.199  0.7680 -0.4087 -0.0718
 4493SOL    HW224942   4.321   1.587   7.127  2.0179 -0.6696  0.1978
 4494SOL     OW24943   2.094   4.517  14.341  0.2622 -0.7529  0.2916
 4494SOL    HW124944   2.155   4.538  14.412  0.2128  3.5224 -0.9440
 4494SOL    HW224945   2.118   4.426  14.322  1.2632 -0.4753  0.1902
 4495SOL     OW24946   0.295   0.494  11.164 -0.0740  0.8407 -0.5587
 4495SOL    HW124947   0.321   0.434  11.094  0.8498 -0.3983  0.8696
 4495SOL    HW224948   0.260   0.428  11.224  1.9127  1.3181  1.0976
 4496SOL     OW24949   0.642   0.746   1.531 -0.1691 -0.3752 -0.0423
 4496SOL    HW124950   0.592   0.774   1.454 -2.6489  4.1347  3.2245
 4496SOL    HW224951   0.647   0.652   1.514  1.8180 -0.0264 -1.3576
 4497SOL     OW24952   1.321   4.456  13.237  0.3587 -0.7846  0.5766
 4497SOL    HW124953   1.241   4.508  13.247  0.2400 -1.1220  1.3933
 4497SOL    HW224954   1.392   4.519  13.224 -0.1979 -0.5677 -1.3867
 4498SOL     OW24955   3.707   2.986   1.612 -0.3742 -0.0553  0.4527
 4498SOL    HW124956   3.662   2.996   1.528 -1.2121  0.7776  1.0060
 4498SOL    HW224957   3.789   2.942   1.590  0.4509  1.7346 -0.0169
 4499SOL     OW24958   0.849   4.025  16.364 -0.1387 -0.3018 -0.0352
 4499SOL    HW124959   0.843   3.961  16.434 -0.6891  0.1645  0.3469
 4499SOL    HW224960   0.926   3.996  16.316 -0.2485 -2.2526  0.9687
 4500SOL     OW24961   3.296   4.027   7.622 -0.1065  0.1925  0.4166
 4500SOL    HW124962   3.379   4.053   7.580 -0.5433  1.1193  0.1246
 4500SOL    HW224963   3.298   3.935   7.597  1.8731  0.2808  0.1954
 4501SOL     OW24964   3.637   4.060   7.822  0.0181  0.1559 -0.3236
 4501SOL    HW124965   3.687   4.025   7.896  0.5176  0.9747 -0.2797
 4501SOL    HW224966   3.691   4.038   7.746 -0.9061  0.7578 -1.1547
 4502SOL     OW24967   3.992   0.289   3.977  0.2479  0.1230 -0.7582
 4502SOL    HW124968   3.987   0.338   4.059 -1.2690 -0.2219 -0.6552
 4502SOL    HW224969   4.076   0.318   3.940  1.1532 -2.9259 -1.1320
 4503SOL     OW24970   0.004   3.286   2.461  0.6850 -0.0442  0.2427
 4503SOL    HW124971   4.707   3.339   2.539  0.7532 -0.6093  0.6380
 4503SOL    HW224972   4.682   3.204   2.483 -3.3001  1.7702 -0.9330
 4504SOL     OW24973   0.810   2.281   3.969  0.0444  0.5447 -0.2763
 4504SOL    HW124974   0.871   2.286   3.895 -1.7339  1.2915 -1.6914
 4504SOL    HW224975   0.742   2.347   3.955 -0.9300 -0.5207 -0.5430
 4505SOL     OW24976   4.709   4.592   8.382 -0.1532 -0.3377  0.2231
 4505SOL    HW124977   0.005   4.535   8.307  0.3515  1.0620 -0.7288
 4505SOL    HW224978   4.701   4.679   8.344  0.5720 -0.2207  0.3320
 4506SOL     OW24979   1.124   2.432   8.146  0.6714  0.0730  0.3185
 4506SOL    HW124980   1.215   2.460   8.135  0.6183 -0.2332 -0.9208
 4506SOL    HW224981   1.094   2.410   8.058 -1.6930  0.8107  0.9539
 4507SOL     OW24982   1.276   2.169   2.719  0.2312 -0.0661 -0.6928
 4507SOL    HW124983   1.240   2.256   2.704  2.4022  1.0547  0.5455
 4507SOL    HW224984   1.369   2.191   2.713  0.2242  0.8481  2.6205
 4508SOL     OW24985   0.690   3.350   4.415 -0.0748 -0.0028 -0.2451
 4508SOL    HW124986   0.691   3.260   4.382  2.8265  1.0305 -2.9603
 4508SOL    HW224987   0.649   3.402   4.346  0.4974  1.5939  0.6395
 4509SOL     OW24988   0.049   4.378   7.933 -0.3939  0.2288 -0.4172
 4509SOL    HW124989   0.056   4.327   7.853  0.3994 -0.3105 -0.0000
 4509SOL    HW224990   0.130   4.429   7.932  0.1918 -0.7114 -0.7253
 4510SOL     OW24991   1.907   0.995   8.812 -0.5675  0.4569 -0.1197
 4510SOL    HW124992   1.923   0.981   8.906  0.1504  2.4362  0.0470
 4510SOL    HW224993   1.813   1.014   8.811  0.2493  4.5169  0.6888
 4511SOL     OW24994   2.636   2.131  14.782  0.3212 -0.1633  0.2909
 4511SOL    HW124995   2.672   2.214  14.750 -0.7363  0.2295  0.1393
 4511SOL    HW224996   2.582   2.097  14.711  0.8922 -1.0893  0.2914
 4512SOL     OW24997   0.790   3.529  13.542  0.4319  0.3655 -0.2210
 4512SOL    HW124998   0.823   3.487  13.622  0.5659 -0.2649 -0.6100
 4512SOL    HW224999   0.789   3.623  13.560 -0.9015 -0.1245  2.3252
 4513SOL     OW25000   4.155   2.047  16.421 -0.0473  0.4579 -0.1397
 4513SOL    HW125001   4.139   2.018  16.331 -0.4730  1.4450 -0.3859
 4513SOL    HW225002   4.145   1.963  16.465 -3.1102  1.0525  0.2773
 4514SOL     OW25003   3.513   2.927   1.110 -0.7144  0.0627 -0.1655
 4514SOL    HW125004   3.452   2.936   1.036 -2.7990  0.8735  1.6321
 4514SOL    HW225005   3.578   2.871   1.069 -0.0157 -1.4135  2.9655
 4515SOL     OW25006   1.475   3.298   2.078 -0.1795 -0.4132  0.5744
 4515SOL    HW125007   1.535   3.229   2.051 -0.4469 -0.4851  0.1566
 4515SOL    HW225008   1.476   3.283   2.173 -1.6826 -0.7787  0.5273
 4516SOL     OW25009   2.002   0.624   9.255  0.3841 -0.0292  0.6213
 4516SOL    HW125010   1.955   0.540   9.257 -1.1382  0.7865 -0.8125
 4516SOL    HW225011   2.002   0.655   9.345 -0.6974 -0.3665  0.7437
 4517SOL     OW25012   1.991   1.026   6.914  0.5562 -0.0358 -0.0426
 4517SOL    HW125013   2.039   0.976   6.849  0.6376 -0.6641  0.5033
 4517SOL    HW225014   1.900   0.998   6.905  0.5004  0.8131 -2.1200
 4518SOL     OW25015   3.892   0.442   9.453  0.4520 -0.1152  0.7289
 4518SOL    HW125016   3.813   0.454   9.506  1.2023  0.9318  1.6077
 4518SOL    HW225017   3.924   0.529   9.431  1.2693 -0.3729  0.9064
 4519SOL     OW25018   2.245   2.143  10.612 -0.6249  0.1672 -0.1712
 4519SOL    HW125019   2.204   2.209  10.556 -1.2036  1.7580  2.0982
 4519SOL    HW225020   2.304   2.097  10.552  0.3633 -0.7587  1.5166
 4520SOL     OW25021   1.400   1.757   7.659  0.2221 -0.4832  0.3434
 4520SOL    HW125022   1.476   1.765   7.601  0.8171  0.8755  1.3055
 4520SOL    HW225023   1.337   1.699   7.617 -2.7661  1.7700  1.6988
 4521SOL     OW25024   1.056   0.251   7.883  0.0283 -0.3133  0.5709
 4521SOL    HW125025   1.021   0.323   7.935  0.9598  0.6330 -0.1056
 4521SOL    HW225026   1.020   0.261   7.795 -2.1289  0.4313  1.5367
 4522SOL     OW25027   1.337   1.555  16.211  0.0915 -0.7617 -0.3928
 4522SOL    HW125028   1.359   1.567  16.303 -0.6254  0.4534 -0.3912
 4522SOL    HW225029   1.304   1.642  16.190  1.4222  0.3994  2.4182
 4523SOL     OW25030   2.272   2.413   3.661  0.5203 -0.4010  0.0765
 4523SOL    HW125031   2.253   2.499   3.623 -0.9816 -0.3855  0.8509
 4523SOL    HW225032   2.347   2.440   3.714  0.6335  0.0274 -0.3048
 4524SOL     OW25033   3.294   2.153   8.028 -0.0972  0.1928 -0.2185
 4524SOL    HW125034   3.291   2.128   8.120 -0.7010 -0.9000 -0.5384
 4524SOL    HW225035   3.365   2.106   7.984  1.1556  0.3668  1.6358
 4525SOL     OW25036   3.284   2.194   5.106 -0.2192 -0.2604 -0.5616
 4525SOL    HW125037   3.316   2.254   5.173 -0.2705 -0.7738 -0.0803
 4525SOL    HW225038   3.316   2.109   5.136  0.9197  0.4044  0.0931
 4526SOL     OW25039   0.931   3.793  14.872  0.0515  0.3709  0.0122
 4526SOL    HW125040   0.890   3.851  14.936 -0.5528  2.2927 -2.1008
 4526SOL    HW225041   1.015   3.793  14.917 -0.5102  0.0963  1.0537
 4527SOL     OW25042   1.818   4.623  14.358 -0.2559  0.4555  0.1269
 4527SOL    HW125043   1.909   4.595  14.361 -0.1995  0.2736 -2.8213
 4527SOL    HW225044   1.820   4.719  14.364  0.5272  0.5613 -1.6849
 4528SOL     OW25045   2.022   0.569  12.085  0.1087 -0.4286  0.3768
 4528SOL    HW125046   2.065   0.566  12.171 -1.1336  3.2032  1.1102
 4528SOL    HW225047   2.010   0.663  12.075 -0.0906 -0.5528 -0.5385
 4529SOL     OW25048   4.088   1.174   6.296 -0.2120  0.5417  0.3721
 4529SOL    HW125049   4.112   1.239   6.362  1.2785  0.2107  0.1608
 4529SOL    HW225050   4.035   1.223   6.233 -2.0580  0.7034  2.0466
 4530SOL     OW25051   1.762   2.594   7.301 -0.2067 -0.3040  0.8364
 4530SOL    HW125052   1.761   2.619   7.394  0.8561 -0.6211  0.9280
 4530SOL    HW225053   1.832   2.654   7.275  0.2146 -0.9434  0.5035
 4531SOL     OW25054   2.146   0.997   5.021  0.7543 -0.0183  0.1452
 4531SOL    HW125055   2.060   1.001   4.979  0.9297  2.1642  0.0055
 4531SOL    HW225056   2.195   1.012   4.940  2.9596 -0.8757  1.2997
 4532SOL     OW25057   1.256   3.636  10.893 -0.2202  0.0257  0.2585
 4532SOL    HW125058   1.210   3.607  10.972  2.3228 -3.8662  0.3305
 4532SOL    HW225059   1.288   3.718  10.929 -0.5552 -0.7497  2.3294
 4533SOL     OW25060   4.313   3.395  15.556  0.2579 -0.2362  0.0403
 4533SOL    HW125061   4.329   3.380  15.649 -0.9711 -1.8267 -0.0005
 4533SOL    HW225062   4.271   3.312  15.532 -0.5938  0.2790 -0.2289
 4534SOL     OW25063   3.466   2.175  13.169  0.1451 -0.4382 -0.5303
 4534SOL    HW125064   3.496   2.126  13.093  2.5769  1.2779 -0.6730
 4534SOL    HW225065   3.487   2.119  13.244  0.7934  1.4951  0.7511
 4535SOL     OW25066   3.387   4.221   3.420 -0.5878 -0.5383 -0.1736
 4535SOL    HW125067   3.391   4.138   3.468 -0.6722 -0.0610  0.6568
 4535SOL    HW225068   3.473   4.213   3.378 -0.2424  0.9037  0.2314
 4536SOL     OW25069   0.828   3.518   2.647 -0.0087 -0.4441 -0.0393
 4536SOL    HW125070   0.777   3.486   2.722 -2.0015 -2.2146 -2.1494
 4536SOL    HW225071   0.901   3.457   2.645  0.7737  0.3494  2.9024
 4537SOL     OW25072   3.184   4.369   6.735  0.4478 -0.0069 -1.0467
 4537SOL    HW125073   3.273   4.360   6.768  0.1500 -1.0783 -0.5317
 4537SOL    HW225074   3.129   4.397   6.808  1.0514 -0.9808 -0.2110
 4538SOL     OW25075   0.675   2.397   8.400  0.1807 -0.1438 -0.1867
 4538SOL    HW125076   0.710   2.453   8.469 -2.3237  2.1758 -0.7688
 4538SOL    HW225077   0.583   2.393   8.427  0.4180  0.8296  0.7618
 4539SOL     OW25078   4.453   4.584  12.189 -0.1597  0.0357 -0.3068
 4539SOL    HW125079   4.461   4.523  12.262  1.1241  0.1786 -0.3395
 4539SOL    HW225080   4.444   4.526  12.113  0.7860  0.0796 -0.4473
 4540SOL     OW25081   0.317   3.631   7.061 -0.2621  0.4419  0.3549
 4540SOL    HW125082   0.344   3.644   6.970  1.0491 -2.8584  0.2711
 4540SOL    HW225083   0.367   3.702   7.102 -3.0829  0.6784  3.3896
 4541SOL     OW25084   2.604   1.183  15.023  0.4819  0.1562 -0.6951
 4541SOL    HW125085   2.687   1.200  15.068  0.9197  0.3175 -1.5621
 4541SOL    HW225086   2.602   1.243  14.949 -1.2588  0.3110 -0.5287
 4542SOL     OW25087   1.647   3.760  10.956  0.3418  0.0583 -0.0125
 4542SOL    HW125088   1.687   3.845  10.936  2.2651 -0.3398  2.1830
 4542SOL    HW225089   1.645   3.715  10.871 -0.4992 -0.3635  0.2271
 4543SOL     OW25090   3.060   0.281  10.070  0.0766  0.3181  0.1631
 4543SOL    HW125091   3.113   0.361  10.063  1.4872 -0.6080  0.1566
 4543SOL    HW225092   3.057   0.273  10.166 -1.2296 -0.4581  0.0396
 4544SOL     OW25093   4.387   4.176   6.873 -0.7849 -0.1688  0.1844
 4544SOL    HW125094   4.375   4.235   6.948 -0.7592 -1.4649  1.2170
 4544SOL    HW225095   4.466   4.125   6.894 -1.3668 -1.7160 -1.4922
 4545SOL     OW25096   4.179   0.156  15.048  0.1288 -1.1718  0.1458
 4545SOL    HW125097   4.225   0.120  15.123 -0.3962 -0.5346  0.7660
 4545SOL    HW225098   4.147   0.083  14.995  0.2658  0.4511 -2.1782
 4546SOL     OW25099   2.537   2.761   5.966 -0.2631 -0.5196 -0.1247
 4546SOL    HW125100   2.552   2.683   5.912  0.0890 -1.0489  0.7394
 4546SOL    HW225101   2.445   2.749   5.992 -0.5546  0.3029 -0.7867
 4547SOL     OW25102   2.623   1.166   4.968  0.1315 -0.0150 -0.1556
 4547SOL    HW125103   2.609   1.115   5.048  3.0985 -0.6804 -0.0664
 4547SOL    HW225104   2.540   1.144   4.925  1.0899 -0.5392 -1.7155
 4548SOL     OW25105   0.947   2.424  11.430  0.4042  0.0931 -0.0035
 4548SOL    HW125106   0.980   2.472  11.354 -0.4397  0.1313 -0.3581
 4548SOL    HW225107   1.029   2.408  11.475  1.2315  1.6884 -0.9268
 4549SOL     OW25108   1.741   3.248   5.194  0.9404 -0.0691 -0.1556
 4549SOL    HW125109   1.755   3.281   5.105  0.8675 -0.1847 -0.2100
 4549SOL    HW225110   1.667   3.298   5.229  2.4560  1.1922  1.2663
 4550SOL     OW25111   3.120   3.568  15.917  0.2040  0.6287  0.2512
 4550SOL    HW125112   3.189   3.508  15.891 -1.0793 -0.5406 -0.4564
 4550SOL    HW225113   3.114   3.538  16.008 -0.9510 -1.8843 -0.6627
 4551SOL     OW25114   3.299   1.904   5.164  0.5415  0.1403  0.2642
 4551SOL    HW125115   3.210   1.874   5.178  0.9708 -0.5224  1.5147
 4551SOL    HW225116   3.320   1.888   5.072 -0.0775  0.3910  0.0827
 4552SOL     OW25117   1.847   0.772   1.553  0.0902 -0.0444  0.7268
 4552SOL    HW125118   1.778   0.712   1.524 -0.7159  0.9402  0.6218
 4552SOL    HW225119   1.923   0.737   1.505  0.0300  2.5900 -1.3023
 4553SOL     OW25120   1.722   1.952   9.795  0.1182 -0.3894 -0.3728
 4553SOL    HW125121   1.811   1.922   9.781  0.9444  2.2853 -0.8468
 4553SOL    HW225122   1.679   1.868   9.808  1.2483 -0.7688  0.8679
 4554SOL     OW25123   1.758   3.076   6.881 -0.2490 -0.0164  0.5188
 4554SOL    HW125124   1.673   3.035   6.894 -0.8258  0.6555 -1.1158
 4554SOL    HW225125   1.801   3.044   6.960  2.4606 -2.2150 -1.8407
 4555SOL     OW25126   0.375   1.359  12.675 -0.2696 -0.5069 -0.4491
 4555SOL    HW125127   0.470   1.353  12.690 -0.5493  0.3299  1.7429
 4555SOL    HW225128   0.350   1.422  12.743 -1.3446 -1.4102 -0.0154
 4556SOL     OW25129   2.767   1.192  13.084  0.4934  0.2716 -0.0190
 4556SOL    HW125130   2.775   1.114  13.029  0.1349  0.9496 -1.0575
 4556SOL    HW225131   2.787   1.263  13.022 -0.6058  1.3106  0.8182
 4557SOL     OW25132   2.913   2.991  14.868 -0.1897 -0.3426 -0.2589
 4557SOL    HW125133   3.007   2.998  14.853  0.2564  0.3264  2.8138
 4557SOL    HW225134   2.885   3.059  14.807 -2.1586 -0.6695  0.2711
 4558SOL     OW25135   2.788   1.832  17.107  0.4033 -0.3199  0.0845
 4558SOL    HW125136   2.861   1.834  17.169  1.3195 -0.4184 -1.0155
 4558SOL    HW225137   2.831   1.827  17.022 -1.0481 -0.1459 -0.6507
 4559SOL     OW25138   1.978   3.325   6.632 -0.1156 -0.0829  0.1484
 4559SOL    HW125139   1.971   3.418   6.611 -0.6385  0.1786  1.4666
 4559SOL    HW225140   1.959   3.318   6.726  0.4663 -1.2253  0.1854
 4560SOL     OW25141   4.363   0.825   4.149  0.3411 -0.2348 -0.5080
 4560SOL    HW125142   4.287   0.789   4.102 -1.2307  2.9634 -0.4209
 4560SOL    HW225143   4.428   0.769   4.107 -0.5895 -0.5857 -1.5056
 4561SOL     OW25144   2.512   4.087   1.568  0.2732 -0.2685 -0.3812
 4561SOL    HW125145   2.555   4.172   1.578 -2.2154  1.0571 -0.9046
 4561SOL    HW225146   2.421   4.115   1.576  0.7581  0.7214  1.6632
 4562SOL     OW25147   2.080   2.138   6.438  0.6876 -0.4383  0.1679
 4562SOL    HW125148   2.058   2.095   6.521  0.3234  0.9079  0.7575
 4562SOL    HW225149   2.091   2.227   6.472  1.5689  0.1246 -1.5586
 4563SOL     OW25150   2.305   2.547   6.581 -0.4803  0.2170  0.3377
 4563SOL    HW125151   2.227   2.601   6.590 -1.9716 -1.8564 -0.2752
 4563SOL    HW225152   2.346   2.597   6.511 -1.7618  0.3525 -0.3134
 4564SOL     OW25153   3.157   4.155   4.827  0.2594 -0.1244 -0.1511
 4564SOL    HW125154   3.140   4.097   4.753 -2.9644 -1.1593  1.3819
 4564SOL    HW225155   3.077   4.127   4.871  0.5138  0.6090  0.7796
 4565SOL     OW25156   0.094   0.982   5.590 -0.0989 -0.8036  0.1386
 4565SOL    HW125157   0.004   0.974   5.560 -1.1016  2.1885  2.4229
 4565SOL    HW225158   0.141   0.978   5.507 -0.5897  1.0497 -0.2136
 4566SOL     OW25159   4.256   2.077   4.876 -0.8483  0.9810  0.0401
 4566SOL    HW125160   4.203   2.036   4.945 -0.9232  1.3295  0.1872
 4566SOL    HW225161   4.321   2.121   4.930  3.3901 -2.7971 -1.9800
 4567SOL     OW25162   3.381   0.857   8.465  0.5050 -0.1730 -0.5831
 4567SOL    HW125163   3.356   0.785   8.407  0.8187 -0.7911  0.0493
 4567SOL    HW225164   3.467   0.876   8.429  1.6678 -3.1876  0.6026
 4568SOL     OW25165   3.831   0.435   6.877 -0.0951  0.2442  0.0284
 4568SOL    HW125166   3.824   0.341   6.894  0.4470  0.1167 -0.4324
 4568SOL    HW225167   3.879   0.431   6.794 -0.9510  0.3843 -0.4667
 4569SOL     OW25168   4.177   4.460  12.115  0.1015 -0.2688  0.1666
 4569SOL    HW125169   4.135   4.381  12.081  0.2955  0.3222 -1.4557
 4569SOL    HW225170   4.134   4.529  12.066  1.2228  1.1941  1.2535
 4570SOL     OW25171   3.346   2.605   2.253 -0.0876 -0.5321 -0.3089
 4570SOL    HW125172   3.269   2.660   2.264 -0.1009 -0.5380 -0.3678
 4570SOL    HW225173   3.415   2.641   2.308 -1.1982  1.1556 -0.0213
 4571SOL     OW25174   0.636   1.651   7.607 -0.3183  0.0153  0.8795
 4571SOL    HW125175   0.643   1.557   7.625 -2.9651 -0.5806 -1.1971
 4571SOL    HW225176   0.588   1.685   7.682 -2.3169  0.1200 -0.4450
 4572SOL     OW25177   0.416   1.602  10.869  0.5970  0.5218  0.1519
 4572SOL    HW125178   0.390   1.537  10.804 -1.3343  3.6515 -2.2505
 4572SOL    HW225179   0.508   1.583  10.883  1.0847  2.1885 -0.7179
 4573SOL     OW25180   0.299   2.709  11.525  0.0016 -0.0390 -0.3204
 4573SOL    HW125181   0.335   2.625  11.496 -0.3771 -0.3287  0.0599
 4573SOL    HW225182   0.291   2.702  11.620 -1.5833  0.1255 -0.4367
 4574SOL     OW25183   4.344   2.091  17.061  0.4983 -0.1360 -0.4919
 4574SOL    HW125184   4.371   2.146  16.988  0.4606 -0.8592 -1.0457
 4574SOL    HW225185   4.255   2.125  17.073  1.1109  1.2395  0.1341
 4575SOL     OW25186   2.413   4.627   3.337  0.5087  0.6300 -0.8850
 4575SOL    HW125187   2.323   4.600   3.352  0.7088 -0.0951 -0.9924
 4575SOL    HW225188   2.442   4.587   3.254 -0.9753  0.1645 -1.1807
 4576SOL     OW25189   0.550   4.164   1.759  0.3840 -0.2893 -0.0036
 4576SOL    HW125190   0.502   4.083   1.775  2.0731 -1.0377  1.2020
 4576SOL    HW225191   0.585   4.183   1.846  1.9397  0.1987 -0.7469
 4577SOL     OW25192   0.053   2.562   0.538 -0.7663 -0.0074  0.4233
 4577SOL    HW125193   0.014   2.649   0.536 -2.1810 -0.6514 -0.2554
 4577SOL    HW225194   0.143   2.580   0.566 -0.1740 -3.0673  0.5308
 4578SOL     OW25195   1.621   0.396  12.357 -0.2425  0.0836  0.1101
 4578SOL    HW125196   1.613   0.444  12.274  2.2059 -0.8285 -0.6553
 4578SOL    HW225197   1.533   0.410  12.391  0.2162 -0.1475  1.3999
 4579SOL     OW25198   3.862   2.107   8.560  0.4894  0.0591  0.0066
 4579SOL    HW125199   3.848   2.146   8.473 -0.0402  0.4947  0.2858
 4579SOL    HW225200   3.831   2.186   8.605 -1.3306 -0.8851  0.4202
 4580SOL     OW25201   0.057   3.955  13.217 -0.1490  0.1174  0.0162
 4580SOL    HW125202   0.072   3.990  13.129 -1.3400 -0.9222 -0.6083
 4580SOL    HW225203   4.686   3.928  13.220  0.5076 -2.1125 -0.1486
 4581SOL     OW25204   2.245   3.830   2.887  0.7916  0.0169 -0.1409
 4581SOL    HW125205   2.195   3.854   2.965  2.8265  0.5302  0.9768
 4581SOL    HW225206   2.333   3.812   2.918  0.3719 -0.0783  0.9991
 4582SOL     OW25207   1.860   3.475   1.091 -0.6006 -0.5429 -0.0601
 4582SOL    HW125208   1.793   3.467   1.159 -1.1638  0.7434 -0.4706
 4582SOL    HW225209   1.831   3.549   1.039  1.1646 -1.5863 -2.5241
 4583SOL     OW25210   3.580   0.490  14.672  0.1560 -0.0709  0.5978
 4583SOL    HW125211   3.498   0.536  14.691  0.8793  1.2103  0.5901
 4583SOL    HW225212   3.610   0.539  14.596 -0.1536 -0.0035  0.5195
 4584SOL     OW25213   1.414   4.712  16.701 -0.1037 -1.0408  0.1545
 4584SOL    HW125214   1.320   4.705  16.688 -0.2689  0.4849  0.4281
 4584SOL    HW225215   1.413   0.040  16.784 -1.3104  2.1077 -1.7032
 4585SOL     OW25216   1.652   2.805   5.054 -0.4056 -0.0687 -0.2975
 4585SOL    HW125217   1.742   2.779   5.076 -0.5167  0.5240  0.8562
 4585SOL    HW225218   1.593   2.759   5.114  1.1918 -2.5514 -0.5936
 4586SOL     OW25219   1.467   3.021   5.495  0.4461 -0.1095  0.0697
 4586SOL    HW125220   1.471   3.001   5.589  1.5066  2.4469  0.5771
 4586SOL    HW225221   1.414   2.946   5.472 -1.6142  1.0358  1.0373
 4587SOL     OW25222   2.380   4.301   4.871  0.2830  0.6151  0.4273
 4587SOL    HW125223   2.399   4.393   4.855  1.0445  0.1219 -1.4236
 4587SOL    HW225224   2.305   4.287   4.814  1.4657 -1.2107 -0.6712
 4588SOL     OW25225   3.334   3.068   4.949  0.4511  0.3329 -0.3321
 4588SOL    HW125226   3.423   3.034   4.956  0.7403  0.3917 -3.4429
 4588SOL    HW225227   3.320   3.045   4.857  1.3677  0.6651 -0.5558
 4589SOL     OW25228   1.983   0.804   0.187 -0.7764 -0.0225 -0.2973
 4589SOL    HW125229   2.053   0.860   0.221  1.3071 -1.8111 -1.6282
 4589SOL    HW225230   2.007   0.728   0.240  0.7173  1.4447  1.1343
 4590SOL     OW25231   4.169   4.178  17.364  0.5127  0.5157 -0.1850
 4590SOL    HW125232   4.174   4.234  17.441  0.4057 -0.6875  0.7042
 4590SOL    HW225233   4.172   4.239  17.291 -0.3908  1.4391  0.5567
 4591SOL     OW25234   0.928   1.089   7.779  0.4222 -0.2361  0.6723
 4591SOL    HW125235   1.015   1.089   7.739  0.1299  0.7949  0.0214
 4591SOL    HW225236   0.902   1.011   7.730 -0.3427 -0.7177  1.8542
 4592SOL     OW25237   1.031   2.048   4.454 -0.3163  0.2178  0.1851
 4592SOL    HW125238   1.042   2.112   4.384 -0.4216 -0.1414 -0.1624
 4592SOL    HW225239   1.039   2.108   4.527  1.6683 -1.3024  1.2061
 4593SOL     OW25240   3.460   3.748   5.923  0.2962  0.6407  0.4244
 4593SOL    HW125241   3.451   3.820   5.985 -0.8304 -0.6499  1.7564
 4593SOL    HW225242   3.546   3.721   5.954  0.1264 -0.9392 -0.4987
 4594SOL     OW25243   4.525   0.977   5.507 -0.1071  0.7248 -0.2201
 4594SOL    HW125244   4.451   1.037   5.517  0.5315  1.6851 -1.2163
 4594SOL    HW225245   4.544   0.955   5.598 -0.8435 -1.1735 -0.5222
 4595SOL     OW25246   2.310   4.170  16.666 -0.0195 -0.1786  0.0523
 4595SOL    HW125247   2.229   4.119  16.670 -0.5076  0.5490 -0.6252
 4595SOL    HW225248   2.344   4.164  16.755  0.1803  1.6466  0.0860
 4596SOL     OW25249   3.186   4.360   4.475  0.2619  0.3724 -0.2581
 4596SOL    HW125250   3.126   4.289   4.453 -0.4320  1.1145 -0.7575
 4596SOL    HW225251   3.177   4.419   4.400  0.2218  2.3585  1.3221
 4597SOL     OW25252   2.773   0.991  14.384 -0.1951  0.1586  0.2362
 4597SOL    HW125253   2.805   1.081  14.382  1.5300 -0.4590  0.0372
 4597SOL    HW225254   2.707   0.989  14.315  0.9366  0.7308 -0.8813
 4598SOL     OW25255   0.917   4.435   5.952  0.7508 -0.1135 -0.3096
 4598SOL    HW125256   0.857   4.505   5.977  1.9820  1.4151 -1.6518
 4598SOL    HW225257   0.891   4.433   5.859 -3.6471 -1.3464  0.9423
 4599SOL     OW25258   0.117   0.576   8.012  0.6175  0.3104  0.2092
 4599SOL    HW125259   0.185   0.597   8.076  0.6853  0.5273  0.0679
 4599SOL    HW225260   0.040   0.625   8.039 -0.4274 -1.3929  0.2564
 4600SOL     OW25261   1.322   0.575   8.032 -0.2560  0.3204 -0.4126
 4600SOL    HW125262   1.387   0.645   8.037  2.0380 -1.8055  0.0087
 4600SOL    HW225263   1.373   0.494   8.018 -1.6800 -0.4062 -1.3782
 4601SOL     OW25264   1.307   3.602   4.228  0.1503 -0.2154 -0.5025
 4601SOL    HW125265   1.324   3.672   4.291  0.3435 -0.7011 -0.0255
 4601SOL    HW225266   1.302   3.519   4.276 -1.2280 -0.3798 -0.9080
 4602SOL     OW25267   0.308   0.354  14.011 -0.7474  0.1034  0.6898
 4602SOL    HW125268   0.374   0.287  14.030 -0.5482 -0.5050 -2.2204
 4602SOL    HW225269   0.325   0.427  14.071 -0.9787  0.2967  0.5157
 4603SOL     OW25270   3.104   4.104   1.024  0.2581  0.1893 -0.2731
 4603SOL    HW125271   3.197   4.085   1.042 -0.1062 -1.7981 -0.5360
 4603SOL    HW225272   3.080   4.125   1.114 -1.8055 -1.3866 -0.4659
 4604SOL     OW25273   1.949   1.983   3.775 -0.5531  0.1843  0.3239
 4604SOL    HW125274   2.024   1.932   3.804 -1.1555 -1.3996 -0.9136
 4604SOL    HW225275   1.995   2.044   3.717  0.0623  0.0273  0.6452
 4605SOL     OW25276   3.610   2.943   3.154  0.0278  0.5233 -0.1240
 4605SOL    HW125277   3.614   2.892   3.072  2.4582  0.9810 -0.3162
 4605SOL    HW225278   3.544   2.893   3.202 -1.2747  3.3939  1.0404
 4606SOL     OW25279   0.331   0.284   9.217  0.1070 -0.0763 -0.0725
 4606SOL    HW125280   0.403   0.222   9.227  1.2119  1.3606  0.7432
 4606SOL    HW225281   0.375   0.364   9.245  0.2520 -0.6065  1.2113
 4607SOL     OW25282   3.485   0.476   9.212 -0.6104  0.3534  0.2706
 4607SOL    HW125283   3.393   0.486   9.236 -1.0840 -2.7146 -0.2952
 4607SOL    HW225284   3.520   0.417   9.278  1.3087 -0.2302 -1.2783
 4608SOL     OW25285   0.361   1.473   3.625  0.1414 -0.3573  0.3134
 4608SOL    HW125286   0.399   1.448   3.709  0.2436 -1.4221 -0.0563
 4608SOL    HW225287   0.306   1.398   3.604 -2.0156  1.4047 -0.4612
 4609SOL     OW25288   3.462   4.567  12.681 -0.3758  0.7032 -0.0941
 4609SOL    HW125289   3.444   4.629  12.752 -0.5384  0.4900  0.0515
 4609SOL    HW225290   3.376   4.544  12.645  0.2985 -0.4828 -0.9646
 4610SOL     OW25291   2.151   0.945   9.439 -0.3422  0.3347 -0.0778
 4610SOL    HW125292   2.217   0.924   9.374  0.0246 -0.0555  0.4256
 4610SOL    HW225293   2.206   0.955   9.516  1.5699  0.8863 -1.5144
 4611SOL     OW25294   1.074   3.557  17.620 -0.5614 -0.1535  0.1325
 4611SOL    HW125295   1.083   3.641  17.664  1.3611  0.1110 -0.7464
 4611SOL    HW225296   0.979   3.555  17.608 -0.4629 -0.0542 -0.6862
 4612SOL     OW25297   0.192   1.233   8.858  0.0350 -0.2760  0.1546
 4612SOL    HW125298   0.124   1.178   8.895  1.3467 -2.0295 -0.0881
 4612SOL    HW225299   0.258   1.192   8.913 -1.0531  0.5035  2.0351
 4613SOL     OW25300   2.351   1.296  15.854 -0.5021  0.3216 -0.2551
 4613SOL    HW125301   2.406   1.220  15.834  1.7287  1.5332  1.2393
 4613SOL    HW225302   2.375   1.354  15.783 -0.0058 -0.6580 -0.8857
 4614SOL     OW25303   1.125   1.062   9.330  0.9720  0.4700 -0.3215
 4614SOL    HW125304   1.170   0.978   9.324  0.3195  0.2245 -1.7652
 4614SOL    HW225305   1.193   1.125   9.305  1.3313 -0.0451 -0.6549
 4615SOL     OW25306   1.672   2.182   5.702 -0.3516  0.1952 -0.4702
 4615SOL    HW125307   1.643   2.203   5.791 -2.0014 -0.9388 -0.7349
 4615SOL    HW225308   1.765   2.199   5.714 -0.1401 -1.1006 -0.3009
 4616SOL     OW25309   3.724   4.475   2.222 -0.0750  0.9663 -0.2369
 4616SOL    HW125310   3.742   4.526   2.301 -1.6082  0.6066  0.3434
 4616SOL    HW225311   3.641   4.511   2.191 -0.9871 -1.1889 -0.3387
 4617SOL     OW25312   2.024   4.231  11.802  0.1948 -0.0584  0.0092
 4617SOL    HW125313   2.119   4.221  11.804  0.0684 -1.2400  0.2559
 4617SOL    HW225314   2.009   4.263  11.713 -0.3533  0.0648  0.1441
 4618SOL     OW25315   3.503   3.652   3.577 -0.5579  0.1861 -0.2286
 4618SOL    HW125316   3.419   3.663   3.532 -1.0081 -0.4825  0.4576
 4618SOL    HW225317   3.498   3.557   3.586  0.4914 -0.0863 -2.3945
 4619SOL     OW25318   3.477   4.599   2.142 -0.7237  0.5554  0.3367
 4619SOL    HW125319   3.417   4.525   2.151  1.0951 -1.0723 -1.0883
 4619SOL    HW225320   3.462   4.621   2.050  0.3931  0.9942  0.2682
 4620SOL     OW25321   1.498   0.069   5.025  0.2932  0.1784 -0.2042
 4620SOL    HW125322   1.419   0.078   5.079  0.3611  1.8554 -0.3823
 4620SOL    HW225323   1.561   0.116   5.080  1.7314  0.3120 -1.9930
 4621SOL     OW25324   1.875   0.439  13.519 -0.4003 -0.5574 -0.2446
 4621SOL    HW125325   1.848   0.348  13.515  0.5077 -0.7180 -2.3864
 4621SOL    HW225326   1.790   0.484  13.513 -0.1504 -0.0340  0.0777
 4622SOL     OW25327   4.680   1.679   7.170 -0.6063  0.2106  0.8144
 4622SOL    HW125328   4.608   1.732   7.205  0.6920  1.5083  1.5667
 4622SOL    HW225329   0.028   1.745   7.179 -0.9207  0.4175  1.7267
 4623SOL     OW25330   0.663   4.424   6.978 -0.8235 -0.2174 -0.0082
 4623SOL    HW125331   0.637   4.500   7.029  0.6760  0.9980 -1.0566
 4623SOL    HW225332   0.757   4.442   6.975 -0.8250 -0.2391 -0.2604
 4624SOL     OW25333   3.668   2.053  11.507 -0.3807  0.7288  0.6920
 4624SOL    HW125334   3.579   2.082  11.491 -0.8360 -1.9534 -1.6130
 4624SOL    HW225335   3.710   2.091  11.430  1.2464  0.6561  1.5405
 4625SOL     OW25336   3.371   0.788   3.342  0.4974 -0.2547 -0.0860
 4625SOL    HW125337   3.404   0.807   3.429 -2.1176  3.4225  0.1495
 4625SOL    HW225338   3.421   0.851   3.289  0.4538 -0.8706 -0.8619
 4626SOL     OW25339   0.900   2.393   3.359 -0.0728  0.3451  0.2167
 4626SOL    HW125340   0.826   2.432   3.405 -1.1950 -1.3807 -0.1455
 4626SOL    HW225341   0.850   2.353   3.289 -1.6579 -1.1245  2.2021
 4627SOL     OW25342   3.618   0.356  13.979  0.1822  0.1957 -0.3138
 4627SOL    HW125343   3.614   0.325  14.069 -0.4671  2.1824  0.3309
 4627SOL    HW225344   3.704   0.328  13.946  0.2591  0.8874 -0.7095
 4628SOL     OW25345   2.205   4.696  15.251  0.5291  0.2763  0.4763
 4628SOL    HW125346   2.131   0.036  15.254 -1.0901 -1.8295  2.8325
 4628SOL    HW225347   2.160   4.614  15.231 -1.7507  1.6129  0.1709
 4629SOL     OW25348   4.669   2.796   5.982  0.2122  0.1692 -0.3016
 4629SOL    HW125349   4.607   2.722   5.979 -0.6665  0.8712  0.6487
 4629SOL    HW225350   0.024   2.764   6.030  0.8744  0.2263 -1.3357
 4630SOL     OW25351   0.942   1.468  15.111 -0.0196  0.5215  0.3264
 4630SOL    HW125352   0.862   1.460  15.060 -0.2876 -0.1362  0.8553
 4630SOL    HW225353   0.991   1.397  15.070  0.7033  1.7375 -0.9074
 4631SOL     OW25354   2.936   2.872   5.136  0.3556 -0.0730 -0.0894
 4631SOL    HW125355   2.929   2.943   5.201  0.4157 -1.3208  1.2841
 4631SOL    HW225356   2.888   2.804   5.184  2.4613  0.3397  2.6123
 4632SOL     OW25357   1.332   0.461  10.492  0.1547 -0.6321  0.5183
 4632SOL    HW125358   1.305   0.407  10.566 -0.9909  0.7030  1.0703
 4632SOL    HW225359   1.253   0.512  10.476 -0.5339 -1.2693  1.8734
 4633SOL     OW25360   1.140   2.022  14.154  0.3176  0.1362  0.5010
 4633SOL    HW125361   1.053   2.061  14.141  0.3334 -0.0066 -0.0320
 4633SOL    HW225362   1.119   1.966  14.229  1.6749  0.0056  0.7736
 4634SOL     OW25363   2.298   2.858   1.736 -0.2451 -0.2805  0.2547
 4634SOL    HW125364   2.267   2.927   1.678  3.0474 -1.4211 -2.8326
 4634SOL    HW225365   2.362   2.816   1.678 -2.6794 -0.2360 -2.4730
 4635SOL     OW25366   0.209   0.638  13.518 -0.3777  0.8180  0.5579
 4635SOL    HW125367   0.172   0.556  13.549  2.2844  0.2382  2.2129
 4635SOL    HW225368   0.137   0.681  13.471 -0.6746 -2.3515 -1.8530
 4636SOL     OW25369   4.307   4.641   7.659 -0.1263  0.1918  0.5973
 4636SOL    HW125370   4.371   4.576   7.689 -1.5544 -1.6558 -0.3406
 4636SOL    HW225371   4.237   4.610   7.717 -0.8483  0.0630 -0.3483
 4637SOL     OW25372   1.980   3.450   5.433  0.7669  0.0168  0.0192
 4637SOL    HW125373   1.999   3.357   5.422 -0.5745 -0.4042  1.3031
 4637SOL    HW225374   1.994   3.489   5.346 -2.8133  2.8933  0.7121
 4638SOL     OW25375   0.737   4.509   7.597  0.1426  0.0538  0.2415
 4638SOL    HW125376   0.709   4.574   7.662 -2.1094 -0.5827 -0.0985
 4638SOL    HW225377   0.767   4.437   7.652 -2.7062 -1.7266 -0.5592
 4639SOL     OW25378   0.609   0.463   9.453 -0.6779 -0.4131  0.0900
 4639SOL    HW125379   0.527   0.419   9.478 -3.0571  3.5794 -0.5949
 4639SOL    HW225380   0.668   0.387   9.453 -0.2160 -0.0534 -1.7157
 4640SOL     OW25381   3.632   2.055   3.231  0.5592  0.7191 -0.5671
 4640SOL    HW125382   3.684   1.983   3.195  0.3673 -0.1063  0.7877
 4640SOL    HW225383   3.643   2.122   3.164 -0.9362  1.4768 -0.0573
 4641SOL     OW25384   3.727   1.350  10.910 -0.3077  0.1431  0.2243
 4641SOL    HW125385   3.819   1.321  10.913 -0.3554  0.0718  0.9940
 4641SOL    HW225386   3.687   1.265  10.894 -1.0560  0.2652  1.4686
 4642SOL     OW25387   0.289   2.118   5.590  0.4011 -0.0151 -0.0379
 4642SOL    HW125388   0.227   2.051   5.564 -0.1360 -0.1266  1.4840
 4642SOL    HW225389   0.294   2.176   5.514 -0.2837  0.0051 -0.0685
 4643SOL     OW25390   3.252   1.537   2.897  0.0301 -0.3068  0.3229
 4643SOL    HW125391   3.237   1.443   2.908  1.3436 -0.6034 -0.3914
 4643SOL    HW225392   3.164   1.573   2.885 -0.3503 -1.4728 -0.3249
 4644SOL     OW25393   2.835   3.880   6.097 -0.0518  0.0705  0.5867
 4644SOL    HW125394   2.797   3.963   6.068 -0.5047 -0.3555 -0.0278
 4644SOL    HW225395   2.925   3.913   6.107 -0.0928  0.2776  0.2787
 4645SOL     OW25396   3.087   2.244   3.623 -0.1357  0.0701  0.2586
 4645SOL    HW125397   3.120   2.244   3.534 -2.4544 -3.1494 -0.5913
 4645SOL    HW225398   3.052   2.333   3.627  0.8342  0.5177 -1.4832
 4646SOL     OW25399   0.455   3.995   4.838  0.1066  0.6236  0.5734
 4646SOL    HW125400   0.429   4.080   4.874  1.2694 -0.1122  3.1440
 4646SOL    HW225401   0.392   3.945   4.890 -1.5693  0.0583 -1.9830
 4647SOL     OW25402   1.264   0.813   9.359  0.2998  0.3313 -0.3151
 4647SOL    HW125403   1.281   0.826   9.452  0.0723  0.2251 -0.2591
 4647SOL    HW225404   1.261   0.719   9.343  0.9052  0.5990 -2.0572
 4648SOL     OW25405   2.418   4.513   5.675 -0.0896 -0.1103 -0.1760
 4648SOL    HW125406   2.430   4.546   5.765  1.5968  0.0362 -0.4499
 4648SOL    HW225407   2.341   4.563   5.649  0.3260 -0.3693 -1.8839
 4649SOL     OW25408   1.302   0.306   2.635  0.4445  0.2648 -0.3080
 4649SOL    HW125409   1.287   0.399   2.650  1.1070  0.3388 -0.1043
 4649SOL    HW225410   1.337   0.309   2.546 -0.2038 -1.9289 -0.6352
 4650SOL     OW25411   1.584   3.283  10.414 -0.1008 -0.5379 -0.2421
 4650SOL    HW125412   1.510   3.340  10.394 -0.1505 -1.6290 -3.2086
 4650SOL    HW225413   1.622   3.321  10.494  1.1089  0.3313 -1.2161
 4651SOL     OW25414   0.121   1.443  15.316 -0.0417 -0.1154 -0.4227
 4651SOL    HW125415   0.118   1.485  15.402 -0.0241 -0.2418 -0.3596
 4651SOL    HW225416   0.182   1.375  15.345 -1.2615 -0.5700  1.1546
 4652SOL     OW25417   1.327   2.449   1.901 -0.0787  0.4527 -0.3539
 4652SOL    HW125418   1.303   2.408   1.984  0.0264  0.4144 -0.3425
 4652SOL    HW225419   1.396   2.508   1.932 -1.4407  3.0437 -2.3352
 4653SOL     OW25420   2.184   1.628   4.198 -0.1516 -0.7033 -0.1157
 4653SOL    HW125421   2.214   1.538   4.209 -0.3118 -0.8120 -0.5854
 4653SOL    HW225422   2.239   1.667   4.130 -0.1970 -0.8895 -0.2567
 4654SOL     OW25423   4.236   3.642  10.232 -0.2278  0.6077  0.1433
 4654SOL    HW125424   4.312   3.614  10.283 -0.7565 -0.6620  0.2372
 4654SOL    HW225425   4.179   3.680  10.299 -1.2944 -2.4187  0.9531
 4655SOL     OW25426   1.758   4.306  15.172 -0.7215  0.2381 -0.0353
 4655SOL    HW125427   1.843   4.299  15.128 -1.0930 -0.6436 -0.6106
 4655SOL    HW225428   1.729   4.397  15.170 -0.2745  0.3820 -0.0580
 4656SOL     OW25429   3.770   1.451   7.697 -0.3274  0.5288  0.3919
 4656SOL    HW125430   3.696   1.391   7.708  1.2110 -1.7291 -1.8973
 4656SOL    HW225431   3.739   1.526   7.748 -0.9098  0.1606  0.5807
 4657SOL     OW25432   2.962   4.522   6.300  0.7049 -0.1238 -0.3904
 4657SOL    HW125433   3.041   4.572   6.319 -1.0002  1.5185  2.4238
 4657SOL    HW225434   2.957   4.527   6.204 -0.1044  1.2380 -0.2755
 4658SOL     OW25435   4.291   0.096   9.738  0.4676  0.3173  0.1503
 4658SOL    HW125436   4.372   0.088   9.687  0.2505 -0.1106 -0.1213
 4658SOL    HW225437   4.318   0.075   9.828 -2.5025 -2.2664  0.4103
 4659SOL     OW25438   1.652   3.704   0.459  0.1887 -0.2787  0.1808
 4659SOL    HW125439   1.656   3.747   0.374  1.2668 -1.6842 -0.4851
 4659SOL    HW225440   1.610   3.774   0.509  1.4744  1.5645 -1.3168
 4660SOL     OW25441   3.379   3.736   6.741  0.6364 -0.5124  0.3070
 4660SOL    HW125442   3.473   3.726   6.729  1.0709  3.0964  0.6675
 4660SOL    HW225443   3.383   3.826   6.774 -1.9496 -0.1516 -0.3518
 4661SOL     OW25444   1.045   1.346   7.865 -0.6515 -0.4559 -0.3040
 4661SOL    HW125445   0.980   1.415   7.854 -0.3970  0.0211  1.1593
 4661SOL    HW225446   0.990   1.271   7.845  0.5580 -1.5722  0.5408
 4662SOL     OW25447   1.375   0.691   5.223  0.2542 -0.2723  0.0918
 4662SOL    HW125448   1.292   0.649   5.199 -0.2314 -0.8557  2.8220
 4662SOL    HW225449   1.353   0.783   5.210  0.1836 -0.4102 -0.7323
 4663SOL     OW25450   4.239   4.219   7.591  0.1633  0.0946 -0.4425
 4663SOL    HW125451   4.261   4.146   7.533 -0.0785 -0.7037  0.4708
 4663SOL    HW225452   4.307   4.216   7.659 -2.4749 -0.8218  2.1586
 4664SOL     OW25453   2.288   4.188   9.625 -0.3560 -0.9340  0.2173
 4664SOL    HW125454   2.322   4.267   9.667 -0.3512 -0.7956 -0.0466
 4664SOL    HW225455   2.315   4.204   9.535 -1.1718 -0.3281  0.0808
 4665SOL     OW25456   4.350   3.292   7.711  0.3351  0.1487  0.0643
 4665SOL    HW125457   4.273   3.306   7.767 -0.0708 -0.8672 -0.2419
 4665SOL    HW225458   4.411   3.350   7.755  0.6483  0.9841 -1.4966
 4666SOL     OW25459   2.784   0.170   6.866  0.0178  0.1868 -0.0802
 4666SOL    HW125460   2.816   0.231   6.933 -2.0913 -0.1593  1.2292
 4666SOL    HW225461   2.760   0.229   6.795  0.8503  0.0349 -0.4821
 4667SOL     OW25462   0.909   2.641  14.556 -0.2521  0.1157  0.0675
 4667SOL    HW125463   0.952   2.622  14.640 -0.3821  0.8981  0.3178
 4667SOL    HW225464   0.970   2.600  14.496 -0.5913  0.6589 -0.6498
 4668SOL     OW25465   1.711   1.918   2.250  0.0864  0.0482  0.2859
 4668SOL    HW125466   1.717   1.982   2.321  2.9649  0.4433 -0.3327
 4668SOL    HW225467   1.798   1.879   2.243 -0.0558  0.2990 -2.9036
 4669SOL     OW25468   4.146   3.693   1.111  0.3657  0.0775  0.8116
 4669SOL    HW125469   4.059   3.655   1.096 -0.0479  0.4204  2.3632
 4669SOL    HW225470   4.132   3.786   1.096 -3.9355 -0.5882  0.7901
 4670SOL     OW25471   1.142   0.181   5.935 -0.1782 -0.4923  0.1405
 4670SOL    HW125472   1.048   0.195   5.929  0.1904  1.9733  0.1170
 4670SOL    HW225473   1.167   0.261   5.889 -0.0097 -0.6249 -0.0003
 4671SOL     OW25474   1.217   2.612  15.061 -0.1876 -0.0542  0.8786
 4671SOL    HW125475   1.249   2.548  15.124 -0.4043 -0.0639  0.9783
 4671SOL    HW225476   1.295   2.638  15.012  0.5401 -0.2407  1.9403
 4672SOL     OW25477   3.717   2.470   4.319 -0.0879 -0.0757  0.4524
 4672SOL    HW125478   3.684   2.380   4.323 -0.2037 -0.1272 -1.6874
 4672SOL    HW225479   3.788   2.467   4.255 -2.6347  3.3364 -2.5248
 4673SOL     OW25480   3.812   1.490   2.233 -0.9354  0.1906 -0.2319
 4673SOL    HW125481   3.808   1.400   2.198  0.2842  0.3338 -0.7343
 4673SOL    HW225482   3.726   1.526   2.210 -0.4151 -0.2225 -2.8863
 4674SOL     OW25483   1.414   3.716   6.537 -0.3216 -0.6099  0.2710
 4674SOL    HW125484   1.336   3.661   6.526  0.7595 -1.5891 -2.4644
 4674SOL    HW225485   1.383   3.804   6.558  0.9596 -0.2129  0.5376
 4675SOL     OW25486   0.153   2.987   6.847 -0.0001 -0.1251 -0.3987
 4675SOL    HW125487   0.231   2.932   6.849  0.6120  0.7759  0.8327
 4675SOL    HW225488   0.192   3.075   6.851  0.5127 -0.2509 -2.9196
 4676SOL     OW25489   4.372   3.952   5.737 -0.7222  0.7152  0.3626
 4676SOL    HW125490   4.339   3.863   5.722  0.5577  0.6330 -1.9182
 4676SOL    HW225491   4.368   3.966   5.832  1.2817  1.3380  0.3609
 4677SOL     OW25492   4.369   2.359   5.984 -0.2953  0.1528 -0.3082
 4677SOL    HW125493   4.404   2.271   5.970 -0.6522  0.2918 -2.0201
 4677SOL    HW225494   4.357   2.367   6.079 -1.9110 -0.9129 -0.4184
 4678SOL     OW25495   1.893   3.925   8.336  0.2289  0.7928 -0.5539
 4678SOL    HW125496   1.880   4.018   8.354 -2.9037  0.5013 -1.3519
 4678SOL    HW225497   1.872   3.933   8.243 -1.8546 -0.6227 -0.1977
 4679SOL     OW25498   1.432   2.441   2.200 -0.0425  0.3240  0.3688
 4679SOL    HW125499   1.467   2.529   2.188  0.2442 -0.0526 -1.4497
 4679SOL    HW225500   1.339   2.447   2.223  0.1758  3.6457  0.3375
 4680SOL     OW25501   4.397   1.422  13.573 -0.4221 -0.1721  0.7124
 4680SOL    HW125502   4.404   1.517  13.580  1.4795 -0.3822  1.6352
 4680SOL    HW225503   4.331   1.416  13.504 -0.2190 -0.9993  0.5932
 4681SOL     OW25504   3.927   2.932   2.477 -0.8194  0.0734  0.4593
 4681SOL    HW125505   3.951   2.875   2.403 -0.7557  2.6452 -1.5007
 4681SOL    HW225506   3.864   2.995   2.443 -1.8515 -0.3089  1.6699
 4682SOL     OW25507   2.166   2.550   4.227 -0.3274  0.0048  0.0606
 4682SOL    HW125508   2.162   2.462   4.264  0.2080 -0.2672 -0.5322
 4682SOL    HW225509   2.075   2.580   4.222 -0.8824 -1.9023 -0.9849
 4683SOL     OW25510   3.462   3.839   1.763  0.5276 -0.3719 -0.0312
 4683SOL    HW125511   3.427   3.925   1.788 -1.3871 -1.3603  0.6082
 4683SOL    HW225512   3.446   3.832   1.669 -2.3577  0.2135  0.4168
 4684SOL     OW25513   0.227   4.482   5.329  0.0419  0.1751 -0.5322
 4684SOL    HW125514   0.214   4.423   5.254  0.0031 -0.4898  0.0046
 4684SOL    HW225515   0.182   4.427   5.392  0.6879 -0.3047 -0.4864
 4685SOL     OW25516   1.616   2.928  10.706  0.1854  0.8205 -0.2199
 4685SOL    HW125517   1.528   2.910  10.740  0.2612  1.8469  0.5007
 4685SOL    HW225518   1.638   3.004  10.760  0.5351 -0.1841  1.0501
 4686SOL     OW25519   4.208   3.693   0.660 -0.2276 -0.8348 -0.0248
 4686SOL    HW125520   4.236   3.720   0.748  1.5755 -1.5641 -0.3782
 4686SOL    HW225521   4.285   3.729   0.617  0.3985 -1.7516  0.3311
 4687SOL     OW25522   2.145   2.144  10.867  0.2971 -0.3595  0.3293
 4687SOL    HW125523   2.226   2.160  10.917 -0.3588  0.5398  1.1136
 4687SOL    HW225524   2.173   2.141  10.776  3.0408 -0.1213  1.1481
 4688SOL     OW25525   2.919   3.192  11.879 -0.6618 -0.7066 -0.7483
 4688SOL    HW125526   2.905   3.261  11.943 -1.0082  0.6720 -2.3271
 4688SOL    HW225527   2.831   3.198  11.842 -1.3569  0.6120  1.0648
 4689SOL     OW25528   2.409   2.617   6.972 -0.1342 -0.2804  0.2729
 4689SOL    HW125529   2.356   2.548   6.932  3.1657 -1.3249 -2.2321
 4689SOL    HW225530   2.477   2.617   6.905 -1.3463 -1.7600 -0.9600
 4690SOL     OW25531   0.697   1.766   5.000 -0.2980  0.1579 -1.1639
 4690SOL    HW125532   0.655   1.732   5.079 -0.5064  0.0551 -1.3197
 4690SOL    HW225533   0.654   1.718   4.930 -1.5865 -0.5831  0.1223
 4691SOL     OW25534   0.538   2.687   5.783 -0.5437 -0.3730  0.0810
 4691SOL    HW125535   0.575   2.708   5.698 -0.5662 -2.5128 -0.4728
 4691SOL    HW225536   0.613   2.635   5.813  0.8681  0.8207 -1.3871
 4692SOL     OW25537   3.698   0.239   8.947  0.2007  0.6562 -0.9204
 4692SOL    HW125538   3.774   0.246   8.889 -0.6106 -1.7504 -2.2713
 4692SOL    HW225539   3.733   0.288   9.022 -0.4688  0.5253 -0.5234
 4693SOL     OW25540   2.399   2.072   2.946  0.2910  0.0631 -0.0129
 4693SOL    HW125541   2.384   2.148   2.890 -2.8914  0.5633  1.5717
 4693SOL    HW225542   2.446   2.021   2.880 -0.8134 -0.8526 -0.0763
 4694SOL     OW25543   4.389   1.805  14.954 -0.0007 -0.3954 -0.1872
 4694SOL    HW125544   4.328   1.841  14.890  0.1271  0.8700  0.4036
 4694SOL    HW225545   4.350   1.822  15.040  3.2812 -0.4472  1.2934
 4695SOL     OW25546   1.891   1.953   6.437 -0.9578 -0.1879 -0.4165
 4695SOL    HW125547   1.909   1.860   6.430 -0.0662 -0.1032  0.7205
 4695SOL    HW225548   1.977   1.991   6.418  0.1369 -2.4460  0.1123
 4696SOL     OW25549   3.427   4.675   2.643 -0.1311  0.1362 -0.2240
 4696SOL    HW125550   3.513   4.673   2.684  0.2108  1.1354 -0.9022
 4696SOL    HW225551   3.435   4.695   2.550  3.3194  1.6099  0.4123
 4697SOL     OW25552   3.730   4.468   2.519 -0.3493 -0.3856 -0.2160
 4697SOL    HW125553   3.742   4.393   2.577 -0.5313  1.1945  1.8623
 4697SOL    HW225554   3.642   4.447   2.487  0.0561 -1.3296 -0.6902
 4698SOL     OW25555   2.001   1.672  12.942  0.3037 -0.1500  0.4205
 4698SOL    HW125556   2.034   1.685  13.031  2.0685 -1.4088 -0.0552
 4698SOL    HW225557   1.972   1.581  12.942 -0.8390  0.2053  0.4230
 4699SOL     OW25558   1.681   1.298   3.694  0.1533  0.5053 -0.0672
 4699SOL    HW125559   1.686   1.271   3.602 -1.4179  0.7846 -0.2492
 4699SOL    HW225560   1.709   1.389   3.686  2.4139 -0.1060  1.1230
 4700SOL     OW25561   1.843   2.331   3.656  0.2857 -0.8101 -0.1316
 4700SOL    HW125562   1.832   2.392   3.583  0.9056  0.6037  0.9537
 4700SOL    HW225563   1.759   2.285   3.658 -0.2189  0.1581  0.8762
 4701SOL     OW25564   2.797   3.501   5.467  0.3769  0.3238  0.0593
 4701SOL    HW125565   2.749   3.530   5.545 -0.0901 -1.7492  0.5209
 4701SOL    HW225566   2.758   3.566   5.409 -2.1171 -0.7739  0.5149
 4702SOL     OW25567   3.989   1.529  10.964 -0.3120  0.1471 -0.0532
 4702SOL    HW125568   3.909   1.568  11.001 -0.3533 -0.1823  0.2034
 4702SOL    HW225569   4.028   1.605  10.921 -0.2056  0.5056  0.6835
 4703SOL     OW25570   1.833   4.253   1.675  0.1945 -0.0380 -0.6370
 4703SOL    HW125571   1.823   4.310   1.599  1.7606 -2.0832 -2.3370
 4703SOL    HW225572   1.915   4.285   1.712 -1.0730  2.6614 -0.1540
 4704SOL     OW25573   2.381   0.422   5.273 -0.2712 -0.6203  0.6639
 4704SOL    HW125574   2.430   0.482   5.329  0.8891 -1.3486  0.4318
 4704SOL    HW225575   2.326   0.383   5.340  0.2224 -2.6850 -0.1286
 4705SOL     OW25576   0.032   3.177   3.068 -0.0062 -0.1809  0.2691
 4705SOL    HW125577   0.114   3.218   3.096 -0.0648  0.7485 -0.9399
 4705SOL    HW225578   4.693   3.243   3.104  0.6375 -0.2695  1.5085
 4706SOL     OW25579   3.847   4.704  12.894  0.2501  0.5356 -0.8552
 4706SOL    HW125580   3.938   0.009  12.910  0.7037 -1.0755 -0.7941
 4706SOL    HW225581   3.795   0.062  12.911  2.4361  1.8638 -0.2814
 4707SOL     OW25582   3.848   0.473   8.028 -0.2422 -0.4465  0.4337
 4707SOL    HW125583   3.874   0.534   8.097 -1.4099 -0.3443  0.7819
 4707SOL    HW225584   3.932   0.462   7.984  1.7821  3.0088  3.4289
 4708SOL     OW25585   4.395   0.422   7.506 -0.4625 -0.1518  0.1300
 4708SOL    HW125586   4.302   0.443   7.509 -0.5930 -0.2816 -2.6668
 4708SOL    HW225587   4.409   0.335   7.545  2.0858  0.7344  1.1660
 4709SOL     OW25588   2.504   4.451   7.745  0.2661  0.3440 -0.3221
 4709SOL    HW125589   2.532   4.464   7.836  0.2924  2.8291 -0.6871
 4709SOL    HW225590   2.450   4.374   7.760 -0.0716  0.6212 -0.0882
 4710SOL     OW25591   3.898   2.668   1.543 -0.5510  0.5946 -0.2970
 4710SOL    HW125592   3.881   2.710   1.459  1.9058  1.0136 -0.5786
 4710SOL    HW225593   3.817   2.626   1.570  0.2292 -0.8553 -0.2063
 4711SOL     OW25594   1.753   2.173  17.402  0.0147  0.3441 -0.5651
 4711SOL    HW125595   1.680   2.125  17.441 -0.5619  2.2291  0.6869
 4711SOL    HW225596   1.733   2.194  17.311 -1.6529 -0.7908 -0.4534
 4712SOL     OW25597   4.274   1.423   4.381 -0.4653 -0.1524  0.2699
 4712SOL    HW125598   4.283   1.423   4.286  1.8416 -2.3270  0.5033
 4712SOL    HW225599   4.327   1.349   4.412 -0.7032 -0.5759 -0.3361
 4713SOL     OW25600   2.988   3.597   1.542 -0.5677 -0.2113  0.2579
 4713SOL    HW125601   3.010   3.590   1.449 -1.7217 -0.7984  0.0212
 4713SOL    HW225602   3.017   3.684   1.568  0.2355 -0.4131  0.0378
 4714SOL     OW25603   3.231   2.324   9.807 -0.5640  0.0752 -0.0496
 4714SOL    HW125604   3.182   2.261   9.860 -0.3652  0.4282  0.5523
 4714SOL    HW225605   3.317   2.284   9.816  0.5636  2.6066  0.2017
 4715SOL     OW25606   0.284   3.379   3.701  0.0832 -0.5174 -0.2163
 4715SOL    HW125607   0.217   3.428   3.748  1.9865  2.0336 -0.1867
 4715SOL    HW225608   0.291   3.301   3.756  1.4676  1.9383  3.0493
 4716SOL     OW25609   3.203   1.263   7.939  0.1179  0.1675 -0.1985
 4716SOL    HW125610   3.205   1.332   8.005  0.0940 -1.0235  1.0502
 4716SOL    HW225611   3.116   1.280   7.903 -0.4426  2.3307  2.1889
 4717SOL     OW25612   0.999   3.184   6.756  0.2601 -0.0515 -0.1836
 4717SOL    HW125613   0.979   3.159   6.665 -1.3162 -1.2148  0.4791
 4717SOL    HW225614   0.910   3.185   6.791  0.5156  1.9478  0.3786
 4718SOL     OW25615   4.413   2.158   1.913 -0.2161  0.1177  0.3311
 4718SOL    HW125616   4.498   2.134   1.877 -1.8673 -1.6249 -2.3599
 4718SOL    HW225617   4.356   2.142   1.838  0.5055  0.4267 -0.2717
 4719SOL     OW25618   4.393   3.367  17.058  0.5003  0.1129 -0.1624
 4719SOL    HW125619   4.369   3.420  17.134  0.1691 -0.8024  0.3684
 4719SOL    HW225620   4.364   3.279  17.081  0.3765  0.3876  0.7178
 4720SOL     OW25621   1.707   0.954  14.920 -0.4914 -0.4180  0.5719
 4720SOL    HW125622   1.675   1.044  14.922  1.1769  0.2407 -1.2847
 4720SOL    HW225623   1.755   0.948  15.003  3.0837 -0.1043 -1.4333
 4721SOL     OW25624   1.012   2.902   2.674  0.2166  0.6435 -0.3931
 4721SOL    HW125625   1.097   2.921   2.715  0.5625 -2.3283  0.3476
 4721SOL    HW225626   0.956   2.893   2.751  1.3350 -0.9183  0.2381
 4722SOL     OW25627   3.510   2.814   8.351  0.1056 -0.3208 -0.2443
 4722SOL    HW125628   3.445   2.745   8.339 -1.0718  0.5490  1.2138
 4722SOL    HW225629   3.560   2.776   8.424  0.6301  1.1301  0.1602
 4723SOL     OW25630   0.407   3.583   6.135 -0.4924 -0.0390  0.1096
 4723SOL    HW125631   0.350   3.603   6.061 -0.2846 -0.4262 -0.1576
 4723SOL    HW225632   0.351   3.569   6.211  1.6897 -0.3789  1.6547
 4724SOL     OW25633   4.124   3.596  15.683  0.5271 -0.6651  0.1041
 4724SOL    HW125634   4.160   3.519  15.727  2.0199 -1.0760 -1.8232
 4724SOL    HW225635   4.105   3.550  15.602  0.8764 -0.0757 -0.3076
 4725SOL     OW25636   1.864   4.266  11.524  0.3813 -0.7761 -0.2521
 4725SOL    HW125637   1.874   4.171  11.519  0.8565 -0.7689  0.5541
 4725SOL    HW225638   1.851   4.298  11.435 -1.7235  1.3826  0.8278
 4726SOL     OW25639   4.584   1.530   9.079  0.8982  0.1017 -0.1478
 4726SOL    HW125640   4.516   1.528   9.146 -1.1266  0.5742 -2.1806
 4726SOL    HW225641   4.568   1.622   9.057  2.1495  0.2640 -0.4019
 4727SOL     OW25642   1.472   3.362   2.961 -0.3460 -0.4053 -0.3013
 4727SOL    HW125643   1.551   3.346   2.909  0.5664  0.1750  0.9091
 4727SOL    HW225644   1.423   3.405   2.891 -0.7924  0.2949  0.4494
 4728SOL     OW25645   0.093   1.891   5.841 -0.2930 -0.0808  0.2786
 4728SOL    HW125646   0.137   1.825   5.895 -0.3224  1.8700  2.6911
 4728SOL    HW225647   0.067   1.959   5.904  0.1141  0.2614  0.0801
 4729SOL     OW25648   2.203   0.862   4.786 -0.5508 -0.1789 -0.0563
 4729SOL    HW125649   2.266   0.890   4.720  0.9940  0.8133  1.8487
 4729SOL    HW225650   2.127   0.907   4.749 -0.3349 -0.8690 -1.3186
 4730SOL     OW25651   1.764   1.059   5.284  0.4133  0.3049  0.0070
 4730SOL    HW125652   1.858   1.042   5.280  0.5770  1.2782 -0.4086
 4730SOL    HW225653   1.763   1.143   5.329 -0.0533 -0.8189  2.0852
 4731SOL     OW25654   0.059   4.541  10.570 -0.2671 -0.1859  0.1330
 4731SOL    HW125655   0.119   4.525  10.498 -0.2999 -2.5114  0.5964
 4731SOL    HW225656   4.701   4.498  10.537 -0.4085  1.1339 -1.2580
 4732SOL     OW25657   1.354   1.512   1.660 -0.5391  0.1924  0.4726
 4732SOL    HW125658   1.275   1.566   1.667  1.7478  3.4300  1.2807
 4732SOL    HW225659   1.344   1.461   1.741 -0.5170 -1.5893 -0.6499
 4733SOL     OW25660   1.604   2.888   2.187 -0.1871  0.6400  0.2207
 4733SOL    HW125661   1.605   2.930   2.101 -2.5025 -0.0415 -0.1449
 4733SOL    HW225662   1.650   2.804   2.173 -1.8922 -0.4915  1.5333
 4734SOL     OW25663   0.140   2.170   1.177 -0.3461  0.3118 -0.4746
 4734SOL    HW125664   0.069   2.214   1.224 -0.0141 -0.6471  0.9303
 4734SOL    HW225665   0.181   2.100   1.228  2.3923  1.3236 -1.2613
 4735SOL     OW25666   3.838   2.673   5.917 -0.4389  0.2518 -0.1710
 4735SOL    HW125667   3.899   2.747   5.923  1.2445 -1.4337  3.3478
 4735SOL    HW225668   3.887   2.597   5.949  0.7743  1.1381  0.1031
 4736SOL     OW25669   4.194   3.995  12.112  0.4293  0.0243 -0.3448
 4736SOL    HW125670   4.248   4.052  12.056  0.6743  1.0036  0.9033
 4736SOL    HW225671   4.178   3.930  12.043 -0.0054  1.1639 -1.3314
 4737SOL     OW25672   1.384   1.610  10.218  1.1408  0.7405 -0.3454
 4737SOL    HW125673   1.302   1.603  10.169 -0.3588 -0.3494  2.2854
 4737SOL    HW225674   1.374   1.542  10.285  1.5356  0.2825 -0.7553
 4738SOL     OW25675   3.719   4.137  11.530  0.0421  0.0264 -0.0811
 4738SOL    HW125676   3.666   4.156  11.453 -1.4723 -0.5167  0.8373
 4738SOL    HW225677   3.768   4.070  11.484 -0.4154  0.5286 -1.2840
 4739SOL     OW25678   0.554   0.565   4.607  0.5052 -0.5675 -0.1973
 4739SOL    HW125679   0.512   0.643   4.571  0.2432 -0.5313  0.1896
 4739SOL    HW225680   0.508   0.571   4.691 -0.7255  0.6134 -0.9567
 4740SOL     OW25681   2.943   0.361   0.197 -0.4438 -0.1249 -0.8421
 4740SOL    HW125682   2.915   0.450   0.174 -0.4892  0.0267 -0.1909
 4740SOL    HW225683   2.883   0.303   0.150 -1.6111  1.0476 -0.7838
 4741SOL     OW25684   0.255   2.437   6.487 -0.3061  0.0314  1.1379
 4741SOL    HW125685   0.173   2.408   6.528 -1.4860  1.4469 -0.1832
 4741SOL    HW225686   0.305   2.480   6.555  2.6449 -1.5923 -0.0143
 4742SOL     OW25687   1.410   2.623   7.687 -1.3242 -0.3799 -0.3242
 4742SOL    HW125688   1.432   2.533   7.662  0.0119 -0.0469 -0.3149
 4742SOL    HW225689   1.360   2.648   7.609  3.3781  1.5801 -2.6951
 4743SOL     OW25690   2.474   3.474   4.000 -0.3521 -0.8407  0.1303
 4743SOL    HW125691   2.538   3.471   3.929 -0.5852  0.2748 -0.1225
 4743SOL    HW225692   2.463   3.569   3.997 -1.4020 -0.8875  2.8435
 4744SOL     OW25693   3.193   3.777   5.857 -0.7624 -0.3479 -0.0699
 4744SOL    HW125694   3.190   3.864   5.816 -2.5908 -0.3389  0.0720
 4744SOL    HW225695   3.288   3.766   5.861 -0.5124  1.3125 -1.2874
 4745SOL     OW25696   3.963   4.351  16.344 -0.2142  0.6733 -0.8163
 4745SOL    HW125697   3.970   4.317  16.255 -1.4694  1.3912 -1.1855
 4745SOL    HW225698   4.019   4.287  16.389 -0.2945  0.5725 -0.8596
 4746SOL     OW25699   4.393   1.446  16.652 -0.4606  0.0487 -0.5793
 4746SOL    HW125700   4.379   1.425  16.744 -1.6622 -0.2028 -0.8151
 4746SOL    HW225701   4.488   1.433  16.643 -0.4433 -0.6887  0.7238
 4747SOL     OW25702   1.565   2.016   5.025 -0.5944 -0.0234  0.7028
 4747SOL    HW125703   1.597   1.942   5.076  0.9715 -1.3682 -2.1933
 4747SOL    HW225704   1.530   1.974   4.946  0.9120  0.0873 -0.0334
 4748SOL     OW25705   1.003   0.658   0.512 -0.1163 -0.1202 -0.4251
 4748SOL    HW125706   0.939   0.642   0.581  0.0745  0.8325 -0.0308
 4748SOL    HW225707   0.997   0.753   0.499 -0.8203 -0.0909  0.1566
 4749SOL     OW25708   3.952   0.935  14.531 -0.2482 -0.8520 -0.2398
 4749SOL    HW125709   3.877   0.882  14.559  0.1392 -1.2378  0.0744
 4749SOL    HW225710   3.905   1.017  14.545  1.8746  0.3222  0.1350
 4750SOL     OW25711   0.645   3.499   7.035 -0.0778 -0.2134  0.0637
 4750SOL    HW125712   0.571   3.551   7.003  0.4018  2.4272  3.1827
 4750SOL    HW225713   0.600   3.424   7.074  0.7762  0.8776  3.1174
 4751SOL     OW25714   2.579   4.125  12.983  0.1541 -0.8355  0.1195
 4751SOL    HW125715   2.654   4.163  13.029 -1.7035  1.9786  0.8582
 4751SOL    HW225716   2.565   4.198  12.923  1.8427 -0.1942  0.5195
 4752SOL     OW25717   0.289   1.548   5.351 -0.5151 -0.2142 -0.4630
 4752SOL    HW125718   0.239   1.475   5.315 -0.7938 -0.9723  1.5151
 4752SOL    HW225719   0.265   1.552   5.443 -0.5843  0.6352 -0.5112
 4753SOL     OW25720   3.350   3.135  13.531  0.0855  0.2282 -0.6225
 4753SOL    HW125721   3.337   3.062  13.592 -0.2066 -0.2761 -1.2961
 4753SOL    HW225722   3.305   3.205  13.578  0.4948  0.1396 -0.0952
 4754SOL     OW25723   3.092   2.198   1.841  0.2868  0.2927 -0.0479
 4754SOL    HW125724   3.181   2.189   1.805 -0.0900  0.6033 -1.0667
 4754SOL    HW225725   3.054   2.110   1.838 -0.2780  0.5057  1.2676
 4755SOL     OW25726   2.078   0.556  12.367  0.6842 -0.3147  0.0558
 4755SOL    HW125727   2.009   0.490  12.360  0.2288  0.3777 -2.0704
 4755SOL    HW225728   2.147   0.494  12.389 -1.0973 -2.1225  0.6115
 4756SOL     OW25729   4.307   0.661   7.200 -0.0116 -0.4283  0.0463
 4756SOL    HW125730   4.360   0.737   7.224  0.0094 -1.1763  2.3617
 4756SOL    HW225731   4.221   0.687   7.234 -1.2373 -0.8350 -2.6923
 4757SOL     OW25732   2.384   1.523   7.308  0.3830 -0.0088  0.6732
 4757SOL    HW125733   2.457   1.508   7.367  1.7190  0.1162 -0.9405
 4757SOL    HW225734   2.325   1.574   7.364  0.3882  0.2639  0.4311
 4758SOL     OW25735   2.603   2.426   0.629  0.6869  1.3513  0.0739
 4758SOL    HW125736   2.652   2.353   0.592 -1.3642  0.7491 -1.4078
 4758SOL    HW225737   2.523   2.387   0.665  0.4877  0.4131 -1.4293
 4759SOL     OW25738   2.556   1.160   6.350  0.1349  0.4918 -0.3330
 4759SOL    HW125739   2.542   1.128   6.439  1.1371  1.3049  0.1145
 4759SOL    HW225740   2.495   1.233   6.338  0.0636  0.4470 -0.2478
 4760SOL     OW25741   0.755   0.363   8.313 -0.4144  0.1753 -0.1526
 4760SOL    HW125742   0.755   0.290   8.374 -1.6329 -0.7743 -1.2722
 4760SOL    HW225743   0.793   0.440   8.356 -0.8302  0.5329 -0.4223
 4761SOL     OW25744   2.652   3.734   7.789 -0.3094 -0.1679 -0.0293
 4761SOL    HW125745   2.679   3.724   7.880  0.3609 -0.1265 -0.2172
 4761SOL    HW225746   2.662   3.829   7.786  3.0403 -0.5461 -0.7214
 4762SOL     OW25747   3.641   4.053   6.894 -0.0624  0.4006 -0.2849
 4762SOL    HW125748   3.717   4.048   6.835  1.2456  0.9511  1.3686
 4762SOL    HW225749   3.657   4.136   6.939 -0.3279 -0.1753  0.8560
 4763SOL     OW25750   1.306   2.190   5.367 -0.0048  0.2962  0.5634
 4763SOL    HW125751   1.364   2.128   5.411 -0.5120 -0.0444  0.7584
 4763SOL    HW225752   1.240   2.201   5.435 -0.5398 -1.8473  0.3981
 4764SOL     OW25753   3.002   1.739  16.502 -0.3448 -0.1029 -0.3303
 4764SOL    HW125754   2.933   1.764  16.441  0.3655  1.3720 -0.5120
 4764SOL    HW225755   3.059   1.684  16.448  2.8020  2.0610  0.7843
 4765SOL     OW25756   1.737   0.633   3.065 -0.1920  0.0424  0.1659
 4765SOL    HW125757   1.789   0.627   3.145 -0.2163 -2.7912 -0.0200
 4765SOL    HW225758   1.684   0.708   3.092  1.4611  1.9639 -1.9726
 4766SOL     OW25759   1.059   3.610   7.768  0.5068 -0.5487  0.5109
 4766SOL    HW125760   0.972   3.571   7.759 -0.1843  1.0579  0.2625
 4766SOL    HW225761   1.076   3.600   7.861 -1.4695 -0.1878  0.9035
 4767SOL     OW25762   3.537   1.482   4.739 -0.7630  0.0022 -0.0082
 4767SOL    HW125763   3.444   1.483   4.763 -0.8155  0.4268 -0.2101
 4767SOL    HW225764   3.564   1.392   4.757 -0.8342 -0.1015 -0.4246
 4768SOL     OW25765   2.033   2.690   6.995 -0.0161  0.4376 -0.4071
 4768SOL    HW125766   1.965   2.628   6.970  1.6080 -1.6785  0.4066
 4768SOL    HW225767   2.041   2.689   7.090  1.2822  0.5627 -0.5112
 4769SOL     OW25768   1.514   1.033   2.407 -0.7488  0.1367 -0.4787
 4769SOL    HW125769   1.569   1.106   2.378 -0.9177  0.0151 -1.1188
 4769SOL    HW225770   1.495   1.059   2.497  2.4051 -0.6679  0.4184
 4770SOL     OW25771   1.985   1.398   7.519  0.4072 -0.4292 -0.6267
 4770SOL    HW125772   1.948   1.478   7.481 -1.2928 -2.4297 -3.2126
 4770SOL    HW225773   1.998   1.415   7.612 -0.9787  2.6680 -1.0009
 4771SOL     OW25774   2.524   2.104   5.004 -0.2658 -0.2850 -0.2848
 4771SOL    HW125775   2.431   2.126   4.995 -0.2403 -0.2814 -0.5284
 4771SOL    HW225776   2.547   2.172   5.067 -1.2131 -0.0787 -0.1571
 4772SOL     OW25777   4.062   2.452  10.407  0.0007  0.0077  0.3435
 4772SOL    HW125778   3.977   2.418  10.433  0.6010 -1.7444  0.0265
 4772SOL    HW225779   4.097   2.385  10.348 -1.3684  0.3608 -0.8641
 4773SOL     OW25780   2.755   4.019  15.158  0.1765  0.4906 -0.3717
 4773SOL    HW125781   2.698   4.018  15.235 -1.0492 -1.4600 -1.3012
 4773SOL    HW225782   2.842   4.017  15.197 -0.1882  1.3821  0.4835
 4774SOL     OW25783   2.852   1.264   2.249  0.1329  0.2726 -1.2265
 4774SOL    HW125784   2.792   1.333   2.220  0.6049  1.3823  0.4216
 4774SOL    HW225785   2.907   1.248   2.173 -0.1277 -0.1301 -1.3304
 4775SOL     OW25786   2.343   0.727   3.910 -0.0842 -0.3981 -0.3589
 4775SOL    HW125787   2.428   0.738   3.953  0.2826 -0.4423 -1.0695
 4775SOL    HW225788   2.333   0.810   3.862  0.1789  1.8094  3.3997
 4776SOL     OW25789   1.298   1.938   3.713  0.2774  0.1623  0.3544
 4776SOL    HW125790   1.254   1.996   3.651  0.0166  1.8784  2.1420
 4776SOL    HW225791   1.222   1.881   3.731  0.3132 -0.3048 -0.9617
 4777SOL     OW25792   1.675   3.606   6.566  0.0589  0.0829 -0.0133
 4777SOL    HW125793   1.586   3.640   6.581 -0.4565 -1.1143 -0.3032
 4777SOL    HW225794   1.662   3.527   6.618  1.2026  1.3573  2.1883
 4778SOL     OW25795   0.666   3.250  12.121  0.0417 -0.0156 -0.7522
 4778SOL    HW125796   0.618   3.181  12.075  0.8728  1.0001 -3.1057
 4778SOL    HW225797   0.608   3.325  12.110  0.4944  0.6859  1.6471
 4779SOL     OW25798   2.816   1.416  17.254  0.2603 -0.4330 -0.5780
 4779SOL    HW125799   2.818   1.460  17.339  0.4337  1.5433 -1.5980
 4779SOL    HW225800   2.794   1.324  17.268  0.5232  0.0736  3.2312
 4780SOL     OW25801   0.476   0.456   0.668 -0.0841  0.3535 -0.5035
 4780SOL    HW125802   0.510   0.490   0.585  1.9353 -0.2847  0.0625
 4780SOL    HW225803   0.524   0.512   0.730 -0.1787 -0.9726  0.7639
 4781SOL     OW25804   2.123   2.051   7.617 -0.8737 -0.2127 -0.4384
 4781SOL    HW125805   2.095   2.066   7.708 -1.3305 -1.6087 -0.3562
 4781SOL    HW225806   2.051   1.995   7.587 -1.4146 -0.0104  0.4684
 4782SOL     OW25807   0.361   4.042   1.429  0.0407 -0.1015  0.0628
 4782SOL    HW125808   0.298   3.980   1.392 -0.6638  0.9026 -0.4014
 4782SOL    HW225809   0.378   3.999   1.513 -1.4077 -0.8914 -0.0411
 4783SOL     OW25810   0.902   1.694  10.896  0.5189 -0.1069 -0.4548
 4783SOL    HW125811   0.830   1.755  10.912  1.5197  0.6458  1.2467
 4783SOL    HW225812   0.971   1.733  10.950 -0.4657  0.4098  0.4287
 4784SOL     OW25813   2.776   0.416   3.519  0.3450 -0.4989 -0.4582
 4784SOL    HW125814   2.739   0.402   3.606  1.1092 -0.7645 -0.1791
 4784SOL    HW225815   2.826   0.497   3.520  0.9043 -0.8576  0.1807
 4785SOL     OW25816   1.480   3.853   9.635  0.2234 -0.2892  0.1834
 4785SOL    HW125817   1.484   3.802   9.716  2.0851  1.8557  1.4351
 4785SOL    HW225818   1.454   3.942   9.659  0.5426 -0.6749  1.9134
 4786SOL     OW25819   4.080   2.583   4.440 -0.3713  0.1644 -0.0674
 4786SOL    HW125820   3.991   2.552   4.423 -0.3075  0.5142 -1.0336
 4786SOL    HW225821   4.119   2.530   4.510  0.5024  2.0883  0.9008
 4787SOL     OW25822   3.383   3.675  12.246 -0.4105  0.1811  0.1656
 4787SOL    HW125823   3.352   3.765  12.247  0.4886  0.5066 -1.5519
 4787SOL    HW225824   3.450   3.687  12.178 -0.1442 -1.6051  0.1201
 4788SOL     OW25825   2.768   1.735   2.509 -0.0666  0.3516 -0.0493
 4788SOL    HW125826   2.863   1.722   2.512 -0.1085 -0.5799 -3.0887
 4788SOL    HW225827   2.764   1.795   2.584 -0.4606 -0.4341  0.5645
 4789SOL     OW25828   2.529   3.049   8.364  0.0594  0.0467 -0.0409
 4789SOL    HW125829   2.548   3.065   8.272  0.3576 -0.8659 -0.1362
 4789SOL    HW225830   2.444   3.093   8.367  0.3600  0.6450 -0.3570
 4790SOL     OW25831   3.973   3.420   4.283 -1.1851  0.1062 -0.4836
 4790SOL    HW125832   4.021   3.406   4.201  2.3671  0.8489  1.4473
 4790SOL    HW225833   3.971   3.516   4.276  3.3483  0.1037 -2.2394
 4791SOL     OW25834   0.361   2.317   7.782 -0.2821 -0.0612  0.2220
 4791SOL    HW125835   0.299   2.279   7.719 -0.4120  0.1659  0.2109
 4791SOL    HW225836   0.371   2.246   7.845 -0.8416  0.6005  1.0528
 4792SOL     OW25837   1.720   4.365   0.826 -0.0469  0.1090 -0.2466
 4792SOL    HW125838   1.696   4.388   0.915 -0.7037 -0.7843 -0.1846
 4792SOL    HW225839   1.809   4.398   0.815  0.2698 -0.3476  0.9969
 4793SOL     OW25840   0.406   0.086  11.058 -0.0862  0.2855  0.4351
 4793SOL    HW125841   0.493   0.122  11.079 -0.1287  0.7575 -0.2206
 4793SOL    HW225842   0.372   0.164  11.016 -0.3387 -0.7480 -1.2754
 4794SOL     OW25843   3.096   0.489   1.590 -0.3651 -0.0429 -0.3332
 4794SOL    HW125844   3.124   0.469   1.680 -0.7436  0.6079 -0.0686
 4794SOL    HW225845   3.175   0.460   1.544 -0.5227 -0.8614 -0.0833
 4795SOL     OW25846   3.118   1.110   1.511 -0.0480 -0.2487  0.1589
 4795SOL    HW125847   3.037   1.126   1.559  0.3465  0.4494  0.5972
 4795SOL    HW225848   3.097   1.068   1.427 -0.4786 -0.7936  0.5457
 4796SOL     OW25849   2.208   4.010   1.702 -0.2512 -0.1614  0.2367
 4796SOL    HW125850   2.225   4.044   1.615  1.2191 -0.7813  0.2809
 4796SOL    HW225851   2.114   3.995   1.693 -0.1730 -0.8920  0.6217
 4797SOL     OW25852   0.344   2.126   2.153 -0.3598 -0.2733 -0.5415
 4797SOL    HW125853   0.431   2.088   2.160  0.4252  1.5180 -0.6292
 4797SOL    HW225854   0.361   2.161   2.065  2.1821  3.9646  1.6278
 4798SOL     OW25855   2.804   0.698   1.108  0.0028  0.3990 -0.3745
 4798SOL    HW125856   2.845   0.711   1.022  1.0589  3.2401  0.5862
 4798SOL    HW225857   2.881   0.673   1.159 -0.3598 -3.1010 -1.5447
 4799SOL     OW25858   1.952   1.652   7.780  0.0928  0.3028  0.2767
 4799SOL    HW125859   1.872   1.601   7.767 -1.1434  2.5153 -0.9966
 4799SOL    HW225860   1.927   1.711   7.851 -1.1905  0.1184 -0.0139
 4800SOL     OW25861   1.750   2.115   7.219 -0.5054 -0.5193 -0.1572
 4800SOL    HW125862   1.766   2.094   7.127  1.2513 -0.5402  0.1500
 4800SOL    HW225863   1.724   2.207   7.215  1.7718  0.1755  0.5394
 4801SOL     OW25864   2.767   1.270   1.356  0.3981 -0.0249 -0.2550
 4801SOL    HW125865   2.836   1.323   1.397  0.0636  0.1309  0.1072
 4801SOL    HW225866   2.689   1.325   1.346 -1.0269 -2.3602 -2.0517
 4802SOL     OW25867   0.521   2.344   3.207 -0.1682  0.3094 -0.3986
 4802SOL    HW125868   0.451   2.285   3.179  1.4332 -1.1309 -1.3116
 4802SOL    HW225869   0.474   2.383   3.281 -0.8768 -0.9224 -0.2054
 4803SOL     OW25870   3.614   1.739   9.094  0.3593  0.3379  0.0107
 4803SOL    HW125871   3.659   1.724   9.177  0.1153 -0.3403  0.0251
 4803SOL    HW225872   3.525   1.705   9.107  0.9659 -1.0523  0.6153
 4804SOL     OW25873   3.246   4.050   1.562  0.0815  0.3178 -0.1877
 4804SOL    HW125874   3.243   4.138   1.526 -0.4038 -0.4110 -1.9504
 4804SOL    HW225875   3.285   4.073   1.647 -0.0704  1.4837 -0.4357
 4805SOL     OW25876   2.587   4.353   5.518  0.2347  0.2046  0.2017
 4805SOL    HW125877   2.533   4.395   5.585 -0.5240 -1.9249  0.9337
 4805SOL    HW225878   2.616   4.423   5.459  1.6166 -0.0884  0.5254
 4806SOL     OW25879   4.549   2.391  11.817  0.2594  0.6358  0.3991
 4806SOL    HW125880   4.615   2.406  11.885  1.0004 -1.4562  0.1652
 4806SOL    HW225881   4.590   2.322  11.764  0.0978  1.0259 -0.2326
 4807SOL     OW25882   0.431   2.522   2.476  0.1440 -0.9058  0.3790
 4807SOL    HW125883   0.400   2.504   2.387  2.7034 -0.3518 -0.6223
 4807SOL    HW225884   0.372   2.591   2.509 -1.1387 -1.2039 -1.2854
 4808SOL     OW25885   0.037   2.806   3.152  0.5697  0.0989 -0.2141
 4808SOL    HW125886   0.019   2.716   3.127  0.9152  0.2142 -0.8599
 4808SOL    HW225887   0.039   2.788   3.246  1.0540 -1.1090 -0.4600
 4809SOL     OW25888   3.276   1.724   7.528 -0.3818  0.3813 -0.1257
 4809SOL    HW125889   3.351   1.712   7.586 -1.7534 -0.7117  1.4445
 4809SOL    HW225890   3.208   1.735   7.595 -2.3385  1.6368 -2.3309
 4810SOL     OW25891   2.180   4.465   1.055 -0.1438  0.0293  0.0171
 4810SOL    HW125892   2.122   4.392   1.074  0.8472 -1.2178 -1.7319
 4810SOL    HW225893   2.120   4.528   1.016 -0.9239 -0.6469  0.1176
 4811SOL     OW25894   2.757   0.743   8.592  0.6115  0.6086  0.6179
 4811SOL    HW125895   2.774   0.690   8.671  0.0644  0.4032  0.6025
 4811SOL    HW225896   2.686   0.796   8.629  0.7677  0.1865  1.5378
 4812SOL     OW25897   2.440   1.987   3.473 -0.1574  0.5744  0.1877
 4812SOL    HW125898   2.400   1.943   3.398 -1.0098 -0.3767  1.2120
 4812SOL    HW225899   2.511   1.930   3.504 -0.5083  0.1470  0.2031
 4813SOL     OW25900   3.494   1.479   8.026 -0.0868  0.7577  0.2355
 4813SOL    HW125901   3.408   1.462   8.063  0.7252  0.2183  1.8781
 4813SOL    HW225902   3.476   1.553   7.968 -0.1075 -0.7312 -1.6573
 4814SOL     OW25903   2.079   0.229   5.019  0.4698 -0.6526  0.1448
 4814SOL    HW125904   2.017   0.199   4.953  1.9725  0.6333 -1.8465
 4814SOL    HW225905   2.034   0.208   5.101 -1.2377  1.3850 -0.2734
 4815SOL     OW25906   1.821   0.083   6.752 -1.0208  0.0949 -0.0536
 4815SOL    HW125907   1.805   0.054   6.842  3.6707 -0.7984  0.5154
 4815SOL    HW225908   1.863   0.007   6.713 -0.8329 -0.0632  0.4486
 4816SOL     OW25909   2.842   4.600  11.870  0.4672 -0.0198  0.3435
 4816SOL    HW125910   2.893   4.590  11.789 -1.1420  0.7850 -0.7562
 4816SOL    HW225911   2.877   4.684  11.902  2.1039 -0.5993  0.0906
 4817SOL     OW25912   1.114   0.160  15.453  0.3461  0.3542  0.4897
 4817SOL    HW125913   1.067   0.078  15.436 -1.5454  1.7660 -1.2651
 4817SOL    HW225914   1.200   0.120  15.465 -0.5610 -1.2687  1.6115
 4818SOL     OW25915   0.176   0.125  13.177 -0.0599 -0.7976 -0.7442
 4818SOL    HW125916   0.177   0.119  13.273 -1.1202  0.2834 -0.6655
 4818SOL    HW225917   0.084   0.117  13.152  0.3305 -2.4825 -1.6596
 4819SOL     OW25918   1.742   0.535   5.606 -0.3182 -0.4126  0.7113
 4819SOL    HW125919   1.680   0.464   5.621 -2.1929  1.0215 -0.3420
 4819SOL    HW225920   1.706   0.591   5.537  2.7530 -0.0032 -0.5768
 4820SOL     OW25921   3.508   4.615   9.501  0.6238  0.0759  0.5428
 4820SOL    HW125922   3.452   4.632   9.577  2.6719 -1.4714  2.4005
 4820SOL    HW225923   3.494   4.523   9.481 -2.8020  0.8712 -0.7452
 4821SOL     OW25924   2.080   3.541  10.140 -0.2812 -0.5452  0.2671
 4821SOL    HW125925   2.047   3.452  10.152  0.5815 -1.0592 -1.0876
 4821SOL    HW225926   2.053   3.556  10.049 -1.2250  1.2458  0.8666
 4822SOL     OW25927   1.931   2.924  12.586 -0.1103 -0.3693 -0.1906
 4822SOL    HW125928   1.960   2.941  12.497  0.0511  0.1422 -0.0425
 4822SOL    HW225929   1.861   2.984  12.612  1.5853  1.0713  1.0844
 4823SOL     OW25930   1.792   3.799   4.018 -0.0629  0.3491 -0.0755
 4823SOL    HW125931   1.747   3.757   3.944  2.2555 -2.0028 -0.1502
 4823SOL    HW225932   1.744   3.748   4.083  0.1370 -0.3607 -0.4781
 4824SOL     OW25933   0.262   3.523   4.430  0.6841  0.7838  0.6689
 4824SOL    HW125934   0.330   3.515   4.497  0.7002  0.5220  0.6209
 4824SOL    HW225935   0.258   3.618   4.421  0.6775  0.8184  1.0214
 4825SOL     OW25936   0.520   3.959   7.755 -0.0776  0.2933 -0.0628
 4825SOL    HW125937   0.580   3.950   7.681  0.4046 -3.8024  0.8229
 4825SOL    HW225938   0.575   3.931   7.828 -0.2103 -0.4378 -0.2427
 4826SOL     OW25939   4.192   1.636   1.610  0.0001 -0.1097 -0.5345
 4826SOL    HW125940   4.184   1.688   1.530 -2.4517 -0.5364 -0.5684
 4826SOL    HW225941   4.212   1.546   1.583 -0.2211 -1.6636  4.4727
 4827SOL     OW25942   0.574   4.497   8.867 -0.2664 -0.3753  0.0458
 4827SOL    HW125943   0.594   4.457   8.952 -1.2293  1.0388  0.9424
 4827SOL    HW225944   0.492   4.544   8.880  0.8463  1.5833 -0.0618
 4828SOL     OW25945   4.314   1.597   6.488 -0.1073  0.1889  0.1917
 4828SOL    HW125946   4.293   1.572   6.398 -0.6488 -2.7491  1.1383
 4828SOL    HW225947   4.394   1.648   6.474  0.4686 -0.7649 -0.0136
 4829SOL     OW25948   1.541   1.415   9.806  0.0307  0.2954 -0.5667
 4829SOL    HW125949   1.449   1.440   9.801 -0.0516  0.0745 -0.1232
 4829SOL    HW225950   1.564   1.375   9.722 -1.6441 -1.7971 -0.0336
 4830SOL     OW25951   2.287   1.663   6.801 -0.3904  0.5126  0.3513
 4830SOL    HW125952   2.375   1.630   6.783 -0.6607  0.0075 -0.0146
 4830SOL    HW225953   2.272   1.629   6.889  0.2873 -3.1443 -0.9631
 4831SOL     OW25954   2.031   3.830   9.491 -0.1131  0.4622  0.4845
 4831SOL    HW125955   1.992   3.916   9.505 -1.6745 -0.3730  1.2196
 4831SOL    HW225956   2.121   3.837   9.524  0.5356 -2.8444 -0.5174
 4832SOL     OW25957   1.511   1.672   3.370  0.3723 -0.2747 -0.8607
 4832SOL    HW125958   1.429   1.658   3.418  1.6153  0.4342  1.4641
 4832SOL    HW225959   1.501   1.766   3.353 -1.2963  0.0530  1.9191
 4833SOL     OW25960   4.313   0.057  15.258 -0.1837  0.4674 -0.6822
 4833SOL    HW125961   4.346   0.073  15.346 -0.2025 -3.2953  0.0037
 4833SOL    HW225962   4.222   0.030  15.271  0.3171  1.1460  4.2712
 4834SOL     OW25963   4.448   2.640   7.451 -0.6132  0.2184 -0.1755
 4834SOL    HW125964   4.422   2.558   7.494  1.5049  0.0410  0.7664
 4834SOL    HW225965   4.455   2.698   7.526 -1.6082  0.5679 -0.3487
 4835SOL     OW25966   4.197   2.837   7.695  0.5460  0.1645 -0.2598
 4835SOL    HW125967   4.214   2.899   7.766 -4.0423 -0.2565  1.2000
 4835SOL    HW225968   4.283   2.794   7.701  1.9442  3.1050  0.6284
 4836SOL     OW25969   3.836   0.808   6.187  0.2341  0.0639 -0.5469
 4836SOL    HW125970   3.907   0.775   6.131 -0.4272 -2.6586  0.1931
 4836SOL    HW225971   3.824   0.899   6.161 -2.0628 -1.3659 -4.5193
 4837SOL     OW25972   4.338   0.444   3.033 -0.3241 -0.4557  0.3671
 4837SOL    HW125973   4.415   0.446   3.089 -0.2847  1.0795  0.2722
 4837SOL    HW225974   4.337   0.537   3.010  1.3875 -0.2204  1.2782
 4838SOL     OW25975   4.178   4.094   6.697 -0.5286 -0.5075  0.6258
 4838SOL    HW125976   4.245   4.075   6.763  0.3016  1.4050  0.3232
 4838SOL    HW225977   4.144   4.008   6.673 -1.3656  0.3590 -1.2724
 4839SOL     OW25978   0.679   2.105   3.606  0.8546 -0.8919  0.1854
 4839SOL    HW125979   0.622   2.173   3.644  2.8082  2.1708 -2.3328
 4839SOL    HW225980   0.634   2.090   3.523 -1.1081 -0.8695  1.2393
 4840SOL     OW25981   1.829   1.125   1.397  0.4790  0.1962  1.1937
 4840SOL    HW125982   1.867   1.052   1.348  0.5443  1.8290 -1.1938
 4840SOL    HW225983   1.758   1.080   1.443 -0.6071  1.0765  0.3884
 4841SOL     OW25984   2.289   0.073  16.471  0.1125 -0.5249 -0.2844
 4841SOL    HW125985   2.252   0.072  16.559 -0.2179  0.8286 -0.3989
 4841SOL    HW225986   2.219   0.131  16.439 -1.2210 -1.4362  0.9558
 4842SOL     OW25987   0.375   3.734  12.420 -0.3805 -0.2102  0.2318
 4842SOL    HW125988   0.294   3.692  12.447 -2.2403  2.5907 -0.9857
 4842SOL    HW225989   0.361   3.829  12.415 -0.3433 -0.3022 -1.6168
 4843SOL     OW25990   1.010   2.528   1.916 -0.0552 -0.0755 -0.5472
 4843SOL    HW125991   1.043   2.468   1.983  1.0698  0.0447 -0.9901
 4843SOL    HW225992   0.976   2.593   1.978  1.2429 -1.4481  1.6260
 4844SOL     OW25993   3.413   4.420  17.014 -0.1690  0.2569 -0.0571
 4844SOL    HW125994   3.492   4.373  16.987  0.3303  0.0541  1.7542
 4844SOL    HW225995   3.359   4.354  17.057  1.2815 -1.7185 -1.2770
 4845SOL     OW25996   0.807   3.058   0.392  0.1940  0.4578  0.0506
 4845SOL    HW125997   0.825   3.043   0.299  1.4244 -0.5039  0.4445
 4845SOL    HW225998   0.770   3.146   0.401  1.8044  1.2201 -0.8354
 4846SOL     OW25999   2.843   0.692   4.496  0.2681 -0.3806 -0.4295
 4846SOL    HW126000   2.803   0.623   4.547 -2.3210  1.0464 -0.5364
 4846SOL    HW226001   2.892   0.750   4.555  0.9621 -0.4797 -0.9032
 4847SOL     OW26002   1.924   1.546   4.123  1.0607 -0.5245 -0.1169
 4847SOL    HW126003   1.983   1.618   4.144 -0.2980  0.3407  0.6913
 4847SOL    HW226004   1.854   1.594   4.079  1.0313 -0.1184  0.3752
 4848SOL     OW26005   1.311   0.572   8.321  0.1050 -0.0101 -0.0153
 4848SOL    HW126006   1.308   0.609   8.233  2.7892  1.5399  0.5476
 4848SOL    HW226007   1.340   0.652   8.364 -0.5775 -0.0432  0.5022
 4849SOL     OW26008   1.110   2.018   7.533  0.0890  0.1890 -0.1740
 4849SOL    HW126009   1.099   1.955   7.462  1.1324 -1.2747  0.9731
 4849SOL    HW226010   1.104   1.966   7.613 -3.7199  1.1615  0.2041
 4850SOL     OW26011   3.336   1.564  17.109 -0.4187 -0.3530  0.4626
 4850SOL    HW126012   3.334   1.626  17.182  1.2033  0.5905 -0.2962
 4850SOL    HW226013   3.257   1.512  17.123  0.6207 -1.7215  1.2843
 4851SOL     OW26014   1.070   3.710   5.140 -0.1294  0.1376  0.2466
 4851SOL    HW126015   1.136   3.773   5.169  0.3487 -0.2854  0.0675
 4851SOL    HW226016   1.001   3.769   5.111  0.0508 -0.5183 -1.5439
 4852SOL     OW26017   2.178   1.749   1.980  0.1535 -0.4535  0.0606
 4852SOL    HW126018   2.160   1.686   1.911  2.1147 -2.1727  1.1085
 4852SOL    HW226019   2.190   1.826   1.926  1.3258 -0.6750  0.0037
 4853SOL     OW26020   1.442   0.347   7.982  0.0815  0.2114 -0.2135
 4853SOL    HW126021   1.519   0.292   7.998  1.2028  1.3093 -1.8268
 4853SOL    HW226022   1.402   0.313   7.902  0.7344 -0.2349 -0.3481
 4854SOL     OW26023   1.247   2.630   7.484 -0.4559 -0.0310  0.2214
 4854SOL    HW126024   1.294   2.588   7.413  1.8469  0.9098  1.1970
 4854SOL    HW226025   1.152   2.615   7.477 -0.2499 -0.1957 -2.0557
 4855SOL     OW26026   0.113   3.108   9.954  0.0517 -0.0544  0.1323
 4855SOL    HW126027   0.102   3.099   9.859 -2.7429  0.0718  0.4452
 4855SOL    HW226028   0.060   3.184   9.975  0.2697  0.0052  0.4691
 4856SOL     OW26029   3.448   3.242   5.603 -0.1742 -0.2648 -0.6289
 4856SOL    HW126030   3.528   3.206   5.640 -1.1537 -0.5097  1.2724
 4856SOL    HW226031   3.401   3.163   5.577 -0.4632 -0.2778 -0.0827
 4857SOL     OW26032   3.639   0.921   8.450 -0.2587 -0.6185  0.2922
 4857SOL    HW126033   3.658   0.862   8.523 -0.6167 -1.0227  0.0570
 4857SOL    HW226034   3.716   0.973   8.427 -1.2267  0.9668  0.6561
 4858SOL     OW26035   1.367   0.909   7.571 -0.2275 -0.1520 -0.1634
 4858SOL    HW126036   1.462   0.905   7.583 -0.2602  1.4514  0.6323
 4858SOL    HW226037   1.356   0.918   7.476  1.3879 -0.9787 -0.4262
 4859SOL     OW26038   4.131   1.485  13.405  0.2866  0.8659 -0.1553
 4859SOL    HW126039   4.149   1.568  13.450  0.8145 -0.6075  2.3657
 4859SOL    HW226040   4.124   1.507  13.312 -1.4053 -0.3336 -0.3192
 4860SOL     OW26041   1.394   3.086  14.189  0.3509  0.2468 -0.4329
 4860SOL    HW126042   1.382   3.116  14.279  2.7002  0.5372 -0.2258
 4860SOL    HW226043   1.429   2.997  14.194  1.7354  0.8144 -0.0792
 4861SOL     OW26044   0.732   2.528   5.876 -0.1272 -0.5241 -0.0797
 4861SOL    HW126045   0.675   2.456   5.851 -3.7648  1.0891  3.5944
 4861SOL    HW226046   0.815   2.507   5.833  1.2701  0.7325  1.9908
 4862SOL     OW26047   3.670   2.188  10.023 -0.3592  0.4807 -0.3023
 4862SOL    HW126048   3.733   2.251  10.058 -0.0645 -0.4081  0.7748
 4862SOL    HW226049   3.683   2.122  10.091  0.0219  0.2487 -0.5950
 4863SOL     OW26050   3.648   4.478   7.394  0.4437 -0.5263  0.1523
 4863SOL    HW126051   3.634   4.422   7.318 -1.1908 -1.7575  1.3719
 4863SOL    HW226052   3.566   4.481   7.442 -0.6897 -0.6694 -1.7938
 4864SOL     OW26053   3.785   2.580   8.379  0.4777 -0.9311 -0.8592
 4864SOL    HW126054   3.693   2.553   8.373 -0.0640  1.4468 -2.8906
 4864SOL    HW226055   3.793   2.668   8.343  0.8785 -0.1116  1.1966
 4865SOL     OW26056   4.036   0.426   2.831  0.2925 -0.3761  0.3791
 4865SOL    HW126057   3.954   0.450   2.787 -1.1828 -1.3811  2.5691
 4865SOL    HW226058   4.102   0.457   2.769  1.0279  2.5264  2.6150
 4866SOL     OW26059   1.002   0.308   6.862  0.2872  0.0760  0.1834
 4866SOL    HW126060   1.005   0.228   6.810 -2.9883 -0.4686  0.7869
 4866SOL    HW226061   0.908   0.326   6.860  0.1816 -0.7512 -1.9237
 4867SOL     OW26062   0.776   0.727   4.081  0.1244 -0.4604 -0.1072
 4867SOL    HW126063   0.850   0.699   4.027  0.1959  1.8623 -1.2102
 4867SOL    HW226064   0.816   0.802   4.125  1.6533 -0.9398 -0.6889
 4868SOL     OW26065   0.694   1.286   0.630  0.2001 -0.3971  0.3605
 4868SOL    HW126066   0.700   1.352   0.700  0.3114 -0.7499  0.6847
 4868SOL    HW226067   0.785   1.279   0.602 -0.1651 -0.2265 -0.8779
 4869SOL     OW26068   0.758   1.578   8.188  0.1565  0.3167  0.0920
 4869SOL    HW126069   0.853   1.590   8.187 -0.2604  3.5357 -1.0852
 4869SOL    HW226070   0.749   1.483   8.181  1.8222  0.0595  1.3985
 4870SOL     OW26071   3.831   1.867   3.449 -0.4933  0.1087  0.7775
 4870SOL    HW126072   3.835   1.854   3.544 -0.1421 -1.3131  0.5575
 4870SOL    HW226073   3.791   1.954   3.454  3.2077  1.7744  1.0113
 4871SOL     OW26074   1.925   3.911   4.593  0.1276 -0.0989  0.0053
 4871SOL    HW126075   1.885   3.997   4.587  0.3218 -0.0313 -0.3371
 4871SOL    HW226076   2.015   3.916   4.561 -0.2957 -1.4529 -1.4386
 4872SOL     OW26077   4.488   2.064   4.737  0.3097 -0.6646 -0.2745
 4872SOL    HW126078   4.485   2.070   4.642 -1.0289 -1.5016 -0.2965
 4872SOL    HW226079   4.400   2.089   4.765  0.1671 -0.2787 -1.0869
 4873SOL     OW26080   4.623   4.090  11.886 -0.2596  0.3992 -0.0359
 4873SOL    HW126081   4.684   4.156  11.918  0.8051  0.5940 -2.4511
 4873SOL    HW226082   4.667   4.011  11.917 -0.4514  0.0607 -0.6172
 4874SOL     OW26083   2.665   1.455  15.136 -0.3462  0.1007 -0.3074
 4874SOL    HW126084   2.664   1.467  15.041  0.7894  0.8327 -0.2299
 4874SOL    HW226085   2.758   1.443  15.158 -0.2046  1.0498 -0.3947
 4875SOL     OW26086   3.462   4.136   8.032  0.4093 -0.5027 -0.4231
 4875SOL    HW126087   3.529   4.197   8.063  0.7294 -1.7731  1.3424
 4875SOL    HW226088   3.512   4.091   7.963 -0.2423 -2.1666  0.2204
 4876SOL     OW26089   2.390   3.811   6.827  0.2688 -0.3432  0.0944
 4876SOL    HW126090   2.427   3.732   6.867 -0.5348 -1.1127 -0.6853
 4876SOL    HW226091   2.303   3.779   6.805  0.0606 -0.0238  0.4461
 4877SOL     OW26092   2.838   0.108   5.125  0.7409  0.4476 -0.4100
 4877SOL    HW126093   2.750   0.112   5.089 -0.3587  0.2028  2.2558
 4877SOL    HW226094   2.879   0.150   5.049 -0.0321  0.3938 -0.8501
 4878SOL     OW26095   4.575   4.489  14.444 -0.0427  0.3510 -0.2718
 4878SOL    HW126096   4.520   4.519  14.371 -0.8342  1.6290  0.8258
 4878SOL    HW226097   4.626   4.412  14.421 -0.0729  0.5454 -0.9731
 4879SOL     OW26098   2.499   4.437   7.364  1.0218  0.4067 -0.1017
 4879SOL    HW126099   2.549   4.475   7.291 -0.7549 -0.2443 -1.6508
 4879SOL    HW226100   2.552   4.449   7.442 -3.6732  0.2884  3.0755
 4880SOL     OW26101   4.286   3.827   6.973 -0.4668  0.1466 -0.5373
 4880SOL    HW126102   4.228   3.752   6.962  1.2810 -1.5899  2.0334
 4880SOL    HW226103   4.328   3.829   6.887  1.3923 -0.4580  0.3498
 4881SOL     OW26104   4.593   3.187   5.032 -0.2841  0.3383  0.2065
 4881SOL    HW126105   4.589   3.093   5.050  2.1726 -0.2181 -2.2472
 4881SOL    HW226106   4.629   3.214   5.116  0.2747  0.7356 -0.1656
 4882SOL     OW26107   4.179   2.025  15.173 -0.1009 -0.2598  0.2800
 4882SOL    HW126108   4.268   2.061  15.182 -0.7083  1.2667  0.2042
 4882SOL    HW226109   4.169   2.014  15.078  1.4504 -0.1578  0.1028
 4883SOL     OW26110   3.367   4.293  17.378  0.2416  0.2845 -0.9163
 4883SOL    HW126111   3.347   4.226  17.312 -1.0376  1.0232 -1.2623
 4883SOL    HW226112   3.461   4.308  17.364  0.4683 -0.6708 -0.4249
 4884SOL     OW26113   3.206   0.922   9.980 -0.2033 -0.4255 -0.1945
 4884SOL    HW126114   3.237   0.836  10.009  0.1838  0.1122  0.9835
 4884SOL    HW226115   3.159   0.946  10.060  1.1370 -0.4058  0.5947
 4885SOL     OW26116   0.003   4.592  16.959 -0.0804 -0.2887  0.7482
 4885SOL    HW126117   0.029   4.562  17.046  2.9736 -2.0434 -0.7380
 4885SOL    HW226118   0.090   4.618  16.927  0.7290  0.4119  3.5628
 4886SOL     OW26119   0.761   3.914   4.494 -0.2078  0.2696 -0.3385
 4886SOL    HW126120   0.704   3.988   4.476 -0.2163 -0.0708 -1.6824
 4886SOL    HW226121   0.810   3.940   4.572  0.8814  1.2875 -1.3637
 4887SOL     OW26122   4.201   1.519   3.449 -0.0757 -0.6290 -0.1738
 4887SOL    HW126123   4.280   1.486   3.406 -1.3493 -3.0725 -0.6591
 4887SOL    HW226124   4.190   1.599   3.398  1.6524 -0.9422 -1.0276
 4888SOL     OW26125   4.078   0.595   9.726 -0.4099 -0.1818 -0.2842
 4888SOL    HW126126   4.065   0.500   9.727  0.6123 -0.3021  2.0336
 4888SOL    HW226127   4.142   0.610   9.795  0.3059  0.0414 -0.9960
 4889SOL     OW26128   3.616   3.354   2.584  0.0423  0.1957  0.3387
 4889SOL    HW126129   3.670   3.382   2.658  2.1002 -2.6209 -0.0928
 4889SOL    HW226130   3.619   3.422   2.517  0.9640  1.5381  1.7509
 4890SOL     OW26131   3.937   4.158   8.817  0.0388 -0.9624  0.5197
 4890SOL    HW126132   3.982   4.210   8.884  0.4278  0.5261 -0.9039
 4890SOL    HW226133   3.874   4.121   8.879 -0.7732  0.9314  0.8393
 4891SOL     OW26134   1.098   1.724   1.373 -0.2235 -0.4007 -0.1015
 4891SOL    HW126135   1.193   1.708   1.369 -0.2967 -0.7542 -0.4679
 4891SOL    HW226136   1.090   1.695   1.282 -0.6708  1.7033 -0.7492
 4892SOL     OW26137   0.755   4.341  12.174 -0.1301  0.2129  0.4071
 4892SOL    HW126138   0.833   4.325  12.228 -0.9412 -1.2086  1.1739
 4892SOL    HW226139   0.787   4.393  12.101 -0.5677 -0.9506 -0.6167
 4893SOL     OW26140   1.696   4.410   6.918 -0.0926  0.6570 -0.1441
 4893SOL    HW126141   1.764   4.403   6.851 -0.0236 -2.4947  0.2566
 4893SOL    HW226142   1.752   4.418   6.995  1.0144  0.0740 -0.8819
 4894SOL     OW26143   1.404   2.407   7.287  0.5038 -0.1054  0.9697
 4894SOL    HW126144   1.437   2.423   7.376 -0.2312  3.0945  0.6526
 4894SOL    HW226145   1.385   2.313   7.293  1.7506 -0.3391  1.4032
 4895SOL     OW26146   1.036   0.890   1.914 -0.2131 -0.3023 -0.5441
 4895SOL    HW126147   1.080   0.818   1.959 -0.9839 -1.0410 -0.9686
 4895SOL    HW226148   0.992   0.835   1.849 -0.1421 -3.5121  2.1134
 4896SOL     OW26149   3.175   0.366   2.492  0.0127  0.4594  0.3291
 4896SOL    HW126150   3.110   0.316   2.541  2.1458 -2.5831  0.1147
 4896SOL    HW226151   3.127   0.373   2.409 -0.6347 -0.5670  0.6112
 4897SOL     OW26152   2.306   4.146   0.210  0.6192  0.1115  0.3516
 4897SOL    HW126153   2.212   4.131   0.225  0.1560  1.7626 -0.9145
 4897SOL    HW226154   2.344   4.073   0.259  2.7862  1.4463  0.6403
 4898SOL     OW26155   3.163   2.338  16.527  0.2005 -0.0105 -0.2368
 4898SOL    HW126156   3.231   2.379  16.580 -0.2168  0.5682 -0.1496
 4898SOL    HW226157   3.194   2.247  16.517 -0.7308 -0.5722  2.0661
 4899SOL     OW26158   0.195   3.903   0.903 -0.8391  0.1129 -0.4704
 4899SOL    HW126159   0.207   3.813   0.872 -0.6085 -0.3302  0.9186
 4899SOL    HW226160   0.105   3.911   0.936  0.4581  2.4721  2.4798
 4900SOL     OW26161   2.920   3.688   8.268  0.3136 -0.2071  0.0443
 4900SOL    HW126162   2.893   3.673   8.358  2.9995 -0.9036  0.7276
 4900SOL    HW226163   3.002   3.737   8.284  0.0394  1.6770 -4.2749
 4901SOL     OW26164   1.987   4.056  13.229  0.3051 -0.2444  0.5402
 4901SOL    HW126165   2.048   4.090  13.295 -0.2332 -1.1310  1.4749
 4901SOL    HW226166   1.917   4.020  13.282 -0.6389  1.5788  0.5211
 4902SOL     OW26167   1.779   4.441   8.167  0.3208  0.3466 -0.3619
 4902SOL    HW126168   1.710   4.501   8.198  1.0162 -0.0372  1.8724
 4902SOL    HW226169   1.750   4.357   8.202  0.6916  0.0569 -0.7496
 4903SOL     OW26170   3.729   1.362  11.203  0.4949 -0.8537 -0.4054
 4903SOL    HW126171   3.798   1.348  11.138  1.0002  1.5048 -0.3783
 4903SOL    HW226172   3.761   1.296  11.264  2.5408 -0.6707 -1.2605
 4904SOL     OW26173   2.149   1.529   6.473  0.1166  0.4611  0.7071
 4904SOL    HW126174   2.242   1.506   6.470  0.2800  0.9321  2.1731
 4904SOL    HW226175   2.154   1.619   6.440  1.2389  0.3572  0.6018
 4905SOL     OW26176   0.299   0.407   2.234  0.4938  0.1479 -0.3405
 4905SOL    HW126177   0.292   0.460   2.155  0.4098 -0.4523 -0.7353
 4905SOL    HW226178   0.271   0.323   2.198 -1.5517  0.5189  0.3963
 4906SOL     OW26179   1.120   0.995   6.048 -0.1203 -0.1889 -0.0894
 4906SOL    HW126180   1.081   0.917   6.007  0.6725 -1.2967  1.2678
 4906SOL    HW226181   1.182   0.951   6.106  0.1715 -0.7463 -0.8229
 4907SOL     OW26182   2.162   4.489   6.878  0.2578  0.2337  0.0067
 4907SOL    HW126183   2.109   4.529   6.809  0.6597 -0.4860 -0.7237
 4907SOL    HW226184   2.165   4.564   6.938  0.1303 -0.0367  0.3485
 4908SOL     OW26185   4.598   2.113  14.868 -0.2314 -0.1171  0.3341
 4908SOL    HW126186   4.620   2.145  14.781 -0.7020 -0.1080  0.2195
 4908SOL    HW226187   4.525   2.171  14.890 -0.8916 -0.9384  0.2950
 4909SOL     OW26188   1.305   2.804   5.440  0.0939 -0.0992  0.4745
 4909SOL    HW126189   1.345   2.720   5.416  0.1172  0.3074 -0.9590
 4909SOL    HW226190   1.225   2.802   5.387  1.5706  0.7421 -1.8128
 4910SOL     OW26191   3.552   2.237   6.004  0.0067  0.3061 -0.1235
 4910SOL    HW126192   3.590   2.283   5.928 -1.0287 -2.8829 -2.5633
 4910SOL    HW226193   3.629   2.199   6.045  0.5228 -0.1049 -1.4450
 4911SOL     OW26194   0.792   4.065  14.771 -0.1253 -0.2871 -0.1866
 4911SOL    HW126195   0.750   3.984  14.800 -0.2112 -0.0080  0.4652
 4911SOL    HW226196   0.874   4.066  14.820 -1.4662 -2.2476  2.1300
 4912SOL     OW26197   0.441   0.154  14.145 -0.0738  0.0171  0.1744
 4912SOL    HW126198   0.505   0.171  14.214 -1.2272 -0.2131  1.2959
 4912SOL    HW226199   0.488   0.089  14.092  1.1045 -1.5797  3.1926
 4913SOL     OW26200   2.052   0.967   5.271  0.3079 -0.0013 -0.0335
 4913SOL    HW126201   2.109   0.972   5.194 -1.0517  2.3938 -0.9016
 4913SOL    HW226202   2.086   0.896   5.325 -0.1340 -0.6253 -0.5899
 4914SOL     OW26203   3.862   1.857  10.709 -0.1859 -0.2680  0.3910
 4914SOL    HW126204   3.920   1.897  10.645  0.0750 -0.8396  0.2648
 4914SOL    HW226205   3.921   1.838  10.782  1.6639 -2.5154 -1.6579
 4915SOL     OW26206   1.734   0.933   1.791  0.4739 -0.5286 -0.4743
 4915SOL    HW126207   1.753   0.908   1.700  0.6600  2.7291 -1.3330
 4915SOL    HW226208   1.639   0.931   1.797  0.4983  0.4799  0.1679
 4916SOL     OW26209   3.112   2.395  10.486 -0.1381 -0.3885  0.0478
 4916SOL    HW126210   3.066   2.439  10.415 -0.6475  2.4277  2.1282
 4916SOL    HW226211   3.036   2.362  10.534  0.4969 -2.8972 -0.6645
 4917SOL     OW26212   0.732   2.127   5.524 -0.3886 -0.6390  0.6073
 4917SOL    HW126213   0.818   2.129   5.483  0.0365  2.2616  1.6344
 4917SOL    HW226214   0.696   2.216   5.526 -0.8242 -0.7616 -2.0922
 4918SOL     OW26215   3.716   3.481  15.805  0.5468  1.0422 -0.4323
 4918SOL    HW126216   3.793   3.428  15.784  0.1937  0.4878 -0.3188
 4918SOL    HW226217   3.651   3.411  15.814  2.1602 -0.5552 -1.0463
 4919SOL     OW26218   0.999   2.221   4.668  0.1660 -0.0177 -0.2404
 4919SOL    HW126219   1.006   2.289   4.734 -0.5034 -1.4849  1.3524
 4919SOL    HW226220   0.977   2.148   4.726 -0.1111  0.0866 -0.2140
 4920SOL     OW26221   0.179   3.823   8.449  0.0466 -0.6401  0.0232
 4920SOL    HW126222   0.122   3.815   8.525  2.8447 -0.9972  2.0876
 4920SOL    HW226223   0.268   3.832   8.482  0.2184 -1.2351 -0.2717
 4921SOL     OW26224   0.309   2.341   1.428 -0.4473  0.5852 -0.3967
 4921SOL    HW126225   0.365   2.315   1.355 -1.2892  1.2799 -1.2848
 4921SOL    HW226226   0.324   2.436   1.434 -0.3456  0.6808 -2.4286
 4922SOL     OW26227   3.734   2.863   9.975 -0.0759  0.1250 -0.0253
 4922SOL    HW126228   3.700   2.863  10.064  2.0497  1.9016  0.7719
 4922SOL    HW226229   3.656   2.835   9.927 -0.4288  0.2220  0.4923
 4923SOL     OW26230   3.695   4.376  16.443  0.3412 -0.2050  0.8455
 4923SOL    HW126231   3.655   4.443  16.499  1.4913  0.3477  0.9967
 4923SOL    HW226232   3.783   4.405  16.421 -0.6143  1.8275 -0.3169
 4924SOL     OW26233   1.303   2.905  13.045  0.3129 -0.0919 -0.8004
 4924SOL    HW126234   1.272   2.992  13.021 -1.1706 -0.7054 -1.0744
 4924SOL    HW226235   1.367   2.925  13.114 -1.6937 -0.5107  1.1856
 4925SOL     OW26236   0.944   1.613   4.918 -0.1549 -0.0656 -0.6234
 4925SOL    HW126237   0.959   1.588   5.009 -0.2477  0.5253 -0.4422
 4925SOL    HW226238   0.888   1.691   4.924 -0.5665 -0.5519  1.5924
 4926SOL     OW26239   2.653   3.019   4.963 -0.0307 -0.8040  0.2003
 4926SOL    HW126240   2.659   2.972   5.046 -0.7180  0.2129  0.8357
 4926SOL    HW226241   2.625   3.104   4.997 -1.4633 -1.1920 -0.0364
 4927SOL     OW26242   0.862   0.462   7.930  0.3438 -0.1507 -0.0550
 4927SOL    HW126243   0.808   0.414   7.992 -0.9459  0.1095 -0.9829
 4927SOL    HW226244   0.846   0.416   7.848 -0.5580 -1.5479  0.9153
 4928SOL     OW26245   2.764   3.228   6.389 -0.2027 -0.4169  0.2162
 4928SOL    HW126246   2.846   3.200   6.429 -0.2939 -0.3169  0.4672
 4928SOL    HW226247   2.779   3.322   6.383 -0.8985 -0.3076  0.1929
 4929SOL     OW26248   3.921   2.041   0.746 -0.2485 -0.0592  0.5068
 4929SOL    HW126249   4.002   2.011   0.788  0.6132 -0.3660 -1.3851
 4929SOL    HW226250   3.905   1.960   0.698 -0.0563 -0.2089  0.6939
 4930SOL     OW26251   0.339   2.679   5.247 -0.2803 -0.0297 -0.2124
 4930SOL    HW126252   0.325   2.673   5.152  0.6268 -1.7313 -0.2415
 4930SOL    HW226253   0.288   2.755   5.272 -0.3663 -0.0702 -0.2660
 4931SOL     OW26254   0.748   2.451   1.548 -0.0399  0.0214  0.1320
 4931SOL    HW126255   0.686   2.385   1.519  1.4842 -1.6630  0.7477
 4931SOL    HW226256   0.780   2.401   1.624 -2.4072 -3.5438 -1.2473
 4932SOL     OW26257   3.726   2.149   2.474  0.5591 -0.1570  1.2202
 4932SOL    HW126258   3.741   2.063   2.513 -0.6925 -1.0976 -0.3542
 4932SOL    HW226259   3.675   2.193   2.543 -0.5855  2.6494 -1.3889
 4933SOL     OW26260   1.675   0.946   8.285 -0.1256  0.1757  0.2624
 4933SOL    HW126261   1.700   0.995   8.363 -2.8658 -3.0978  3.2543
 4933SOL    HW226262   1.656   1.015   8.221 -1.1311 -0.7245 -0.4151
 4934SOL     OW26263   2.689   3.656   0.975  0.5213 -0.6791 -1.0113
 4934SOL    HW126264   2.595   3.645   0.987  0.7137  1.0369  2.1058
 4934SOL    HW226265   2.693   3.724   0.907  2.3693  0.6038  0.3739
 4935SOL     OW26266   0.064   2.447  10.922 -0.0261  0.3621  0.4064
 4935SOL    HW126267   4.702   2.482  10.892  0.7913  2.2189  0.3046
 4935SOL    HW226268   0.072   2.369  10.867 -0.1872 -0.4223  1.5037
 4936SOL     OW26269   3.991   0.249   4.794  0.3249  0.3274 -0.0608
 4936SOL    HW126270   3.943   0.330   4.775 -1.5575 -0.5114  1.1014
 4936SOL    HW226271   3.920   0.186   4.806  0.6369 -0.0974 -0.4629
 4937SOL     OW26272   0.791   4.340  14.707  0.6880 -0.2224 -0.1641
 4937SOL    HW126273   0.793   4.245  14.719 -0.4345 -0.1106  0.9513
 4937SOL    HW226274   0.858   4.371  14.767 -2.0502 -0.3752  3.0059
 4938SOL     OW26275   2.101   2.700   2.314 -0.3400 -0.1971  0.3346
 4938SOL    HW126276   2.089   2.709   2.219 -1.3666  1.3072  0.6130
 4938SOL    HW226277   2.086   2.788   2.347 -2.3669 -0.6089  0.4954
 4939SOL     OW26278   3.759   1.230   5.694  0.2016 -0.1052  0.0737
 4939SOL    HW126279   3.708   1.175   5.753 -0.2695 -0.1000 -0.3281
 4939SOL    HW226280   3.754   1.174   5.616  1.1942 -0.6501  0.4000
 4940SOL     OW26281   1.247   2.388   5.032 -0.1016  0.2575 -0.7811
 4940SOL    HW126282   1.284   2.301   5.044 -0.2349  0.6233  2.3553
 4940SOL    HW226283   1.250   2.407   5.126  2.1171  1.8263 -1.1872
 4941SOL     OW26284   3.904   0.231   9.721  0.3056 -0.4880 -0.2870
 4941SOL    HW126285   3.880   0.213   9.812 -0.8886 -0.8835 -0.6745
 4941SOL    HW226286   3.994   0.262   9.732  1.1209 -2.7485 -0.5891
 4942SOL     OW26287   1.277   3.202   3.046 -0.4865  0.5821 -0.9394
 4942SOL    HW126288   1.360   3.247   3.030 -0.1167  0.0729 -0.4374
 4942SOL    HW226289   1.216   3.263   3.004 -1.0903  1.5147  1.2463
 4943SOL     OW26290   2.934   2.869   2.630 -0.2711  0.5696 -0.5269
 4943SOL    HW126291   2.991   2.927   2.680 -0.7975 -0.1412  0.8832
 4943SOL    HW226292   2.943   2.908   2.543  0.5401  0.1641 -0.6208
 4944SOL     OW26293   2.307   1.917   5.439  0.0829 -0.1794 -0.2662
 4944SOL    HW126294   2.352   1.984   5.388 -0.7610 -0.3706 -1.2739
 4944SOL    HW226295   2.249   1.967   5.496  1.0138  0.7451 -0.1320
 4945SOL     OW26296   0.677   0.006  15.847 -0.1157  0.2323 -0.0969
 4945SOL    HW126297   0.589   0.043  15.847  0.4069  1.4642  0.6566
 4945SOL    HW226298   0.719   0.084  15.811 -1.1010  1.6646  1.8696
 4946SOL     OW26299   0.116   1.488  14.506  0.1001 -0.4297 -0.2231
 4946SOL    HW126300   0.048   1.483  14.573 -0.1858 -0.1154 -0.4930
 4946SOL    HW226301   0.185   1.437  14.548  1.5084  1.5311 -0.1812
 4947SOL     OW26302   1.471   1.654   4.004  0.3577  0.4622  0.3503
 4947SOL    HW126303   1.520   1.715   3.948  1.2971 -0.2449  0.4149
 4947SOL    HW226304   1.541   1.640   4.067  2.4774  2.5728 -1.5350
 4948SOL     OW26305   4.656   1.364   8.170 -0.1146  0.0848 -0.2038
 4948SOL    HW126306   4.639   1.458   8.180  0.7970  0.4546 -2.2099
 4948SOL    HW226307   4.598   1.325   8.236  1.0497  2.8593  2.5029
 4949SOL     OW26308   2.639   2.276   2.688  0.5325  0.6905 -0.5057
 4949SOL    HW126309   2.638   2.371   2.678  0.8256  1.0927  3.5150
 4949SOL    HW226310   2.627   2.273   2.783  0.3216  0.0524 -0.5506
 4950SOL     OW26311   0.822   2.925   3.808 -0.0545  0.3046  0.5195
 4950SOL    HW126312   0.841   2.981   3.733 -0.4516  1.0236  0.9544
 4950SOL    HW226313   0.785   2.982   3.875  0.2308  1.4539 -0.2967
 4951SOL     OW26314   2.750   4.117   1.163  0.1949 -0.1572  0.1042
 4951SOL    HW126315   2.816   4.185   1.178  0.8001 -1.1960  2.2696
 4951SOL    HW226316   2.676   4.161   1.205 -0.5070 -0.0900 -1.2054
 4952SOL     OW26317   3.008   2.097  14.873 -0.0309 -0.1904 -0.7456
 4952SOL    HW126318   2.973   2.071  14.787  1.7138 -2.1207 -0.8861
 4952SOL    HW226319   3.049   2.183  14.868  1.4630 -0.9310 -1.3242
 4953SOL     OW26320   0.866   2.044   7.286 -0.1513 -0.3450  0.3097
 4953SOL    HW126321   0.907   1.957   7.278  0.9296  0.4241 -2.5911
 4953SOL    HW226322   0.932   2.097   7.241 -1.4741  0.5361 -0.5679
 4954SOL     OW26323   1.800   4.477   5.698 -0.1077 -0.5225 -0.1414
 4954SOL    HW126324   1.746   4.406   5.734  4.1451 -3.6393  0.0292
 4954SOL    HW226325   1.781   4.551   5.756 -1.8006  0.8108 -2.3789
 4955SOL     OW26326   0.331   1.191   0.025  0.5728 -0.1179  0.3819
 4955SOL    HW126327   0.253   1.205  17.659 -1.2079 -0.8088  2.8100
 4955SOL    HW226328   0.382   1.130  17.659 -0.3381 -0.3841 -0.1761
 4956SOL     OW26329   3.279   2.851   6.565  0.2643  0.3555 -0.5335
 4956SOL    HW126330   3.306   2.760   6.550 -0.3454  0.2772 -1.1940
 4956SOL    HW226331   3.198   2.850   6.616  1.8760 -1.8765  1.9687
 4957SOL     OW26332   2.704   1.408   7.247 -0.4459 -0.5360 -0.1047
 4957SOL    HW126333   2.800   1.413   7.251 -0.6245  2.6227 -0.1615
 4957SOL    HW226334   2.685   1.440   7.335 -0.9249 -0.9028 -0.0763
 4958SOL     OW26335   1.348   3.173  10.200 -0.5645 -0.0147  0.0736
 4958SOL    HW126336   1.269   3.218  10.169  0.7538  0.8166 -2.0469
 4958SOL    HW226337   1.359   3.108  10.131 -0.8574  0.1536 -0.1288
 4959SOL     OW26338   0.074   2.843   8.495 -0.0116 -0.6637 -0.5053
 4959SOL    HW126339   0.019   2.806   8.563 -1.3031 -1.4875 -1.9793
 4959SOL    HW226340   0.105   2.928   8.526  0.6213 -1.1164  0.1091
 4960SOL     OW26341   0.379   2.419   2.182  0.6243 -0.2420 -0.5108
 4960SOL    HW126342   0.371   2.481   2.109  0.0476 -0.4546 -0.6279
 4960SOL    HW226343   0.295   2.378   2.164 -0.2133  1.5608 -0.6959
 4961SOL     OW26344   3.994   3.256   2.447  0.4260  0.4728 -0.0846
 4961SOL    HW126345   3.921   3.200   2.473  0.6918 -0.4224 -1.2931
 4961SOL    HW226346   3.989   3.340   2.493  0.9416 -0.5263  1.8019
 4962SOL     OW26347   3.245   2.012   2.877  0.5105  0.3642  0.6854
 4962SOL    HW126348   3.279   2.011   2.788 -0.6991 -0.0745  0.2199
 4962SOL    HW226349   3.311   1.950   2.906  1.9559  1.4791 -0.2028
 4963SOL     OW26350   1.286   0.591   2.913 -0.0069  0.3700 -0.1351
 4963SOL    HW126351   1.381   0.587   2.903 -0.1945 -0.3956 -1.6855
 4963SOL    HW226352   1.281   0.656   2.983  0.7723  0.2890 -0.0010
 4964SOL     OW26353   3.602   0.132  12.950 -0.3621  0.5345 -0.5828
 4964SOL    HW126354   3.547   0.210  12.959  0.7455  1.3180 -0.5843
 4964SOL    HW226355   3.545   0.077  12.896  1.0636 -0.4556 -1.1044
 4965SOL     OW26356   1.370   4.653   1.455 -0.0358  0.2709  0.2720
 4965SOL    HW126357   1.409   4.679   1.538 -0.7873 -0.3097  0.8050
 4965SOL    HW226358   1.450   4.629   1.408  0.4417 -0.2104  1.3228
 4966SOL     OW26359   2.952   2.198   7.679  0.1064  0.6111  0.8478
 4966SOL    HW126360   2.962   2.254   7.602  0.1720  1.5127  1.5122
 4966SOL    HW226361   2.918   2.113   7.651  2.7057 -0.0721 -0.2238
 4967SOL     OW26362   1.913   3.114   4.402 -0.1643  0.1329 -0.2631
 4967SOL    HW126363   1.852   3.177   4.364  0.5912  1.7402  1.2319
 4967SOL    HW226364   1.907   3.132   4.496  1.3885  0.8977 -0.3129
 4968SOL     OW26365   4.551   4.717   2.430 -0.1806  0.2287  0.2808
 4968SOL    HW126366   4.507   4.637   2.461 -0.9366  1.2103  1.7594
 4968SOL    HW226367   4.476   0.050   2.407  0.3223  0.4685 -0.7892
 4969SOL     OW26368   4.553   1.650   1.749 -0.0311  0.0185  0.0924
 4969SOL    HW126369   4.540   1.742   1.730  0.6967  0.1157  0.0577
 4969SOL    HW226370   4.574   1.650   1.842  0.6465  1.7675 -0.0586
 4970SOL     OW26371   1.058   3.737   6.740  0.4433  0.3172  0.3524
 4970SOL    HW126372   1.138   3.723   6.690  1.2533  0.6908  1.5484
 4970SOL    HW226373   1.010   3.655   6.727  0.8291  0.1738 -0.1604
 4971SOL     OW26374   1.189   2.727   2.490 -0.0614  0.1441  0.2935
 4971SOL    HW126375   1.111   2.765   2.529  0.2113 -2.2395  3.2495
 4971SOL    HW226376   1.263   2.772   2.531  0.8202 -0.9036 -0.1422
 4972SOL     OW26377   1.462   4.484   4.070 -0.2644  0.0237 -0.0374
 4972SOL    HW126378   1.411   4.419   4.022 -2.0781  0.4066  1.3589
 4972SOL    HW226379   1.513   4.510   3.993  2.1395 -1.4615  1.0510
 4973SOL     OW26380   4.283   2.288   8.358 -0.3194 -0.7303 -0.4137
 4973SOL    HW126381   4.262   2.377   8.385 -1.5949 -2.1028  3.0380
 4973SOL    HW226382   4.268   2.239   8.438 -0.3763 -2.7458 -1.6503
 4974SOL     OW26383   2.025   0.368  11.441 -0.0772 -0.6193  0.4625
 4974SOL    HW126384   1.980   0.452  11.437  0.0178 -0.4940  1.9994
 4974SOL    HW226385   2.060   0.378  11.529 -1.6539 -0.9481  1.1280
 4975SOL     OW26386   3.681   3.068   8.526  0.2782  0.2159  0.0253
 4975SOL    HW126387   3.699   3.086   8.618  2.3182  1.2752 -0.5848
 4975SOL    HW226388   3.685   2.972   8.528  0.1102  0.2145  0.3280
 4976SOL     OW26389   4.709   0.342   3.653  0.1156 -0.0888 -0.6547
 4976SOL    HW126390   0.030   0.284   3.590 -0.2133 -1.4041  0.3392
 4976SOL    HW226391   0.027   0.319   3.737  0.4589  2.5965 -0.0745
 4977SOL     OW26392   4.106   0.042  12.884 -0.9242 -0.0318 -0.9456
 4977SOL    HW126393   4.171   4.694  12.886  0.2150  1.0389 -1.1712
 4977SOL    HW226394   4.128   0.088  12.964 -0.4156  0.5940 -1.4443
 4978SOL     OW26395   3.883   2.695  13.406  0.1166  0.5460 -0.0322
 4978SOL    HW126396   3.929   2.713  13.324  0.9679  0.7601  0.4909
 4978SOL    HW226397   3.896   2.779  13.450 -0.3432  1.4104 -1.5420
 4979SOL     OW26398   1.814   0.660  10.876  0.2794  0.2480  1.0501
 4979SOL    HW126399   1.856   0.737  10.838  0.2568 -0.4423 -0.3866
 4979SOL    HW226400   1.742   0.695  10.928 -1.3037  1.4691 -1.9527
 4980SOL     OW26401   4.434   2.831   2.856 -0.3000  0.2068  0.7119
 4980SOL    HW126402   4.371   2.901   2.836  1.8208  2.0633  0.4564
 4980SOL    HW226403   4.510   2.857   2.804 -0.0038  1.2703  1.6506
 4981SOL     OW26404   4.475   3.819   6.485 -0.6456 -0.0034 -0.0518
 4981SOL    HW126405   4.509   3.761   6.417  1.0894  0.0586  0.7540
 4981SOL    HW226406   4.534   3.893   6.473 -0.4928  0.1060  1.2968
 4982SOL     OW26407   3.799   2.610   9.004 -0.3059  0.0522 -0.3005
 4982SOL    HW126408   3.811   2.519   8.976 -1.1213  0.3891 -1.7666
 4982SOL    HW226409   3.709   2.624   9.034  0.3465  1.8536  0.7871
 4983SOL     OW26410   2.096   2.225   4.777 -0.4326 -0.2832  0.7169
 4983SOL    HW126411   2.089   2.293   4.709  0.7300 -0.7067  0.1909
 4983SOL    HW226412   2.003   2.201   4.785 -1.1033  2.3747  0.9695
 4984SOL     OW26413   2.408   1.527  16.506  0.4050 -0.1705 -0.0517
 4984SOL    HW126414   2.357   1.570  16.575  1.4287  0.7428  0.1292
 4984SOL    HW226415   2.379   1.571  16.427  0.1316 -0.2739 -0.0085
 4985SOL     OW26416   3.620   1.182   4.504 -0.0549  0.5149  0.1621
 4985SOL    HW126417   3.583   1.245   4.441 -0.0595  1.3921  1.0385
 4985SOL    HW226418   3.548   1.174   4.566 -0.7557 -0.1259 -0.7525
 4986SOL     OW26419   1.957   3.766   7.253 -0.0852  0.2803  0.0767
 4986SOL    HW126420   1.934   3.792   7.163 -3.9550 -0.5982  0.8042
 4986SOL    HW226421   2.044   3.728   7.240 -1.6255 -2.3603 -2.5266
 4987SOL     OW26422   2.732   0.629   3.829 -0.2577 -0.1771  0.2676
 4987SOL    HW126423   2.689   0.652   3.746 -0.4330 -1.2102  0.0703
 4987SOL    HW226424   2.671   0.667   3.892 -2.1820  0.0362 -1.6984
 4988SOL     OW26425   1.400   1.154   5.061  0.2431 -0.0396  0.5872
 4988SOL    HW126426   1.423   1.080   5.117 -1.2706 -1.1169 -0.2047
 4988SOL    HW226427   1.352   1.113   4.990 -2.8445  1.3374  1.8579
 4989SOL     OW26428   1.893   0.545   7.674 -0.2655  0.5695 -0.4587
 4989SOL    HW126429   1.860   0.571   7.588 -0.0741  1.0745 -0.3833
 4989SOL    HW226430   1.809   0.547   7.720  0.6159  3.3362  1.0545
 4990SOL     OW26431   3.339   3.161   5.245 -0.6624  0.0966  0.4534
 4990SOL    HW126432   3.275   3.231   5.231  1.7506  1.7962 -2.1740
 4990SOL    HW226433   3.366   3.129   5.158  0.2083  1.6876  0.1357
 4991SOL     OW26434   3.055   3.866   7.750  0.4345 -0.4607  0.3172
 4991SOL    HW126435   3.140   3.910   7.745  0.3904  0.0244  4.0806
 4991SOL    HW226436   3.047   3.860   7.654  3.7864 -1.0199  0.0541
 4992SOL     OW26437   4.599   3.781  16.617  0.4521 -0.3927 -0.3284
 4992SOL    HW126438   4.540   3.714  16.652 -0.0706 -0.8265 -2.0016
 4992SOL    HW226439   4.535   3.820  16.558  1.4322 -0.2596 -1.3167
 4993SOL     OW26440   0.536   4.379  14.972  0.0213 -0.8379  0.7980
 4993SOL    HW126441   0.622   4.366  15.011  0.9390 -0.4814 -1.1264
 4993SOL    HW226442   0.565   4.418  14.890 -0.7270 -1.6490  0.1492
 4994SOL     OW26443   3.736   3.802  14.922 -0.1905  0.3717  0.4884
 4994SOL    HW126444   3.764   3.829  14.834 -0.6076 -0.8793 -0.0307
 4994SOL    HW226445   3.814   3.826  14.972 -0.7145  0.1494  1.3954
 4995SOL     OW26446   1.637   3.621   6.032 -0.0591  0.0170  0.4165
 4995SOL    HW126447   1.713   3.567   6.055  0.3849  0.3447 -0.2560
 4995SOL    HW226448   1.639   3.680   6.108 -0.6891  0.3654  0.1623
 4996SOL     OW26449   3.363   1.260   3.207 -0.0558  0.5846 -0.0171
 4996SOL    HW126450   3.383   1.277   3.115 -0.5974 -0.7572 -0.3763
 4996SOL    HW226451   3.398   1.339   3.248 -0.1971  0.5581  0.1500
 4997SOL     OW26452   4.230   0.147   8.919 -0.0044  0.1059  0.1594
 4997SOL    HW126453   4.189   0.127   8.835 -0.4638 -1.4632  0.7362
 4997SOL    HW226454   4.218   0.064   8.965  0.2181  0.0641  0.1403
 4998SOL     OW26455   0.781   4.231   3.818  0.0121  0.5003  0.4078
 4998SOL    HW126456   0.740   4.210   3.734 -0.5417  2.3714  0.2043
 4998SOL    HW226457   0.851   4.292   3.796  2.3378 -2.4081 -0.1614
 4999SOL     OW26458   4.542   2.681   2.526 -0.3286  0.5486 -0.3346
 4999SOL    HW126459   4.529   2.632   2.445  0.7010  1.6767 -1.1761
 4999SOL    HW226460   4.497   2.761   2.500  0.5026  1.4549  1.0345
 5000SOL     OW26461   0.837   2.111   7.918  0.3318 -0.0834 -0.1626
 5000SOL    HW126462   0.915   2.102   7.972 -2.7698  0.4671  4.3527
 5000SOL    HW226463   0.799   2.194   7.947  0.0087 -0.1273 -0.4438
 5001SOL     OW26464   0.422   4.232   4.210 -0.1018  0.3789 -0.2877
 5001SOL    HW126465   0.429   4.183   4.128 -1.9223 -1.8298  0.8733
 5001SOL    HW226466   0.493   4.296   4.212  0.3980 -0.1719 -0.5785
 5002SOL     OW26467   4.061   4.314   3.869  0.2245  0.5029 -0.0981
 5002SOL    HW126468   3.985   4.343   3.920 -0.9132 -0.3265 -1.3183
 5002SOL    HW226469   4.138   4.362   3.900  2.3621 -3.1943  0.4136
 5003SOL     OW26470   2.732   4.116  14.892 -0.2579  0.1279  0.1244
 5003SOL    HW126471   2.731   4.108  14.988  1.9999 -0.5711  0.0712
 5003SOL    HW226472   2.638   4.109  14.875 -0.2915  2.1715 -0.4450
 5004SOL     OW26473   3.199   2.171   3.867 -0.0281  0.4911  0.4133
 5004SOL    HW126474   3.212   2.086   3.825  0.3514  0.3448  0.8195
 5004SOL    HW226475   3.186   2.217   3.784 -0.0430 -0.1363  0.0733
 5005SOL     OW26476   1.788   3.794   7.014 -0.2585 -0.1219 -0.2343
 5005SOL    HW126477   1.708   3.749   6.989 -0.8267  1.0978 -0.6208
 5005SOL    HW226478   1.855   3.740   6.972  0.0053 -0.4215  0.5687
 5006SOL     OW26479   3.559   4.141   4.782  0.7734 -0.6428  0.5439
 5006SOL    HW126480   3.506   4.188   4.847  0.8736  1.7599 -1.1076
 5006SOL    HW226481   3.546   4.188   4.700 -0.3872  1.5455  1.9794
 5007SOL     OW26482   3.175   2.972   2.744  0.0576  0.1997 -0.2828
 5007SOL    HW126483   3.121   2.969   2.823 -1.3285 -1.0590 -1.2806
 5007SOL    HW226484   3.230   2.893   2.745  2.5090  1.8967 -0.1285
 5008SOL     OW26485   1.545   3.100  13.197  0.0563  0.0876 -0.5924
 5008SOL    HW126486   1.558   3.191  13.224 -1.7749  0.5670 -1.3483
 5008SOL    HW226487   1.595   3.077  13.276  0.2762 -1.8381 -1.2767
 5009SOL     OW26488   4.361   0.431  16.430 -0.0880 -0.6111  0.0883
 5009SOL    HW126489   4.419   0.428  16.355  0.7924 -2.5364  0.8418
 5009SOL    HW226490   4.280   0.406  16.385  0.2467  0.6515 -1.1939
 5010SOL     OW26491   0.204   2.180   8.323  0.0265  0.7010  0.3358
 5010SOL    HW126492   0.288   2.135   8.314 -1.6670 -2.3473 -0.0412
 5010SOL    HW226493   0.159   2.122   8.384  1.5147 -1.2669 -0.4405
 5011SOL     OW26494   0.063   3.279   5.791  0.3872 -0.5507 -0.7932
 5011SOL    HW126495   0.136   3.233   5.749  0.9966  0.8763 -1.3150
 5011SOL    HW226496   0.021   3.220   5.853 -2.0989 -0.7043 -2.6023
 5012SOL     OW26497   4.659   0.845   3.172 -0.3550  0.0222  0.1442
 5012SOL    HW126498   0.024   0.817   3.139 -0.0868  1.2444 -0.2115
 5012SOL    HW226499   4.682   0.922   3.223 -2.0689  1.1630 -0.7951
 5013SOL     OW26500   2.149   0.571   8.853  0.0917  0.0487  0.1491
 5013SOL    HW126501   2.214   0.564   8.783  1.6696 -2.4558  1.8745
 5013SOL    HW226502   2.072   0.528   8.816  1.3546 -2.2237  0.1516
 5014SOL     OW26503   1.795   0.238   3.071 -0.9681 -0.5903  0.6959
 5014SOL    HW126504   1.881   0.278   3.084 -0.3720 -1.5967 -0.1342
 5014SOL    HW226505   1.767   0.274   2.986 -2.9876 -2.3661  0.6129
 5015SOL     OW26506   2.878   1.496   0.593  0.0044 -0.4462  0.0808
 5015SOL    HW126507   2.877   1.450   0.676  1.3551  1.6981  1.2805
 5015SOL    HW226508   2.792   1.537   0.600 -0.7319 -2.3755  2.1229
 5016SOL     OW26509   2.275   3.054   8.049  0.3038 -0.2765  0.6028
 5016SOL    HW126510   2.286   2.988   7.981 -1.2334 -1.0251  1.0759
 5016SOL    HW226511   2.216   2.995   8.097  1.0669  0.2192  2.1432
 5017SOL     OW26512   4.289   1.768   9.146 -0.1229 -0.2458  0.4497
 5017SOL    HW126513   4.256   1.850   9.183  0.2218 -0.4339  1.1632
 5017SOL    HW226514   4.225   1.758   9.076  0.5000 -1.2087  0.0230
 5018SOL     OW26515   3.010   2.555   2.461 -0.3539 -0.2151  0.1115
 5018SOL    HW126516   2.989   2.546   2.554 -0.1243 -0.0466  0.1791
 5018SOL    HW226517   3.064   2.476   2.454  0.4343  0.1265  2.2421
 5019SOL     OW26518   2.284   4.332   0.013  0.1403 -0.1375 -0.0882
 5019SOL    HW126519   2.314   4.405   0.066 -0.2006 -0.2728  0.2904
 5019SOL    HW226520   2.301   4.258   0.072  1.7939  1.3370  1.2734
 5020SOL     OW26521   3.780   3.096   7.373  0.1917  0.2779  0.0065
 5020SOL    HW126522   3.720   3.081   7.446 -1.4735  2.2839 -0.9230
 5020SOL    HW226523   3.740   3.041   7.306  2.4926 -0.6390 -0.6213
 5021SOL     OW26524   0.065   1.082   5.085  0.0534 -0.4747 -0.0643
 5021SOL    HW126525   0.037   0.990   5.079  0.8642 -0.7974  1.1490
 5021SOL    HW226526   4.700   1.124   5.080  0.8359  1.1551  0.2024
 5022SOL     OW26527   4.550   2.080  13.536  0.0356 -0.2568  0.0526
 5022SOL    HW126528   4.567   2.091  13.629 -0.2943 -0.0681  0.0881
 5022SOL    HW226529   4.625   2.131  13.504  0.4249 -0.7113  0.2449
 5023SOL     OW26530   2.074   4.364   2.647  0.5047  0.0294 -0.2154
 5023SOL    HW126531   2.129   4.309   2.590 -1.3872 -3.3824  1.2463
 5023SOL    HW226532   2.067   4.310   2.725  1.4984  0.2392  0.0162
 5024SOL     OW26533   3.409   1.048   7.513  0.6502 -0.2554  0.3896
 5024SOL    HW126534   3.458   1.121   7.474 -0.1402 -0.1510 -0.4009
 5024SOL    HW226535   3.334   1.092   7.553 -0.5431  0.2620 -2.4561
 5025SOL     OW26536   0.151   3.761   1.692  0.2792  0.6512 -0.2553
 5025SOL    HW126537   0.094   3.803   1.627 -1.0446 -1.2277 -0.3264
 5025SOL    HW226538   0.179   3.674   1.662  0.4858  0.5624  0.1940
 5026SOL     OW26539   2.248   0.637   5.608 -0.1567  0.3485  0.2167
 5026SOL    HW126540   2.176   0.575   5.598 -0.2719  0.1958  2.0510
 5026SOL    HW226541   2.219   0.679   5.689  1.9476 -1.1050  1.7091
 5027SOL     OW26542   3.587   0.733   1.990  0.0915 -0.3192 -0.1253
 5027SOL    HW126543   3.502   0.708   2.025  0.4413  0.1448  1.0766
 5027SOL    HW226544   3.568   0.778   1.908 -3.4466 -1.8585 -0.1233
 5028SOL     OW26545   2.902   4.348   6.466  0.0748 -0.7119 -0.6999
 5028SOL    HW126546   2.841   4.391   6.526  0.0353 -2.2568  0.3932
 5028SOL    HW226547   2.925   4.424   6.413  0.9822 -0.4714  0.0466
 5029SOL     OW26548   3.586   3.090  12.923 -0.1755  0.0552  0.1053
 5029SOL    HW126549   3.671   3.128  12.945 -1.5784  1.5575  2.9837
 5029SOL    HW226550   3.524   3.144  12.972 -0.7260 -0.0809 -0.4383
 5030SOL     OW26551   3.935   2.080   2.888  0.3661  0.2789 -0.2111
 5030SOL    HW126552   3.978   2.130   2.819  0.6141 -1.0582 -1.0284
 5030SOL    HW226553   3.955   1.992   2.855 -0.2740 -0.5459  1.5948
 5031SOL     OW26554   1.141   0.506   8.551  0.1614  0.1828  0.0138
 5031SOL    HW126555   1.190   0.510   8.468  0.7048 -0.4742  0.3058
 5031SOL    HW226556   1.076   0.440   8.527  0.9070 -0.5234 -0.0957
 5032SOL     OW26557   0.338   3.472   3.452  0.0332  0.3142 -0.2645
 5032SOL    HW126558   0.299   3.454   3.537  1.5615 -1.4298  0.0592
 5032SOL    HW226559   0.373   3.561   3.462 -3.8931  2.0458 -1.8825
 5033SOL     OW26560   4.177   2.626   5.347 -0.5462 -0.1487  0.3403
 5033SOL    HW126561   4.089   2.595   5.370 -0.1992 -2.8973 -1.9842
 5033SOL    HW226562   4.174   2.596   5.256  0.3231 -1.1330  0.6345
 5034SOL     OW26563   3.738   0.594   4.285  0.5742 -0.9860 -0.2922
 5034SOL    HW126564   3.704   0.573   4.198  1.4722 -2.4914 -0.2930
 5034SOL    HW226565   3.755   0.508   4.323  1.6431 -0.2522  0.9027
 5035SOL     OW26566   3.319   1.216  14.505 -0.4217  0.2556  0.4912
 5035SOL    HW126567   3.369   1.248  14.580  2.5795 -0.5167 -1.2112
 5035SOL    HW226568   3.383   1.156  14.469 -1.1820  0.0513 -0.5385
 5036SOL     OW26569   1.176   1.894   2.128  0.1147 -0.0787  0.1694
 5036SOL    HW126570   1.162   1.799   2.134  0.2882  0.0369  2.5671
 5036SOL    HW226571   1.262   1.889   2.169 -0.4541  1.1982  1.5438
 5037SOL     OW26572   0.110   0.848   1.807 -0.1127  0.0487  0.6924
 5037SOL    HW126573   0.205   0.847   1.801 -0.1157  2.1511  0.0763
 5037SOL    HW226574   0.088   0.825   1.716  2.3907  0.0128  0.1156
 5038SOL     OW26575   1.001   0.858   8.912  1.1762  0.1638  0.2201
 5038SOL    HW126576   1.047   0.789   8.863  1.4598  2.1997 -2.3693
 5038SOL    HW226577   1.074   0.916   8.935  0.5275  1.3443 -0.7617
 5039SOL     OW26578   4.547   4.373   6.784  0.3358 -0.4841 -0.3656
 5039SOL    HW126579   4.486   4.303   6.804  2.5292 -2.5012 -0.8167
 5039SOL    HW226580   4.493   4.451   6.801  0.0855 -0.5281 -0.9628
 5040SOL     OW26581   4.309   3.032   0.464 -0.9134 -0.0137  0.4025
 5040SOL    HW126582   4.214   3.026   0.476 -0.9519 -1.6525 -0.7282
 5040SOL    HW226583   4.312   3.127   0.456  0.1498 -0.0586  0.3613
 5041SOL     OW26584   0.623   3.274  15.102  0.2552 -0.0428 -0.3578
 5041SOL    HW126585   0.570   3.195  15.091 -1.8658  1.5588 -1.5487
 5041SOL    HW226586   0.708   3.231  15.116  0.1043 -0.9073 -2.0988
 5042SOL     OW26587   4.337   2.903   6.773 -0.3396  0.1559 -1.0183
 5042SOL    HW126588   4.322   2.839   6.843  2.1579  0.2336 -0.4167
 5042SOL    HW226589   4.425   2.927   6.801 -0.9059  0.1165  0.8050
 5043SOL     OW26590   4.213   0.891  16.617 -0.6046  0.0198  0.3406
 5043SOL    HW126591   4.255   0.948  16.681  1.1330 -3.3953  2.2538
 5043SOL    HW226592   4.128   0.874  16.660 -0.6523 -0.3739  0.0916
 5044SOL     OW26593   2.582   2.167   3.787  0.0079 -0.7905 -0.0961
 5044SOL    HW126594   2.598   2.074   3.803  0.6079 -0.7990 -0.7133
 5044SOL    HW226595   2.488   2.172   3.774 -0.0220 -1.0944  0.0069
 5045SOL     OW26596   0.316   2.867   3.057 -0.3241 -0.2611  0.2405
 5045SOL    HW126597   0.225   2.853   3.083 -0.3953  0.6547  0.4901
 5045SOL    HW226598   0.338   2.774   3.057 -1.4071 -0.5070 -0.3855
 5046SOL     OW26599   3.786   0.124   3.252  0.4748 -0.4197 -0.0945
 5046SOL    HW126600   3.844   0.066   3.301  2.1713  1.2999 -0.0243
 5046SOL    HW226601   3.774   0.068   3.176  1.0387 -0.9532  0.2095
 5047SOL     OW26602   3.562   4.071   5.834 -0.1435  0.7264  0.4104
 5047SOL    HW126603   3.645   4.109   5.864 -0.3652  0.6159  1.1685
 5047SOL    HW226604   3.578   3.977   5.843  1.1493  0.9133  0.1648
 5048SOL     OW26605   1.616   1.329   7.983 -0.1667  0.2264  0.3064
 5048SOL    HW126606   1.534   1.306   7.939 -0.3317 -1.3492  1.4661
 5048SOL    HW226607   1.667   1.249   7.979  0.1139  0.4212 -0.1126
 5049SOL     OW26608   2.272   4.292  15.601 -0.3110  0.2787 -0.2909
 5049SOL    HW126609   2.203   4.293  15.535 -0.5275  0.5399 -0.0615
 5049SOL    HW226610   2.266   4.199  15.621 -1.9178  0.5291  0.3486
 5050SOL     OW26611   4.268   1.779   0.397  0.0130  0.5922  0.6468
 5050SOL    HW126612   4.287   1.855   0.343 -0.2765 -0.5753 -1.0923
 5050SOL    HW226613   4.323   1.785   0.476 -0.2921  0.8699  0.8389
 5051SOL     OW26614   2.207   1.907  10.060  0.7648  0.0540  0.4020
 5051SOL    HW126615   2.286   1.878  10.105  1.3689  2.5746  0.9842
 5051SOL    HW226616   2.178   1.975  10.120  0.7173  0.5666 -0.2017
 5052SOL     OW26617   2.935   4.558   6.030  0.2216  0.4089 -0.1409
 5052SOL    HW126618   3.007   4.594   5.978  0.2167  1.2185  0.4124
 5052SOL    HW226619   2.857   4.612   6.012 -0.3596  0.2546  1.9530
 5053SOL     OW26620   0.959   0.120  15.731 -0.3470  0.0742 -0.1094
 5053SOL    HW126621   0.923   0.201  15.765  2.0482  0.7255  0.8549
 5053SOL    HW226622   0.972   0.147  15.640 -0.0238 -1.7998 -0.6339
 5054SOL     OW26623   1.637   1.138   8.794  0.0543  0.5807  0.3272
 5054SOL    HW126624   1.660   1.213   8.738 -0.1110 -1.1297 -2.0249
 5054SOL    HW226625   1.592   1.190   8.861  0.1682  0.8720  0.1803
 5055SOL     OW26626   3.650   1.664   7.819 -0.0784 -0.4165  0.1348
 5055SOL    HW126627   3.688   1.708   7.895  1.1289 -0.2822 -0.5383
 5055SOL    HW226628   3.589   1.724   7.778  1.5648  1.6352  0.7001
 5056SOL     OW26629   3.439   3.330   2.976  0.2539  0.3474  0.1876
 5056SOL    HW126630   3.511   3.378   3.016 -0.5935  0.1005  1.9992
 5056SOL    HW226631   3.425   3.260   3.040  0.4027 -0.4708 -0.6594
 5057SOL     OW26632   1.219   3.328  10.818 -0.1496  0.4304  0.6984
 5057SOL    HW126633   1.250   3.284  10.739 -0.5751  1.7006 -0.1888
 5057SOL    HW226634   1.128   3.337  10.788  0.0373 -0.2900 -0.0872
 5058SOL     OW26635   3.750   4.083   9.005  0.1007 -0.7174  0.0843
 5058SOL    HW126636   3.668   4.040   9.031  0.0109 -0.1908  0.6783
 5058SOL    HW226637   3.787   4.113   9.088 -0.0157  0.9532 -0.4559
 5059SOL     OW26638   3.585   2.993   1.383  0.1532 -0.4816  0.4646
 5059SOL    HW126639   3.502   3.030   1.413  0.0380 -1.1560  0.9686
 5059SOL    HW226640   3.566   2.983   1.290  0.3637  1.3566  0.2165
 5060SOL     OW26641   4.022   0.356   5.477  0.1329  0.3037 -0.3058
 5060SOL    HW126642   3.937   0.345   5.435  0.3006  0.1941 -0.6155
 5060SOL    HW226643   4.012   0.440   5.521  0.6534 -0.6709  1.6517
 5061SOL     OW26644   1.092   1.308   2.179  0.2338 -0.5729  0.2545
 5061SOL    HW126645   1.180   1.287   2.210  1.0843  0.6693 -1.3249
 5061SOL    HW226646   1.057   1.357   2.254 -0.0809  0.3460 -0.4886
 5062SOL     OW26647   3.601   3.143   3.760  0.3312  0.0886  0.4328
 5062SOL    HW126648   3.638   3.062   3.724 -0.2253  0.6471 -1.4191
 5062SOL    HW226649   3.622   3.206   3.691 -0.2465  0.7781  0.8927
 5063SOL     OW26650   2.680   2.238  16.521 -0.0601  0.6202 -0.1414
 5063SOL    HW126651   2.685   2.333  16.523  0.4558  0.6159 -1.1950
 5063SOL    HW226652   2.766   2.217  16.484  0.0914  2.2990 -0.7436
 5064SOL     OW26653   3.574   0.795   3.583 -0.2337  0.0403  0.1507
 5064SOL    HW126654   3.612   0.714   3.617 -3.6346 -1.3373  0.6099
 5064SOL    HW226655   3.499   0.811   3.640 -0.4324 -0.8857  0.1434
 5065SOL     OW26656   0.054   1.141   2.971  0.1432 -0.1269 -0.1517
 5065SOL    HW126657   0.081   1.070   2.914  0.2960  0.0634 -0.3156
 5065SOL    HW226658   4.716   1.191   2.915  1.5880  0.4964 -1.1233
 5066SOL     OW26659   2.317   1.334  12.620 -0.1468  0.1101 -0.1055
 5066SOL    HW126660   2.332   1.265  12.554  0.5948 -1.7637  2.0141
 5066SOL    HW226661   2.409   1.357  12.631 -0.4594  1.8363 -1.1627
 5067SOL     OW26662   3.847   1.251   2.087 -0.2694  0.0260 -0.2853
 5067SOL    HW126663   3.911   1.199   2.038 -1.0680 -0.7403 -0.5309
 5067SOL    HW226664   3.813   1.307   2.017  1.3064  1.6640  0.2667
 5068SOL     OW26665   2.297   3.687   4.999 -0.4047 -0.4373  0.1165
 5068SOL    HW126666   2.276   3.643   4.917  0.4400 -0.2284 -0.2031
 5068SOL    HW226667   2.220   3.743   5.000  0.4568  0.7373  2.0553
 5069SOL     OW26668   3.981   1.249  13.266  0.3637 -0.3472  0.6685
 5069SOL    HW126669   4.046   1.276  13.331 -0.0737 -0.7343  1.2763
 5069SOL    HW226670   3.957   1.335  13.231 -2.1918 -1.5745 -0.5617
 5070SOL     OW26671   2.271   0.081  14.032 -0.1989  0.0181 -0.4808
 5070SOL    HW126672   2.318   0.000  14.054  1.4024  1.2905  0.7943
 5070SOL    HW226673   2.181   0.049  14.044 -0.0204 -0.6489 -0.9000
 5071SOL     OW26674   1.057   4.106  13.838 -0.1291  0.3120  0.3161
 5071SOL    HW126675   1.061   4.151  13.753  1.3440  1.2696  0.9051
 5071SOL    HW226676   1.100   4.174  13.888 -0.1216 -0.0676  0.8261
 5072SOL     OW26677   4.118   4.536   3.583  0.0650 -0.1412  0.5625
 5072SOL    HW126678   4.182   4.584   3.635 -0.7628  1.8481 -0.2833
 5072SOL    HW226679   4.171   4.484   3.522 -1.4053 -0.2180 -0.6615
 5073SOL     OW26680   4.256   2.423  11.891 -0.5248 -0.2756 -0.2291
 5073SOL    HW126681   4.344   2.386  11.895 -0.5354 -0.2485  0.2603
 5073SOL    HW226682   4.258   2.463  11.978  1.4559 -1.6211  0.3384
 5074SOL     OW26683   3.036   1.705   4.272  0.0427  0.1497  0.1146
 5074SOL    HW126684   2.996   1.688   4.187  0.5458  0.9269 -0.2791
 5074SOL    HW226685   2.989   1.786   4.293  1.3507  0.6701  1.0701
 5075SOL     OW26686   0.487   2.009   5.269 -0.1103  0.0232  0.2604
 5075SOL    HW126687   0.458   1.936   5.323 -0.9585  1.9594  2.4432
 5075SOL    HW226688   0.502   2.075   5.337  2.2662 -1.6147  1.3152
 5076SOL     OW26689   3.696   1.660   6.053 -0.2230 -0.3904  0.8520
 5076SOL    HW126690   3.614   1.697   6.022  0.2108  0.1136  0.3029
 5076SOL    HW226691   3.706   1.589   5.990  2.9183 -0.3410  1.2928
 5077SOL     OW26692   3.429   4.359   6.883  0.6456 -0.1972 -0.0308
 5077SOL    HW126693   3.516   4.321   6.871  0.6379 -0.1389 -0.2718
 5077SOL    HW226694   3.451   4.439   6.931 -0.3608  0.5173 -0.7608
 5078SOL     OW26695   2.015   3.627   8.390  0.0714 -0.2669 -0.3727
 5078SOL    HW126696   1.988   3.624   8.482 -0.9163  0.4323 -0.6400
 5078SOL    HW226697   1.972   3.708   8.363  0.1921  0.5939  1.9804
 5079SOL     OW26698   0.007   0.569  10.065  0.0583 -0.5857  0.2005
 5079SOL    HW126699   0.015   0.491  10.011 -0.7470  0.2353 -1.1000
 5079SOL    HW226700   0.068   0.626  10.019 -0.2601  1.2179  1.9782
 5080SOL     OW26701   0.210   3.972  13.438  0.3425 -0.2179  0.6772
 5080SOL    HW126702   0.182   3.960  13.529 -1.7860  0.7236  0.1629
 5080SOL    HW226703   0.138   3.993  13.378  0.9545 -0.4501 -0.1383
 5081SOL     OW26704   2.588   0.674  16.384 -0.6556 -0.0881  0.2416
 5081SOL    HW126705   2.556   0.734  16.452  0.9682  0.9054  0.1225
 5081SOL    HW226706   2.535   0.596  16.402 -0.2952 -0.4205 -0.1507
 5082SOL     OW26707   3.545   1.615   2.759  0.3208  0.3595 -0.7028
 5082SOL    HW126708   3.470   1.619   2.700  1.1188  0.3164 -1.7153
 5082SOL    HW226709   3.623   1.628   2.704  0.0422  1.1399 -0.9042
 5083SOL     OW26710   1.834   0.632   6.879 -0.4452  0.1032 -0.0557
 5083SOL    HW126711   1.840   0.547   6.922 -1.0501  0.0461 -0.0917
 5083SOL    HW226712   1.875   0.612   6.795  1.7619 -1.0141  1.2863
 5084SOL     OW26713   2.610   1.610  11.424 -0.6828 -0.4005 -0.5454
 5084SOL    HW126714   2.686   1.633  11.370 -1.4541  2.4765 -0.4466
 5084SOL    HW226715   2.596   1.701  11.452 -0.1465 -0.5813  0.2988
 5085SOL     OW26716   1.159   4.326  13.950  0.3442  0.1227  0.3128
 5085SOL    HW126717   1.182   4.418  13.961  2.0332  0.0113 -2.3233
 5085SOL    HW226718   1.099   4.314  14.024  1.6115 -1.5324  1.0868
 5086SOL     OW26719   2.964   2.767  14.516  0.3716 -0.3324 -0.3060
 5086SOL    HW126720   3.027   2.823  14.561  0.6385  0.5304 -1.7383
 5086SOL    HW226721   2.889   2.822  14.496 -0.2573 -1.4000 -0.8907
 5087SOL     OW26722   3.278   1.553  12.081  0.3175  0.2163 -0.3670
 5087SOL    HW126723   3.208   1.489  12.096  0.5008  0.1155  0.0638
 5087SOL    HW226724   3.257   1.618  12.149  0.4489  0.6144 -0.7081
 5088SOL     OW26725   2.675   4.052  13.855  0.2788 -0.2762 -0.3878
 5088SOL    HW126726   2.616   4.097  13.794  0.1305  0.8658  0.5856
 5088SOL    HW226727   2.676   3.970  13.807 -1.3525 -1.1271  1.0320
 5089SOL     OW26728   4.101   1.592   7.687 -0.1819 -0.1358 -0.6710
 5089SOL    HW126729   4.117   1.684   7.666 -0.6898  0.1337  0.1068
 5089SOL    HW226730   4.006   1.588   7.697  0.0056  1.7259  1.8599
 5090SOL     OW26731   0.353   4.421   0.105  0.0092 -0.2062  0.1881
 5090SOL    HW126732   0.325   4.443   0.194  0.9903 -2.4268  1.0633
 5090SOL    HW226733   0.311   4.495   0.062  1.4254  0.2490 -0.4080
 5091SOL     OW26734   0.916   0.041   3.733 -0.2165 -1.0004  0.1513
 5091SOL    HW126735   0.977   4.696   3.699 -0.4050 -2.3630  2.4536
 5091SOL    HW226736   0.959   0.123   3.709  0.5402 -1.4370  0.0200
 5092SOL     OW26737   0.435   0.736   8.909  0.0859 -0.3080 -0.5708
 5092SOL    HW126738   0.466   0.795   8.840 -0.9850 -1.2629 -1.8421
 5092SOL    HW226739   0.349   0.726   8.868  0.0635 -1.1138 -0.3236
 5093SOL     OW26740   0.383   1.106   7.494 -1.0343  0.1307 -0.2621
 5093SOL    HW126741   0.387   1.160   7.573  1.4014  1.2720 -1.1586
 5093SOL    HW226742   0.447   1.039   7.520 -1.6865  0.5299  2.3189
 5094SOL     OW26743   3.642   2.396  12.660  0.1084 -0.6764  0.0907
 5094SOL    HW126744   3.647   2.443  12.577  2.5277 -0.9011  0.1028
 5094SOL    HW226745   3.728   2.353  12.656 -0.5104 -1.8081 -0.9637
 5095SOL     OW26746   2.135   0.544   7.006 -0.3059 -0.3536  0.4446
 5095SOL    HW126747   2.168   0.515   6.920  0.6523 -1.2337  1.1031
 5095SOL    HW226748   2.200   0.611   7.026  0.0564 -1.2905  2.4042
 5096SOL     OW26749   1.591   3.026   1.930 -0.1965  0.3213 -0.3256
 5096SOL    HW126750   1.518   2.983   1.885  0.4101 -1.8303  0.7597
 5096SOL    HW226751   1.653   3.029   1.856  1.4903  1.1424  1.1213
 5097SOL     OW26752   0.945   1.005  11.432  0.4415  0.2484  0.1981
 5097SOL    HW126753   0.893   1.064  11.487  1.1528  2.4433 -1.4603
 5097SOL    HW226754   0.896   0.925  11.446  0.8579  0.2797  1.9455
 5098SOL     OW26755   3.568   0.578   8.492  0.2182 -0.3376  0.1453
 5098SOL    HW126756   3.646   0.530   8.466  0.6565  1.1526 -1.2763
 5098SOL    HW226757   3.502   0.508   8.496  0.5166 -0.7479 -2.2932
 5099SOL     OW26758   3.026   1.606   9.300  0.6288 -0.2762  0.0908
 5099SOL    HW126759   2.951   1.610   9.241  0.4371 -0.7656  0.3006
 5099SOL    HW226760   3.033   1.700   9.317  0.1473  0.0818 -1.7185
 5100SOL     OW26761   4.007   1.281  10.845 -0.1313  0.2955  0.0595
 5100SOL    HW126762   4.092   1.259  10.884  0.8891  3.2978 -0.4164
 5100SOL    HW226763   4.005   1.374  10.870 -0.3185  0.4546 -0.5674
 5101SOL     OW26764   0.100   0.281   0.014  0.1713 -0.0465 -0.2426
 5101SOL    HW126765   0.184   0.255  17.663  1.4818  1.5516  1.5577
 5101SOL    HW226766   0.076   0.198   0.056  0.7441 -0.4374 -0.6877
 5102SOL     OW26767   3.901   3.359  10.367 -0.0353  0.3326  0.3456
 5102SOL    HW126768   3.935   3.285  10.417  1.8320  1.8822  1.3726
 5102SOL    HW226769   3.907   3.430  10.431  0.7385  1.2948 -0.8040
 5103SOL     OW26770   2.728   2.089   1.865  0.2389 -0.3312  0.1813
 5103SOL    HW126771   2.800   2.041   1.825  1.8834  0.0356  2.6924
 5103SOL    HW226772   2.649   2.050   1.828  0.6651 -2.7344  1.8154
 5104SOL     OW26773   3.443   3.177   7.971 -0.1202  0.2059  0.0981
 5104SOL    HW126774   3.475   3.097   8.013  2.9891  0.7989 -1.1328
 5104SOL    HW226775   3.403   3.220   8.046 -2.3627  0.6982 -1.3814
 5105SOL     OW26776   2.228   0.461   7.904 -0.0468  0.7032 -0.0638
 5105SOL    HW126777   2.248   0.370   7.925 -2.4205 -0.2545 -1.9480
 5105SOL    HW226778   2.267   0.512   7.975  2.0209  0.4203 -0.9724
 5106SOL     OW26779   1.238   3.881   7.295 -0.2645  0.2616 -0.2592
 5106SOL    HW126780   1.293   3.919   7.226  1.5112  1.7940  2.0232
 5106SOL    HW226781   1.194   3.818   7.237 -1.0905  0.6004 -0.0038
 5107SOL     OW26782   4.254   0.508   8.381  0.2256  0.3057  0.1862
 5107SOL    HW126783   4.272   0.415   8.398 -1.4995 -0.4825 -2.2373
 5107SOL    HW226784   4.272   0.538   8.470 -0.4608 -0.8024  0.6991
 5108SOL     OW26785   4.648   2.323   9.106  0.1783 -0.0013 -0.3890
 5108SOL    HW126786   4.632   2.231   9.124 -1.2359 -0.0255 -1.7698
 5108SOL    HW226787   4.625   2.358   9.192 -1.7583 -0.2618 -0.8134
 5109SOL     OW26788   2.848   2.705  11.412 -0.7530 -0.4649  0.0587
 5109SOL    HW126789   2.847   2.691  11.317 -0.2219  0.9567 -0.1521
 5109SOL    HW226790   2.934   2.731  11.444 -1.4202 -0.6231  1.9965
 5110SOL     OW26791   0.044   0.846   9.760 -0.0379  0.0897  0.4401
 5110SOL    HW126792   0.100   0.782   9.804 -1.8564 -0.5667  1.8116
 5110SOL    HW226793   0.065   0.928   9.806  1.6997 -0.8039  1.2602
 5111SOL     OW26794   2.083   0.911  12.212  0.2350 -0.4324  0.4561
 5111SOL    HW126795   2.163   0.919  12.160 -0.4931  0.0856 -0.5827
 5111SOL    HW226796   2.022   0.913  12.138  0.6503 -2.5262  0.0468
 5112SOL     OW26797   2.875   3.062   1.751  0.2703 -0.5323 -0.5164
 5112SOL    HW126798   2.915   3.004   1.686  1.3792 -3.5246  2.8838
 5112SOL    HW226799   2.783   3.054   1.725 -0.7323  1.6199  2.3572
 5113SOL     OW26800   4.370   2.560   5.129  0.1471  0.4448 -0.1313
 5113SOL    HW126801   4.296   2.501   5.116  0.8058 -0.6603  1.1236
 5113SOL    HW226802   4.336   2.645   5.101  0.7530  0.2618 -1.4027
 5114SOL     OW26803   2.608   1.234   9.398  0.5396 -0.2681 -0.7285
 5114SOL    HW126804   2.577   1.241   9.308  0.9286 -2.2390 -1.0198
 5114SOL    HW226805   2.609   1.142   9.426 -0.6723  0.2446  0.9739
 5115SOL     OW26806   3.797   3.952   7.619  0.5208  0.4643 -0.1356
 5115SOL    HW126807   3.789   3.857   7.626 -0.3263  0.4575 -1.3773
 5115SOL    HW226808   3.893   3.958   7.617  0.7607 -2.8867  0.3444
 5116SOL     OW26809   0.427   4.542  15.816 -0.0499  0.1199  0.0169
 5116SOL    HW126810   0.357   4.496  15.862 -0.1387  0.5258  0.2981
 5116SOL    HW226811   0.376   4.589  15.749 -0.3332 -0.2792 -0.0453
 5117SOL     OW26812   0.693   4.120  11.208 -0.1263  0.4957 -0.0913
 5117SOL    HW126813   0.780   4.083  11.228 -0.9233 -0.8383  0.9302
 5117SOL    HW226814   0.658   4.127  11.297  0.1669  3.0365 -0.1878
 5118SOL     OW26815   3.620   2.932   5.939  0.6709 -0.2757 -0.0959
 5118SOL    HW126816   3.620   2.928   5.843 -0.6043 -1.7372 -0.0351
 5118SOL    HW226817   3.575   3.015   5.954 -0.2133 -0.5674 -1.1206
 5119SOL     OW26818   0.729   3.744  14.701  0.5030 -0.2502  0.1943
 5119SOL    HW126819   0.779   3.761  14.780  1.4560 -0.3376 -0.3894
 5119SOL    HW226820   0.781   3.791  14.636 -1.8158  0.4537 -1.1622
 5120SOL     OW26821   3.829   3.413   4.539  0.3310 -0.2357 -1.0255
 5120SOL    HW126822   3.785   3.498   4.545  0.5985 -0.1071 -0.8890
 5120SOL    HW226823   3.890   3.416   4.465  1.0743  2.6787 -0.3173
 5121SOL     OW26824   1.585   4.052  14.079  0.3845 -0.0142 -0.2160
 5121SOL    HW126825   1.523   4.041  14.007 -1.8388 -2.0362  2.0038
 5121SOL    HW226826   1.529   4.112  14.129 -0.9872 -1.0926 -0.4394
 5122SOL     OW26827   0.272   2.606   3.620 -0.1147  0.0705  0.2317
 5122SOL    HW126828   0.218   2.665   3.672 -1.3938 -2.5846  1.9195
 5122SOL    HW226829   0.243   2.518   3.645  1.3404 -0.6662 -0.6430
 5123SOL     OW26830   0.494   0.724  13.510 -0.6146 -0.2935  0.1993
 5123SOL    HW126831   0.464   0.745  13.598 -0.0694  0.2966  0.2465
 5123SOL    HW226832   0.417   0.714  13.455 -1.0534 -1.4304  1.0271
 5124SOL     OW26833   1.147   3.369   1.056  1.0108  0.1275  0.0898
 5124SOL    HW126834   1.179   3.393   0.969 -2.0813  1.7926 -0.5839
 5124SOL    HW226835   1.122   3.280   1.034 -1.8310  0.4099  2.1573
 5125SOL     OW26836   2.402   4.415   6.134  0.1820 -0.3291  0.1220
 5125SOL    HW126837   2.409   4.503   6.097 -3.4969  0.7815  2.1716
 5125SOL    HW226838   2.335   4.423   6.201  1.3975  0.1520  1.2836
 5126SOL     OW26839   3.609   2.226   8.178  0.4684 -0.4323 -0.3049
 5126SOL    HW126840   3.535   2.285   8.158  1.1444  0.9664  1.3808
 5126SOL    HW226841   3.619   2.196   8.088  1.3023 -0.3739 -0.2240
 5127SOL     OW26842   2.834   2.030   8.417 -0.6494 -0.1918  0.0009
 5127SOL    HW126843   2.815   1.980   8.338  0.2693 -1.9545  0.8929
 5127SOL    HW226844   2.908   1.975   8.440 -0.0085  2.1579  3.5649
 5128SOL     OW26845   1.861   1.402   4.987  0.1089 -0.6509 -0.6500
 5128SOL    HW126846   1.934   1.393   5.048 -0.1211 -0.2009 -0.3134
 5128SOL    HW226847   1.819   1.317   4.996 -0.2326 -0.5531 -1.3470
 5129SOL     OW26848   3.072   0.693  10.744  0.0014  0.0519  0.5963
 5129SOL    HW126849   3.102   0.783  10.729 -1.4734  0.2886 -1.0290
 5129SOL    HW226850   3.127   0.666  10.817 -1.0765 -1.1452  0.9612
 5130SOL     OW26851   1.953   2.539  15.794  0.1997 -0.2867 -0.3102
 5130SOL    HW126852   1.887   2.536  15.725  0.1718  0.2023 -0.3021
 5130SOL    HW226853   2.015   2.472  15.765  3.0179  1.2747  2.0672
 5131SOL     OW26854   2.119   1.217  10.951 -0.1980  0.1643 -0.0069
 5131SOL    HW126855   2.027   1.215  10.923 -0.5429 -0.6524  1.1527
 5131SOL    HW226856   2.114   1.298  11.002 -0.9991  0.5429 -0.6846
 5132SOL     OW26857   2.742   3.559  13.957 -0.0462  0.3407  0.7570
 5132SOL    HW126858   2.781   3.523  14.037 -1.6869 -2.0606  0.4500
 5132SOL    HW226859   2.822   3.557  13.904  0.0561  0.7820  0.8909
 5133SOL     OW26860   1.571   2.065   0.940 -0.2375  0.3407  1.0137
 5133SOL    HW126861   1.661   2.036   0.928 -0.5761 -0.3462  0.1101
 5133SOL    HW226862   1.578   2.151   0.982  0.5445  1.1214 -0.7392
 5134SOL     OW26863   2.241   2.597   1.879 -0.5870  0.0344  0.3127
 5134SOL    HW126864   2.291   2.657   1.824  0.3356 -2.1625 -1.2263
 5134SOL    HW226865   2.310   2.568   1.938 -1.7124 -1.1535  1.0467
 5135SOL     OW26866   3.279   0.407   7.248  0.6204  0.1179  0.2038
 5135SOL    HW126867   3.187   0.391   7.268 -0.3330  2.1393 -2.5834
 5135SOL    HW226868   3.305   0.317   7.229  0.5690  0.3333 -0.8873
 5136SOL     OW26869   2.555   2.124   9.475 -0.4472 -0.0298  0.2391
 5136SOL    HW126870   2.561   2.159   9.386  3.0331  0.7765  0.7769
 5136SOL    HW226871   2.476   2.169   9.506  0.1109  2.2421 -1.5584
 5137SOL     OW26872   1.673   2.034   6.642  0.2064  0.7678  0.5685
 5137SOL    HW126873   1.743   2.041   6.577 -0.3387  1.8504  0.0888
 5137SOL    HW226874   1.633   2.121   6.645  0.2012  0.7986 -0.3295
 5138SOL     OW26875   1.137   0.405   3.432  0.1862  0.1868 -0.5056
 5138SOL    HW126876   1.131   0.332   3.493 -2.4742  1.6999  1.0373
 5138SOL    HW226877   1.204   0.371   3.374  0.0823  1.7752 -1.5520
 5139SOL     OW26878   0.888   1.038   3.280  0.5761  0.0179 -0.3037
 5139SOL    HW126879   0.860   1.129   3.283  1.1427  0.2615 -2.0199
 5139SOL    HW226880   0.981   1.047   3.304  1.1168 -0.1026 -2.3066
 5140SOL     OW26881   0.879   1.851   9.630  0.0606 -0.9255  0.3389
 5140SOL    HW126882   0.789   1.879   9.648  0.8214  1.1363  0.9775
 5140SOL    HW226883   0.920   1.881   9.711  1.0941 -1.5593  0.0513
 5141SOL     OW26884   4.254   1.438   6.705  0.5531  0.1528  0.1227
 5141SOL    HW126885   4.279   1.489   6.628 -1.9325 -1.5586 -1.7989
 5141SOL    HW226886   4.316   1.365   6.708  1.4171  0.8788 -0.0974
 5142SOL     OW26887   4.125   2.198   5.913  0.2388 -0.4560  0.0031
 5142SOL    HW126888   4.219   2.181   5.913  0.5855  1.3577 -3.3776
 5142SOL    HW226889   4.114   2.186   5.819  0.2059  1.0050 -0.1792
 5143SOL     OW26890   0.346   1.349  12.977 -0.1969  0.2977  0.2183
 5143SOL    HW126891   0.316   1.356  13.068  1.1994 -0.1013  0.7194
 5143SOL    HW226892   0.283   1.289  12.939 -0.0778  0.7077 -0.6205
 5144SOL     OW26893   2.524   3.565   6.950  0.1550  0.0999  0.1806
 5144SOL    HW126894   2.459   3.496   6.936 -0.3902  0.5499  0.4345
 5144SOL    HW226895   2.605   3.517   6.936  0.4327  1.2392 -2.1261
 5145SOL     OW26896   1.282   4.090   2.297  0.7077  0.0598 -0.2445
 5145SOL    HW126897   1.214   4.151   2.327  1.5347 -0.3038  2.4034
 5145SOL    HW226898   1.326   4.071   2.380  0.0804  2.3103  0.6357
 5146SOL     OW26899   4.571   1.370   8.451  0.6558 -0.0811  0.5574
 5146SOL    HW126900   4.543   1.462   8.450 -0.6756 -0.4784  1.2964
 5146SOL    HW226901   4.607   1.359   8.539  0.7071  1.8442  0.7855
 5147SOL     OW26902   2.705   3.025  12.612 -0.0411 -0.2740  0.0858
 5147SOL    HW126903   2.687   2.954  12.673  0.2463  1.1414  1.8026
 5147SOL    HW226904   2.793   2.998  12.587 -0.7021 -1.2837 -1.1549
 5148SOL     OW26905   3.161   3.527   3.167 -0.4574  0.4771  0.0900
 5148SOL    HW126906   3.116   3.609   3.147  0.5684  0.4677 -2.3079
 5148SOL    HW226907   3.096   3.462   3.140 -0.2441  0.8951 -1.4075
 5149SOL     OW26908   0.962   3.892   6.159  0.0954  0.4271  0.4221
 5149SOL    HW126909   0.909   3.847   6.093  0.1328  1.0179 -0.0091
 5149SOL    HW226910   0.951   3.982   6.129  3.5165  0.4667 -0.7192
 5150SOL     OW26911   4.497   3.761  15.033 -0.0688 -0.1636  0.5966
 5150SOL    HW126912   4.562   3.691  15.019  0.1115  0.3522 -1.1122
 5150SOL    HW226913   4.514   3.791  15.122 -4.5267  0.5897  1.1666
 5151SOL     OW26914   0.420   3.794   5.600 -0.2403  0.4203 -0.8215
 5151SOL    HW126915   0.331   3.797   5.634  0.0950  2.0565 -0.0622
 5151SOL    HW226916   0.406   3.751   5.516  1.5215 -1.9386  0.0942
 5152SOL     OW26917   1.878   2.385   1.138  0.9382 -0.2478  0.1120
 5152SOL    HW126918   1.862   2.291   1.143 -0.0798 -0.1462 -0.9633
 5152SOL    HW226919   1.893   2.409   1.046  0.1731  1.1966  0.3735
 5153SOL     OW26920   2.047   3.867   7.866 -0.1710 -0.2161  0.3886
 5153SOL    HW126921   2.039   3.774   7.844  0.9999  0.1786 -1.7412
 5153SOL    HW226922   2.129   3.864   7.915 -1.0877  3.5011  2.1060
 5154SOL     OW26923   1.063   0.604   7.606  0.0914  0.2160  0.0590
 5154SOL    HW126924   1.007   0.682   7.608 -1.8533 -1.1659 -0.1805
 5154SOL    HW226925   1.134   0.632   7.663  0.5214  1.1624 -0.9407
 5155SOL     OW26926   0.704   1.732   1.847  0.2756 -0.2607 -0.2112
 5155SOL    HW126927   0.620   1.739   1.891  0.3332 -0.8697 -0.0029
 5155SOL    HW226928   0.696   1.645   1.808  1.7524 -0.0905 -0.9090
 5156SOL     OW26929   1.137   3.975   6.947  0.0251 -0.2412 -0.0256
 5156SOL    HW126930   1.209   3.956   7.008 -0.1032  2.1407  0.8564
 5156SOL    HW226931   1.141   3.904   6.883  0.5761 -0.7659  0.5809
 5157SOL     OW26932   2.471   0.059   8.128  0.3159  0.1706 -0.2395
 5157SOL    HW126933   2.395   0.003   8.147  0.1779  0.5650  0.3829
 5157SOL    HW226934   2.505   0.079   8.215 -0.7215  1.6130 -0.1678
 5158SOL     OW26935   2.536   0.326   6.170 -0.3337 -0.0716  0.2771
 5158SOL    HW126936   2.469   0.362   6.228 -1.4133 -2.1022  0.2606
 5158SOL    HW226937   2.582   0.256   6.217 -0.5040  0.6982  1.6180
 5159SOL     OW26938   2.098   0.098   4.635  0.6900 -0.7802 -0.0512
 5159SOL    HW126939   2.184   0.129   4.663 -0.2990  1.7828  0.1576
 5159SOL    HW226940   2.117   0.006   4.655  1.7454 -0.5903 -0.1855
 5160SOL     OW26941   1.965   2.779   3.440 -0.1750 -0.2835  0.3569
 5160SOL    HW126942   1.899   2.840   3.474 -0.2898 -0.5782  0.6638
 5160SOL    HW226943   1.988   2.831   3.363 -0.3471 -2.8347 -1.3898
 5161SOL     OW26944   2.587   2.093   9.761 -0.3436 -0.1571  0.2400
 5161SOL    HW126945   2.596   2.130   9.673 -2.1186 -2.3681 -0.8820
 5161SOL    HW226946   2.505   2.047   9.743 -0.7101  1.1969 -1.5047
 5162SOL     OW26947   0.231   2.746  13.791  0.0822 -0.4262 -0.1678
 5162SOL    HW126948   0.230   2.842  13.798 -0.0184 -0.3412 -1.2978
 5162SOL    HW226949   0.139   2.722  13.800  0.3044 -0.9302  0.7899
 5163SOL     OW26950   4.111   4.195   4.201 -0.5149  0.4226 -0.8381
 5163SOL    HW126951   4.050   4.129   4.232  1.7820 -0.7892  1.1190
 5163SOL    HW226952   4.061   4.275   4.219  1.2603  1.1656  0.9187
 5164SOL     OW26953   3.243   2.244   0.496 -0.3320  0.0259  0.0836
 5164SOL    HW126954   3.214   2.333   0.515  0.6268  0.5723 -1.0373
 5164SOL    HW226955   3.173   2.185   0.525 -1.5195  1.3167 -0.1606
 5165SOL     OW26956   1.222   1.858  17.407  0.5444  0.1112  0.2867
 5165SOL    HW126957   1.243   1.942  17.448  2.8373 -0.7377  0.8756
 5165SOL    HW226958   1.225   1.802  17.484  0.8928  1.4850  1.2697
 5166SOL     OW26959   4.223   4.488   1.982 -0.6446 -0.3090 -0.3696
 5166SOL    HW126960   4.131   4.491   1.957 -0.6922 -1.4617 -0.3194
 5166SOL    HW226961   4.225   4.502   2.077  1.7212  2.9933 -0.9020
 5167SOL     OW26962   1.317   1.662   5.234 -0.0210 -0.1956 -0.2369
 5167SOL    HW126963   1.226   1.668   5.264  0.3603  0.3572  0.8118
 5167SOL    HW226964   1.330   1.567   5.239  0.2548 -0.2982 -2.9394
 5168SOL     OW26965   3.626   4.151   0.612  0.0519 -0.3469 -0.0528
 5168SOL    HW126966   3.591   4.215   0.550 -0.1650 -1.0998 -0.7066
 5168SOL    HW226967   3.550   4.141   0.669 -0.6202 -2.7330 -1.4051
 5169SOL     OW26968   1.537   1.302   3.276 -0.3760 -0.5775 -0.3499
 5169SOL    HW126969   1.482   1.366   3.321  0.0190 -1.1968  1.0102
 5169SOL    HW226970   1.615   1.301   3.332 -0.5031 -3.0209 -0.2064
 5170SOL     OW26971   0.452   4.227   7.404  0.2645  0.1167 -0.4015
 5170SOL    HW126972   0.494   4.247   7.320 -0.1951 -1.0047 -0.9005
 5170SOL    HW226973   0.521   4.268   7.455 -0.5324  0.1957  0.6025
 5171SOL     OW26974   1.134   0.603   2.644 -0.1043 -0.5358  0.4216
 5171SOL    HW126975   1.159   0.598   2.737 -0.6129 -1.1608  0.5196
 5171SOL    HW226976   1.176   0.686   2.619  1.9383 -0.9438  2.4329
 5172SOL     OW26977   0.169   0.448   2.519  0.2120 -0.2096  0.8196
 5172SOL    HW126978   0.166   0.353   2.521  0.3734 -0.2457 -0.6403
 5172SOL    HW226979   0.109   0.467   2.447 -0.7945  0.5258  1.8482
 5173SOL     OW26980   0.933   2.678   1.513 -0.1768  0.3058 -0.5955
 5173SOL    HW126981   0.857   2.621   1.522  1.4823 -1.6450  0.9025
 5173SOL    HW226982   1.012   2.627   1.533  0.5534  1.0004 -1.6699
 5174SOL     OW26983   3.409   1.435   9.746 -0.7421 -0.3360 -0.7407
 5174SOL    HW126984   3.406   1.530   9.746  2.5610 -0.2187 -1.1769
 5174SOL    HW226985   3.504   1.422   9.739 -0.8451  0.3538 -3.1453
 5175SOL     OW26986   4.215   2.728  15.812  0.4684  0.1872  0.7202
 5175SOL    HW126987   4.252   2.791  15.751 -0.9958  0.9485  0.6140
 5175SOL    HW226988   4.207   2.787  15.887 -0.3331  1.0089 -0.0156
 5176SOL     OW26989   1.604   3.320   3.946  0.1555  0.2316  0.3430
 5176SOL    HW126990   1.566   3.238   3.913  0.6292  0.3100 -0.4130
 5176SOL    HW226991   1.526   3.373   3.962  1.2533  2.1796 -0.7243
 5177SOL     OW26992   0.098   1.926   5.297  0.5510  0.1182 -0.3197
 5177SOL    HW126993   0.148   1.937   5.378 -1.2044  1.6117  0.5566
 5177SOL    HW226994   0.166   1.892   5.239  1.4747  1.3128  0.0448
 5178SOL     OW26995   0.387   4.317   6.354 -0.7201  0.2919  0.4864
 5178SOL    HW126996   0.407   4.224   6.348  0.8758  0.5908  0.9861
 5178SOL    HW226997   0.476   4.348   6.374  0.5146 -2.1952 -1.1381
 5179SOL     OW26998   2.480   2.096   5.321  0.4241 -0.1433  0.3593
 5179SOL    HW126999   2.528   2.167   5.279 -1.7162 -0.3998 -2.4804
 5179SOL    HW227000   2.518   2.111   5.408  2.3317 -2.3264 -0.1086
 5180SOL     OW27001   3.643   1.062   1.573 -0.0190  0.4782 -0.4840
 5180SOL    HW127002   3.696   1.136   1.604  0.7698 -0.7210  1.0400
 5180SOL    HW227003   3.585   1.100   1.506 -0.2923  0.0929 -0.4635
 5181SOL     OW27004   2.571   1.066  13.243 -0.2566 -0.0736 -0.1762
 5181SOL    HW127005   2.629   1.125  13.195 -0.0018 -1.2084 -1.2635
 5181SOL    HW227006   2.600   1.077  13.333 -1.3384 -2.5550  0.4849
 5182SOL     OW27007   1.485   3.621   1.082  0.0148 -0.4489  0.5670
 5182SOL    HW127008   1.409   3.652   1.034  1.1935  0.7681 -0.5042
 5182SOL    HW227009   1.458   3.622   1.174  0.2376  0.0538  0.6291
 5183SOL     OW27010   1.824   2.493   6.963 -0.2717  0.1744 -0.4172
 5183SOL    HW127011   1.755   2.447   7.011 -0.8824  0.3649 -1.1255
 5183SOL    HW227012   1.860   2.426   6.904  2.0561 -1.6696  3.0596
 5184SOL     OW27013   3.644   4.164   4.327  0.1794  0.0252 -0.2138
 5184SOL    HW127014   3.555   4.150   4.360  0.2259 -1.3017 -0.6746
 5184SOL    HW227015   3.677   4.075   4.324 -3.1555 -1.2628  1.2845
 5185SOL     OW27016   2.674   0.720   3.272 -0.3134  0.4267  0.0648
 5185SOL    HW127017   2.753   0.753   3.316  0.1628 -0.4597 -0.1207
 5185SOL    HW227018   2.715   0.637   3.246  0.5336  0.9216 -0.1666
 5186SOL     OW27019   4.458   3.787   7.800  0.1885 -0.1196  0.2143
 5186SOL    HW127020   4.405   3.778   7.879 -0.9032 -1.4757 -0.6693
 5186SOL    HW227021   4.390   3.764   7.737  0.8000  0.3162 -0.6028
 5187SOL     OW27022   0.934   4.248  15.929 -0.0280 -0.4928 -0.5341
 5187SOL    HW127023   0.951   4.167  15.977 -1.6884 -1.1865 -1.1060
 5187SOL    HW227024   1.016   4.289  15.956 -0.6224  0.2762  0.1130
 5188SOL     OW27025   3.709   1.186   6.954 -0.5496 -0.4154 -0.5967
 5188SOL    HW127026   3.703   1.091   6.952 -0.2121 -0.4592  0.2861
 5188SOL    HW227027   3.645   1.220   7.017  0.6182 -0.1066  0.4383
 5189SOL     OW27028   0.131   0.145   5.810  0.5124 -0.1147 -0.2535
 5189SOL    HW127029   0.208   0.200   5.799  1.4223 -0.9925  1.5997
 5189SOL    HW227030   0.142   0.121   5.902 -0.1639  0.8412  0.0781
 5190SOL     OW27031   4.077   4.341   6.201  0.2639 -0.2507 -0.2340
 5190SOL    HW127032   4.018   4.266   6.196 -1.5112  1.2348 -1.4914
 5190SOL    HW227033   4.164   4.304   6.212  1.6070  2.7284 -0.6924
 5191SOL     OW27034   1.345   2.673   3.342  0.2647  0.2035  0.2889
 5191SOL    HW127035   1.280   2.616   3.301  0.5748 -0.0079  0.0864
 5191SOL    HW227036   1.367   2.740   3.277  1.2974  0.1860  0.6219
 5192SOL     OW27037   4.306   4.620   8.975 -0.0499 -0.2194 -0.6172
 5192SOL    HW127038   4.308   4.566   9.054  0.4699  0.5990 -0.0691
 5192SOL    HW227039   4.374   4.576   8.925  0.6448 -0.5795  0.6321
 5193SOL     OW27040   1.240   3.161   7.164 -0.0711  0.1609 -0.0339
 5193SOL    HW127041   1.235   3.167   7.069 -0.3698 -0.8655 -0.0738
 5193SOL    HW227042   1.246   3.066   7.175 -0.5961  0.3565  2.0940
 5194SOL     OW27043   2.268   2.853   6.922 -0.1893 -0.3967 -0.1501
 5194SOL    HW127044   2.320   2.773   6.919  1.2204  0.5527 -0.7747
 5194SOL    HW227045   2.195   2.814   6.970  1.1055 -0.7947  1.4954
 5195SOL     OW27046   1.532   3.427   2.364 -0.4720  0.1223  0.1914
 5195SOL    HW127047   1.581   3.494   2.316  0.4019 -1.2512 -0.8758
 5195SOL    HW227048   1.516   3.479   2.442  0.2539  3.5357 -1.9456
 5196SOL     OW27049   0.899   3.951   6.727 -0.2092 -0.0757 -0.0085
 5196SOL    HW127050   0.965   4.019   6.719  1.7218 -2.0495 -0.6623
 5196SOL    HW227051   0.951   3.871   6.730 -0.4688 -0.1536  2.4120
 5197SOL     OW27052   1.328   0.684   7.727  0.1209  0.1336 -0.1665
 5197SOL    HW127053   1.329   0.726   7.641 -0.7269  0.9393  0.2190
 5197SOL    HW227054   1.318   0.765   7.777 -0.7948  0.8257 -1.4705
 5198SOL     OW27055   3.151   0.947  17.596 -0.2821  0.2356  0.1889
 5198SOL    HW127056   3.116   0.865  17.562 -1.5566  0.9915 -0.3397
 5198SOL    HW227057   3.185   0.996  17.521 -0.0880 -2.5848 -1.5621
 5199SOL     OW27058   0.623   3.947  13.208 -0.3289  0.0998  0.4195
 5199SOL    HW127059   0.717   3.949  13.190 -0.3105 -1.0635  0.3554
 5199SOL    HW227060   0.596   4.039  13.203 -1.8475 -0.4512 -1.7513
 5200SOL     OW27061   1.408   3.183   7.561 -0.0119  0.1311  0.0515
 5200SOL    HW127062   1.426   3.273   7.588 -1.0974  0.0855  0.9513
 5200SOL    HW227063   1.314   3.191   7.545 -0.2722 -0.0423  1.4488
 5201SOL     OW27064   4.267   3.357  15.836  0.3626  0.2249 -0.6423
 5201SOL    HW127065   4.356   3.354  15.869  0.1539 -1.4089 -0.2168
 5201SOL    HW227066   4.226   3.378  15.921  1.4390 -0.5398  0.0536
 5202SOL     OW27067   1.926   4.716   8.544  0.2721 -0.4302 -0.3527
 5202SOL    HW127068   1.976   0.041   8.612  0.4987  0.2820 -0.9961
 5202SOL    HW227069   1.842   0.038   8.559  0.1843 -0.9810  0.7467
 5203SOL     OW27070   4.402   4.055  13.934  0.3968 -0.3572 -0.2632
 5203SOL    HW127071   4.488   4.095  13.921 -1.2004  3.6537  1.4668
 5203SOL    HW227072   4.361   4.127  13.983  0.2367 -1.8124  1.7242
 5204SOL     OW27073   3.390   0.713   4.662 -0.1611  0.3717  1.1098
 5204SOL    HW127074   3.343   0.768   4.600  0.3200 -0.2068  0.2261
 5204SOL    HW227075   3.472   0.760   4.649  0.6843 -1.6435 -0.8696
 5205SOL     OW27076   3.544   3.582   1.452 -0.6456  0.0115  0.2263
 5205SOL    HW127077   3.465   3.531   1.434 -0.0777 -0.8800  0.2701
 5205SOL    HW227078   3.583   3.537   1.527 -1.2001  1.8484  1.6323
 5206SOL     OW27079   4.436   0.883   7.327 -0.0890 -0.3354  0.0172
 5206SOL    HW127080   4.397   0.867   7.413  0.4974  2.8667  0.8669
 5206SOL    HW227081   4.423   0.978   7.321  1.9491 -0.1526 -1.5252
 5207SOL     OW27082   1.350   2.889   8.461  0.0576  0.2301 -0.0882
 5207SOL    HW127083   1.388   2.866   8.546  1.3361 -1.1443 -1.0498
 5207SOL    HW227084   1.260   2.888   8.495 -0.0188  1.7009 -0.2130
 5208SOL     OW27085   0.266   2.290   1.757 -0.3338  0.1047  0.2391
 5208SOL    HW127086   0.320   2.270   1.833 -0.7697 -0.2375  0.4510
 5208SOL    HW227087   0.214   2.361   1.793  0.7669  0.7457  0.5792
 5209SOL     OW27088   4.412   2.892   8.429  0.3917  0.2149  0.2011
 5209SOL    HW127089   4.428   2.864   8.339  0.0566 -1.9582  0.8127
 5209SOL    HW227090   4.408   2.987   8.433  1.6133  0.3354 -1.2995
 5210SOL     OW27091   1.802   2.262  12.442 -0.2918 -0.4485  0.2799
 5210SOL    HW127092   1.845   2.343  12.467  0.8082 -0.4716 -1.5193
 5210SOL    HW227093   1.875   2.232  12.388  1.9306  0.0655  3.0096
 5211SOL     OW27094   3.370   4.196  13.621 -0.2786  0.0907  0.1192
 5211SOL    HW127095   3.402   4.286  13.617  0.3750 -0.1431  0.1529
 5211SOL    HW227096   3.277   4.220  13.622 -0.5577 -1.0704  1.6472
 5212SOL     OW27097   3.326   3.828   3.753  0.1673  0.6763 -0.1146
 5212SOL    HW127098   3.269   3.835   3.830  1.1691 -1.6379  0.8637
 5212SOL    HW227099   3.400   3.782   3.794 -1.8996 -2.3642  0.2433
 5213SOL     OW27100   0.398   2.836   7.730 -0.4091 -0.1335 -0.4296
 5213SOL    HW127101   0.350   2.910   7.768 -0.1948  0.0281 -0.4696
 5213SOL    HW227102   0.398   2.769   7.798  0.6918  0.6713  0.3746
 5214SOL     OW27103   1.368   2.979   1.416  0.0691 -0.4586  0.6240
 5214SOL    HW127104   1.350   2.961   1.324  0.6422  0.1814  0.3824
 5214SOL    HW227105   1.288   2.953   1.462  1.0082 -2.3036  1.2190
 5215SOL     OW27106   0.222   3.496   0.823  0.5344  0.1785  0.3670
 5215SOL    HW127107   0.297   3.552   0.803 -0.6309  0.6185 -2.7442
 5215SOL    HW227108   0.156   3.558   0.856 -0.5840 -2.0921  2.3713
 5216SOL     OW27109   0.465   2.931  11.488  0.3864  0.1699  0.1069
 5216SOL    HW127110   0.376   2.931  11.454  0.4414  2.7353 -0.0198
 5216SOL    HW227111   0.459   2.923  11.583 -1.5142  0.4617 -0.0003
 5217SOL     OW27112   2.902   4.110   2.436  0.0514 -0.2203 -0.0301
 5217SOL    HW127113   2.921   4.143   2.524 -0.5919 -0.3821  0.1695
 5217SOL    HW227114   2.934   4.182   2.381 -0.4056 -1.0795 -1.4151
 5218SOL     OW27115   4.223   3.675   6.492  0.0417  0.1090  0.1589
 5218SOL    HW127116   4.216   3.582   6.471  0.2165 -0.2932  1.8854
 5218SOL    HW227117   4.315   3.685   6.515 -0.1651  0.1469  0.9992
 5219SOL     OW27118   2.641   0.062   4.913 -0.0349 -0.6428  0.0335
 5219SOL    HW127119   2.689   0.078   4.832 -0.3298 -1.5947 -0.3293
 5219SOL    HW227120   2.591   0.144   4.921  1.3384  0.1442  0.4691
 5220SOL     OW27121   3.396   0.423  17.223 -0.4245 -0.0161 -0.1138
 5220SOL    HW127122   3.430   0.370  17.295 -0.3759  1.0247  0.6279
 5220SOL    HW227123   3.318   0.469  17.255 -1.8637 -0.7639 -2.5624
 5221SOL     OW27124   2.824   4.615   2.027  0.7322  0.1304 -0.2582
 5221SOL    HW127125   2.831   4.520   2.015 -2.1550 -0.2701  1.2079
 5221SOL    HW227126   2.735   4.633   1.994  0.1978  3.3937  3.0270
 5222SOL     OW27127   3.427   0.392   3.701  0.0558 -0.3600  0.4316
 5222SOL    HW127128   3.444   0.462   3.764  0.2479  0.8120 -0.8990
 5222SOL    HW227129   3.515   0.363   3.676  0.4906  2.4427 -1.3732
 5223SOL     OW27130   2.119   4.354   0.464  0.2247  0.0738 -0.1488
 5223SOL    HW127131   2.097   4.427   0.406  1.4461 -1.2997 -2.3370
 5223SOL    HW227132   2.214   4.354   0.451  0.1771 -1.8821 -0.5158
 5224SOL     OW27133   3.575   2.312   3.123 -0.4741  0.2669 -0.4712
 5224SOL    HW127134   3.544   2.386   3.071 -0.2869  0.3314 -0.4914
 5224SOL    HW227135   3.500   2.314   3.182  0.6033 -1.1252  0.9665
 5225SOL     OW27136   4.497   1.961  17.258  0.3872 -0.1584 -0.0135
 5225SOL    HW127137   4.437   1.997  17.192  1.6045  0.7951 -0.6009
 5225SOL    HW227138   4.567   2.026  17.260  0.8970 -0.7196  0.0656
 5226SOL     OW27139   0.048   3.672   7.178  0.5717  0.2461  0.8436
 5226SOL    HW127140   0.132   3.647   7.140  0.4025 -1.2707  1.4920
 5226SOL    HW227141   4.712   3.600   7.153  1.2961 -0.1203  0.2623
 5227SOL     OW27142   3.261   0.210   2.981 -0.2956  0.0653  0.0465
 5227SOL    HW127143   3.196   0.263   2.934 -0.3680  0.4960  0.6234
 5227SOL    HW227144   3.336   0.269   2.980  1.2900 -1.9390 -0.5180
 5228SOL     OW27145   3.516   0.303  15.117  0.1067 -0.3688 -0.5188
 5228SOL    HW127146   3.497   0.209  15.114  0.5801 -0.4796  0.0704
 5228SOL    HW227147   3.605   0.300  15.151  0.2876  0.5231 -0.9159
 5229SOL     OW27148   1.941   0.522  16.219  0.1008 -0.2494  0.3368
 5229SOL    HW127149   1.923   0.586  16.150  3.4154  1.4607  1.0705
 5229SOL    HW227150   1.880   0.549  16.288 -0.7082  0.1824 -0.5343
 5230SOL     OW27151   4.497   1.765  14.369 -0.1467 -0.6407  0.0316
 5230SOL    HW127152   4.539   1.724  14.293 -2.1672  0.4109 -1.6878
 5230SOL    HW227153   4.577   1.797  14.411  1.6663 -0.8865 -3.2009
 5231SOL     OW27154   3.809   3.635   9.923  0.0316  0.3362  0.1622
 5231SOL    HW127155   3.802   3.722   9.884  0.6805  1.2816  2.1472
 5231SOL    HW227156   3.900   3.642   9.951  0.3166 -1.1635 -0.4246
 5232SOL     OW27157   2.990   2.467   7.989 -0.3010  0.3157  0.4782
 5232SOL    HW127158   2.900   2.497   7.998 -0.3498  0.3671 -0.1915
 5232SOL    HW227159   2.970   2.431   7.903 -0.9865  0.8058  0.4338
 5233SOL     OW27160   0.352   2.165   9.360  0.1470  0.1073  0.0714
 5233SOL    HW127161   0.441   2.133   9.372  0.4013  0.4260 -0.9575
 5233SOL    HW227162   0.339   2.228   9.432 -1.3103 -0.5076  0.3414
 5234SOL     OW27163   2.742   2.155  17.091  0.5207  0.0142 -0.1483
 5234SOL    HW127164   2.781   2.236  17.124 -0.8592 -0.3108  2.2040
 5234SOL    HW227165   2.821   2.122  17.047  0.5232  0.7461 -0.7044
 5235SOL     OW27166   3.447   3.993   5.183 -0.6741 -0.4191 -0.2729
 5235SOL    HW127167   3.425   4.067   5.126 -0.3089  1.0924  1.5566
 5235SOL    HW227168   3.360   3.960   5.207 -0.7127 -0.5330 -0.5628
 5236SOL     OW27169   1.411   1.741   7.927  0.8173 -0.0525 -0.4831
 5236SOL    HW127170   1.324   1.735   7.966  1.1386 -2.2531 -0.0982
 5236SOL    HW227171   1.399   1.723   7.834  2.6714 -0.5189 -0.6440
 5237SOL     OW27172   2.374   0.746   0.788 -0.1623  0.2736 -1.0257
 5237SOL    HW127173   2.397   0.788   0.871 -0.4975  1.0719 -1.3393
 5237SOL    HW227174   2.302   0.691   0.821 -0.0970 -0.4230 -2.0603
 5238SOL     OW27175   1.281   3.436   0.828 -0.1673 -0.3332 -0.2376
 5238SOL    HW127176   1.308   3.344   0.819 -0.4348 -0.3729 -0.6397
 5238SOL    HW227177   1.331   3.471   0.754  1.4584 -1.5961  0.2621
 5239SOL     OW27178   4.163   3.897  14.738  0.3987  0.2290  0.0928
 5239SOL    HW127179   4.163   3.803  14.754 -4.2079  0.1821 -0.1423
 5239SOL    HW227180   4.249   3.920  14.774  0.5943 -2.9068  1.6441
 5240SOL     OW27181   1.594   4.380   8.685  0.0950 -0.8246 -0.2371
 5240SOL    HW127182   1.541   4.446   8.730 -0.3169 -1.8339  0.7465
 5240SOL    HW227183   1.639   4.431   8.618  0.6964  1.8365  2.1703
 5241SOL     OW27184   4.588   1.231   0.967  0.4176 -0.2706 -0.1012
 5241SOL    HW127185   4.606   1.140   0.991 -0.8189 -1.0655 -2.1431
 5241SOL    HW227186   4.638   1.248   0.887 -0.1474 -0.8308 -0.5793
 5242SOL     OW27187   2.640   4.690   4.314 -0.0750  0.3592  0.1373
 5242SOL    HW127188   2.587   0.046   4.296  0.9634  0.6340 -1.7184
 5242SOL    HW227189   2.714   4.714   4.258  0.1821  1.6988  1.0553
 5243SOL     OW27190   2.947   0.988   2.713  0.5874 -0.1870 -0.0258
 5243SOL    HW127191   2.892   1.044   2.659  1.0711 -1.1656 -1.5304
 5243SOL    HW227192   2.928   1.014   2.803  1.2444  3.9159 -1.1007
 5244SOL     OW27193   2.343   4.686   2.015  0.1116  0.5752  0.5538
 5244SOL    HW127194   2.341   0.045   1.963 -1.9199  0.1542 -0.0139
 5244SOL    HW227195   2.425   4.645   1.985 -1.2274 -1.2986 -0.5909
 5245SOL     OW27196   1.957   1.620   4.856  0.1047  0.3254 -0.5640
 5245SOL    HW127197   2.039   1.588   4.892 -1.1480  0.0857  2.0727
 5245SOL    HW227198   1.903   1.544   4.875  2.2348 -0.7490  1.0905
 5246SOL     OW27199   2.864   1.735   4.817  0.0242 -0.3552 -0.2435
 5246SOL    HW127200   2.899   1.762   4.733  0.8573  3.3177  1.2877
 5246SOL    HW227201   2.828   1.815   4.856  2.0244 -0.5939  2.1346
 5247SOL     OW27202   4.362   0.716   2.925  0.1386  0.0661  0.1519
 5247SOL    HW127203   4.291   0.765   2.966  1.2771  2.0012 -0.1750
 5247SOL    HW227204   4.433   0.780   2.918  1.0056 -1.2363 -2.9722
 5248SOL     OW27205   1.939   4.449   8.457 -0.1160 -0.0212 -0.8490
 5248SOL    HW127206   1.855   4.493   8.467 -0.5359 -1.2184  0.9716
 5248SOL    HW227207   2.000   4.521   8.467  1.9506 -1.9499  0.5287
 5249SOL     OW27208   2.369   1.032  17.063  0.6169 -0.1398 -0.0822
 5249SOL    HW127209   2.315   1.045  16.985 -2.2462 -0.6865  1.8118
 5249SOL    HW227210   2.420   1.112  17.075 -2.1215  1.4511  0.9433
 5250SOL     OW27211   0.518   0.194   6.058  0.1714 -0.2883 -0.0524
 5250SOL    HW127212   0.505   0.101   6.074  0.5146 -0.6872 -2.1003
 5250SOL    HW227213   0.611   0.195   6.080  0.1514  1.1429  0.0117
 5251SOL     OW27214   3.552   4.600   1.606 -0.0309  0.3790  0.2775
 5251SOL    HW127215   3.525   4.639   1.523 -0.1210  1.1895  0.6894
 5251SOL    HW227216   3.546   4.680   1.659 -0.6689 -1.2299  2.6306
 5252SOL     OW27217   2.620   4.338   5.862  0.7407  0.2509  0.2857
 5252SOL    HW127218   2.677   4.415   5.848 -0.7715  1.3910  0.4420
 5252SOL    HW227219   2.578   4.339   5.776  0.9567  0.1074  0.1786
 5253SOL     OW27220   2.779   1.248   3.477 -0.4990 -0.3593 -0.1733
 5253SOL    HW127221   2.687   1.252   3.505 -0.5225 -1.9271 -0.0504
 5253SOL    HW227222   2.759   1.224   3.386  0.1501 -0.1799 -0.3648
 5254SOL     OW27223   2.498   2.021   7.810  0.3069 -0.5010 -0.2473
 5254SOL    HW127224   2.514   2.083   7.739 -0.7918 -1.8920 -1.6785
 5254SOL    HW227225   2.445   2.085   7.859  0.0770 -1.4300  0.7176
 5255SOL     OW27226   4.150   0.018   1.624 -0.2799 -0.2546 -0.0513
 5255SOL    HW127227   4.058   0.004   1.600 -0.5542 -1.8030  1.8979
 5255SOL    HW227228   4.184   4.654   1.595  1.3953  0.2883  0.3165
 5256SOL     OW27229   0.521   4.391   8.128 -0.1641 -0.3298  0.0718
 5256SOL    HW127230   0.482   4.336   8.060 -1.5116  0.3523  0.2979
 5256SOL    HW227231   0.600   4.414   8.079  0.4295 -3.3888 -0.4204
 5257SOL     OW27232   1.307   2.017   1.012 -0.4419 -0.5017 -0.2909
 5257SOL    HW127233   1.390   2.047   0.974 -0.1519 -0.4491  0.3796
 5257SOL    HW227234   1.280   2.103   1.043  2.1505  0.0521  0.4838
 5258SOL     OW27235   1.473   0.793   8.074 -0.3626  0.5312 -0.1996
 5258SOL    HW127236   1.478   0.876   8.120  0.0405  0.2958  0.1793
 5258SOL    HW227237   1.566   0.787   8.050 -0.5117 -0.9049 -0.4311
 5259SOL     OW27238   1.457   3.389   6.464  0.0010 -0.7021  0.4377
 5259SOL    HW127239   1.378   3.441   6.454  0.7704  0.5348  0.7138
 5259SOL    HW227240   1.468   3.369   6.371  0.4900  3.2312 -0.3544
 5260SOL     OW27241   2.643   4.721   5.985  0.3495 -0.0376  0.0589
 5260SOL    HW127242   2.577   0.061   5.953  1.7399 -0.0069 -2.7984
 5260SOL    HW227243   2.649   0.021   6.078 -1.0619 -1.1580  0.4047
 5261SOL     OW27244   2.612   4.415   0.698 -0.1427 -0.0317  0.1384
 5261SOL    HW127245   2.637   4.346   0.637  1.1816  1.3833 -0.9179
 5261SOL    HW227246   2.569   4.362   0.766 -1.6486  0.2820 -0.5670
 5262SOL     OW27247   0.142   3.943   2.668 -0.1534  0.5189  0.5892
 5262SOL    HW127248   0.197   3.948   2.746  0.8432  0.3130 -0.0971
 5262SOL    HW227249   0.100   4.029   2.667 -1.1043  0.0514 -0.8686
 5263SOL     OW27250   1.207   4.419  10.838 -0.1652 -0.0844 -0.0253
 5263SOL    HW127251   1.175   4.341  10.794  1.7578 -1.6741  1.3639
 5263SOL    HW227252   1.295   4.414  10.800  0.3268 -0.7652  1.1981
 5264SOL     OW27253   3.522   3.784  10.976  0.0580 -0.1983 -0.0751
 5264SOL    HW127254   3.589   3.716  10.971  0.1750 -0.1601  1.1445
 5264SOL    HW227255   3.540   3.820  10.889 -2.4039 -1.7961 -1.2698
 5265SOL     OW27256   1.348   0.679   3.150 -0.3185 -0.1453 -0.0573
 5265SOL    HW127257   1.297   0.713   3.224  0.7896  1.2239  0.0805
 5265SOL    HW227258   1.431   0.724   3.169 -0.1044 -1.4062  2.0647
 5266SOL     OW27259   1.075   2.845  15.112 -0.2504  0.2103  0.1060
 5266SOL    HW127260   1.090   2.751  15.104  2.7359  0.7806 -0.7278
 5266SOL    HW227261   1.144   2.891  15.066 -0.7246 -2.1638 -2.9239
 5267SOL     OW27262   2.584   3.878  17.320 -0.2048  0.3595  0.3259
 5267SOL    HW127263   2.635   3.872  17.400 -0.9064  0.4942  0.7842
 5267SOL    HW227264   2.497   3.905  17.350 -0.7548 -0.8094 -0.2022
 5268SOL     OW27265   2.514   1.596   2.035 -0.4366  0.4441 -0.3219
 5268SOL    HW127266   2.534   1.676   1.986  0.4172  0.0007 -0.6816
 5268SOL    HW227267   2.562   1.608   2.117  0.7219  0.8843 -1.0727
 5269SOL     OW27268   0.635   4.147   4.470  0.0708 -0.6390  0.2614
 5269SOL    HW127269   0.645   4.231   4.424  2.5344  1.0842  3.9375
 5269SOL    HW227270   0.617   4.174   4.560 -0.0673  0.6738 -0.1625
 5270SOL     OW27271   4.392   4.026   9.653  0.2705 -0.1412  0.2000
 5270SOL    HW127272   4.459   4.094   9.660  0.9846 -0.6744 -1.4989
 5270SOL    HW227273   4.313   4.070   9.684 -0.1057 -1.0076  0.4481
 5271SOL     OW27274   1.252   2.668   3.605  0.0322 -0.1567 -0.3704
 5271SOL    HW127275   1.189   2.601   3.580 -1.0774  2.0350 -3.3835
 5271SOL    HW227276   1.301   2.687   3.525 -0.2500  3.2734  0.2612
 5272SOL     OW27277   3.621   1.739  13.185  0.3957  0.6021  0.1472
 5272SOL    HW127278   3.539   1.780  13.158  0.5638 -0.1777 -1.4829
 5272SOL    HW227279   3.651   1.798  13.255  0.3405  1.2491 -0.3724
 5273SOL     OW27280   2.689   4.124   3.636  0.1798 -0.7761  0.1978
 5273SOL    HW127281   2.598   4.118   3.607  0.4985 -1.4835 -0.6379
 5273SOL    HW227282   2.698   4.219   3.641  0.4655 -0.8309  0.7637
 5274SOL     OW27283   0.543   0.923   7.792  0.5475  0.0001 -0.4600
 5274SOL    HW127284   0.492   0.876   7.727  3.1548 -1.6990 -1.2800
 5274SOL    HW227285   0.497   0.905   7.873  0.5079  1.2023 -0.2037
 5275SOL     OW27286   3.970   2.071   2.024  0.1234 -0.2160  0.2833
 5275SOL    HW127287   3.877   2.070   2.000  1.1903 -0.5687 -3.9017
 5275SOL    HW227288   3.973   1.977   2.041  2.8190 -0.8020 -3.2631
 5276SOL     OW27289   0.386   3.632  15.131  0.0452 -0.7300 -0.4618
 5276SOL    HW127290   0.471   3.657  15.094  0.7617  0.3640  1.9284
 5276SOL    HW227291   0.380   3.550  15.083  0.8690 -1.7748  1.2332
 5277SOL     OW27292   2.124   0.924   6.029 -0.0253 -0.7045  0.2321
 5277SOL    HW127293   2.129   1.006   5.980  1.6372 -0.2599  1.1208
 5277SOL    HW227294   2.215   0.893   6.034  0.3877  0.5192  0.3494
 5278SOL     OW27295   1.332   3.089   6.260  0.2330  0.0001  0.7130
 5278SOL    HW127296   1.371   3.173   6.235 -1.2200  0.3556 -0.3599
 5278SOL    HW227297   1.371   3.028   6.197 -1.2468  0.0979 -0.3062
 5279SOL     OW27298   1.921   0.817   3.756 -0.7354  0.3760 -0.4402
 5279SOL    HW127299   1.881   0.732   3.743  0.9113 -0.6178  1.0416
 5279SOL    HW227300   1.840   0.860   3.782 -1.1187 -1.0275  0.6561
 5280SOL     OW27301   3.372   1.946   2.628 -0.1659  0.3632 -0.0113
 5280SOL    HW127302   3.457   1.904   2.643 -0.2510  0.8342  1.7083
 5280SOL    HW227303   3.309   1.874   2.623  0.8036 -0.3653 -1.8916
 5281SOL     OW27304   1.156   2.792   6.451  0.2280  0.1377 -0.2112
 5281SOL    HW127305   1.174   2.799   6.357  1.4763  1.3078  0.1099
 5281SOL    HW227306   1.237   2.746   6.473  0.2259 -0.9247 -2.3441
 5282SOL     OW27307   1.513   3.393   5.273 -0.8377 -0.3614  0.1829
 5282SOL    HW127308   1.472   3.469   5.313  0.2142  0.5981 -0.5639
 5282SOL    HW227309   1.455   3.378   5.198 -1.3921  0.0662  0.5312
 5283SOL     OW27310   4.700   2.962  13.901  0.0508  0.0790  0.3669
 5283SOL    HW127311   4.652   3.022  13.957  1.2140  0.9254  0.4503
 5283SOL    HW227312   0.069   2.979  13.928  0.6720 -1.3570 -0.7904
 5284SOL     OW27313   2.753   4.384  14.443 -0.4157  0.5010 -0.4588
 5284SOL    HW127314   2.664   4.372  14.476 -0.4273  0.8840 -0.3534
 5284SOL    HW227315   2.799   4.364  14.524  0.3652 -0.9488 -1.2544
 5285SOL     OW27316   2.266   2.395   9.845 -0.5238  0.2409 -0.2007
 5285SOL    HW127317   2.288   2.374   9.936  1.0304 -0.7003 -0.7938
 5285SOL    HW227318   2.254   2.490   9.856  1.0425  0.5062 -0.7585
 5286SOL     OW27319   3.535   0.966   8.053 -0.8767  0.3562 -0.4216
 5286SOL    HW127320   3.595   0.913   8.105 -3.0027 -0.5487  1.0980
 5286SOL    HW227321   3.559   1.058   8.063 -1.0811  0.0358  2.8267
 5287SOL     OW27322   4.243   2.922   2.642 -0.3082  0.1384 -0.2953
 5287SOL    HW127323   4.212   3.001   2.686  1.9161 -0.6696  2.6625
 5287SOL    HW227324   4.279   2.964   2.564  2.3799  1.8925  1.9134
 5288SOL     OW27325   4.024   3.864   6.673 -0.5825  0.4349 -0.0128
 5288SOL    HW127326   3.991   3.826   6.754 -0.8780 -0.2602 -0.4566
 5288SOL    HW227327   4.044   3.790   6.616  1.2389  2.5724 -2.2176
 5289SOL     OW27328   4.228   2.554  14.936  0.4980 -0.1363 -0.4515
 5289SOL    HW127329   4.154   2.520  14.886  1.1143 -1.0988 -0.6926
 5289SOL    HW227330   4.264   2.633  14.897  1.5429  0.7042  2.2132
 5290SOL     OW27331   4.486   0.725   8.301  0.3793  0.5809 -0.4322
 5290SOL    HW127332   4.537   0.756   8.227  0.5413  0.5369 -0.3388
 5290SOL    HW227333   4.450   0.638   8.280 -1.2343  1.2262 -0.3616
 5291SOL     OW27334   2.087   2.055   6.698  0.5421  0.2410  0.0674
 5291SOL    HW127335   2.049   2.135   6.736 -1.2815 -0.3009 -0.6082
 5291SOL    HW227336   2.070   1.998   6.774  2.7881  1.1989  1.2724
 5292SOL     OW27337   1.248   0.114   5.180  0.1049 -0.2812 -0.0943
 5292SOL    HW127338   1.195   0.167   5.121 -1.4436 -0.5472  1.0662
 5292SOL    HW227339   1.222   0.137   5.270  0.3459  1.7941 -0.5409
 5293SOL     OW27340   1.664   0.504   8.884  0.1286 -0.4971  0.3876
 5293SOL    HW127341   1.746   0.511   8.835  0.1498  2.8316  0.9494
 5293SOL    HW227342   1.692   0.538   8.968 -0.6772  1.9403 -0.3417
 5294SOL     OW27343   1.339   4.427  11.671 -0.3570  0.3467 -0.2106
 5294SOL    HW127344   1.301   4.470  11.595  0.8052  1.2337 -0.2685
 5294SOL    HW227345   1.430   4.455  11.671  0.2578 -1.6579  0.1031
 5295SOL     OW27346   2.797   2.784   8.263 -0.4137  0.5872 -0.2151
 5295SOL    HW127347   2.781   2.819   8.351 -0.2770  0.1260 -0.0056
 5295SOL    HW227348   2.752   2.700   8.270  0.1752  0.2179 -0.8695
 5296SOL     OW27349   3.193   0.124   2.144 -0.1715  0.6656  0.3592
 5296SOL    HW127350   3.123   0.068   2.176 -1.6208  2.8716  1.0385
 5296SOL    HW227351   3.168   0.214   2.164  0.8679  1.5227 -2.1004
 5297SOL     OW27352   0.907   0.589   8.690 -0.0467 -0.2564  0.6025
 5297SOL    HW127353   0.922   0.526   8.760 -0.4342 -0.6320  0.3472
 5297SOL    HW227354   0.996   0.589   8.654 -1.1636 -0.9693 -2.1859
 5298SOL     OW27355   1.260   1.812  16.126  0.0285 -0.0285 -0.0141
 5298SOL    HW127356   1.219   1.899  16.121 -2.4439 -1.3744 -2.9249
 5298SOL    HW227357   1.325   1.823  16.057 -1.0809  0.0396 -1.0484
 5299SOL     OW27358   2.869   0.156   1.889  0.5172  0.0725  0.0547
 5299SOL    HW127359   2.871   0.063   1.911  0.0916  0.0086 -0.1926
 5299SOL    HW227360   2.905   0.152   1.801  2.6616 -1.0767  0.9588
 5300SOL     OW27361   0.774   0.155   4.477 -0.0796  0.6031 -0.0543
 5300SOL    HW127362   0.753   0.248   4.478 -2.1727  0.1705 -2.1937
 5300SOL    HW227363   0.789   0.147   4.382  0.2950 -1.2343  0.1678
 5301SOL     OW27364   2.945   1.328   3.096  0.9653  0.8127 -0.5360
 5301SOL    HW127365   3.011   1.331   3.165  1.3106  0.3237 -0.8405
 5301SOL    HW227366   2.920   1.421   3.090 -1.8057 -0.0181 -1.7113
 5302SOL     OW27367   4.510   3.016   0.652  0.0671 -0.2421  0.0748
 5302SOL    HW127368   4.475   3.022   0.741  0.6012  0.7937  0.2096
 5302SOL    HW227369   4.433   3.008   0.596  0.5280 -1.2133 -0.4196
 5303SOL     OW27370   3.192   3.085   8.645 -0.3961  0.4342  0.0406
 5303SOL    HW127371   3.260   3.039   8.596  0.4055  0.3874  1.1826
 5303SOL    HW227372   3.123   3.088   8.579 -0.8854 -0.8745  0.5034
 5304SOL     OW27373   3.264   3.806  11.019  0.2322  0.2394 -0.2079
 5304SOL    HW127374   3.276   3.838  10.929 -1.5514  0.1930 -0.4665
 5304SOL    HW227375   3.356   3.792  11.041  0.0712 -0.3217  0.1079
 5305SOL     OW27376   3.528   4.502   3.872  0.6908 -0.3366  0.1059
 5305SOL    HW127377   3.570   4.461   3.797  1.7251 -1.4046  1.2688
 5305SOL    HW227378   3.444   4.456   3.870  0.2525  0.4272  0.9808
 5306SOL     OW27379   4.386   0.430   2.293  0.1853 -0.1538  0.5907
 5306SOL    HW127380   4.408   0.482   2.216 -0.1875 -0.5446  0.2217
 5306SOL    HW227381   4.304   0.466   2.328 -1.4698 -1.4744 -1.9367
 5307SOL     OW27382   0.677   3.883   6.886  0.0866  1.1200  0.4084
 5307SOL    HW127383   0.749   3.943   6.864  1.7039 -1.2019 -0.6884
 5307SOL    HW227384   0.707   3.866   6.976 -1.4236 -1.9023  0.3377
 5308SOL     OW27385   2.902   2.146   4.570  0.1350  0.2168  0.3527
 5308SOL    HW127386   2.857   2.176   4.491 -1.6036 -0.8661  0.9443
 5308SOL    HW227387   2.946   2.070   4.532  1.7985  0.8260  1.0268
 5309SOL     OW27388   1.980   4.069  13.835  0.5311  0.1575 -0.2066
 5309SOL    HW127389   1.898   4.028  13.865  0.1765  0.6100 -0.5658
 5309SOL    HW227390   2.034   4.038  13.908  1.6844 -1.1528 -1.6249
 5310SOL     OW27391   2.291   1.290   2.103  0.1696  0.1029 -0.2197
 5310SOL    HW127392   2.280   1.281   2.008 -2.0560 -2.2108  0.2551
 5310SOL    HW227393   2.381   1.264   2.121  0.6900  1.1573 -1.3206
 5311SOL     OW27394   4.539   3.499  15.169  0.4202 -0.0856  0.6337
 5311SOL    HW127395   4.495   3.549  15.237 -0.1558 -0.1226  0.2928
 5311SOL    HW227396   4.631   3.497  15.196  0.4132 -2.8902  0.4301
 5312SOL     OW27397   1.758   1.633   2.598  0.4612  0.2679  0.4434
 5312SOL    HW127398   1.689   1.642   2.663  1.7112 -0.1743  1.8211
 5312SOL    HW227399   1.705   1.597   2.527 -1.1827  1.6442  0.9658
 5313SOL     OW27400   0.364   0.022   9.748  0.0738 -0.2026 -0.0781
 5313SOL    HW127401   0.273   0.025   9.719  0.6548  0.9359 -1.8449
 5313SOL    HW227402   0.380   0.106   9.791  2.5209 -1.5261  1.5953
 5314SOL     OW27403   4.300   0.707   6.711  0.3373  0.3191  0.4638
 5314SOL    HW127404   4.263   0.736   6.794 -1.7334 -3.7360  0.9398
 5314SOL    HW227405   4.320   0.617   6.735  0.6561  1.0441  2.9243
 5315SOL     OW27406   1.013   4.572   3.101  0.4197  0.1338  0.4998
 5315SOL    HW127407   0.973   4.606   3.021  1.6666  1.1436  0.3213
 5315SOL    HW227408   1.036   4.481   3.081  1.0398  1.3589 -4.3144
 5316SOL     OW27409   1.427   4.277  13.845  0.1418 -0.4225  0.0998
 5316SOL    HW127410   1.340   4.291  13.883  0.1025 -1.4539  0.3943
 5316SOL    HW227411   1.437   4.182  13.840 -0.3499 -0.5266  1.0938
 5317SOL     OW27412   3.270   1.225  17.068 -0.3361 -0.3340  0.7413
 5317SOL    HW127413   3.302   1.136  17.053 -2.9995 -1.0922 -0.3011
 5317SOL    HW227414   3.246   1.228  17.161  0.8122 -1.0075  1.0655
 5318SOL     OW27415   0.307   1.518   7.366  0.9936 -0.0254 -0.3622
 5318SOL    HW127416   0.217   1.488   7.362  0.1789  2.6200 -2.3561
 5318SOL    HW227417   0.300   1.594   7.425  1.1494  1.5988 -2.4094
 5319SOL     OW27418   3.271   0.720  14.182  0.8353 -0.5543  0.0656
 5319SOL    HW127419   3.231   0.660  14.119 -2.7121  0.5940  1.2352
 5319SOL    HW227420   3.201   0.739  14.244  1.6550 -2.4247  1.5489
 5320SOL     OW27421   1.572   0.316   3.340  0.6604 -0.0353 -0.2027
 5320SOL    HW127422   1.497   0.301   3.283  1.1495 -0.5602 -0.7126
 5320SOL    HW227423   1.609   0.228   3.333  0.2132 -0.3660  1.6921
 5321SOL     OW27424   4.287   0.017   8.498  0.0954 -0.2375 -0.3378
 5321SOL    HW127425   4.240   4.709   8.420 -1.0928 -1.9045  0.9872
 5321SOL    HW227426   4.354   4.672   8.515 -1.3848 -2.0735 -1.7068
 5322SOL     OW27427   3.689   3.120   5.709 -0.4448  0.1908  0.0616
 5322SOL    HW127428   3.767   3.110   5.654 -0.2326  0.3925  0.3248
 5322SOL    HW227429   3.723   3.147   5.795 -2.0365  3.1077 -0.2163
 5323SOL     OW27430   4.633   2.345   0.256  0.0687 -0.1322 -0.0800
 5323SOL    HW127431   4.687   2.413   0.216  2.1279 -1.3619  0.6033
 5323SOL    HW227432   4.553   2.396   0.248 -0.4728 -1.0847 -0.6414
 5324SOL     OW27433   0.360   0.832   1.333 -0.3442 -0.0633 -0.2542
 5324SOL    HW127434   0.286   0.869   1.284 -0.8394 -0.7923 -0.0642
 5324SOL    HW227435   0.346   0.856   1.425 -0.1369  0.5032 -0.3678
 5325SOL     OW27436   3.878   0.204   8.731  0.0440 -0.0612  0.2569
 5325SOL    HW127437   3.935   0.129   8.711 -0.2562 -0.1762 -0.1814
 5325SOL    HW227438   3.802   0.176   8.680  0.7669  1.1984 -1.5406
 5326SOL     OW27439   0.200   4.717   6.826  0.3013  0.1019  0.0872
 5326SOL    HW127440   0.260   4.675   6.887  0.7916  2.5078  1.2597
 5326SOL    HW227441   0.246   0.066   6.781  1.9058 -1.7780 -1.1990
 5327SOL     OW27442   2.705   0.623   8.359  0.1130  0.2028  0.0258
 5327SOL    HW127443   2.778   0.561   8.361 -0.5189 -0.5787 -1.8067
 5327SOL    HW227444   2.722   0.675   8.438  0.7495 -0.5771  0.4051
 5328SOL     OW27445   4.161   1.137   7.546 -0.2232  0.5675 -0.3082
 5328SOL    HW127446   4.186   1.226   7.520 -0.6666  0.1425 -2.1936
 5328SOL    HW227447   4.071   1.152   7.574  0.5375  0.6196  2.1509
 5329SOL     OW27448   4.527   3.814  15.304 -0.0071  0.4260  0.1860
 5329SOL    HW127449   4.511   3.727  15.340 -0.5521 -0.0015 -1.0885
 5329SOL    HW227450   4.504   3.868  15.379 -1.7781 -0.9670  0.6302
 5330SOL     OW27451   1.166   3.191   5.165 -0.0589 -0.0170  0.3327
 5330SOL    HW127452   1.260   3.202   5.149 -0.5176  0.2817 -2.1006
 5330SOL    HW227453   1.131   3.265   5.116  1.0544  1.3025  1.4973
 5331SOL     OW27454   0.055   3.725   8.680 -0.2298 -0.7289  0.1456
 5331SOL    HW127455   0.023   3.711   8.769  0.6865 -1.1543  0.4002
 5331SOL    HW227456   0.146   3.703   8.699  0.6647  1.4789 -1.6089
 5332SOL     OW27457   0.664   1.406   7.677 -0.3833  0.2048 -0.3995
 5332SOL    HW127458   0.663   1.311   7.695 -0.8183  0.1062 -0.9391
 5332SOL    HW227459   0.719   1.428   7.752  0.6153 -0.4070 -0.9536
 5333SOL     OW27460   1.762   0.067   1.766 -0.2777 -0.3230 -0.2335
 5333SOL    HW127461   1.800   0.070   1.853  2.6040 -1.0634 -1.4637
 5333SOL    HW227462   1.842   0.050   1.716 -0.9950  0.1441 -1.5547
 5334SOL     OW27463   3.001   0.330   7.252 -0.2340 -0.1151 -0.8707
 5334SOL    HW127464   2.987   0.381   7.332 -0.9771 -1.6933 -0.0001
 5334SOL    HW227465   2.924   0.274   7.247  0.2745 -0.7882 -1.1408
 5335SOL     OW27466   3.952   4.558   5.437  0.2215 -0.0753  0.5384
 5335SOL    HW127467   4.017   4.590   5.500  0.3007 -0.0870  0.4629
 5335SOL    HW227468   3.978   4.470   5.410  0.0228 -0.5644  1.9140
 5336SOL     OW27469   4.123   4.487   5.960 -0.0600  0.6860  0.3946
 5336SOL    HW127470   4.115   4.460   6.052 -2.3855  0.5706  0.1703
 5336SOL    HW227471   4.216   4.467   5.951 -0.2736 -0.3637  0.5846
 5337SOL     OW27472   2.501   1.840   0.555  0.2393 -0.0014  0.0610
 5337SOL    HW127473   2.543   1.924   0.535  0.8673 -0.3507 -0.1151
 5337SOL    HW227474   2.571   1.777   0.575 -0.1615 -0.0542  1.2658
 5338SOL     OW27475   0.638   2.011   6.827  0.5673  0.0537  0.3213
 5338SOL    HW127476   0.661   1.948   6.895 -0.1944 -1.6097 -0.9919
 5338SOL    HW227477   0.546   1.988   6.815  0.5787  0.4460 -0.4835
 5339SOL     OW27478   3.810   3.234   5.958  0.7105 -0.2520 -0.1560
 5339SOL    HW127479   3.762   3.310   5.991 -0.8182 -1.4153  0.2932
 5339SOL    HW227480   3.900   3.268   5.954 -0.2213  2.3726  0.7657
 5340SOL     OW27481   0.861   4.216   6.477 -0.5827  0.5371 -0.0341
 5340SOL    HW127482   0.866   4.122   6.458 -2.8565  0.0929  1.6290
 5340SOL    HW227483   0.819   4.209   6.563  0.0054  0.3290  0.2341
 5341SOL     OW27484   2.602   2.401   9.890 -0.1964 -0.4274 -0.1604
 5341SOL    HW127485   2.507   2.403   9.878 -0.2190 -1.7914 -0.1370
 5341SOL    HW227486   2.619   2.308   9.879  2.3368 -0.0282  0.4325
 5342SOL     OW27487   2.284   2.783   4.227  0.1175 -0.1117 -0.4178
 5342SOL    HW127488   2.236   2.701   4.237  1.9463 -0.9882  1.2182
 5342SOL    HW227489   2.217   2.847   4.250  0.8241 -0.2742  2.1531
 5343SOL     OW27490   0.272   2.019   6.974  0.0383 -0.0868  0.6653
 5343SOL    HW127491   0.246   1.960   6.903 -2.1437  0.8802  0.6563
 5343SOL    HW227492   0.250   1.964   7.049  1.7245  0.7356  1.7488
 5344SOL     OW27493   3.733   3.060  16.492 -0.1065  0.3102  0.0305
 5344SOL    HW127494   3.793   2.995  16.529 -0.4383 -0.0697 -0.1018
 5344SOL    HW227495   3.685   3.084  16.570 -1.1269 -1.5175 -0.0235
 5345SOL     OW27496   0.550   0.625   0.476 -0.0773  0.2223  0.0586
 5345SOL    HW127497   0.571   0.718   0.484 -1.7292  0.7207 -1.4324
 5345SOL    HW227498   0.638   0.603   0.444 -0.6848  0.1260 -1.5555
 5346SOL     OW27499   4.377   3.986   4.304 -0.7851  0.1105 -0.6609
 5346SOL    HW127500   4.435   4.058   4.329 -0.7379  1.7872 -5.4474
 5346SOL    HW227501   4.377   3.940   4.387  0.0696  0.9244 -0.2077
 5347SOL     OW27502   3.386   3.409   3.582  0.1290 -0.4338 -0.0119
 5347SOL    HW127503   3.357   3.341   3.521 -1.8341  1.3853 -1.1138
 5347SOL    HW227504   3.337   3.378   3.658  0.9725  0.3652  0.8686
 5348SOL     OW27505   0.479   1.137   3.492  0.3960 -0.2061 -0.5157
 5348SOL    HW127506   0.556   1.101   3.536  1.1762 -2.3344 -3.6036
 5348SOL    HW227507   0.416   1.155   3.561 -0.8550  1.6469 -2.1149
 5349SOL     OW27508   2.594   4.688   1.863  0.1761  0.0841 -0.0329
 5349SOL    HW127509   2.569   4.618   1.803  1.5223 -0.5404  0.1390
 5349SOL    HW227510   2.562   0.048   1.823  2.6084  1.4924  0.8904
 5350SOL     OW27511   1.022   0.631   3.332 -0.0990 -0.0689 -0.5189
 5350SOL    HW127512   1.090   0.698   3.347  0.5938 -0.8378 -0.2418
 5350SOL    HW227513   1.067   0.554   3.366 -2.7414 -2.1396 -1.7954
 5351SOL     OW27514   2.124   0.484  13.667  0.3255 -0.0566  0.9259
 5351SOL    HW127515   2.151   0.554  13.607 -2.6657  0.4653  0.2318
 5351SOL    HW227516   2.034   0.505  13.691  0.8679  0.3034  2.7081
 5352SOL     OW27517   4.197   3.753  14.312  0.4304  0.2213 -0.2880
 5352SOL    HW127518   4.107   3.731  14.290  0.1075  4.0559 -2.9412
 5352SOL    HW227519   4.245   3.734  14.232  3.6880  3.2991  0.9147
 5353SOL     OW27520   3.888   3.983   4.599  0.0752 -0.2592 -0.2864
 5353SOL    HW127521   3.811   3.996   4.544  1.7942 -1.8097 -3.0817
 5353SOL    HW227522   3.857   3.964   4.688  0.9780 -1.9809 -0.3377
 5354SOL     OW27523   0.947   4.700  13.960 -0.3019 -0.3611 -0.0064
 5354SOL    HW127524   0.962   0.046  13.893 -0.1400 -0.1286  0.2635
 5354SOL    HW227525   0.884   0.011  14.024  0.0645  0.4141 -0.0340
 5355SOL     OW27526   2.652   0.388   1.679  0.1339 -0.8902 -0.8240
 5355SOL    HW127527   2.698   0.472   1.675  2.6589 -2.2728 -0.0981
 5355SOL    HW227528   2.719   0.333   1.639  2.4277 -0.9952  3.2035
 5356SOL     OW27529   2.139   0.728   1.168  0.5742 -1.0488 -0.2068
 5356SOL    HW127530   2.210   0.792   1.171 -0.8632  0.5664 -0.5336
 5356SOL    HW227531   2.193   0.653   1.146  0.7398 -0.6259 -1.2482
 5357SOL     OW27532   4.642   4.171   4.385  0.2372 -0.4295  0.0589
 5357SOL    HW127533   4.643   4.134   4.473 -2.9848  0.2553  0.3608
 5357SOL    HW227534   4.688   4.253   4.404 -0.1869 -0.4198  1.0466
 5358SOL     OW27535   4.229   3.309  17.369 -0.6135  0.6275 -0.4510
 5358SOL    HW127536   4.284   3.357  17.430 -1.0928  2.5884 -1.5835
 5358SOL    HW227537   4.291   3.243  17.338 -0.9414  0.4257 -0.6721
 5359SOL     OW27538   4.161   4.438   6.912 -0.2882 -0.6251 -0.2065
 5359SOL    HW127539   4.219   4.472   6.844  0.5721 -3.2414 -0.7948
 5359SOL    HW227540   4.218   4.385   6.968 -0.6118  0.1941  0.9060
 5360SOL     OW27541   0.358   1.776   8.386 -0.2213  0.1323 -0.0357
 5360SOL    HW127542   0.333   1.718   8.458  0.1384 -0.5948 -0.4977
 5360SOL    HW227543   0.447   1.746   8.366  0.0614 -0.4462  2.0095
 5361SOL     OW27544   3.023   1.846   8.450  0.6541 -0.9925  0.2049
 5361SOL    HW127545   3.083   1.781   8.414 -0.0178 -1.6234  0.2411
 5361SOL    HW227546   2.970   1.796   8.512  0.1346 -1.2379 -0.4418
 5362SOL     OW27547   1.386   0.070  11.650 -0.0334 -0.2888 -0.4208
 5362SOL    HW127548   1.291   0.061  11.654  0.1159 -0.2819  2.9203
 5362SOL    HW227549   1.400   0.016  11.728  0.7017 -1.3125 -1.2646
 5363SOL     OW27550   2.556   1.295   8.326 -0.5232  0.1481  0.0706
 5363SOL    HW127551   2.541   1.383   8.291 -1.3463  0.7877  2.0241
 5363SOL    HW227552   2.650   1.299   8.343 -0.5862  0.0783  0.4301
 5364SOL     OW27553   2.283   3.528   6.384 -0.1619 -0.4330  0.8180
 5364SOL    HW127554   2.325   3.592   6.441  0.7620 -0.7860  0.5366
 5364SOL    HW227555   2.339   3.452   6.398  0.6592 -0.0346 -0.3557
 5365SOL     OW27556   4.354   3.151   6.688 -0.1202 -0.0436 -0.7286
 5365SOL    HW127557   4.339   3.061   6.718 -2.4578  1.3955  2.3310
 5365SOL    HW227558   4.361   3.195   6.772  1.2234 -0.9492 -0.3650
 5366SOL     OW27559   2.922   2.278  16.379  0.1251  0.3459  0.1907
 5366SOL    HW127560   2.990   2.323  16.430  1.5980 -1.1022 -0.5095
 5366SOL    HW227561   2.932   2.317  16.292 -2.8527 -3.0768 -1.6595
 5367SOL     OW27562   0.028   3.691   1.931 -0.5703 -0.2769 -0.4775
 5367SOL    HW127563   0.029   3.621   1.865  1.0536 -0.6384 -0.0773
 5367SOL    HW227564   0.075   3.760   1.884  2.4858 -1.2720  1.0997
 5368SOL     OW27565   1.737   0.657   4.082 -0.0390  0.5402  0.0235
 5368SOL    HW127566   1.807   0.720   4.099  0.7332 -0.7695  1.7053
 5368SOL    HW227567   1.683   0.674   4.159  0.3203 -0.7798  0.5726
 5369SOL     OW27568   2.291   2.271   5.238  0.5145 -0.0548 -0.1256
 5369SOL    HW127569   2.250   2.219   5.169  0.4622 -2.0643  1.4364
 5369SOL    HW227570   2.337   2.199   5.281  0.7163 -1.0733 -2.0412
 5370SOL     OW27571   2.961   2.645   3.007 -0.0398  0.1712  0.9136
 5370SOL    HW127572   3.027   2.577   2.991 -1.6000 -0.7665 -1.5399
 5370SOL    HW227573   2.938   2.624   3.097  0.9410 -1.7203  0.7279
 5371SOL     OW27574   4.012   0.620   9.178 -0.1803  0.2738  0.3434
 5371SOL    HW127575   4.083   0.634   9.116 -0.3641  1.3367  0.3683
 5371SOL    HW227576   4.029   0.695   9.236 -2.0749  0.9714  0.0042
 5372SOL     OW27577   0.543   2.966   4.771 -0.0913 -0.4833 -0.1498
 5372SOL    HW127578   0.451   2.943   4.755 -0.1396 -0.9616  0.8204
 5372SOL    HW227579   0.562   2.900   4.838  1.6041 -1.0888 -1.2254
 5373SOL     OW27580   0.547   3.813   2.332  0.3564  0.4439  0.3127
 5373SOL    HW127581   0.470   3.817   2.389  1.3434 -1.5341  1.7676
 5373SOL    HW227582   0.522   3.870   2.259  1.1285  0.6913  0.2440
 5374SOL     OW27583   2.524   3.682   2.186  0.4135  0.4200 -0.1082
 5374SOL    HW127584   2.481   3.636   2.258  0.2622  1.2448  0.3257
 5374SOL    HW227585   2.462   3.754   2.168 -1.8415 -0.7766  2.8470
 5375SOL     OW27586   1.176   1.221   8.542 -0.6801 -0.3670  0.0943
 5375SOL    HW127587   1.144   1.131   8.544  1.3232 -1.0656  0.7021
 5375SOL    HW227588   1.257   1.215   8.594 -1.0253 -0.6488  0.5986
 5376SOL     OW27589   2.202   2.716   5.695 -0.1676  0.1806  1.0489
 5376SOL    HW127590   2.155   2.636   5.719  0.5581 -0.5471  0.0263
 5376SOL    HW227591   2.171   2.744   5.609  0.3912 -1.2798  0.3668
 5377SOL     OW27592   2.404   4.643   0.137  0.0199  0.0357  0.0767
 5377SOL    HW127593   2.467   4.678   0.074  0.0588  0.9431  0.6205
 5377SOL    HW227594   2.451   4.578   0.189  0.7701 -0.0809 -0.7524
 5378SOL     OW27595   1.622   3.667  10.692 -0.0202  0.5760  0.3614
 5378SOL    HW127596   1.626   3.756  10.656  0.6332  1.8116  3.3928
 5378SOL    HW227597   1.697   3.632  10.644  1.4934  0.1621  2.9907
 5379SOL     OW27598   1.618   3.770  11.221  0.4682  0.4550  0.1920
 5379SOL    HW127599   1.542   3.718  11.246  0.8554 -0.0223  0.3763
 5379SOL    HW227600   1.620   3.755  11.127  3.0511 -0.7246  0.4445
 5380SOL     OW27601   2.800   2.339   1.707  0.0847 -0.2905 -0.3388
 5380SOL    HW127602   2.788   2.262   1.763  0.2668 -0.2730 -0.2779
 5380SOL    HW227603   2.858   2.308   1.638  0.5882  1.1811 -0.5628
 5381SOL     OW27604   0.813   2.164   4.891  0.6573  0.0606 -0.6910
 5381SOL    HW127605   0.728   2.122   4.906  1.7033 -1.6536  0.4447
 5381SOL    HW227606   0.871   2.099   4.931 -1.5612 -1.7741 -0.4497
 5382SOL     OW27607   3.577   4.351   7.164 -0.3746  0.0441  0.1434
 5382SOL    HW127608   3.516   4.279   7.145 -1.5209  1.1283 -0.3224
 5382SOL    HW227609   3.634   4.347   7.087  0.3280  0.4848  0.6522
 5383SOL     OW27610   1.195   3.117   8.613 -0.3738 -0.5222 -0.4813
 5383SOL    HW127611   1.156   3.140   8.529  0.8899  0.0868 -0.9003
 5383SOL    HW227612   1.178   3.023   8.621  1.4389 -0.8740 -0.6187
 5384SOL     OW27613   0.918   2.956   5.495  0.0949  0.7628 -0.9827
 5384SOL    HW127614   0.981   3.026   5.476 -0.9634  2.2866  1.0993
 5384SOL    HW227615   0.954   2.954   5.583 -2.2315  1.5153 -0.0120
 5385SOL     OW27616   1.629   0.185   4.113 -0.2743  0.1255 -0.5175
 5385SOL    HW127617   1.551   0.240   4.105 -1.9564 -2.3825 -1.3297
 5385SOL    HW227618   1.697   0.244   4.146 -0.6165  1.3602 -2.0193
 5386SOL     OW27619   0.915   1.641  14.182 -0.7372 -0.0971  0.7698
 5386SOL    HW127620   0.831   1.669  14.220 -0.3692  2.2681 -0.1747
 5386SOL    HW227621   0.905   1.547  14.194  1.3212 -0.4682 -0.4778
 5387SOL     OW27622   4.528   2.496   7.827  0.1923  0.2403  0.1741
 5387SOL    HW127623   4.591   2.425   7.820 -3.1364 -2.8238  1.2443
 5387SOL    HW227624   4.500   2.483   7.917  0.0746  1.4302  0.3175
 5388SOL     OW27625   1.396   0.814   6.779  0.2936 -0.4767 -0.3117
 5388SOL    HW127626   1.313   0.800   6.824  0.2964  2.0514  0.4901
 5388SOL    HW227627   1.442   0.736   6.811  1.7064  0.4498 -0.0639
 5389SOL     OW27628   0.818   2.509  14.908  0.0704 -0.7355  0.3201
 5389SOL    HW127629   0.771   2.542  14.985 -0.3481  1.8885 -1.0452
 5389SOL    HW227630   0.760   2.541  14.838 -2.4465  0.4093  2.9114
 5390SOL     OW27631   0.030   4.327   3.564 -0.3440  0.3358 -0.6288
 5390SOL    HW127632   4.664   4.317   3.602 -1.5706  0.8426 -3.3473
 5390SOL    HW227633   0.011   4.274   3.487 -0.3205 -0.9127  0.2188
 5391SOL     OW27634   1.712   1.262   9.639  0.5706  0.2474 -0.3865
 5391SOL    HW127635   1.793   1.214   9.624 -0.8765 -3.0454  2.3048
 5391SOL    HW227636   1.730   1.286   9.730 -1.4877 -0.4802  0.2161
 5392SOL     OW27637   0.426   1.061  15.646  0.1400  0.1077  0.1906
 5392SOL    HW127638   0.382   0.999  15.704 -0.6670  1.9232  1.5219
 5392SOL    HW227639   0.388   1.025  15.566  1.5899  0.1291 -0.5051
 5393SOL     OW27640   0.339   3.090   1.351 -0.0306  0.0220 -0.0796
 5393SOL    HW127641   0.360   3.036   1.427  0.3443 -0.1616 -0.3183
 5393SOL    HW227642   0.335   3.029   1.278  0.2389  3.1748 -2.7707
 5394SOL     OW27643   4.065   4.045  10.584 -0.2183  0.2803  0.4707
 5394SOL    HW127644   4.083   4.120  10.641 -0.7573 -0.0656  1.0993
 5394SOL    HW227645   4.015   3.988  10.643  0.1524 -1.6697 -1.1080
 5395SOL     OW27646   1.813   1.963   5.881  0.1251  0.2426  0.2516
 5395SOL    HW127647   1.809   2.036   5.820 -0.1946  0.2629  0.2950
 5395SOL    HW227648   1.721   1.939   5.893  0.1603  0.7205  1.5204
 5396SOL     OW27649   4.159   0.726  13.909  0.1516 -0.2311 -0.7847
 5396SOL    HW127650   4.098   0.705  13.838 -1.0343 -1.0781  0.4837
 5396SOL    HW227651   4.219   0.652  13.900  0.5304  0.3203 -2.7883
 5397SOL     OW27652   4.168   0.304  11.715  0.1029 -0.0866  0.4360
 5397SOL    HW127653   4.087   0.353  11.732 -0.5867 -0.5943 -1.3591
 5397SOL    HW227654   4.137   0.232  11.660 -0.7559  1.9480 -1.7561
 5398SOL     OW27655   3.015   3.426   7.075 -0.6313  0.4839  0.6426
 5398SOL    HW127656   3.085   3.418   7.010  1.9640  2.2671  3.1806
 5398SOL    HW227657   3.033   3.515   7.104 -1.4303  1.0340 -0.5909
 5399SOL     OW27658   0.958   0.384   8.874 -0.3631  0.0941  0.2728
 5399SOL    HW127659   1.039   0.333   8.865  0.3959  1.1931  0.9466
 5399SOL    HW227660   0.905   0.343   8.943 -0.0631  0.2721  0.6078
 5400SOL     OW27661   2.903   1.898  10.780  0.2286 -0.2680  0.0726
 5400SOL    HW127662   2.977   1.934  10.731  0.3679  0.0326  0.4973
 5400SOL    HW227663   2.890   1.968  10.843 -3.3412 -1.0096  0.1517
 5401SOL     OW27664   3.350   0.993  16.626 -0.0025 -0.2142 -0.3143
 5401SOL    HW127665   3.377   0.920  16.569 -0.6344 -0.7146  0.0316
 5401SOL    HW227666   3.440   1.002  16.658 -1.0927  1.6567  2.1943
 5402SOL     OW27667   2.877   3.922   6.438 -0.0745 -0.0518  0.4805
 5402SOL    HW127668   2.867   3.971   6.356 -1.1942  0.8339  1.1410
 5402SOL    HW227669   2.954   3.868   6.424 -0.6190 -1.2335  2.0952
 5403SOL     OW27670   3.752   0.877   2.821 -0.9372 -0.6055  0.1963
 5403SOL    HW127671   3.806   0.831   2.886 -0.8897 -1.0748 -0.1685
 5403SOL    HW227672   3.691   0.807   2.800 -1.5296  0.5765 -2.0810
 5404SOL     OW27673   1.551   1.504   9.346 -0.1841 -0.2359 -0.1700
 5404SOL    HW127674   1.535   1.420   9.391 -0.2307  1.0942  2.2755
 5404SOL    HW227675   1.592   1.566   9.406  0.0411 -0.6851  0.1420
 5405SOL     OW27676   3.682   3.241   1.741  0.2216  0.5255 -0.0661
 5405SOL    HW127677   3.713   3.160   1.700  0.3897 -0.5605  2.2026
 5405SOL    HW227678   3.658   3.208   1.828 -0.9230  2.7441  0.4630
 5406SOL     OW27679   2.213   1.198   2.553 -0.1076 -0.1388 -0.3923
 5406SOL    HW127680   2.204   1.236   2.640  2.3587 -1.9665  0.6752
 5406SOL    HW227681   2.172   1.112   2.556  0.2472 -0.2913  0.2473
 5407SOL     OW27682   4.633   2.152   6.526  0.3257 -0.0764 -0.2336
 5407SOL    HW127683   4.688   2.228   6.544 -0.4733  0.7183 -1.1465
 5407SOL    HW227684   4.669   2.119   6.444 -0.8585 -1.5937 -0.1387
 5408SOL     OW27685   0.199   2.482  11.170 -0.4749 -0.0817 -0.2376
 5408SOL    HW127686   0.178   2.502  11.079  0.8555  0.2242 -0.4691
 5408SOL    HW227687   0.124   2.427  11.193  0.3471 -1.3456 -0.5907
 5409SOL     OW27688   1.349   0.406   5.204  0.4583  0.3633  0.2398
 5409SOL    HW127689   1.375   0.482   5.151  2.0575  0.5139  1.2269
 5409SOL    HW227690   1.254   0.413   5.199  0.5465  1.1043 -0.3815
 5410SOL     OW27691   4.072   2.057   2.366  0.4267  0.1151  0.2112
 5410SOL    HW127692   4.103   2.115   2.297  0.0929  1.0872  0.8779
 5410SOL    HW227693   3.981   2.040   2.342  0.3002  0.9579  0.0926
 5411SOL     OW27694   2.513   3.866  12.991  0.1049 -0.1015 -0.0472
 5411SOL    HW127695   2.551   3.954  12.980 -0.5920  0.2032 -0.0244
 5411SOL    HW227696   2.428   3.863  12.947 -0.1113 -0.7050  0.4183
 5412SOL     OW27697   1.404   0.086   8.979 -0.3279  0.0507 -0.0782
 5412SOL    HW127698   1.443   0.162   8.935 -1.4416  1.5131  1.4548
 5412SOL    HW227699   1.428   0.099   9.071 -0.8200  1.6749 -0.1703
 5413SOL     OW27700   2.122   3.860   0.435 -0.1454  0.0957 -1.0310
 5413SOL    HW127701   2.033   3.894   0.442  0.4357  1.4608 -0.3083
 5413SOL    HW227702   2.176   3.919   0.488  0.3406 -1.4505  0.2050
 5414SOL     OW27703   4.427   0.502   2.763 -0.2686 -0.6364  0.1443
 5414SOL    HW127704   4.414   0.574   2.824 -0.4905 -1.5339  1.1593
 5414SOL    HW227705   4.343   0.513   2.719 -0.3790 -0.0852  0.4971
 5415SOL     OW27706   2.101   1.869   8.398 -0.2760 -0.1653  0.5518
 5415SOL    HW127707   2.082   1.940   8.459 -0.0468  0.1022  0.3158
 5415SOL    HW227708   2.195   1.880   8.382 -0.7330 -0.1357 -2.2324
 5416SOL     OW27709   1.773   0.733   8.670 -0.0921  0.0863 -0.3888
 5416SOL    HW127710   1.867   0.734   8.687 -0.5244  0.8317  1.9102
 5416SOL    HW227711   1.762   0.641   8.647  2.7748 -0.1159 -0.9733
 5417SOL     OW27712   2.364   3.938   0.780  0.1076 -0.2604  0.2699
 5417SOL    HW127713   2.325   4.002   0.721  0.5048 -0.2325  0.0364
 5417SOL    HW227714   2.296   3.874   0.799 -1.2682  1.6318  1.8189
 5418SOL     OW27715   0.833   0.628   5.900  0.7132 -0.2860 -0.4268
 5418SOL    HW127716   0.823   0.709   5.851 -0.4056 -0.8671 -1.1468
 5418SOL    HW227717   0.826   0.561   5.832 -0.8876  0.6664 -1.1934
 5419SOL     OW27718   1.303   2.116   8.037  0.2993 -0.3130 -0.7055
 5419SOL    HW127719   1.328   2.086   7.950 -1.4149  0.9977 -1.6478
 5419SOL    HW227720   1.390   2.140   8.068 -0.2006 -0.1214  0.5543
 5420SOL     OW27721   2.839   0.946   7.200  0.4901  0.7741  0.2938
 5420SOL    HW127722   2.754   0.988   7.210 -0.0439 -0.1913 -0.2331
 5420SOL    HW227723   2.823   0.866   7.149  1.1732  2.2101 -2.1752
 5421SOL     OW27724   3.863   3.222   8.176  0.6787  0.0069  0.5512
 5421SOL    HW127725   3.886   3.245   8.266  0.1791 -0.7856  0.8783
 5421SOL    HW227726   3.768   3.223   8.184  0.5592  0.2205 -0.9712
 5422SOL     OW27727   1.350   3.264   4.139  0.0886 -0.2045  0.0539
 5422SOL    HW127728   1.259   3.243   4.159 -0.2014  1.3997  0.4066
 5422SOL    HW227729   1.372   3.293   4.228  0.4516  0.6501 -0.3153
 5423SOL     OW27730   1.374   3.122   3.894 -0.0472  0.0494 -0.0798
 5423SOL    HW127731   1.289   3.092   3.863 -0.9838  2.1521  0.5085
 5423SOL    HW227732   1.349   3.169   3.973 -0.0265 -0.3497  0.1673
 5424SOL     OW27733   2.151   0.086   5.369  0.5717  0.8647  0.3417
 5424SOL    HW127734   2.155   0.023   5.296  2.7314  2.5756 -1.0150
 5424SOL    HW227735   2.182   0.036   5.445 -0.2973 -0.3026 -0.0649
 5425SOL     OW27736   4.270   0.021   6.524  0.1730 -0.4949  0.3930
 5425SOL    HW127737   4.333   0.030   6.452 -1.1504 -0.4692 -0.7744
 5425SOL    HW227738   4.184   0.017   6.482  1.2188 -1.2566 -1.6636
 5426SOL     OW27739   2.087   3.787   1.336  0.1181 -0.3171 -0.4192
 5426SOL    HW127740   2.078   3.771   1.430 -0.7307  0.7155 -0.3137
 5426SOL    HW227741   2.044   3.873   1.329  0.9329 -0.0146 -1.8799
 5427SOL     OW27742   0.349   2.753   2.258 -0.1868  0.4575 -0.3938
 5427SOL    HW127743   0.324   2.695   2.186  1.0253  1.7912 -1.9003
 5427SOL    HW227744   0.437   2.716   2.265 -0.2435  0.3665 -0.1663
 5428SOL     OW27745   4.349   3.231   5.323  0.1357  0.8438 -0.0856
 5428SOL    HW127746   4.365   3.325   5.331  1.7869  0.6405 -1.0380
 5428SOL    HW227747   4.403   3.197   5.394  0.7302 -0.0790 -0.9621
 5429SOL     OW27748   0.455   0.394   9.883 -0.1707  0.3300  0.2724
 5429SOL    HW127749   0.395   0.451   9.931 -1.4230  2.3761 -3.7287
 5429SOL    HW227750   0.452   0.314   9.936 -0.6895 -0.2510 -0.6512
 5430SOL     OW27751   1.652   2.002   7.869  0.4109  0.1544 -0.7442
 5430SOL    HW127752   1.561   2.023   7.848  0.3924 -0.9514 -1.7837
 5430SOL    HW227753   1.634   1.928   7.927 -1.1932  1.0814 -0.0647
 5431SOL     OW27754   3.853   4.410   3.984 -0.1150  0.1868  0.2946
 5431SOL    HW127755   3.832   4.389   4.075  0.7207  2.0426  0.9139
 5431SOL    HW227756   3.839   4.504   3.993  0.0077  0.2603 -0.2551
 5432SOL     OW27757   0.881   3.968   3.834 -0.0915 -0.7480  0.1792
 5432SOL    HW127758   0.828   3.905   3.882  0.0649  1.2693  3.0589
 5432SOL    HW227759   0.815   4.027   3.798 -0.5400 -1.8593 -0.7912
 5433SOL     OW27760   1.769   4.434  14.138 -0.0225  0.4684 -0.2823
 5433SOL    HW127761   1.683   4.453  14.102 -0.7471  0.7286  1.5977
 5433SOL    HW227762   1.767   4.488  14.217  0.2988  1.5453 -1.0184
 5434SOL     OW27763   2.282   2.964   5.000 -0.1566  0.2524 -0.6305
 5434SOL    HW127764   2.260   2.914   4.921  1.7492  0.9391 -1.5791
 5434SOL    HW227765   2.323   2.901   5.060 -0.8146  0.8885  0.5025
 5435SOL     OW27766   0.045   4.493   5.062 -0.5159 -0.3110  0.5444
 5435SOL    HW127767   0.023   4.538   5.144  0.0722  1.7061 -0.4015
 5435SOL    HW227768   0.032   4.405   5.097 -0.5490 -0.2936  0.5759
 5436SOL     OW27769   2.192   3.352   4.792  0.0771  0.1823  0.1282
 5436SOL    HW127770   2.177   3.287   4.861  0.6704  0.0590  0.1443
 5436SOL    HW227771   2.277   3.332   4.752  1.3456  2.6152  1.5952
 5437SOL     OW27772   1.625   4.620  13.771 -0.5495  0.4347 -0.7315
 5437SOL    HW127773   1.589   4.568  13.699  2.4872 -1.9778 -0.5012
 5437SOL    HW227774   1.582   4.591  13.851 -1.5344  0.2597 -1.3202
 5438SOL     OW27775   4.651   3.078   5.945 -0.5077 -0.3662 -0.0607
 5438SOL    HW127776   4.627   3.090   6.037 -0.5439 -0.9189  0.0026
 5438SOL    HW227777   4.661   2.983   5.936  0.2179 -0.4035  1.1007
 5439SOL     OW27778   2.241   2.899   1.337  0.4503  0.4360 -0.5824
 5439SOL    HW127779   2.218   2.818   1.383  0.1368  1.1627  0.5384
 5439SOL    HW227780   2.215   2.966   1.400  0.9555 -0.6493  0.7826
 5440SOL     OW27781   0.558   4.706   0.076  0.5949 -0.3398 -0.0881
 5440SOL    HW127782   0.572   4.625   0.126 -1.4282 -0.7382 -0.1730
 5440SOL    HW227783   0.561   4.674  17.673  0.7438  0.0368 -0.2143
 5441SOL     OW27784   2.319   0.933  12.093 -0.3640 -0.2815  0.0858
 5441SOL    HW127785   2.399   0.985  12.099 -0.6156  0.1878 -0.6234
 5441SOL    HW227786   2.344   0.842  12.109 -1.8106 -1.1014 -2.2791
 5442SOL     OW27787   4.477   0.203   8.777 -0.5956  0.2008 -0.1362
 5442SOL    HW127788   4.413   0.146   8.820  0.6597 -1.0838  0.0369
 5442SOL    HW227789   4.455   0.281   8.828  2.4825  1.4291 -0.6782
 5443SOL     OW27790   4.353   1.549   1.901 -0.4671 -0.1366  0.1528
 5443SOL    HW127791   4.431   1.535   1.847 -0.1349 -1.5902  1.0148
 5443SOL    HW227792   4.300   1.590   1.833 -1.6435  2.3066  2.5668
 5444SOL     OW27793   2.755   3.185  11.060 -0.2240 -0.5157  0.5477
 5444SOL    HW127794   2.752   3.141  10.975 -0.8302  0.9307 -0.1863
 5444SOL    HW227795   2.698   3.259  11.039  0.6344  0.4018  1.5075
 5445SOL     OW27796   4.711   3.352   1.723  0.2192  0.6170  0.1236
 5445SOL    HW127797   4.644   3.385   1.783  0.4209 -0.3772  0.8858
 5445SOL    HW227798   4.656   3.331   1.647 -1.1461  0.5359  1.1404
 5446SOL     OW27799   3.100   0.904   8.636 -0.1484 -0.2479  0.2020
 5446SOL    HW127800   3.069   0.818   8.608 -2.5482  0.6243  0.0950
 5446SOL    HW227801   3.182   0.879   8.677  0.2073  1.6789  0.6646
 5447SOL     OW27802   3.312   2.912  15.238 -0.0419 -0.1556 -0.0743
 5447SOL    HW127803   3.305   2.875  15.150  0.1297 -1.7564  0.5987
 5447SOL    HW227804   3.363   2.847  15.286  1.2558 -0.1924 -1.5145
 5448SOL     OW27805   0.235   1.272   3.129 -0.3085 -0.4078 -0.7820
 5448SOL    HW127806   0.169   1.239   3.068 -0.9837 -0.5391  0.0172
 5448SOL    HW227807   0.281   1.189   3.140 -0.6581 -0.4858  0.0318
 5449SOL     OW27808   0.837   0.629   6.899 -0.0950  0.1486 -0.2076
 5449SOL    HW127809   0.830   0.684   6.821 -0.6100  3.1540  1.9540
 5449SOL    HW227810   0.771   0.561   6.883  0.4853  0.0171 -2.0655
 5450SOL     OW27811   0.360   2.523   4.980 -0.4194  0.1519  0.8200
 5450SOL    HW127812   0.371   2.590   4.913 -0.6568  0.7362  1.3670
 5450SOL    HW227813   0.343   2.445   4.927 -1.2176  1.1454 -0.3939
 5451SOL     OW27814   2.379   1.800   7.676  0.1775  0.0187 -0.4935
 5451SOL    HW127815   2.462   1.791   7.630 -0.1791 -1.3901 -0.8473
 5451SOL    HW227816   2.402   1.878   7.728 -2.9960 -0.1736  1.2069
 5452SOL     OW27817   3.398   1.106   8.886  0.1461  0.0777 -0.4327
 5452SOL    HW127818   3.349   1.024   8.891 -0.3176  0.3731 -0.0019
 5452SOL    HW227819   3.487   1.071   8.884  1.7035  3.7332  3.9712
 5453SOL     OW27820   1.966   2.520  11.782 -0.0244  0.0117 -0.1850
 5453SOL    HW127821   1.879   2.523  11.821 -0.0176 -0.2446 -0.1483
 5453SOL    HW227822   2.016   2.529  11.863 -0.1201 -2.4796  0.1597
 5454SOL     OW27823   4.635   0.044  10.478  0.1829  0.0146 -0.0671
 5454SOL    HW127824   4.703   4.704  10.506 -1.0532 -1.5269 -0.3706
 5454SOL    HW227825   4.577   0.032  10.554  0.4547  1.1062  0.3097
 5455SOL     OW27826   2.454   3.333   0.126 -0.1782 -0.2675 -0.3983
 5455SOL    HW127827   2.483   3.424   0.127  0.5304 -0.4841 -1.5263
 5455SOL    HW227828   2.369   3.345   0.170 -1.2422 -2.0027 -1.9845
 5456SOL     OW27829   0.500   2.327  11.417  0.4502  0.2305 -0.3181
 5456SOL    HW127830   0.481   2.363  11.504 -2.1118 -0.4246 -0.6112
 5456SOL    HW227831   0.450   2.246  11.419 -1.6342  1.4981 -0.4835
 5457SOL     OW27832   1.515   4.055   6.763 -0.1847 -0.4409  0.1905
 5457SOL    HW127833   1.598   4.008   6.757 -0.3087 -0.8939  2.0973
 5457SOL    HW227834   1.521   4.087   6.853 -2.3704 -1.0393  0.5356
 5458SOL     OW27835   1.306   0.093   3.463  0.2926  0.2346 -0.1432
 5458SOL    HW127836   1.309   0.042   3.382  1.0325 -2.0018  1.2959
 5458SOL    HW227837   1.240   0.044   3.513 -2.4298  3.4505 -0.6333
 5459SOL     OW27838   3.422   0.587   3.901  0.3787 -0.6384 -0.3181
 5459SOL    HW127839   3.361   0.607   3.972  1.0041  0.9774 -0.2230
 5459SOL    HW227840   3.422   0.670   3.852  0.3782  0.5145  1.6462
 5460SOL     OW27841   4.285   1.292   6.042 -0.1600  0.3062 -0.4928
 5460SOL    HW127842   4.216   1.302   5.976 -0.8501 -0.0091  0.1936
 5460SOL    HW227843   4.264   1.204   6.073 -1.3810  0.7728 -0.0176
 5461SOL     OW27844   3.988   2.413   8.407 -0.4696 -0.2999 -0.2088
 5461SOL    HW127845   3.921   2.481   8.416  1.4820  1.6330 -0.4018
 5461SOL    HW227846   3.987   2.375   8.495 -0.6286  0.3680  0.0769
 5462SOL     OW27847   2.670   0.526   4.637  0.0169 -0.4821 -0.0352
 5462SOL    HW127848   2.745   0.471   4.658 -0.4083 -0.9133  0.3382
 5462SOL    HW227849   2.590   0.474   4.646 -1.0263  1.1460  0.1580
 5463SOL     OW27850   0.280   4.584  13.839 -0.0659 -0.3185  0.4565
 5463SOL    HW127851   0.324   4.505  13.871 -0.5608 -0.1674  1.5237
 5463SOL    HW227852   0.283   4.572  13.744 -1.7104  0.1476  0.3570
 5464SOL     OW27853   2.394   3.533   2.369 -0.7755  0.4885 -0.1176
 5464SOL    HW127854   2.306   3.537   2.405 -1.3998 -2.4985 -1.3745
 5464SOL    HW227855   2.396   3.444   2.336 -2.1745  0.8304 -1.1282
 5465SOL     OW27856   3.873   1.478   8.668 -0.2294  0.1600  0.7414
 5465SOL    HW127857   3.872   1.446   8.578  1.3792  1.9699  0.0852
 5465SOL    HW227858   3.968   1.484   8.679 -0.1216 -0.3151  0.1065
 5466SOL     OW27859   3.512   1.793   3.646 -0.0554  0.4309 -0.4361
 5466SOL    HW127860   3.445   1.856   3.673  0.3081  1.1133 -1.0924
 5466SOL    HW227861   3.500   1.781   3.552  2.1586 -2.0716 -0.4041
 5467SOL     OW27862   1.744   2.009   1.778  0.3813 -0.6050  0.3022
 5467SOL    HW127863   1.835   2.029   1.759 -0.5030  1.1637 -2.0409
 5467SOL    HW227864   1.744   2.038   1.869 -0.0475 -0.1389  0.1513
 5468SOL     OW27865   3.505   1.695   4.448 -0.3843  0.0966  0.5349
 5468SOL    HW127866   3.447   1.755   4.401 -1.6657 -0.8489  0.9088
 5468SOL    HW227867   3.469   1.701   4.536  1.8187  2.2675  1.2882
 5469SOL     OW27868   3.832   2.352  10.499  0.0733 -0.2012 -0.2098
 5469SOL    HW127869   3.814   2.280  10.439 -0.6892  0.0476 -0.2855
 5469SOL    HW227870   3.746   2.395  10.507  0.3240  0.2488  0.0524
 5470SOL     OW27871   2.240   0.859  13.840  0.4736 -0.0769  0.1913
 5470SOL    HW127872   2.191   0.806  13.902  1.9237  0.4598  1.7810
 5470SOL    HW227873   2.221   0.804  13.763 -1.4748 -3.1952  2.8972
 5471SOL     OW27874   0.107   1.040  12.260  0.3614 -0.0186  0.1737
 5471SOL    HW127875   0.125   0.948  12.241  0.6877  0.2077 -0.6208
 5471SOL    HW227876   0.196   1.065  12.282  0.6805 -0.7047 -0.3119
 5472SOL     OW27877   2.908   2.758   7.691 -0.0303 -0.0023 -0.2937
 5472SOL    HW127878   2.840   2.794   7.746 -0.1594 -1.8512  0.7615
 5472SOL    HW227879   2.992   2.782   7.731 -1.0351  0.2321  1.6333
 5473SOL     OW27880   2.918   1.037   8.415 -0.0912  0.1720  0.0402
 5473SOL    HW127881   2.990   1.082   8.372  0.3965 -0.0171  0.6644
 5473SOL    HW227882   2.967   0.989   8.482  0.6440 -1.8047 -1.9390
 5474SOL     OW27883   0.402   4.023  11.251 -0.3056 -0.3033 -0.6847
 5474SOL    HW127884   0.330   3.967  11.223 -0.7211  0.0349 -0.3080
 5474SOL    HW227885   0.464   3.969  11.300 -0.2390  0.2074 -0.1945
 5475SOL     OW27886   4.512   0.670   3.960  0.4718 -0.5713 -0.2360
 5475SOL    HW127887   4.566   0.640   3.888  0.4375  1.7092 -1.1880
 5475SOL    HW227888   4.425   0.655   3.922 -0.2519 -1.1517  1.6041
 5476SOL     OW27889   3.867   2.558   2.837  0.1127  0.0846 -0.1212
 5476SOL    HW127890   3.877   2.479   2.890  0.6410  0.5010  0.4023
 5476SOL    HW227891   3.872   2.519   2.750  1.1828 -0.2816  0.1087
 5477SOL     OW27892   1.434   3.431   5.898 -0.2355 -0.1431 -0.3757
 5477SOL    HW127893   1.495   3.488   5.945  1.5207 -0.9280 -1.7332
 5477SOL    HW227894   1.493   3.398   5.831 -0.3565 -1.7614  0.2852
 5478SOL     OW27895   2.566   0.214  16.731 -0.5523  0.6552  0.1361
 5478SOL    HW127896   2.504   0.230  16.802 -0.1167  0.4121  0.5757
 5478SOL    HW227897   2.539   0.126  16.706  0.1994  0.4066  0.1931
 5479SOL     OW27898   4.558   3.880  13.607 -0.1541  0.3967 -0.5591
 5479SOL    HW127899   4.649   3.910  13.617  0.3441 -1.6417  1.0662
 5479SOL    HW227900   4.533   3.947  13.544 -2.1006 -0.4018 -0.6264
 5480SOL     OW27901   2.369   2.990  12.722  0.0485 -0.3910 -0.1786
 5480SOL    HW127902   2.364   3.062  12.786  0.9711  0.6257 -1.2309
 5480SOL    HW227903   2.464   2.981  12.719  0.3513  2.5094  0.0054
 5481SOL     OW27904   0.477   4.334  11.069 -0.4338 -0.1456 -0.4745
 5481SOL    HW127905   0.524   4.392  11.130  0.2214 -0.8372 -0.3098
 5481SOL    HW227906   0.433   4.400  11.015 -1.6145  0.0232  0.6939
 5482SOL     OW27907   4.692   0.614   3.751  0.0765  0.5520  0.1440
 5482SOL    HW127908   4.670   0.543   3.691  1.4679  2.2609 -2.3668
 5482SOL    HW227909   0.066   0.624   3.749  0.0545  0.1866 -3.1373
 5483SOL     OW27910   4.544   4.195  11.647  0.2828  0.4324  0.5793
 5483SOL    HW127911   4.562   4.150  11.729  3.2553 -1.9620 -1.3722
 5483SOL    HW227912   4.577   4.282  11.666  2.1396  0.1414 -1.3242
 5484SOL     OW27913   3.843   4.142  15.310  0.0062  0.1595  0.1576
 5484SOL    HW127914   3.859   4.194  15.389  0.2905 -0.1501  0.3037
 5484SOL    HW227915   3.883   4.056  15.327  0.0713  0.9816  4.2707
 5485SOL     OW27916   2.735   0.213  10.059  0.1826 -0.5261  0.1984
 5485SOL    HW127917   2.728   0.239   9.967 -1.5816 -0.7856  0.2572
 5485SOL    HW227918   2.829   0.227  10.069  0.5024 -1.4303 -1.5925
 5486SOL     OW27919   3.226   3.083   3.487  0.5153 -0.6224 -0.1951
 5486SOL    HW127920   3.150   3.133   3.458  1.9018  2.2848  1.1509
 5486SOL    HW227921   3.190   3.013   3.542 -1.3276  1.6990  1.5429
 5487SOL     OW27922   0.812   1.285  16.511  0.6169 -0.3722  0.4139
 5487SOL    HW127923   0.795   1.243  16.427  2.3773  0.1045 -0.1819
 5487SOL    HW227924   0.762   1.235  16.576  1.9490 -1.8850  0.2750
 5488SOL     OW27925   1.738   4.191   3.732 -0.3916 -0.1044  0.0368
 5488SOL    HW127926   1.780   4.238   3.804  1.5992  0.3627 -1.4539
 5488SOL    HW227927   1.728   4.264   3.671 -2.3722 -1.7315 -1.6096
 5489SOL     OW27928   0.513   4.198  15.691  0.3463  0.3284 -0.6125
 5489SOL    HW127929   0.543   4.205  15.781  0.3742 -3.4757 -0.3144
 5489SOL    HW227930   0.547   4.283  15.666 -1.6745  1.4561  0.4848
 5490SOL     OW27931   4.550   4.511  10.180  0.1646  0.4560  0.3109
 5490SOL    HW127932   4.620   4.484  10.121  0.4180  2.1965 -0.1769
 5490SOL    HW227933   4.477   4.465  10.137 -0.4590  1.5346  0.2345
 5491SOL     OW27934   4.232   2.689   4.676 -0.7083 -0.6223  0.0867
 5491SOL    HW127935   4.142   2.665   4.699 -0.5965 -0.0853  1.0687
 5491SOL    HW227936   4.226   2.740   4.595 -0.4406 -1.2429 -0.3189
 5492SOL     OW27937   4.044   1.358   1.651 -0.2213 -0.5324 -0.2078
 5492SOL    HW127938   4.072   1.416   1.580  0.7659 -0.2293  0.4358
 5492SOL    HW227939   4.121   1.303   1.666 -0.2501 -1.5651 -3.7592
 5493SOL     OW27940   0.017   3.541   9.165 -0.1577 -0.1137 -0.7352
 5493SOL    HW127941   4.700   3.585   9.241  0.2981  1.6433 -1.5526
 5493SOL    HW227942   0.095   3.504   9.205  1.8363  2.9468 -1.8336
 5494SOL     OW27943   4.624   2.951   6.768  0.1034 -0.0302 -0.2118
 5494SOL    HW127944   4.697   2.970   6.827  0.8559 -1.0620 -0.8117
 5494SOL    HW227945   4.659   2.960   6.680  0.0968  2.4947  0.0414
 5495SOL     OW27946   1.580   2.800   6.154 -0.3770  0.2423 -0.3358
 5495SOL    HW127947   1.632   2.876   6.180 -1.9251  1.6887 -1.5549
 5495SOL    HW227948   1.493   2.830   6.130 -0.4721  1.2794  1.2879
 5496SOL     OW27949   1.017   3.004   7.277  0.3574 -0.4813  0.1199
 5496SOL    HW127950   1.086   2.954   7.234  0.5715 -0.6164  0.6323
 5496SOL    HW227951   1.024   2.969   7.365 -0.4527  1.5468  1.0050
 5497SOL     OW27952   0.491   0.555   3.245 -0.6204  0.4874  0.4284
 5497SOL    HW127953   0.456   0.551   3.157 -1.3918  0.0301  0.7565
 5497SOL    HW227954   0.571   0.503   3.237 -1.2978 -0.8487  2.2035
 5498SOL     OW27955   0.349   1.890   7.374  0.5423  0.5364  0.1901
 5498SOL    HW127956   0.361   1.888   7.469  2.3617  1.0478 -0.0234
 5498SOL    HW227957   0.431   1.930   7.345  0.2877  0.9766  0.0832
 5499SOL     OW27958   0.532   2.771  16.142  0.0232  0.1928 -0.1169
 5499SOL    HW127959   0.504   2.854  16.104 -0.8623  0.7925  1.8540
 5499SOL    HW227960   0.619   2.764  16.102  0.2925  2.8498  0.0319
 5500SOL     OW27961   1.462   2.525  12.382  0.1168 -0.0834  0.4295
 5500SOL    HW127962   1.432   2.476  12.458 -0.7679  0.6480  0.5452
 5500SOL    HW227963   1.501   2.601  12.424 -0.7941 -0.1564  1.4022
 5501SOL     OW27964   3.939   4.496  10.079 -0.3336 -0.2520  1.1200
 5501SOL    HW127965   3.979   4.582  10.091  1.3387 -0.8159 -0.4221
 5501SOL    HW227966   3.876   4.507  10.008 -0.5960  1.3289  1.5889
 5502SOL     OW27967   0.067   3.407   7.631  0.6633 -0.4583  0.2255
 5502SOL    HW127968   0.115   3.487   7.655  0.5877 -0.0359 -1.0765
 5502SOL    HW227969   0.136   3.343   7.613 -0.2789 -1.7284  1.1645
 5503SOL     OW27970   0.549   0.007   2.785 -0.2708  0.0053 -0.5963
 5503SOL    HW127971   0.550   4.648   2.837 -0.5216 -0.1911 -0.8942
 5503SOL    HW227972   0.590   0.076   2.837 -0.9778  2.6637 -3.5611
 5504SOL     OW27973   3.752   1.282   1.675 -0.2667  0.2132 -0.1201
 5504SOL    HW127974   3.847   1.274   1.673 -0.3271 -0.4098 -0.7560
 5504SOL    HW227975   3.726   1.328   1.754 -2.2528 -2.2197  0.6575
 5505SOL     OW27976   4.584   2.761   6.510  0.0388 -0.3492 -1.1699
 5505SOL    HW127977   4.629   2.744   6.593 -0.9963 -0.2469 -0.5978
 5505SOL    HW227978   4.561   2.853   6.522  2.1757 -0.3364  2.8543
 5506SOL     OW27979   2.986   2.267   2.754 -0.3164 -0.3518  0.1307
 5506SOL    HW127980   2.943   2.342   2.713  0.6613 -0.5988 -1.3269
 5506SOL    HW227981   3.036   2.229   2.682  0.8698 -3.1347  2.4132
 5507SOL     OW27982   2.252   3.027  16.370  0.2178  0.1702 -0.2532
 5507SOL    HW127983   2.232   2.960  16.435  1.8006 -0.7251 -0.7174
 5507SOL    HW227984   2.244   3.111  16.415 -2.3136  0.1825 -0.7267
 5508SOL     OW27985   2.618   3.021  17.053  0.0220  0.4802  0.0001
 5508SOL    HW127986   2.537   3.071  17.050 -0.9137 -1.1045 -1.3814
 5508SOL    HW227987   2.628   3.001  16.960 -0.7193  0.6585 -0.1182
 5509SOL     OW27988   0.742   3.085   2.715  0.5773 -0.1195 -0.0965
 5509SOL    HW127989   0.681   3.058   2.646  0.0681 -2.0611  1.1152
 5509SOL    HW227990   0.687   3.050   2.785 -1.3525  2.1067 -0.4553
 5510SOL     OW27991   3.956   1.346   4.418 -0.2452  0.3727 -0.2128
 5510SOL    HW127992   4.045   1.354   4.384  0.4560 -0.0774  1.5290
 5510SOL    HW227993   3.910   1.350   4.334 -1.2564 -2.0101  0.2311
 5511SOL     OW27994   3.958   2.478   8.150  0.5215  0.3037 -0.2939
 5511SOL    HW127995   3.957   2.470   8.245 -2.5082 -1.8494 -0.5029
 5511SOL    HW227996   4.051   2.499   8.138  0.9729  0.5961  3.6854
 5512SOL     OW27997   0.701   0.849  10.518 -0.1083 -0.4579  0.2739
 5512SOL    HW127998   0.797   0.850  10.520 -0.0779  0.5277 -2.2340
 5512SOL    HW227999   0.678   0.931  10.473  0.5390  0.1940  1.1317
 5513SOL     OW28000   3.237   1.228  16.529  0.0498  0.1109 -0.0790
 5513SOL    HW128001   3.242   1.189  16.441  2.3931  1.4984 -0.5558
 5513SOL    HW228002   3.268   1.160  16.589 -1.0913 -1.0746 -0.8528
 5514SOL     OW28003   2.794   1.555   8.193  0.0899  0.4670  0.3672
 5514SOL    HW128004   2.776   1.624   8.257  1.6449 -0.9385  2.3092
 5514SOL    HW228005   2.710   1.563   8.148  0.1149 -0.6946  0.1140
 5515SOL     OW28006   4.043   3.000   0.474  0.1238  0.0382 -0.1531
 5515SOL    HW128007   3.956   2.985   0.510 -0.3601  1.0992 -0.8671
 5515SOL    HW228008   4.073   2.909   0.474 -0.8414 -0.2751  0.1704
 5516SOL     OW28009   1.609   0.680   8.362 -0.3405  0.3387 -0.2899
 5516SOL    HW128010   1.590   0.619   8.290  0.9532  0.1552 -0.4696
 5516SOL    HW228011   1.647   0.751   8.310  1.8959 -0.0607  0.8142
 5517SOL     OW28012   0.664   2.770  10.220  0.4502  0.1695  0.2206
 5517SOL    HW128013   0.628   2.857  10.238  0.6435  0.1824  0.5426
 5517SOL    HW228014   0.733   2.776  10.286 -1.0507  2.5589  1.5909
 5518SOL     OW28015   2.452   1.720   3.705 -0.2118 -0.3059 -0.2137
 5518SOL    HW128016   2.370   1.745   3.660 -1.3582 -0.5655  1.7564
 5518SOL    HW228017   2.513   1.751   3.638  0.4537 -0.7617  0.1856
 5519SOL     OW28018   2.395   3.726   4.005  0.4204  0.2364  0.3013
 5519SOL    HW128019   2.461   3.748   4.071 -0.4946  1.6393  0.7391
 5519SOL    HW228020   2.389   3.803   3.948  1.5807  1.1809  1.4531
 5520SOL     OW28021   4.385   4.171   0.774  0.2835  0.2017 -0.2737
 5520SOL    HW128022   4.362   4.165   0.866 -0.2584 -0.0553 -0.4254
 5520SOL    HW228023   4.404   4.264   0.774 -1.1494  0.5021 -1.3611
 5521SOL     OW28024   1.922   4.464   7.465 -0.2778 -0.2831  0.4472
 5521SOL    HW128025   1.831   4.469   7.435 -0.8329  0.5530  2.2503
 5521SOL    HW228026   1.971   4.493   7.389 -0.8147 -0.0607  0.1875
 5522SOL     OW28027   0.548   4.496   5.012 -0.0474  0.4139 -0.0928
 5522SOL    HW128028   0.462   4.536   5.023 -0.0797  0.8203 -1.7285
 5522SOL    HW228029   0.605   4.567   5.039  2.0333 -1.2830  0.0130
 5523SOL     OW28030   3.624   1.426  14.539 -0.2661 -0.4854  0.3726
 5523SOL    HW128031   3.662   1.502  14.582 -1.5751  0.2229  0.2651
 5523SOL    HW228032   3.564   1.459  14.472 -0.9690  0.9471  1.7279
 5524SOL     OW28033   2.113   2.306   3.011 -0.4783  0.0724 -0.1367
 5524SOL    HW128034   2.062   2.238   2.968  0.3293 -1.1381  0.8222
 5524SOL    HW228035   2.040   2.368   3.019 -1.6367 -1.3004 -0.1436
 5525SOL     OW28036   3.869   1.932  15.939  0.1289  0.0494 -0.4725
 5525SOL    HW128037   3.880   1.846  15.979 -0.8877  0.1618  0.0471
 5525SOL    HW228038   3.930   1.985  15.991  0.8765  1.1958 -2.5121
 5526SOL     OW28039   4.075   0.974   8.260 -0.1216  0.2706 -0.0528
 5526SOL    HW128040   4.050   0.906   8.198 -0.0221 -0.2304  0.4525
 5526SOL    HW228041   4.161   0.996   8.224 -0.6721  1.5387 -0.5879
 5527SOL     OW28042   3.113   1.235   3.796 -0.0922 -0.0085 -0.1727
 5527SOL    HW128043   3.057   1.179   3.742 -0.5097  1.2412 -1.0321
 5527SOL    HW228044   3.185   1.250   3.735  0.5893 -2.6749 -0.0427
 5528SOL     OW28045   0.909   2.584   6.469 -0.1541  0.3462 -0.2021
 5528SOL    HW128046   0.842   2.635   6.423  2.1696 -1.1871 -5.3760
 5528SOL    HW228047   0.979   2.646   6.448  1.5605 -1.4316  0.2702
 5529SOL     OW28048   1.739   3.085   2.774  0.1278 -0.2278  0.1894
 5529SOL    HW128049   1.700   3.008   2.816 -0.2546  0.7763  1.6713
 5529SOL    HW228050   1.832   3.066   2.780  0.2119  0.8163  2.2467
 5530SOL     OW28051   2.202   1.924   1.751  0.1825 -0.5318 -0.1606
 5530SOL    HW128052   2.263   1.887   1.687  0.9700  1.0809 -0.3320
 5530SOL    HW228053   2.126   1.911   1.694 -1.3681 -2.6416  2.4011
 5531SOL     OW28054   1.317   1.402   1.915  0.3218  0.3663 -0.3389
 5531SOL    HW128055   1.323   1.312   1.949  2.0831  0.2857 -0.8340
 5531SOL    HW228056   1.388   1.446   1.961  0.6443 -1.4479  0.9167
 5532SOL     OW28057   0.193   0.421   0.246 -0.2497  0.5183 -1.0837
 5532SOL    HW128058   0.145   0.499   0.219 -0.8868  0.5745  0.2572
 5532SOL    HW228059   0.167   0.361   0.177  0.9782  0.7343 -1.7369
 5533SOL     OW28060   4.443   1.709   3.356 -0.6610 -0.3876 -0.6096
 5533SOL    HW128061   4.424   1.771   3.427  0.2465  1.1219 -1.6707
 5533SOL    HW228062   4.462   1.631   3.406  2.0631  0.4202 -0.3766
 5534SOL     OW28063   0.710   1.450   4.582  0.1137 -0.2853  0.1889
 5534SOL    HW128064   0.770   1.498   4.525  0.2249  2.5929  2.7285
 5534SOL    HW228065   0.649   1.413   4.517 -0.4010 -0.1498  0.5976
 5535SOL     OW28066   2.444   1.131   6.030  0.3416  0.1347  0.0094
 5535SOL    HW128067   2.485   1.046   6.017 -0.9811 -0.7828  1.8291
 5535SOL    HW228068   2.489   1.174   5.957  0.6810  1.2974  0.9023
 5536SOL     OW28069   0.908   0.299   5.869  0.4232 -0.5066 -0.1753
 5536SOL    HW128070   0.926   0.220   5.819 -1.0626 -0.7421 -0.3424
 5536SOL    HW228071   0.884   0.367   5.806  0.5546  0.2849  0.6283
 5537SOL     OW28072   2.741   3.505   2.103  0.1741 -0.5035 -0.1801
 5537SOL    HW128073   2.699   3.459   2.030 -1.1532  0.7775 -0.2316
 5537SOL    HW228074   2.689   3.586   2.101  2.2319  0.7776 -1.8627
 5538SOL     OW28075   4.045   0.561   5.761 -0.2130  0.4831 -0.2372
 5538SOL    HW128076   4.048   0.640   5.707  1.2297  1.7050  1.6171
 5538SOL    HW228077   4.134   0.533   5.781 -0.9933 -0.8386  1.4181
 5539SOL     OW28078   4.236   0.893   6.938  0.2830 -0.4317 -0.3298
 5539SOL    HW128079   4.329   0.875   6.953  0.6195  0.7990 -0.9260
 5539SOL    HW228080   4.221   0.966   6.998  0.4173 -1.2233  0.6677
 5540SOL     OW28081   4.437   0.850   4.852  0.1642 -0.6428 -0.2479
 5540SOL    HW128082   4.360   0.860   4.796  0.0298 -1.3595 -0.1898
 5540SOL    HW228083   4.416   0.772   4.903  0.9476  0.9675  2.5547
 5541SOL     OW28084   2.478   1.801   8.134  0.1142  0.4859 -0.2619
 5541SOL    HW128085   2.489   1.836   8.222 -2.6902  0.9441 -0.1187
 5541SOL    HW228086   2.390   1.822   8.106 -0.2870  0.6677  1.1566
 5542SOL     OW28087   1.477   2.235  16.429  0.1867  0.3889 -0.2748
 5542SOL    HW128088   1.452   2.234  16.521  0.1026 -1.0504 -0.3153
 5542SOL    HW228089   1.392   2.224  16.387 -0.9417  1.3068  1.7635
 5543SOL     OW28090   0.704   0.424  14.149 -0.1342 -0.3403 -0.8883
 5543SOL    HW128091   0.671   0.444  14.061  2.3566  1.9000 -1.2996
 5543SOL    HW228092   0.782   0.373  14.130  0.5964  2.0498 -4.1834
 5544SOL     OW28093   2.551   4.606  14.362  0.1960  0.6897  0.0701
 5544SOL    HW128094   2.549   4.698  14.390 -1.5981 -0.1427  2.5989
 5544SOL    HW228095   2.524   4.577  14.449  0.2512  2.6043  0.7442
 5545SOL     OW28096   0.433   4.155   0.227  0.1929 -0.2849  0.0123
 5545SOL    HW128097   0.347   4.120   0.251  0.4657  0.4453  2.0265
 5545SOL    HW228098   0.410   4.175   0.136  2.8331 -1.0024 -0.7956
 5546SOL     OW28099   1.873   1.808   8.726  0.6959 -0.1906  0.1698
 5546SOL    HW128100   1.910   1.732   8.682  0.8806 -0.0797  0.1349
 5546SOL    HW228101   1.850   1.785   8.816  3.1714 -1.2401  0.5351
 5547SOL     OW28102   1.518   0.273   4.612 -0.6410 -0.1419  0.2838
 5547SOL    HW128103   1.455   0.261   4.683 -1.6774  1.2551 -0.3976
 5547SOL    HW228104   1.497   0.355   4.567  2.7541  0.1807 -0.6407
 5548SOL     OW28105   1.315   1.938   1.678 -0.0026  0.1300  0.1161
 5548SOL    HW128106   1.293   2.024   1.714 -2.4008  0.0696 -1.2188
 5548SOL    HW228107   1.385   1.959   1.617  0.1541 -0.6713  0.0241
 5549SOL     OW28108   1.465   2.119   2.005  0.0096 -0.2787 -0.0297
 5549SOL    HW128109   1.445   2.072   2.085 -1.7978  0.9916  0.2695
 5549SOL    HW228110   1.493   2.042   1.956  0.9245  0.7484 -1.1265
 5550SOL     OW28111   4.628   2.184  10.651  0.0701  0.6066 -0.1739
 5550SOL    HW128112   4.708   2.169  10.701 -0.6529 -1.2282  0.4471
 5550SOL    HW228113   4.670   2.234  10.581  1.9255 -0.8506 -0.0719
 5551SOL     OW28114   0.983   2.662   6.817  0.1414  0.6906  0.4265
 5551SOL    HW128115   1.002   2.697   6.904 -0.5468 -1.1097  1.3056
 5551SOL    HW228116   0.983   2.738   6.759 -0.0483 -0.5524 -1.2147
 5552SOL     OW28117   0.339   4.594  12.557  0.4118  0.4550  0.1358
 5552SOL    HW128118   0.272   4.655  12.586 -1.1248 -1.5999  0.9295
 5552SOL    HW228119   0.410   4.618  12.616  1.7748 -1.3841 -0.7575
 5553SOL     OW28120   1.259   4.094  14.866 -0.0612 -0.1309 -0.7932
 5553SOL    HW128121   1.282   4.187  14.873  1.4599 -0.6282  0.9156
 5553SOL    HW228122   1.306   4.057  14.941 -0.8441  0.1337 -0.1697
 5554SOL     OW28123   4.037   2.391   1.438  0.0871 -0.0278 -0.4515
 5554SOL    HW128124   3.990   2.384   1.521 -1.1919 -0.6235 -1.2155
 5554SOL    HW228125   4.031   2.486   1.435 -0.7867 -0.0282  1.4972
 5555SOL     OW28126   3.113   2.058   6.882  0.6116 -0.3309 -0.0549
 5555SOL    HW128127   3.045   2.120   6.855  0.0541 -0.1791  1.7129
 5555SOL    HW228128   3.185   2.118   6.865  0.8405  0.0482  2.2789
 5556SOL     OW28129   1.584   0.855  10.700  0.1361 -0.3917 -0.2684
 5556SOL    HW128130   1.579   0.941  10.657 -0.7971  0.1398  0.9197
 5556SOL    HW228131   1.669   0.865  10.744 -0.9150 -1.5379  1.9674
 5557SOL     OW28132   4.265   0.276   5.400 -0.3831 -0.1999  0.3114
 5557SOL    HW128133   4.185   0.293   5.449 -0.1641  2.1540 -0.1448
 5557SOL    HW228134   4.236   0.285   5.310 -2.4196 -0.7407  0.9208
 5558SOL     OW28135   2.524   1.528   8.173 -0.5887 -0.3485 -0.2294
 5558SOL    HW128136   2.435   1.502   8.196 -0.6798  0.1106 -0.0704
 5558SOL    HW228137   2.500   1.615   8.143 -0.8854  0.1833  1.5314
 5559SOL     OW28138   2.071   4.312  17.544  0.1051 -0.7392 -0.1884
 5559SOL    HW128139   2.158   4.316  17.585  0.4821  1.8429 -1.2072
 5559SOL    HW228140   2.024   4.381  17.591 -0.5721 -0.7941 -0.7999
 5560SOL     OW28141   0.150   4.295  12.363  0.0700  0.3275  0.1061
 5560SOL    HW128142   0.233   4.264  12.327  1.0076  1.0749  1.6623
 5560SOL    HW228143   0.118   4.210  12.393  1.9222 -0.7768 -1.0464
 5561SOL     OW28144   0.116   0.381  13.838 -0.2373 -0.4780  0.1547
 5561SOL    HW128145   0.188   0.400  13.899 -0.5053  4.2880 -1.0048
 5561SOL    HW228146   0.106   0.288  13.861  1.6023 -0.3859  1.3250
 5562SOL     OW28147   1.618   0.493   8.164 -0.4274 -1.1413  0.0544
 5562SOL    HW128148   1.620   0.499   8.068 -2.5652  0.9039  0.1454
 5562SOL    HW228149   1.566   0.414   8.172  0.3299 -1.7998 -1.5628
 5563SOL     OW28150   2.539   0.007   6.958 -0.8599 -0.5946  0.0562
 5563SOL    HW128151   2.610   4.680   7.000 -0.7835 -1.0266 -0.5771
 5563SOL    HW228152   2.561   4.714   6.866 -2.0117 -0.4340 -0.2497
 5564SOL     OW28153   4.223   0.994   6.120  0.0534  0.3635  0.3804
 5564SOL    HW128154   4.172   0.922   6.082 -0.4852  0.5628  0.7272
 5564SOL    HW228155   4.156   1.040   6.170  0.8900  2.0298 -0.0300
 5565SOL     OW28156   2.657   2.891   2.600  0.6138  0.8162  0.4696
 5565SOL    HW128157   2.672   2.834   2.524 -1.7048 -1.1193  1.4584
 5565SOL    HW228158   2.746   2.914   2.624  0.1364  0.6280  2.4178
 5566SOL     OW28159   3.578   2.439  13.148  0.0670  0.0378 -0.0455
 5566SOL    HW128160   3.546   2.353  13.176 -0.4485  0.4806  0.7309
 5566SOL    HW228161   3.548   2.445  13.057 -0.2788  0.0913  0.0713
 5567SOL     OW28162   1.420   4.149   7.929 -0.6241 -0.2568  0.5912
 5567SOL    HW128163   1.478   4.115   7.860 -1.1959  0.5311 -0.2855
 5567SOL    HW228164   1.469   4.151   8.011 -2.1331  1.0714  1.4650
 5568SOL     OW28165   1.180   2.840   2.172 -0.2640  0.0915  0.2466
 5568SOL    HW128166   1.188   2.889   2.090 -0.5202 -0.1489  0.0783
 5568SOL    HW228167   1.244   2.889   2.223  0.1781 -1.7364  1.4257
 5569SOL     OW28168   2.396   0.378   4.619 -0.2073  0.0404 -0.0531
 5569SOL    HW128169   2.381   0.452   4.560 -2.8619 -2.1563 -2.1091
 5569SOL    HW228170   2.325   0.400   4.679 -0.8331 -0.6238 -0.5508
 5570SOL     OW28171   1.469   3.332  12.986 -0.1663 -0.0634 -0.1387
 5570SOL    HW128172   1.557   3.369  12.987  0.5671 -1.8193 -0.8799
 5570SOL    HW228173   1.425   3.414  12.964 -1.1620 -0.8432 -1.0290
 5571SOL     OW28174   3.831   0.636   3.090 -0.2200 -0.1097 -0.2636
 5571SOL    HW128175   3.770   0.562   3.096  2.7638 -2.6690 -1.5941
 5571SOL    HW228176   3.800   0.697   3.156 -0.3481 -1.1282  0.6185
 5572SOL     OW28177   1.131   3.824   8.173 -0.2406  0.2762 -0.2595
 5572SOL    HW128178   1.156   3.837   8.264  1.5807  2.3361 -1.0583
 5572SOL    HW228179   1.172   3.740   8.152  2.3064  1.0695  1.6034
 5573SOL     OW28180   1.637   1.668   9.531 -0.5125  0.0596 -0.1876
 5573SOL    HW128181   1.689   1.748   9.521 -2.6064  1.2452 -1.5335
 5573SOL    HW228182   1.599   1.691   9.616  0.9320 -1.0397  0.7613
 5574SOL     OW28183   2.677   1.080   8.049  0.7843  0.4723 -0.8739
 5574SOL    HW128184   2.596   1.130   8.052  1.5466  1.8234 -2.4319
 5574SOL    HW228185   2.740   1.150   8.064  1.4062 -0.1961 -0.3927
 5575SOL     OW28186   1.487   4.303   6.549  0.5481  0.4189  1.0337
 5575SOL    HW128187   1.502   4.217   6.511 -0.8390  1.8630 -2.8285
 5575SOL    HW228188   1.397   4.301   6.583  0.4578 -1.4593  0.7068
 5576SOL     OW28189   0.321   1.699  17.152 -0.0115  0.0055 -0.1802
 5576SOL    HW128190   0.307   1.793  17.155 -0.0527 -0.0428  0.9855
 5576SOL    HW228191   0.254   1.667  17.212  0.4932  1.0792  0.9364
 5577SOL     OW28192   2.265   3.283  16.543  0.2922  0.1918 -0.4385
 5577SOL    HW128193   2.223   3.369  16.538 -0.8903 -0.3657 -0.0271
 5577SOL    HW228194   2.243   3.251  16.630  0.7902 -2.0076 -1.1244
 5578SOL     OW28195   3.033   3.655   1.256 -0.0149 -0.6149 -0.7550
 5578SOL    HW128196   3.003   3.608   1.178 -0.0122 -0.6790 -0.7174
 5578SOL    HW228197   2.958   3.714   1.259  1.6612  1.3911  1.1933
 5579SOL     OW28198   0.345   1.804  11.976  0.5306  0.4010  0.2147
 5579SOL    HW128199   0.375   1.846  11.895 -0.7813 -0.9047 -0.9495
 5579SOL    HW228200   0.418   1.754  12.011  1.6507 -0.2013 -3.0020
 5580SOL     OW28201   0.838   4.052   8.267  0.5039 -0.2418 -0.2852
 5580SOL    HW128202   0.757   4.067   8.315 -0.2115  1.5476 -2.0361
 5580SOL    HW228203   0.895   4.116   8.308 -1.5234  1.4345 -0.0764
 5581SOL     OW28204   4.392   4.621   6.914  0.3282 -0.1596  0.2078
 5581SOL    HW128205   4.434   4.657   6.837  0.9260 -0.5723  0.3347
 5581SOL    HW228206   4.394   4.697   6.972 -0.5134  1.2132 -1.5914
 5582SOL     OW28207   2.639   4.138   0.633 -0.5451 -0.9480 -0.1822
 5582SOL    HW128208   2.715   4.144   0.690 -0.7080  1.0138 -0.1769
 5582SOL    HW228209   2.566   4.140   0.695 -1.9057  0.2900 -1.8186
 5583SOL     OW28210   1.802   0.274   7.004 -0.1023 -0.3880  0.2078
 5583SOL    HW128211   1.739   0.290   6.934  0.7711  0.7987 -0.3174
 5583SOL    HW228212   1.832   0.190   6.970  3.2373  1.1814 -0.7100
 5584SOL     OW28213   0.690   2.036   1.827 -0.8500  0.6095 -0.3880
 5584SOL    HW128214   0.770   2.058   1.876  0.6616  0.1088 -2.6438
 5584SOL    HW228215   0.721   1.957   1.784  1.9899  0.4873  1.8830
 5585SOL     OW28216   1.661   1.973  17.094  0.1550 -0.0973  0.5423
 5585SOL    HW128217   1.641   2.067  17.088 -0.5418 -0.3958 -1.5196
 5585SOL    HW228218   1.598   1.948  17.162 -0.0894  0.1114  0.3925
 5586SOL     OW28219   2.559   4.551  10.385 -0.5871 -0.3524 -0.0613
 5586SOL    HW128220   2.576   4.590  10.299 -0.9491  0.2230  0.1297
 5586SOL    HW228221   2.523   4.465  10.364  2.0898 -1.2040 -1.1199
 5587SOL     OW28222   1.470   1.629   2.683 -0.5814 -0.4279  0.3402
 5587SOL    HW128223   1.381   1.619   2.718 -0.9714  1.2922 -0.1596
 5587SOL    HW228224   1.500   1.703   2.736  1.7095 -1.5802  0.6340
 5588SOL     OW28225   0.480   3.952  15.814  0.1146  0.7083 -0.5156
 5588SOL    HW128226   0.435   4.002  15.746 -0.8485  2.0983  1.1387
 5588SOL    HW228227   0.572   3.976  15.797  0.7475 -0.4909  1.2606
 5589SOL     OW28228   4.047   4.389  13.042  0.2629  0.4200  0.5575
 5589SOL    HW128229   3.987   4.422  12.975  2.8714 -0.2616 -2.1213
 5589SOL    HW228230   4.064   4.299  13.014  1.2249 -0.3289  3.5043
 5590SOL     OW28231   4.581   2.443  17.130 -0.4336 -0.2944  0.3670
 5590SOL    HW128232   4.538   2.434  17.216 -1.0132  1.4515  0.2632
 5590SOL    HW228233   4.504   2.422  17.077 -1.4613 -0.9717  2.1266
 5591SOL     OW28234   3.964   2.762  10.059  0.0386 -0.1605 -0.2971
 5591SOL    HW128235   3.872   2.784  10.045  0.1998 -0.1286 -1.2980
 5591SOL    HW228236   3.991   2.756   9.967 -0.2736 -1.0809 -0.3323
 5592SOL     OW28237   0.909   1.486   2.644 -0.8912  0.3425  0.0577
 5592SOL    HW128238   0.906   1.439   2.561 -0.8660 -3.0909  1.9729
 5592SOL    HW228239   0.820   1.518   2.659 -0.9711 -0.2320  0.8097
 5593SOL     OW28240   0.279   1.094   1.528 -0.0507 -0.3038  0.1718
 5593SOL    HW128241   0.323   1.125   1.607 -0.0375  0.2231 -0.0408
 5593SOL    HW228242   0.342   1.128   1.465  0.0370 -1.2330 -0.2508
 5594SOL     OW28243   2.431   1.748  11.197 -0.1417 -0.2297  0.0732
 5594SOL    HW128244   2.503   1.807  11.216 -0.7025  0.8287 -1.1193
 5594SOL    HW228245   2.383   1.794  11.128  0.7181  0.7249  0.1135
 5595SOL     OW28246   2.870   2.148   5.363  0.1852 -0.7738  0.2514
 5595SOL    HW128247   2.908   2.159   5.276 -1.3426  0.6108 -0.2315
 5595SOL    HW228248   2.847   2.238   5.387  1.1698 -0.4687  0.0720
 5596SOL     OW28249   1.563   4.587   8.230 -0.1504  0.2172  0.3914
 5596SOL    HW128250   1.591   4.678   8.242  1.4142 -0.1597 -0.3923
 5596SOL    HW228251   1.468   4.598   8.233 -0.1195  0.4671  0.4340
 5597SOL     OW28252   2.275   1.625   3.365  0.1206 -0.3844 -0.1662
 5597SOL    HW128253   2.309   1.570   3.436  1.2402 -0.0647 -0.4478
 5597SOL    HW228254   2.182   1.607   3.356  0.0352 -1.1966  2.3983
 5598SOL     OW28255   2.940   4.294  17.673 -0.2820  0.0279  0.2086
 5598SOL    HW128256   2.994   4.289  17.594  0.0304 -0.6066  0.4662
 5598SOL    HW228257   2.998   4.278   0.060 -2.5195 -1.8949  1.5702
 5599SOL     OW28258   3.788   0.349   3.425 -0.5716 -0.6106  0.5699
 5599SOL    HW128259   3.855   0.415   3.405 -1.0638 -0.6550 -1.2311
 5599SOL    HW228260   3.797   0.275   3.365  2.9048 -0.6824  1.1588
 5600SOL     OW28261   3.438   3.650   4.434 -0.1070 -0.1448 -0.0050
 5600SOL    HW128262   3.443   3.556   4.453  0.1792 -0.4049 -1.3473
 5600SOL    HW228263   3.381   3.684   4.502 -1.5640 -0.0243 -1.3004
 5601SOL     OW28264   0.718   1.368   5.994 -0.0014  0.5047  0.1870
 5601SOL    HW128265   0.723   1.297   5.931 -0.0581  3.7965 -3.5073
 5601SOL    HW228266   0.767   1.325   6.065 -0.5543  1.4945  1.1779
 5602SOL     OW28267   2.654   1.841   7.943 -0.3493  0.0557 -0.1189
 5602SOL    HW128268   2.609   1.900   7.882 -3.1758 -0.1634  1.7781
 5602SOL    HW228269   2.581   1.835   8.005 -0.1067  0.8565  0.2429
 5603SOL     OW28270   3.204   3.802   8.297  0.2520 -0.3035  0.1603
 5603SOL    HW128271   3.279   3.747   8.321 -0.4242 -0.1547  2.6566
 5603SOL    HW228272   3.245   3.881   8.333 -0.2721 -0.3007  0.7578
 5604SOL     OW28273   4.447   0.095   6.319  0.6949 -0.0886  0.4442
 5604SOL    HW128274   4.403   0.099   6.234 -0.1986  1.8630  0.9853
 5604SOL    HW228275   4.530   0.063   6.284  1.0625  1.2401  0.1072
 5605SOL     OW28276   3.466   3.835   0.305  0.5485 -0.6300  0.1141
 5605SOL    HW128277   3.388   3.874   0.264  0.3532  0.4983  1.5358
 5605SOL    HW228278   3.518   3.805   0.231  2.0518 -1.6971  1.6338
 5606SOL     OW28279   4.049   3.233   0.698  0.0652 -0.0656 -0.8707
 5606SOL    HW128280   3.966   3.280   0.689  0.2054  0.8400  2.5501
 5606SOL    HW228281   4.049   3.155   0.643  1.5855 -0.7129  0.0390
 5607SOL     OW28282   4.320   4.095  17.010 -0.4268 -0.5084  0.6979
 5607SOL    HW128283   4.356   4.096  16.921 -0.0432  1.2668  0.8602
 5607SOL    HW228284   4.272   4.177  17.001 -0.6795 -0.5847  1.3783
 5608SOL     OW28285   2.356   0.461   6.388 -0.1779  0.1078 -0.6679
 5608SOL    HW128286   2.404   0.482   6.469 -1.0479 -0.0390 -0.1192
 5608SOL    HW228287   2.390   0.539   6.343 -2.2608  0.0338 -2.3501
 5609SOL     OW28288   2.409   0.191   2.305  0.0212  0.1211 -0.3498
 5609SOL    HW128289   2.351   0.256   2.266  0.1644 -0.7414 -1.9933
 5609SOL    HW228290   2.358   0.111   2.320  0.5771 -0.0308  0.7674
 5610SOL     OW28291   0.458   2.001   2.969 -0.3909 -0.2127 -0.1572
 5610SOL    HW128292   0.418   2.060   3.033 -0.4358 -1.4152  0.9207
 5610SOL    HW228293   0.449   2.053   2.889  1.1986  1.4646  0.7650
 5611SOL     OW28294   1.879   1.011   7.214  0.3618  0.4855 -0.2693
 5611SOL    HW128295   1.943   0.945   7.241 -1.1021 -1.1869 -0.9074
 5611SOL    HW228296   1.931   1.087   7.240 -1.3208  0.6191  2.6737
 5612SOL     OW28297   1.407   3.980   7.054 -0.1487  0.0900 -0.1476
 5612SOL    HW128298   1.470   3.913   7.079 -0.9155 -0.6617 -0.2104
 5612SOL    HW228299   1.462   4.057   7.064 -1.7868  1.2240  0.1807
 5613SOL     OW28300   1.447   1.345  16.077  0.3146  0.1651 -0.7179
 5613SOL    HW128301   1.396   1.299  16.010 -2.9358 -1.5350  2.9310
 5613SOL    HW228302   1.375   1.403  16.103  1.0166  0.0558  1.4275
 5614SOL     OW28303   3.857   4.240  15.049 -0.2752 -0.1651 -0.2135
 5614SOL    HW128304   3.883   4.215  15.138  1.5880  1.8945 -0.1810
 5614SOL    HW228305   3.798   4.313  15.068  0.7993  1.1189 -1.8400
 5615SOL     OW28306   3.277   3.418   6.435 -0.1557  0.2477  0.6446
 5615SOL    HW128307   3.230   3.337   6.417  2.3600 -1.0980  0.1654
 5615SOL    HW228308   3.293   3.453   6.348  1.3995 -0.7930  0.5240
 5616SOL     OW28309   0.648   0.143   3.650  0.2603  0.3071  0.3280
 5616SOL    HW128310   0.585   0.154   3.722  0.2085  1.6552  0.0772
 5616SOL    HW228311   0.700   0.065   3.668 -0.0613  0.1282  0.4799
 5617SOL     OW28312   4.474   2.068  15.204 -0.5232 -0.2592  1.2340
 5617SOL    HW128313   4.524   2.051  15.124 -1.0875  0.1450  0.7908
 5617SOL    HW228314   4.517   2.145  15.238  2.1564 -1.0887 -0.3125
 5618SOL     OW28315   0.471   3.309   5.746 -0.2961  0.6423  0.0274
 5618SOL    HW128316   0.394   3.253   5.736  0.1948 -0.4451  2.3188
 5618SOL    HW228317   0.430   3.388   5.783 -0.6753  0.1973  0.5543
 5619SOL     OW28318   4.513   2.562   7.109  0.7469  0.3273 -0.5646
 5619SOL    HW128319   4.461   2.533   7.184  0.3062  0.2773 -0.8888
 5619SOL    HW228320   4.563   2.484   7.085  1.6360  0.9524 -0.7319
 5620SOL     OW28321   3.333   1.062   2.032 -0.2784 -0.2976  0.5723
 5620SOL    HW128322   3.302   1.113   2.107  1.4054  0.9150  0.4550
 5620SOL    HW228323   3.381   0.996   2.082 -1.0873 -1.9875 -0.9335
 5621SOL     OW28324   1.444   2.746   7.914 -0.5452  0.3362 -0.2608
 5621SOL    HW128325   1.391   2.825   7.905  0.2025  0.8484 -0.1369
 5621SOL    HW228326   1.450   2.709   7.825  0.2205  0.7529 -0.3800
 5622SOL     OW28327   3.096   4.606   5.199  0.1150  0.1689  0.0126
 5622SOL    HW128328   3.038   4.589   5.125  0.7363  2.4247 -0.9686
 5622SOL    HW228329   3.136   4.519   5.205 -2.5487 -1.0316  0.6244
 5623SOL     OW28330   2.660   2.904   6.608  0.3751 -0.1661 -0.5431
 5623SOL    HW128331   2.587   2.961   6.584 -0.5281 -0.2873  1.9228
 5623SOL    HW228332   2.721   2.967   6.648 -1.1521 -0.4904  2.3396
 5624SOL     OW28333   2.914   1.739   5.338 -0.6237 -0.1276 -0.1458
 5624SOL    HW128334   2.861   1.807   5.379 -1.2103  0.2134 -1.4556
 5624SOL    HW228335   2.896   1.753   5.245 -1.0984 -0.7832 -0.1530
 5625SOL     OW28336   2.509   2.121   7.085 -0.4076  0.6573  0.7749
 5625SOL    HW128337   2.510   2.026   7.068  0.2019  0.6857  0.6498
 5625SOL    HW228338   2.565   2.158   7.017 -2.3563  2.1990  0.0210
 5626SOL     OW28339   1.636   1.650  10.054  0.8916 -0.0519 -0.1416
 5626SOL    HW128340   1.651   1.556  10.059 -0.1140 -0.1601  1.0200
 5626SOL    HW228341   1.567   1.640  10.120  1.2180  2.1942  0.5353
 5627SOL     OW28342   3.177   1.740  15.688  0.7551  0.2236 -0.1604
 5627SOL    HW128343   3.115   1.813  15.694  0.8614  0.5311 -2.8946
 5627SOL    HW228344   3.256   1.785  15.658  1.6298 -1.6344 -0.6617
 5628SOL     OW28345   1.390   3.848   4.786  0.1537  0.3232 -0.2705
 5628SOL    HW128346   1.397   3.817   4.876  0.2004  0.6130 -0.1724
 5628SOL    HW228347   1.308   3.898   4.790 -0.4303 -0.6607  0.1108
 5629SOL     OW28348   4.414   3.276   6.942 -0.4189 -0.1795 -0.1018
 5629SOL    HW128349   4.399   3.193   6.987  0.5833  0.4521  1.4023
 5629SOL    HW228350   4.498   3.305   6.978 -0.4891  1.8448 -1.5532
 5630SOL     OW28351   3.617   1.751   9.824 -0.0570  0.1244 -0.1922
 5630SOL    HW128352   3.667   1.792   9.754  2.9330 -3.3775 -0.0956
 5630SOL    HW228353   3.678   1.685   9.857  0.0080  0.2082 -0.1480
 5631SOL     OW28354   2.415   4.279  12.683 -0.3931  0.2116 -0.1171
 5631SOL    HW128355   2.402   4.372  12.664 -1.4286 -0.0932 -0.8368
 5631SOL    HW228356   2.347   4.266  12.749  0.8253  0.7026  1.2369
 5632SOL     OW28357   1.831   0.154  10.936  0.0238 -0.6741  0.3277
 5632SOL    HW128358   1.772   0.148  11.011  0.5263  0.0291  0.7760
 5632SOL    HW228359   1.903   0.208  10.967 -1.6073  2.8304 -1.9057
 5633SOL     OW28360   1.730   0.075   5.592 -0.3352 -0.2284 -0.3624
 5633SOL    HW128361   1.704   0.032   5.510 -1.0165 -1.2445  0.3804
 5633SOL    HW228362   1.646   0.075   5.637  1.2368  1.9176  2.5406
 5634SOL     OW28363   1.942   3.594   6.568 -0.0759 -0.0737 -0.6850
 5634SOL    HW128364   1.962   3.628   6.481 -0.4699  0.5918 -0.5131
 5634SOL    HW228365   1.847   3.601   6.575 -0.0222 -1.4553  1.4751
 5635SOL     OW28366   4.240   3.818   2.132  0.5261 -0.3056  0.3456
 5635SOL    HW128367   4.209   3.878   2.200  0.1138  0.5822 -0.6201
 5635SOL    HW228368   4.226   3.731   2.171 -0.9283  1.4520  3.7531
 5636SOL     OW28369   3.319   4.187   5.048 -0.4120 -0.3417 -0.0430
 5636SOL    HW128370   3.356   4.265   5.005  1.2682 -0.7696  0.6318
 5636SOL    HW228371   3.269   4.152   4.974 -0.5375  2.3553 -1.2456
 5637SOL     OW28372   3.251   4.163   3.068  0.4804  0.9632 -0.7745
 5637SOL    HW128373   3.302   4.237   3.101 -1.8983  2.0345  0.5471
 5637SOL    HW228374   3.315   4.093   3.061 -0.2204  0.3821 -1.4190
 5638SOL     OW28375   2.117   3.633   1.989 -0.0905 -0.5376 -0.0953
 5638SOL    HW128376   2.127   3.663   1.899 -0.5349 -3.2282 -1.0468
 5638SOL    HW228377   2.096   3.713   2.038 -0.2386 -0.9732  0.5555
 5639SOL     OW28378   1.881   3.597  10.605  0.0776  0.0594  0.4418
 5639SOL    HW128379   1.881   3.684  10.645  0.7994 -0.8074  2.3610
 5639SOL    HW228380   1.976   3.586  10.595 -0.0809  0.5775 -1.4475
 5640SOL     OW28381   4.117   2.735   9.307  0.0899 -0.1454  0.5113
 5640SOL    HW128382   4.070   2.674   9.250 -1.6497  1.0137  0.6971
 5640SOL    HW228383   4.207   2.711   9.287 -0.1414 -2.1207  1.8012
 5641SOL     OW28384   0.114   3.637  12.985 -0.0975  0.1938 -0.2729
 5641SOL    HW128385   0.131   3.638  13.080 -0.4402 -1.6790 -0.1875
 5641SOL    HW228386   0.188   3.687  12.949  0.5236 -2.8993 -3.1870
 5642SOL     OW28387   2.067   4.635  13.830 -0.2634 -0.1683  0.1806
 5642SOL    HW128388   2.029   4.547  13.842 -0.0718 -0.5098 -1.7633
 5642SOL    HW228389   2.110   4.647  13.915 -2.1592  0.0657  1.1220
 5643SOL     OW28390   2.393   3.797   5.432 -0.3038  0.6591  0.4472
 5643SOL    HW128391   2.318   3.818   5.377 -0.3303  0.3330  0.3597
 5643SOL    HW228392   2.431   3.881   5.459  0.4667  0.7963 -1.0724
 5644SOL     OW28393   3.156   1.840   8.915 -0.1975  0.3562  0.0551
 5644SOL    HW128394   3.206   1.782   8.972  2.3858  1.0202 -1.5362
 5644SOL    HW228395   3.170   1.918   8.968 -2.0375 -0.4735  1.7674
 5645SOL     OW28396   2.213   1.810   3.557 -0.1861 -0.0834  0.1539
 5645SOL    HW128397   2.193   1.751   3.484 -2.1477 -1.5581  1.8906
 5645SOL    HW228398   2.146   1.877   3.550  1.9541  2.1233  0.7778
 5646SOL     OW28399   2.994   0.302   2.281  0.4851 -0.9470  0.1535
 5646SOL    HW128400   2.958   0.389   2.263 -0.2499 -1.3939 -0.5435
 5646SOL    HW228401   2.916   0.249   2.266  1.4193 -1.8556 -1.5138
 5647SOL     OW28402   2.213   0.755   1.716 -1.1746  0.4869  0.3153
 5647SOL    HW128403   2.217   0.807   1.637 -0.2307 -0.5262 -0.3138
 5647SOL    HW228404   2.222   0.817   1.788  1.7010 -0.7080  0.9838
 5648SOL     OW28405   0.472   3.046  16.322  0.7044 -0.2528 -0.7148
 5648SOL    HW128406   0.511   2.961  16.301 -0.7016 -1.0483 -0.0888
 5648SOL    HW228407   0.528   3.099  16.265  0.2929  0.3649 -0.5422
 5649SOL     OW28408   1.504   3.540   0.688 -0.4218 -0.1310  0.0172
 5649SOL    HW128409   1.556   3.537   0.768 -1.1774 -2.4688  0.4422
 5649SOL    HW228410   1.575   3.538   0.625 -0.2287 -1.8433  0.2817
 5650SOL     OW28411   4.335   0.079   4.517 -0.4124 -0.8436  0.2757
 5650SOL    HW128412   4.331   0.053   4.609  0.0376 -1.0293  0.2412
 5650SOL    HW228413   4.421   0.042   4.499 -0.7650 -1.8083  0.5743
 5651SOL     OW28414   4.700   3.222   7.034  0.4623  0.3142  0.1224
 5651SOL    HW128415   0.031   3.216   7.115  1.0057 -0.4263 -0.2802
 5651SOL    HW228416   4.654   3.138   7.029  1.4368 -0.5443  5.5085
 5652SOL     OW28417   3.211   1.392  15.778 -0.0840  0.5131 -0.5268
 5652SOL    HW128418   3.172   1.310  15.811 -0.7240  0.3598 -1.6384
 5652SOL    HW228419   3.162   1.468  15.809  0.3121  0.8168 -0.6475
 5653SOL     OW28420   0.628   4.361   6.012 -0.4855  0.3655 -0.0689
 5653SOL    HW128421   0.684   4.284   6.000 -0.9388 -0.1183  0.9284
 5653SOL    HW228422   0.643   4.375   6.105  3.1535 -0.3813 -0.5306
 5654SOL     OW28423   2.040   3.023  14.055  0.0244 -0.2251 -0.4520
 5654SOL    HW128424   2.083   2.997  14.137 -1.9567  0.0282  0.6849
 5654SOL    HW228425   2.039   2.940  14.007  0.6476  0.3165 -1.3867
 5655SOL     OW28426   1.994   1.236   8.695 -0.5980  0.5933 -0.1829
 5655SOL    HW128427   1.975   1.148   8.727 -0.5609 -0.2836 -2.6366
 5655SOL    HW228428   1.906   1.275   8.692 -0.9344 -0.0428  1.1960
 5656SOL     OW28429   2.789   1.284   1.853  0.1725 -0.1148 -0.1393
 5656SOL    HW128430   2.709   1.293   1.903 -0.2596 -0.7191 -0.7284
 5656SOL    HW228431   2.807   1.377   1.841 -0.4643 -0.0266 -0.3965
 5657SOL     OW28432   2.731   4.488   6.649  0.1462 -0.0759  0.2294
 5657SOL    HW128433   2.713   4.436   6.726 -3.2776 -0.8964 -1.1311
 5657SOL    HW228434   2.785   4.549   6.698 -0.0063  0.6046 -0.4450
 5658SOL     OW28435   4.630   1.702   5.418 -0.2976  0.2715 -0.8129
 5658SOL    HW128436   4.687   1.692   5.342 -1.0866  0.3123 -1.4140
 5658SOL    HW228437   4.543   1.716   5.380 -0.5742 -0.2247 -0.3666
 5659SOL     OW28438   2.729   0.568  16.113 -0.0574  0.1222 -0.5484
 5659SOL    HW128439   2.700   0.514  16.187  1.1143  1.3721  0.8316
 5659SOL    HW228440   2.661   0.543  16.051 -0.1764  0.5539 -0.5883
 5660SOL     OW28441   2.422   3.171  14.907  0.1294  0.0178 -0.7737
 5660SOL    HW128442   2.446   3.257  14.943 -0.5802 -0.2219  0.2795
 5660SOL    HW228443   2.487   3.113  14.946 -1.0805  0.2951  1.6844
 5661SOL     OW28444   4.561   3.377  15.901 -0.1597 -0.4243  0.4039
 5661SOL    HW128445   4.638   3.419  15.862 -0.4032 -0.4266 -0.0753
 5661SOL    HW228446   4.605   3.339  15.978 -1.1912 -1.0677  0.6764
 5662SOL     OW28447   2.196   3.179   1.892 -0.2762  0.5122 -0.1534
 5662SOL    HW128448   2.279   3.166   1.846  0.6871 -0.0167  1.7711
 5662SOL    HW228449   2.215   3.253   1.949 -0.4971  1.4914 -1.3388
 5663SOL     OW28450   3.333   3.104  15.421  0.0773  0.1596 -0.0863
 5663SOL    HW128451   3.304   3.038  15.357 -1.3267  0.6772  0.0103
 5663SOL    HW228452   3.385   3.163  15.366 -2.9224  2.2212 -0.7342
 5664SOL     OW28453   4.090   4.214   5.857 -0.2153 -0.0370 -0.3330
 5664SOL    HW128454   4.112   4.304   5.878  0.8354 -0.5792  0.9352
 5664SOL    HW228455   4.137   4.182   5.780 -1.1798  0.3129 -1.0549
 5665SOL     OW28456   3.659   0.665   6.976 -0.9986 -0.2127 -0.0881
 5665SOL    HW128457   3.600   0.596   7.007 -1.7331  0.5213  0.1753
 5665SOL    HW228458   3.715   0.608   6.924  0.0910  0.9081 -0.1323
 5666SOL     OW28459   2.066   0.923  10.922  0.3557  0.3063  0.2101
 5666SOL    HW128460   2.093   1.015  10.927 -1.1316  0.7299  0.3466
 5666SOL    HW228461   1.976   0.938  10.894 -0.3048  0.3855  2.3990
 5667SOL     OW28462   1.843   1.148   8.415 -0.1854  0.0857  0.2068
 5667SOL    HW128463   1.902   1.176   8.486 -0.4602  0.5053  0.2688
 5667SOL    HW228464   1.907   1.107   8.356 -0.2406  1.4070 -0.7873
 5668SOL     OW28465   3.267   0.459   6.447 -0.2580 -0.0037  0.2367
 5668SOL    HW128466   3.223   0.540   6.421  4.2629  1.9518 -1.4605
 5668SOL    HW228467   3.247   0.399   6.375 -1.9111  0.6252  0.1745
 5669SOL     OW28468   4.716   4.257  14.345  0.2359 -0.4368 -0.3556
 5669SOL    HW128469   4.632   4.230  14.308 -1.3032  0.4447  2.4341
 5669SOL    HW228470   0.005   4.182  14.403 -0.6286 -1.0580 -0.9928
 5670SOL     OW28471   0.568   1.734   5.923  0.2187 -0.0041  0.0391
 5670SOL    HW128472   0.643   1.717   5.867  1.6632 -2.5301  2.7937
 5670SOL    HW228473   0.610   1.801   5.978 -1.4223  0.2964  0.9519
 5671SOL     OW28474   3.193   2.409  12.512  0.5879  0.2937 -0.3034
 5671SOL    HW128475   3.145   2.466  12.453 -1.3418  1.3893  2.3486
 5671SOL    HW228476   3.212   2.336  12.452  1.2079  1.4464 -1.5074
 5672SOL     OW28477   3.713   2.356  14.061 -0.3242  0.4927  0.3378
 5672SOL    HW128478   3.756   2.391  13.983 -0.0552 -2.6081 -0.9434
 5672SOL    HW228479   3.705   2.266  14.028  0.8372 -0.0038  1.4240
 5673SOL     OW28480   4.119   1.493   9.361 -0.0708 -0.0194 -0.4458
 5673SOL    HW128481   4.057   1.445   9.416 -0.7888  0.7379 -0.5879
 5673SOL    HW228482   4.062   1.527   9.291  0.5790  1.2925 -0.3470
 5674SOL     OW28483   4.346   2.485  14.664 -0.2705 -0.1876  0.0373
 5674SOL    HW128484   4.251   2.480  14.673 -0.2424 -2.0681 -0.5618
 5674SOL    HW228485   4.362   2.572  14.699 -1.9428 -0.0398  0.4202
 5675SOL     OW28486   3.549   3.712   2.125 -0.5487  0.4826  0.2470
 5675SOL    HW128487   3.536   3.802   2.157 -0.2582  1.4759 -2.4571
 5675SOL    HW228488   3.469   3.696   2.077 -1.2426 -0.7336  1.8174
 5676SOL     OW28489   2.189   2.725   4.598 -0.2926 -0.4372  0.4090
 5676SOL    HW128490   2.228   2.641   4.621  1.0048  0.6472  2.1762
 5676SOL    HW228491   2.257   2.787   4.626 -1.7265  1.3055  0.0155
 5677SOL     OW28492   2.689   3.012  10.850 -0.1340 -0.3495 -0.0034
 5677SOL    HW128493   2.653   2.977  10.769 -1.2002 -0.4197  0.5045
 5677SOL    HW228494   2.695   2.934  10.905 -0.6709 -0.1932  0.2781
 5678SOL     OW28495   3.462   0.874   9.120  0.2964 -0.2848  0.0791
 5678SOL    HW128496   3.374   0.843   9.098 -0.3825  0.8491  1.1843
 5678SOL    HW228497   3.510   0.794   9.100 -1.8686 -1.4230 -0.5985
 5679SOL     OW28498   1.319   0.852   6.220 -1.1353 -0.4801  0.1606
 5679SOL    HW128499   1.359   0.768   6.202  2.3922  1.6044 -1.7024
 5679SOL    HW228500   1.378   0.892   6.284 -1.1856  2.1349 -1.4094
 5680SOL     OW28501   1.178   4.428   5.039  0.0757  0.2598  0.1267
 5680SOL    HW128502   1.093   4.395   5.012 -0.3366  1.8824 -0.5081
 5680SOL    HW228503   1.163   4.445   5.132 -2.1938 -1.9638  0.1679
 5681SOL     OW28504   2.294   3.966   7.629 -0.3084  0.4316 -0.7511
 5681SOL    HW128505   2.377   3.933   7.594  0.0857 -0.1593  0.7424
 5681SOL    HW228506   2.268   3.896   7.689 -1.2036  2.0742  0.7858
 5682SOL     OW28507   2.350   3.759   6.232  0.4318  0.1251 -0.6200
 5682SOL    HW128508   2.442   3.741   6.215 -0.2602 -1.9115 -2.2710
 5682SOL    HW228509   2.348   3.752   6.327  1.2357 -0.5587 -0.6535
 5683SOL     OW28510   4.061   0.435   7.858  0.3206  0.1497 -0.1135
 5683SOL    HW128511   4.011   0.429   7.777 -0.0192 -2.4962  0.2805
 5683SOL    HW228512   4.141   0.395   7.823 -0.0969 -0.1105 -0.7607
 5684SOL     OW28513   3.304   0.632   6.963  0.2239 -0.2702 -0.3146
 5684SOL    HW128514   3.382   0.632   7.018 -0.0375 -0.4589  0.0582
 5684SOL    HW228515   3.238   0.589   7.017  1.6479 -1.7835  0.1895
 5685SOL     OW28516   1.433   0.338   7.658 -0.8187  0.1077 -0.2192
 5685SOL    HW128517   1.407   0.251   7.688  0.8743 -0.4610 -0.3794
 5685SOL    HW228518   1.351   0.380   7.633 -0.1723  1.7785  0.4767
 5686SOL     OW28519   2.107   2.073  14.493  0.1860  0.1698  0.4221
 5686SOL    HW128520   2.068   1.986  14.486  0.8889 -0.0908 -0.3142
 5686SOL    HW228521   2.189   2.052  14.448  0.5397  2.1240  0.1361
 5687SOL     OW28522   2.588   2.092   0.490 -0.4848 -0.1121 -0.1788
 5687SOL    HW128523   2.666   2.144   0.470  1.7431 -3.0998  0.6036
 5687SOL    HW228524   2.526   2.107   0.419 -0.7495  0.0153  0.0829
 5688SOL     OW28525   4.504   2.558   5.693  0.4180  0.4186 -0.3267
 5688SOL    HW128526   4.451   2.533   5.617  0.3937 -1.2945  0.2429
 5688SOL    HW228527   4.447   2.522   5.760 -0.3836 -0.0752 -1.2681
 5689SOL     OW28528   3.525   1.631   4.982  0.6637  0.2868  0.3989
 5689SOL    HW128529   3.572   1.602   4.903  0.0011 -1.2668  0.5892
 5689SOL    HW228530   3.461   1.562   4.997  1.2954 -0.0439  1.5665
 5690SOL     OW28531   4.494   4.198  12.213 -0.2981  0.3139 -0.3421
 5690SOL    HW128532   4.416   4.183  12.160  0.2969 -1.4927 -0.7230
 5690SOL    HW228533   4.521   4.112  12.245 -0.4963  1.0320  1.7450
 5691SOL     OW28534   2.439   0.592  10.381 -0.0546  0.2846  0.2563
 5691SOL    HW128535   2.398   0.601  10.467  0.6659 -2.6884  0.8977
 5691SOL    HW228536   2.513   0.536  10.402  0.1993 -0.7682 -3.4429
 5692SOL     OW28537   3.589   3.749  12.088  0.2971 -0.4285 -0.3175
 5692SOL    HW128538   3.674   3.784  12.114  1.3654 -0.1893 -4.1565
 5692SOL    HW228539   3.597   3.759  11.993 -0.0752  0.7279 -0.2309
 5693SOL     OW28540   1.597   2.931  10.094 -0.4820 -0.1108 -0.1270
 5693SOL    HW128541   1.505   2.930  10.069 -0.3944  0.1740 -0.4577
 5693SOL    HW228542   1.612   2.840  10.118 -0.6378 -0.4186 -1.1911
 5694SOL     OW28543   0.669   2.632  13.292  0.2701 -0.0272 -0.2356
 5694SOL    HW128544   0.644   2.676  13.373 -0.2064 -1.0930  0.2022
 5694SOL    HW228545   0.629   2.545  13.300 -0.3087  0.1127 -1.5485
 5695SOL     OW28546   0.608   0.425   1.716  0.2833 -0.2667  0.3302
 5695SOL    HW128547   0.695   0.456   1.739  0.1071  1.3555 -1.1802
 5695SOL    HW228548   0.598   0.447   1.624 -1.1283 -0.1630  0.5070
 5696SOL     OW28549   2.261   1.230   6.743 -0.1345  0.7649  0.1915
 5696SOL    HW128550   2.271   1.219   6.648 -1.4196  2.6865 -0.1738
 5696SOL    HW228551   2.182   1.284   6.751 -0.8084 -0.5797  2.5434
 5697SOL     OW28552   1.825   2.161  10.983 -0.0387  0.4696  0.0546
 5697SOL    HW128553   1.886   2.101  10.940  0.4518  0.1929  1.1264
 5697SOL    HW228554   1.856   2.243  10.946 -1.2495  2.2278  2.9370
 5698SOL     OW28555   0.361   4.658   8.899 -0.8383  0.3743  0.4600
 5698SOL    HW128556   0.361   4.695   8.811  0.9572  1.0852  0.7588
 5698SOL    HW228557   0.281   4.698   8.935 -0.9822  0.5730 -0.0820
 5699SOL     OW28558   1.255   0.114   6.963 -0.7292 -0.4247  0.2296
 5699SOL    HW128559   1.242   0.069   6.880  1.6889 -0.5713 -0.0675
 5699SOL    HW228560   1.320   0.057   7.004 -2.0584 -1.2629  1.1795
 5700SOL     OW28561   3.485   2.751   2.428 -0.3374  0.2941 -0.1429
 5700SOL    HW128562   3.572   2.732   2.463  0.6084  1.8125 -1.6992
 5700SOL    HW228563   3.470   2.843   2.451 -2.3322 -0.2097  0.5880
 5701SOL     OW28564   2.985   3.883   8.721 -0.3827  0.1982 -0.9072
 5701SOL    HW128565   2.937   3.834   8.788  1.4966 -1.2386 -0.6248
 5701SOL    HW228566   3.007   3.961   8.772  0.3731 -0.9085  0.4436
 5702SOL     OW28567   4.250   2.382  15.346 -0.0991  0.3970 -0.0404
 5702SOL    HW128568   4.163   2.399  15.310 -1.2994  2.4047  3.7903
 5702SOL    HW228569   4.268   2.465  15.390 -0.7745  0.9727 -0.8714
 5703SOL     OW28570   0.511   0.550   5.860 -0.3261  0.0224 -0.1265
 5703SOL    HW128571   0.590   0.512   5.822  0.0953 -0.8462  1.6348
 5703SOL    HW228572   0.449   0.518   5.795 -0.3897  0.8775 -0.4952
 5704SOL     OW28573   4.349   2.756   0.789  0.5907  0.2948  0.2847
 5704SOL    HW128574   4.348   2.784   0.880 -0.4247 -0.1583  0.4130
 5704SOL    HW228575   4.275   2.809   0.759 -0.7008 -1.2289  0.8305
 5705SOL     OW28576   4.257   0.392   3.890  0.3553 -0.2954  0.0220
 5705SOL    HW128577   4.247   0.461   3.824  1.3241 -1.4702 -1.3403
 5705SOL    HW228578   4.309   0.328   3.841 -3.4139 -1.9433 -1.8239
 5706SOL     OW28579   2.317   4.290   3.421 -0.2488  0.3413  0.1540
 5706SOL    HW128580   2.281   4.372   3.385  2.4586  2.3489  2.0004
 5706SOL    HW228581   2.253   4.225   3.392 -1.0825 -1.3103  5.7991
 5707SOL     OW28582   0.874   2.411   7.656 -0.0567 -1.0058 -0.0654
 5707SOL    HW128583   0.807   2.346   7.636  0.3316 -1.7172  0.9745
 5707SOL    HW228584   0.899   2.418   7.564 -2.1438  1.9740 -0.3910
 5708SOL     OW28585   0.665   0.194  16.452 -0.3868 -0.2620 -0.4742
 5708SOL    HW128586   0.685   0.103  16.476 -2.5264 -0.4854  0.5143
 5708SOL    HW228587   0.749   0.226  16.482  0.3915 -0.8253 -2.0153
 5709SOL     OW28588   3.156   2.895   8.298 -0.1839  0.0506 -0.8133
 5709SOL    HW128589   3.099   2.888   8.374  0.4655 -2.2975 -0.5117
 5709SOL    HW228590   3.159   2.802   8.272  1.0275 -0.1360  0.0120
 5710SOL     OW28591   2.906   1.177   5.944 -1.0099  0.2250 -0.1392
 5710SOL    HW128592   2.933   1.255   5.992  1.0352  0.3750 -1.5376
 5710SOL    HW228593   2.845   1.153   6.014 -0.9500  0.3061 -0.0588
 5711SOL     OW28594   4.289   2.821  15.218  0.0165  0.1055 -0.5260
 5711SOL    HW128595   4.265   2.779  15.300 -2.8230 -1.5262 -2.1824
 5711SOL    HW228596   4.378   2.852  15.237  0.0422 -1.1173  1.3134
 5712SOL     OW28597   0.490   2.291   4.394  0.6085  0.3458 -0.7881
 5712SOL    HW128598   0.422   2.333   4.448  2.0039 -0.2770  1.4361
 5712SOL    HW228599   0.523   2.221   4.449 -1.2305  1.0348  1.1917
 5713SOL     OW28600   4.105   1.321   7.823  0.7620  0.3479 -0.2576
 5713SOL    HW128601   4.120   1.402   7.776 -2.4744  0.4487 -1.1661
 5713SOL    HW228602   4.037   1.277   7.771  0.4286  2.0030 -1.2196
 5714SOL     OW28603   1.400   4.581  11.223  0.1158  0.0913  0.2294
 5714SOL    HW128604   1.337   4.528  11.174  0.9874  0.8918 -1.7870
 5714SOL    HW228605   1.454   4.617  11.152  0.8373  1.6029  1.5574
 5715SOL     OW28606   4.032   0.468   3.370  0.1263 -0.4203 -0.4571
 5715SOL    HW128607   4.101   0.504   3.425  0.0992 -0.4943 -0.3734
 5715SOL    HW228608   4.077   0.414   3.305  1.8441 -1.2825  1.4645
 5716SOL     OW28609   0.288   2.860  13.203  0.2555 -0.1043 -0.2197
 5716SOL    HW128610   0.239   2.851  13.286 -0.3390  1.3032 -0.4212
 5716SOL    HW228611   0.372   2.887  13.239 -0.8693  0.3870  2.0759
 5717SOL     OW28612   1.704   2.390   6.374  0.0102 -0.4685 -0.5542
 5717SOL    HW128613   1.704   2.379   6.470  2.2179 -0.7938 -0.5903
 5717SOL    HW228614   1.709   2.296   6.354  2.6415 -0.2139 -1.0888
 5718SOL     OW28615   4.036   2.809   0.753  0.1818 -0.0637  0.3925
 5718SOL    HW128616   4.038   2.819   0.658 -0.6166 -0.8483  0.2915
 5718SOL    HW228617   4.095   2.879   0.782  0.4380 -1.4553  3.2698
 5719SOL     OW28618   0.193   1.176   4.677  0.1818  0.0036  0.1632
 5719SOL    HW128619   0.138   1.204   4.604  1.4694 -1.2538 -1.3059
 5719SOL    HW228620   0.217   1.084   4.666 -0.5502 -0.2675  0.8871
 5720SOL     OW28621   3.528   3.816   7.030  0.1221  0.3416 -0.0248
 5720SOL    HW128622   3.603   3.757   7.039 -1.0075 -1.2090 -0.7114
 5720SOL    HW228623   3.562   3.903   7.011  1.3346 -0.0808  0.2174
 5721SOL     OW28624   3.902   3.739   7.253  0.0327  0.4767 -0.0088
 5721SOL    HW128625   3.842   3.795   7.204  0.6547  0.7543 -0.4487
 5721SOL    HW228626   3.952   3.804   7.301 -0.0866 -1.7390  3.0898
 5722SOL     OW28627   0.508   3.848   3.230  0.0925  0.3674  0.3206
 5722SOL    HW128628   0.593   3.811   3.207  0.5088  1.1307  0.6218
 5722SOL    HW228629   0.519   3.933   3.187 -0.8364  0.6731  0.6819
 5723SOL     OW28630   3.223   2.009  10.099  0.6232 -0.1264 -0.3163
 5723SOL    HW128631   3.152   2.024  10.161 -1.1813 -3.1666 -1.6699
 5723SOL    HW228632   3.289   2.071  10.130  0.0568 -0.7346  2.0575
 5724SOL     OW28633   3.181   4.177  15.131 -0.0901 -0.2757 -0.4034
 5724SOL    HW128634   3.176   4.124  15.051  0.0081 -0.7575 -0.0854
 5724SOL    HW228635   3.162   4.263  15.093  1.8103 -0.5305 -1.8984
 5725SOL     OW28636   4.593   3.704   5.386 -0.0013  0.3978  0.0122
 5725SOL    HW128637   4.601   3.787   5.433  3.0452 -0.5997  1.2258
 5725SOL    HW228638   4.657   3.653   5.435 -1.5270 -2.3784 -0.8695
 5726SOL     OW28639   2.582   0.196   7.739 -0.5426 -0.0411  0.7538
 5726SOL    HW128640   2.575   0.216   7.832  0.8861 -0.7587  1.0133
 5726SOL    HW228641   2.492   0.193   7.707  0.2020  3.1773 -1.6720
 5727SOL     OW28642   2.487   1.662  17.614  0.1684 -0.2477 -0.4570
 5727SOL    HW128643   2.509   1.749  17.649  1.5579 -1.0947  0.7950
 5727SOL    HW228644   2.576   1.627  17.612 -0.5984 -1.9425 -4.3271
 5728SOL     OW28645   2.547   0.434   6.943  0.5099 -0.4148  0.2886
 5728SOL    HW128646   2.525   0.353   6.989  2.1159 -1.1270 -0.1993
 5728SOL    HW228647   2.464   0.440   6.895  0.7052  1.0364  0.1411
 5729SOL     OW28648   3.711   1.162  14.506  0.1721 -0.2606  0.1184
 5729SOL    HW128649   3.654   1.237  14.490  1.1702  0.2544 -0.9954
 5729SOL    HW228650   3.659   1.090  14.470 -1.0371  0.7735 -0.1697
 5730SOL     OW28651   1.912   0.202   4.786 -0.0855  0.3022  0.5021
 5730SOL    HW128652   1.970   0.139   4.744  0.9880  0.9370  1.0321
 5730SOL    HW228653   1.825   0.171   4.760  0.1471  0.5821 -0.6155
 5731SOL     OW28654   3.446   0.097   3.786  0.5044 -0.2279 -0.1681
 5731SOL    HW128655   3.461   0.058   3.700 -1.8534  3.0444 -2.0758
 5731SOL    HW228656   3.467   0.189   3.769  2.0928 -0.9254 -2.0234
 5732SOL     OW28657   3.227   0.275  14.070  0.0428  0.0182  0.2407
 5732SOL    HW128658   3.287   0.202  14.084 -2.2796 -1.1829  4.0959
 5732SOL    HW228659   3.273   0.328  14.006  1.1700 -0.1964  0.8624
 5733SOL     OW28660   1.251   2.403  11.573  0.5896  0.5768 -0.2082
 5733SOL    HW128661   1.280   2.406  11.481  0.1269 -2.1554 -0.4401
 5733SOL    HW228662   1.336   2.413  11.616  0.3785 -0.5762  0.4810
 5734SOL     OW28663   2.590   0.365   1.341  0.0101 -0.4657  0.0287
 5734SOL    HW128664   2.519   0.350   1.402 -0.6418 -1.2145 -0.9029
 5734SOL    HW228665   2.656   0.310   1.384  0.6249  0.8220  0.7115
 5735SOL     OW28666   0.121   3.766  14.145 -0.1095  0.1317  1.1817
 5735SOL    HW128667   0.122   3.829  14.217 -0.9026  0.6131  0.7655
 5735SOL    HW228668   0.030   3.760  14.115  0.3449  1.0033 -0.3452
 5736SOL     OW28669   4.492   2.493   8.336  0.2046 -0.2851 -0.7986
 5736SOL    HW128670   4.419   2.554   8.344 -1.8334 -2.6135 -1.6095
 5736SOL    HW228671   4.543   2.508   8.416 -1.2142  2.3249 -0.3889
 5737SOL     OW28672   4.115   0.729   4.022 -0.3121 -0.7935  0.2063
 5737SOL    HW128673   4.136   0.683   3.941 -0.2069 -1.9727  0.9071
 5737SOL    HW228674   4.081   0.658   4.075  2.2420 -1.4311  0.9885
 5738SOL     OW28675   1.658   4.606   2.925  0.5091  0.7919 -0.5129
 5738SOL    HW128676   1.624   4.660   2.853  1.0347  0.1176 -1.2736
 5738SOL    HW228677   1.752   4.607   2.910  0.2022 -1.2821 -2.6727
 5739SOL     OW28678   3.870   4.123   5.171 -0.3149 -0.1889 -0.3790
 5739SOL    HW128679   3.910   4.043   5.138 -0.9145 -0.0815 -1.3810
 5739SOL    HW228680   3.801   4.085   5.226 -0.1651 -1.0330 -0.7736
 5740SOL     OW28681   1.200   2.001   6.972 -0.7475 -0.4001  0.3813
 5740SOL    HW128682   1.199   1.943   6.897 -2.5598  1.2701 -0.8914
 5740SOL    HW228683   1.232   2.081   6.930 -3.7745  1.7899  2.2593
 5741SOL     OW28684   0.487   2.104   6.041  0.1873  0.5557 -0.0319
 5741SOL    HW128685   0.447   2.190   6.024  0.4412  0.9652  1.3904
 5741SOL    HW228686   0.458   2.071   5.957  0.1880  0.0970  0.1513
 5742SOL     OW28687   0.209   3.171   4.146 -0.1849 -0.3199  0.3080
 5742SOL    HW128688   0.142   3.204   4.205 -1.7433 -0.6756 -1.2646
 5742SOL    HW228689   0.156   3.138   4.073  0.5875 -0.4167 -0.2146
 5743SOL     OW28690   2.418   0.770   9.479 -0.2204 -0.2858 -0.1492
 5743SOL    HW128691   2.462   0.685   9.487 -0.9210 -0.6634 -0.2824
 5743SOL    HW228692   2.371   0.778   9.561  2.0160  3.0948  0.7967
 5744SOL     OW28693   1.853   0.445   4.834 -0.2458 -0.0291  0.3949
 5744SOL    HW128694   1.876   0.352   4.827 -2.0025 -0.3256 -1.5238
 5744SOL    HW228695   1.917   0.494   4.783  0.7575  0.9193  2.5994
 5745SOL     OW28696   0.815   3.200   3.727 -0.3532 -0.1031  0.2926
 5745SOL    HW128697   0.744   3.209   3.791  0.3466 -0.7105  1.1565
 5745SOL    HW228698   0.755   3.176   3.657  0.7504 -0.4067 -0.5442
 5746SOL     OW28699   4.004   4.396   7.570  0.1102 -0.2961 -0.7387
 5746SOL    HW128700   4.090   4.357   7.586  0.3138 -1.2291 -3.9764
 5746SOL    HW228701   4.000   4.404   7.475 -0.5312  1.1990 -0.5877
 5747SOL     OW28702   4.568   0.645   5.656  0.3294 -0.5655 -0.2722
 5747SOL    HW128703   4.547   0.601   5.738  2.2426 -0.2018  0.4224
 5747SOL    HW228704   4.491   0.619   5.606  0.8900 -1.4890 -0.6564
 5748SOL     OW28705   1.759   1.821   8.449  0.2961 -0.1843  0.2853
 5748SOL    HW128706   1.786   1.839   8.539  0.7535  1.4687 -0.1720
 5748SOL    HW228707   1.759   1.908   8.410 -0.0749  0.4001  1.6082
 5749SOL     OW28708   1.170   1.327   7.570  0.4283 -0.2482 -0.0922
 5749SOL    HW128709   1.084   1.326   7.529  1.3024  1.1436 -1.9539
 5749SOL    HW228710   1.164   1.246   7.620  0.4398  0.0511  0.3970
 5750SOL     OW28711   2.646   0.052   2.254 -0.3455  0.0691 -0.3447
 5750SOL    HW128712   2.561   0.091   2.276 -0.6192  0.4916 -2.1422
 5750SOL    HW228713   2.676   0.117   2.190  1.1446 -0.2969 -0.0211
 5751SOL     OW28714   4.440   3.845  14.370 -0.1402 -0.2632  0.4959
 5751SOL    HW128715   4.352   3.808  14.364  0.4820 -1.6943  0.2480
 5751SOL    HW228716   4.441   3.860  14.465  0.9832 -0.0914  0.4630
 5752SOL     OW28717   4.563   0.581   5.235 -0.2039 -0.8908 -0.0743
 5752SOL    HW128718   4.615   0.649   5.278 -1.3894  0.4668 -0.7743
 5752SOL    HW228719   4.592   0.504   5.283 -0.7639 -0.2077  1.3699
 5753SOL     OW28720   1.930   3.157   9.747 -0.1760 -0.2340 -0.1211
 5753SOL    HW128721   1.965   3.072   9.721  0.5841 -0.2039  0.7752
 5753SOL    HW228722   1.953   3.212   9.672 -1.1559 -0.4653 -0.5920
 5754SOL     OW28723   1.128   4.712   6.168  0.1333  0.7595  0.0027
 5754SOL    HW128724   1.158   0.013   6.079 -0.4862 -2.4099 -1.0022
 5754SOL    HW228725   1.194   0.048   6.207  3.2630 -1.6087 -1.7697
 5755SOL     OW28726   0.298   2.275   4.884 -0.4590  0.4977  0.2541
 5755SOL    HW128727   0.267   2.196   4.841 -0.7463 -0.6782  2.6622
 5755SOL    HW228728   0.320   2.238   4.970  0.3479  0.1584 -0.0912
 5756SOL     OW28729   2.755   0.864   2.307  0.6250  0.0217 -0.2386
 5756SOL    HW128730   2.730   0.893   2.219 -1.1821 -1.2116 -0.1157
 5756SOL    HW228731   2.799   0.946   2.331 -0.7089  1.0740 -1.3616
 5757SOL     OW28732   2.987   3.280   3.448  0.0115  0.1887 -0.2450
 5757SOL    HW128733   2.911   3.337   3.434 -0.5665 -0.9307 -1.8042
 5757SOL    HW228734   2.980   3.266   3.542 -1.0735  0.3669 -0.2930
 5758SOL     OW28735   1.372   3.240   6.645  0.1839  0.0425  0.1832
 5758SOL    HW128736   1.294   3.196   6.609 -0.7414  2.6819 -1.0491
 5758SOL    HW228737   1.405   3.293   6.573 -3.1742  1.7207 -0.1255
 5759SOL     OW28738   1.570   0.786   5.960 -0.0166  0.0848  0.3166
 5759SOL    HW128739   1.547   0.698   5.991  1.5143 -0.8203 -1.0841
 5759SOL    HW228740   1.648   0.753   5.915  0.6590  1.1506  0.7068
 5760SOL     OW28741   1.304   1.270   1.272  0.0266  0.4566  0.0898
 5760SOL    HW128742   1.265   1.237   1.191 -1.1830 -0.0227  0.8600
 5760SOL    HW228743   1.360   1.336   1.230  3.5372 -1.7946  1.2742
 5761SOL     OW28744   0.418   2.519   5.481  0.2426 -0.1265  0.2135
 5761SOL    HW128745   0.400   2.580   5.409  0.8157 -0.8101 -0.5171
 5761SOL    HW228746   0.449   2.590   5.537 -1.4796  1.3971 -0.7726
 5762SOL     OW28747   3.634   3.136   8.824  0.3904  0.0803 -0.2121
 5762SOL    HW128748   3.672   3.065   8.876 -2.4922 -0.9230  0.5230
 5762SOL    HW228749   3.609   3.193   8.896  0.5468 -0.9941  0.7006
 5763SOL     OW28750   1.562   0.841   3.179  0.3541  0.3843  0.1966
 5763SOL    HW128751   1.557   0.878   3.091 -0.3069 -0.0152  0.0707
 5763SOL    HW228752   1.534   0.916   3.231 -0.5829  1.4941 -1.9010
 5764SOL     OW28753   1.994   1.466   7.163 -0.1825 -0.4438  0.3111
 5764SOL    HW128754   1.918   1.430   7.117 -0.4554 -1.0798  1.2594
 5764SOL    HW228755   2.022   1.533   7.101  1.0972 -1.6211 -0.4097
 5765SOL     OW28756   3.945   2.866   5.158  0.2234 -0.2358 -0.2709
 5765SOL    HW128757   3.941   2.805   5.084  0.6409  0.3888 -0.8106
 5765SOL    HW228758   3.852   2.884   5.170  0.5815 -0.2679  2.4975
 5766SOL     OW28759   4.573   3.909  12.710 -0.0610 -0.4923  0.6192
 5766SOL    HW128760   4.665   3.934  12.713 -0.7130  2.1223 -0.9223
 5766SOL    HW228761   4.586   3.826  12.755 -3.1403 -0.6335  1.2729
 5767SOL     OW28762   1.221   3.847   3.972  0.4288 -0.2842  0.4522
 5767SOL    HW128763   1.144   3.804   4.010  0.3844 -0.9905 -0.4167
 5767SOL    HW228764   1.291   3.782   3.972 -1.4990 -2.3941 -0.6061
 5768SOL     OW28765   3.770   4.655  10.831  0.0054 -0.0785  0.0645
 5768SOL    HW128766   3.810   0.014  10.864 -1.1100 -0.2810  1.9301
 5768SOL    HW228767   3.765   4.613  10.917 -1.7330  0.1473  0.0646
 5769SOL     OW28768   4.061   0.496   4.166  0.3959 -0.0525 -0.4967
 5769SOL    HW128769   4.155   0.480   4.165  0.1753 -1.3426 -0.8604
 5769SOL    HW228770   4.038   0.414   4.210 -0.1683  0.0922 -0.5137
 5770SOL     OW28771   2.287   1.869   7.199  0.9397 -0.0487 -0.2153
 5770SOL    HW128772   2.265   1.822   7.279 -0.4624  0.5680 -0.2373
 5770SOL    HW228773   2.376   1.838   7.182  0.8698 -0.8721  0.9685
 5771SOL     OW28774   1.334   0.556   4.942  0.5157  0.6408 -0.3031
 5771SOL    HW128775   1.382   0.633   4.911  2.3032 -0.7919 -1.1443
 5771SOL    HW228776   1.392   0.483   4.920 -2.4826 -1.6917 -0.4820
 5772SOL     OW28777   4.399   1.503  16.194  0.4194  0.8343  0.2787
 5772SOL    HW128778   4.338   1.575  16.214 -1.1763 -0.4456 -0.0418
 5772SOL    HW228779   4.477   1.534  16.240 -0.2570  3.0873 -0.0778
 5773SOL     OW28780   4.429   1.159   8.353  0.0701  0.0527  0.4825
 5773SOL    HW128781   4.345   1.203   8.340  0.1978  0.5348  1.2135
 5773SOL    HW228782   4.475   1.230   8.400  0.7379  1.4455 -2.3102
 5774SOL     OW28783   2.549   3.838   8.189 -0.2522  0.7246 -0.3729
 5774SOL    HW128784   2.489   3.765   8.205 -0.7466  1.5368  1.4601
 5774SOL    HW228785   2.596   3.803   8.113 -0.9546  1.8490 -1.3262
 5775SOL     OW28786   3.621   2.296   9.130  0.2342 -0.1575 -0.0882
 5775SOL    HW128787   3.685   2.301   9.201  0.2487  0.0560 -0.1160
 5775SOL    HW228788   3.611   2.201   9.123  1.8914 -0.3653  0.3016
 5776SOL     OW28789   1.393   3.047   2.247 -0.0076 -0.2137 -0.2406
 5776SOL    HW128790   1.421   3.099   2.322 -1.5094  0.6867 -0.2987
 5776SOL    HW228791   1.466   2.987   2.235  0.2899 -0.1951  1.5376
 5777SOL     OW28792   3.346   1.888   7.071  0.2368  0.0829 -0.4081
 5777SOL    HW128793   3.403   1.880   6.995  2.2209  3.9954  0.6599
 5777SOL    HW228794   3.401   1.843   7.135 -1.5174 -0.0986  0.9803
 5778SOL     OW28795   4.164   4.219   7.142 -0.4165 -0.2199 -0.0520
 5778SOL    HW128796   4.096   4.159   7.109  0.7470 -0.6315 -1.6662
 5778SOL    HW228797   4.235   4.162   7.170 -0.0844  0.4090  0.3840
 5779SOL     OW28798   2.749   2.946  11.941  0.2277 -0.1447 -0.0794
 5779SOL    HW128799   2.679   2.968  12.002  0.3161  1.2861 -0.4943
 5779SOL    HW228800   2.691   2.903  11.879  1.6418 -0.7038 -1.0109
 5780SOL     OW28801   2.926   2.619   4.327 -0.6617  0.7791 -0.2786
 5780SOL    HW128802   2.992   2.555   4.301  0.7510  2.7766 -1.6115
 5780SOL    HW228803   2.980   2.686   4.369  1.8551 -1.6531  0.4054
 5781SOL     OW28804   0.232   4.565   3.472 -0.3989 -0.3255 -0.3950
 5781SOL    HW128805   0.326   4.577   3.455 -0.5627  1.2512 -0.1521
 5781SOL    HW228806   0.192   4.514   3.402  1.1435 -1.8425 -0.1883
 5782SOL     OW28807   3.639   2.953   7.206 -0.0599  0.1017 -0.6190
 5782SOL    HW128808   3.626   2.878   7.149  0.1853 -0.2282 -0.2394
 5782SOL    HW228809   3.556   2.969   7.251 -0.3138  1.0134 -1.4120
 5783SOL     OW28810   2.298   0.531   1.107 -0.0616  0.2455 -0.0674
 5783SOL    HW128811   2.393   0.520   1.099 -0.1050 -1.5960  1.9496
 5783SOL    HW228812   2.277   0.442   1.136 -0.5730 -0.9549 -4.1518
 5784SOL     OW28813   2.969   3.506   8.075 -0.0150  0.5066 -0.7027
 5784SOL    HW128814   2.887   3.458   8.069 -0.1807  0.3052  2.8817
 5784SOL    HW228815   2.955   3.560   8.153  2.7527 -0.0625  0.1983
 5785SOL     OW28816   2.366   4.682   7.335  0.0634 -0.1104  0.4485
 5785SOL    HW128817   2.425   4.623   7.383  1.8406 -0.2137 -1.8491
 5785SOL    HW228818   2.381   0.042   7.384 -1.4924  0.7866 -0.5683
 5786SOL     OW28819   2.902   3.335   5.684 -0.1363 -0.3415  0.1896
 5786SOL    HW128820   2.888   3.399   5.615 -2.2197 -0.1568  0.7503
 5786SOL    HW228821   2.965   3.384   5.737 -0.4783 -1.5908  1.7773
 5787SOL     OW28822   2.136   1.136   5.774 -0.1334 -0.6635  0.0204
 5787SOL    HW128823   2.078   1.211   5.779  0.1817 -0.2340 -2.3440
 5787SOL    HW228824   2.080   1.080   5.720 -0.3422 -0.8044  0.3893
 5788SOL     OW28825   0.396   1.722  17.457  0.5452  0.2820 -0.1593
 5788SOL    HW128826   0.341   1.746  17.383 -0.8831 -3.0596 -0.1771
 5788SOL    HW228827   0.374   1.794  17.516 -0.2152 -0.7168  0.7759
 5789SOL     OW28828   3.294   1.841   8.177  0.1083  0.4670 -0.0523
 5789SOL    HW128829   3.306   1.790   8.257  1.2445 -0.4800 -0.8400
 5789SOL    HW228830   3.271   1.927   8.214  0.1723  0.1157  0.8151
 5790SOL     OW28831   2.841   2.325  12.927  0.3441  0.2203  0.4420
 5790SOL    HW128832   2.763   2.378  12.910 -0.3978 -0.8414  0.5949
 5790SOL    HW228833   2.813   2.265  12.996 -3.0250  2.9203  1.3898
 5791SOL     OW28834   3.097   2.387   9.327  0.2843 -1.1131  0.0540
 5791SOL    HW128835   3.166   2.396   9.393 -0.9341 -0.4237  1.2258
 5791SOL    HW228836   3.026   2.424   9.380 -1.2563 -1.4402 -1.7958
 5792SOL     OW28837   0.035   1.933   0.220 -0.4059 -0.0607 -0.0479
 5792SOL    HW128838   4.720   1.898   0.138  1.0906  0.9761 -1.1516
 5792SOL    HW228839   0.017   1.867   0.286 -0.7710 -1.6817 -1.7738
 5793SOL     OW28840   3.341   4.216   0.045  0.1560  0.1070  0.0720
 5793SOL    HW128841   3.282   4.260   0.107  2.2770  0.6441  1.7023
 5793SOL    HW228842   3.282   4.214  17.657  1.0112  0.7061 -0.6163
 5794SOL     OW28843   2.189   3.631   4.417 -0.5569 -0.1916 -0.1144
 5794SOL    HW128844   2.265   3.599   4.369 -0.5843 -2.0098  1.0655
 5794SOL    HW228845   2.145   3.548   4.433 -0.2431  0.0117  1.7870
 5795SOL     OW28846   2.577   1.471  12.495  0.3621  0.2245 -0.0314
 5795SOL    HW128847   2.556   1.439  12.407  0.0174 -1.8290  0.8093
 5795SOL    HW228848   2.665   1.438  12.513  0.6028  0.9482  0.1401
 5796SOL     OW28849   0.598   1.998   7.249  0.6370  0.3098 -0.1327
 5796SOL    HW128850   0.631   1.919   7.291  1.0034 -0.4496 -1.8641
 5796SOL    HW228851   0.684   2.034   7.229 -0.2641  2.6306  0.1081
 5797SOL     OW28852   3.132   3.734  16.474  0.3284  0.4391  0.2413
 5797SOL    HW128853   3.073   3.709  16.545  0.5169 -1.2364 -0.1784
 5797SOL    HW228854   3.198   3.789  16.515  2.3573 -1.9342  0.1803
 5798SOL     OW28855   4.201   1.990  14.864 -0.2206 -0.0859 -0.1129
 5798SOL    HW128856   4.245   2.075  14.853 -0.3604  0.3929  3.0986
 5798SOL    HW228857   4.110   2.020  14.859  0.2910  1.8552  2.2964
 5799SOL     OW28858   0.202   0.163  12.918  0.2710 -0.0627  0.3616
 5799SOL    HW128859   0.237   0.156  13.007  0.0334  1.5245  0.5758
 5799SOL    HW228860   0.116   0.125  12.937  1.3249 -2.9498 -0.6080
 5800SOL     OW28861   3.705   4.706   2.752 -0.5881 -0.1951 -0.1523
 5800SOL    HW128862   3.752   4.645   2.694  1.6560  0.1776  1.2891
 5800SOL    HW228863   3.755   0.066   2.751 -0.5985 -0.1946 -1.0419
 5801SOL     OW28864   1.336   3.721   3.587  0.4111  0.2010  0.5183
 5801SOL    HW128865   1.392   3.647   3.563  1.8432  1.1009  1.0639
 5801SOL    HW228866   1.254   3.696   3.544 -0.1299  1.5187  0.7797
 5802SOL     OW28867   2.183   4.610   5.129 -0.2159 -0.2569 -0.7537
 5802SOL    HW128868   2.244   4.540   5.151  1.5929  0.6403 -2.9277
 5802SOL    HW228869   2.123   4.567   5.067  2.2025 -1.3604 -2.2995
 5803SOL     OW28870   2.322   4.125   5.700  0.8104  0.1187 -0.4880
 5803SOL    HW128871   2.271   4.194   5.742 -1.2005  0.1456 -3.0164
 5803SOL    HW228872   2.296   4.047   5.749 -1.8315  0.4739 -1.3341
 5804SOL     OW28873   1.268   1.692   0.375  0.1037 -0.1404 -0.5429
 5804SOL    HW128874   1.270   1.729   0.464 -3.5202 -1.4856  0.1098
 5804SOL    HW228875   1.173   1.680   0.365  0.0651 -1.5676  1.4749
 5805SOL     OW28876   3.305   0.785   1.658  0.1572 -0.0965 -0.3391
 5805SOL    HW128877   3.297   0.815   1.567 -0.8202  0.6466 -0.0077
 5805SOL    HW228878   3.220   0.745   1.673  1.0656 -1.5217  0.9926
 5806SOL     OW28879   4.298   2.222  14.830  0.0900 -0.0520 -0.2963
 5806SOL    HW128880   4.266   2.288  14.769  0.1667 -0.5526 -0.8779
 5806SOL    HW228881   4.310   2.276  14.908 -3.1706  0.4354 -0.1512
 5807SOL     OW28882   1.343   0.102  11.053  0.0343  0.1741  0.2367
 5807SOL    HW128883   1.284   0.136  10.985 -0.2357 -0.8465 -0.0330
 5807SOL    HW228884   1.276   0.060  11.107 -1.3409  2.6391  0.4482
 5808SOL     OW28885   1.569   0.037   5.963 -0.4376  0.2030 -0.1272
 5808SOL    HW128886   1.560   0.027   5.868 -1.0640 -2.0482  0.1647
 5808SOL    HW228887   1.664   0.030   5.968 -0.3033  3.3103  1.6497
 5809SOL     OW28888   1.828   1.326   5.365 -0.1913 -0.1270  0.0869
 5809SOL    HW128889   1.923   1.315   5.367 -0.0172  1.7292  2.2174
 5809SOL    HW228890   1.826   1.412   5.323  0.0773 -0.8250 -1.3517
 5810SOL     OW28891   2.373   2.271  12.124  0.0081  0.0704  0.2984
 5810SOL    HW128892   2.466   2.283  12.104 -0.3058  0.1126 -1.1195
 5810SOL    HW228893   2.381   2.258  12.219  0.5948  0.2957  0.2849
 5811SOL     OW28894   2.722   1.313   3.914  0.3360  0.0408  0.2018
 5811SOL    HW128895   2.788   1.353   3.858 -0.7658  1.3087 -0.1886
 5811SOL    HW228896   2.671   1.393   3.925 -0.2599 -0.6439  2.5828
 5812SOL     OW28897   0.844   3.843   8.119  0.0326 -0.1264  0.3929
 5812SOL    HW128898   0.927   3.795   8.117 -0.3291 -0.7349  0.1403
 5812SOL    HW228899   0.866   3.923   8.167 -1.9298 -0.2676  1.5287
 5813SOL     OW28900   3.150   0.586  17.313 -0.4791  0.0231  0.0679
 5813SOL    HW128901   3.194   0.669  17.331  0.4391 -0.4619  0.0280
 5813SOL    HW228902   3.074   0.609  17.259 -1.6187 -3.4762  0.1910
 5814SOL     OW28903   2.003   1.591   3.418  0.2181 -0.2538 -0.0095
 5814SOL    HW128904   1.942   1.594   3.343  0.5050 -1.7447 -0.2994
 5814SOL    HW228905   1.960   1.660   3.469 -0.6602  0.5375 -1.7757
 5815SOL     OW28906   1.645   4.627  10.402  0.2993  0.4464 -0.4205
 5815SOL    HW128907   1.625   4.641  10.495  2.0312 -0.8338  0.1387
 5815SOL    HW228908   1.679   4.714  10.380 -0.5784  0.9854  0.3359
 5816SOL     OW28909   0.943   2.070   6.394 -0.5762 -0.2789  0.2911
 5816SOL    HW128910   0.902   2.070   6.307 -0.5557 -1.8383  0.2725
 5816SOL    HW228911   0.934   2.158   6.429  1.4744 -0.5152  1.3838
 5817SOL     OW28912   1.640   0.026   3.157 -0.2239  0.1317 -1.0318
 5817SOL    HW128913   1.664   4.679   3.093  1.4144  0.4343 -0.7431
 5817SOL    HW228914   1.691   0.096   3.117  0.0510 -0.3609 -1.5479
 5818SOL     OW28915   3.020   0.241   4.000  0.8208 -0.2860  1.1142
 5818SOL    HW128916   3.074   0.311   3.964  0.5967  0.4836  2.2886
 5818SOL    HW228917   3.066   0.167   3.960  0.6462 -0.2356  0.8240
 5819SOL     OW28918   4.079   1.480  13.107  0.0165  0.6855 -0.1080
 5819SOL    HW128919   4.139   1.416  13.067 -1.4635 -0.7056 -0.0955
 5819SOL    HW228920   4.075   1.553  13.045  0.9359  1.8417  1.2015
 5820SOL     OW28921   2.378   1.171   7.283 -0.2287  0.2642 -0.2139
 5820SOL    HW128922   2.320   1.135   7.217  0.9861  1.3117 -1.8530
 5820SOL    HW228923   2.319   1.231   7.329 -1.9553 -0.8970 -0.9234
 5821SOL     OW28924   1.710   3.243  11.760  0.0951 -0.2088 -0.1031
 5821SOL    HW128925   1.760   3.218  11.838  0.0400 -1.5238 -0.4854
 5821SOL    HW228926   1.618   3.237  11.787  0.2488  1.6225  0.8695
 5822SOL     OW28927   1.918   2.715   8.658 -0.6250  1.0911  0.1635
 5822SOL    HW128928   1.956   2.741   8.742  0.0690  0.7868 -0.0607
 5822SOL    HW228929   1.841   2.771   8.659 -1.7461 -0.4264 -0.8923
 5823SOL     OW28930   1.362   1.111   6.360 -0.1043  0.1906 -0.0800
 5823SOL    HW128931   1.387   1.146   6.275 -2.7978 -1.4973 -1.5615
 5823SOL    HW228932   1.283   1.163   6.375 -0.3781 -0.1308 -0.4140
 5824SOL     OW28933   0.125   1.832   4.604 -0.4342 -0.2297  0.4986
 5824SOL    HW128934   0.085   1.772   4.540  3.1360 -0.7871 -1.2182
 5824SOL    HW228935   0.072   1.815   4.681 -6.0603  2.0607 -2.8247
 5825SOL     OW28936   0.215   1.249   4.928  0.0351  0.1678  0.4027
 5825SOL    HW128937   0.202   1.211   4.842  1.1314 -0.0577  0.3436
 5825SOL    HW228938   0.168   1.178   4.973 -0.0227  0.8595  1.4420
 5826SOL     OW28939   0.508   1.254   1.172 -0.5103 -0.2645 -0.1610
 5826SOL    HW128940   0.576   1.265   1.106 -0.3862  0.1526  0.0351
 5826SOL    HW228941   0.443   1.212   1.116  0.7360 -2.1707 -0.1596
 5827SOL     OW28942   2.225   3.179   4.492 -0.2505 -0.6451  0.3684
 5827SOL    HW128943   2.157   3.247   4.493 -0.2938 -0.7245  3.4798
 5827SOL    HW228944   2.227   3.165   4.397 -0.9955 -1.1414  0.4191
 5828SOL     OW28945   1.119   0.271   9.179  0.4269 -0.1848 -0.0437
 5828SOL    HW128946   1.118   0.201   9.114 -2.0688 -1.1822  1.1026
 5828SOL    HW228947   1.176   0.339   9.143  1.0765 -1.6801 -1.8719
 5829SOL     OW28948   3.696   1.632  12.914 -0.1860  0.4777  0.1206
 5829SOL    HW128949   3.747   1.680  12.979 -3.7021 -0.2696  3.3660
 5829SOL    HW228950   3.660   1.560  12.966 -0.4959 -0.2718 -1.1209
 5830SOL     OW28951   1.483   3.216  12.731  0.1204 -0.2822 -0.7421
 5830SOL    HW128952   1.468   3.248  12.820  1.9131 -0.3317 -0.4306
 5830SOL    HW228953   1.519   3.287  12.678  2.7861 -0.0612  1.4090
 5831SOL     OW28954   3.350   1.837  12.472 -0.6941  0.1345  0.7046
 5831SOL    HW128955   3.422   1.890  12.437  2.3605 -2.8124  2.5944
 5831SOL    HW228956   3.322   1.910  12.528  0.1412 -0.1543  1.5041
 5832SOL     OW28957   3.527   4.093   3.726  0.2326  0.0817 -0.2248
 5832SOL    HW128958   3.487   4.049   3.801  0.3251 -1.0079 -0.8203
 5832SOL    HW228959   3.545   4.182   3.756 -1.6527  0.2086  0.5271
 5833SOL     OW28960   1.187   4.627   5.774 -0.0100  0.0248  0.3801
 5833SOL    HW128961   1.160   4.585   5.692  0.9956  2.1037 -1.0190
 5833SOL    HW228962   1.104   4.669   5.798  0.2469  0.7620 -0.0215
 5834SOL     OW28963   2.605   2.959   5.241  0.1592  0.3334 -0.1369
 5834SOL    HW128964   2.636   3.037   5.287  2.2626 -1.3427  1.3014
 5834SOL    HW228965   2.516   2.941   5.272 -0.6299  0.5231 -2.2386
 5835SOL     OW28966   0.719   1.228   2.872  0.0408  0.2474 -0.5553
 5835SOL    HW128967   0.672   1.311   2.882 -0.2242  0.1735 -1.2395
 5835SOL    HW228968   0.707   1.184   2.957  0.0294  1.4882  0.0904
 5836SOL     OW28969   3.450   0.677   8.138  0.2117  0.0602 -0.2130
 5836SOL    HW128970   3.390   0.621   8.187  0.8496  0.3057  0.8529
 5836SOL    HW228971   3.502   0.620   8.081 -1.4191  0.2852 -1.9015
 5837SOL     OW28972   2.313   0.738   5.032  0.0476  0.1591  0.3745
 5837SOL    HW128973   2.229   0.714   5.070 -0.5819  2.3539  0.4196
 5837SOL    HW228974   2.289   0.791   4.956  1.8696 -0.0548 -0.3536
 5838SOL     OW28975   2.001   4.039   0.997  0.4211 -0.2356  0.0177
 5838SOL    HW128976   1.964   4.051   0.909 -0.2844  0.7120  0.4330
 5838SOL    HW228977   1.920   4.028   1.047 -0.9589  0.7199 -1.9592
 5839SOL     OW28978   2.216   2.443   0.456  0.0542 -0.3455 -0.7312
 5839SOL    HW128979   2.188   2.481   0.373  0.1627 -0.4787 -0.8286
 5839SOL    HW228980   2.305   2.412   0.440 -0.3354 -2.2000  0.6076
 5840SOL     OW28981   0.123   3.508  15.865  0.1081  0.5015 -0.1519
 5840SOL    HW128982   0.162   3.550  15.789  2.1992 -0.1571  0.5569
 5840SOL    HW228983   0.195   3.474  15.917 -0.0094  0.5749  0.0612
 5841SOL     OW28984   1.094   2.904   3.710 -0.0924 -0.2434  0.1750
 5841SOL    HW128985   1.150   2.837   3.672 -0.0766 -0.7941  1.1722
 5841SOL    HW228986   1.051   2.859   3.782 -0.4194 -1.6065 -0.8574
 5842SOL     OW28987   4.337   3.579  17.239  0.3153 -0.0002  0.1715
 5842SOL    HW128988   4.391   3.657  17.242 -0.0129  0.1500  2.2333
 5842SOL    HW228989   4.282   3.588  17.317 -0.3944 -2.5931 -0.0055
 5843SOL     OW28990   3.397   3.259   9.986 -1.0320  0.1139  0.6574
 5843SOL    HW128991   3.312   3.301   9.972 -1.3894 -0.9154 -0.2781
 5843SOL    HW228992   3.449   3.336  10.010 -1.5776  0.6640  0.0929
 5844SOL     OW28993   0.316   0.140  12.671 -0.3005  0.0333  0.6694
 5844SOL    HW128994   0.401   0.115  12.708  0.1227  0.2481 -0.1697
 5844SOL    HW228995   0.269   0.162  12.752  0.2339 -0.0311  1.0003
 5845SOL     OW28996   4.125   2.428  11.576  0.3983 -0.1451  0.6926
 5845SOL    HW128997   4.148   2.367  11.646  2.0965 -1.6340 -1.1487
 5845SOL    HW228998   4.209   2.470  11.558 -0.4485  1.5096  0.6690
 5846SOL     OW28999   1.503   2.549   2.824  0.2923  0.1219  0.1564
 5846SOL    HW129000   1.463   2.477   2.873  0.9346 -1.2240 -1.2862
 5846SOL    HW229001   1.553   2.582   2.898  0.8625 -0.9133  0.2419
 5847SOL     OW29002   4.416   3.614   1.857 -0.3290  0.6206 -0.1296
 5847SOL    HW129003   4.381   3.558   1.789 -1.8238 -1.7670  2.5881
 5847SOL    HW229004   4.431   3.541   1.918  0.2557  2.5520  2.0320
 5848SOL     OW29005   0.855   1.759   6.413  0.3740  0.1883 -0.4130
 5848SOL    HW129006   0.873   1.752   6.507 -0.7255  1.9253 -0.0709
 5848SOL    HW229007   0.811   1.844   6.419  1.3158  0.7480 -1.5479
 5849SOL     OW29008   4.587   2.624   2.976 -0.2116 -0.3099  0.3398
 5849SOL    HW129009   4.617   2.577   2.898  3.6683 -0.6153  2.0300
 5849SOL    HW229010   4.561   2.701   2.926  0.2377 -0.5877 -0.3267
 5850SOL     OW29011   3.866   4.705   4.714 -0.5667 -0.2285  0.0086
 5850SOL    HW129012   3.934   4.688   4.779 -2.3728 -1.4918  1.5802
 5850SOL    HW229013   3.793   4.659   4.756 -0.7632 -1.2370 -1.4041
 5851SOL     OW29014   4.181   4.715   5.480  0.0076 -0.2939  0.0002
 5851SOL    HW129015   4.246   0.001   5.410 -0.1550 -0.3917 -0.1618
 5851SOL    HW229016   4.232   0.010   5.559 -1.8785 -0.2556  1.2134
 5852SOL     OW29017   1.868   0.743   1.000 -0.2810 -0.2301 -0.1065
 5852SOL    HW129018   1.931   0.672   0.985  1.0816  1.3838 -2.0361
 5852SOL    HW229019   1.893   0.790   0.920 -3.2035  0.7475 -0.4275
 5853SOL     OW29020   0.396   2.445  11.645  0.1944  0.0733 -0.5252
 5853SOL    HW129021   0.355   2.364  11.673 -2.3620  0.8409 -2.0211
 5853SOL    HW229022   0.394   2.507  11.718 -2.3314 -1.3077  0.5715
 5854SOL     OW29023   0.126   4.197   0.504 -0.0503 -0.6043  0.4991
 5854SOL    HW129024   0.100   4.283   0.538  0.2017 -0.0343 -0.7614
 5854SOL    HW229025   0.079   4.192   0.421 -0.3396 -1.0040  0.6880
 5855SOL     OW29026   1.476   2.526   1.203  0.5199 -0.7960 -0.6650
 5855SOL    HW129027   1.391   2.550   1.166 -0.0869 -1.8615  0.0409
 5855SOL    HW229028   1.502   2.607   1.246 -0.5381 -1.7979  1.9163
 5856SOL     OW29029   4.296   3.353   9.167  0.1859  0.3389 -0.1070
 5856SOL    HW129030   4.201   3.360   9.161  0.0334 -0.8414  1.0040
 5856SOL    HW229031   4.328   3.420   9.227 -1.8948  1.1407  0.1010
 5857SOL     OW29032   3.412   3.942  12.788  0.0098 -0.1645 -0.0244
 5857SOL    HW129033   3.401   4.014  12.849  1.9189 -1.1301  1.4752
 5857SOL    HW229034   3.454   3.882  12.850 -2.3442 -0.2291  1.5158
 5858SOL     OW29035   4.523   0.941   2.817  0.8869  0.7724 -0.1484
 5858SOL    HW129036   4.448   0.969   2.764  0.5969  0.0141 -0.1485
 5858SOL    HW229037   4.591   0.950   2.750 -0.5575 -0.1008 -1.7698
 5859SOL     OW29038   0.364   3.026   3.284  0.6653  0.2636 -0.5261
 5859SOL    HW129039   0.354   2.953   3.223 -0.6907  0.0818 -0.0988
 5859SOL    HW229040   0.435   2.998   3.341  1.6112 -0.2606 -1.9831
 5860SOL     OW29041   1.503   0.734  13.980  0.0448 -0.7092  1.0934
 5860SOL    HW129042   1.413   0.720  13.953 -0.3834  1.7904  1.2126
 5860SOL    HW229043   1.553   0.746  13.899 -2.7611  0.8898 -0.3888
 5861SOL     OW29044   3.985   2.906  11.711  0.1615  0.2384 -0.3663
 5861SOL    HW129045   3.982   2.817  11.746  1.3835 -0.0388 -0.9719
 5861SOL    HW229046   4.076   2.929  11.729 -0.0859  0.9409 -0.0155
 5862SOL     OW29047   0.963   2.662   7.609 -0.0506 -0.0605  0.8812
 5862SOL    HW129048   0.944   2.579   7.652  0.0701  0.3087  1.6528
 5862SOL    HW229049   0.881   2.673   7.562 -0.5947 -1.3289  1.5399
 5863SOL     OW29050   2.409   2.772   2.241  0.2727 -0.2080 -0.3118
 5863SOL    HW129051   2.413   2.832   2.167 -1.1880  1.0930  0.6604
 5863SOL    HW229052   2.335   2.816   2.283  0.6685  2.3004 -2.2562
 5864SOL     OW29053   3.105   3.771   6.908 -0.0850 -0.4254  0.2375
 5864SOL    HW129054   3.093   3.709   6.836 -0.0942  1.1942 -1.1791
 5864SOL    HW229055   3.100   3.856   6.863  2.4961 -0.3760  0.0788
 5865SOL     OW29056   2.054   4.484   4.092  0.4627  0.2160 -0.2000
 5865SOL    HW129057   2.126   4.421   4.090  1.4888  1.4209 -0.8193
 5865SOL    HW229058   2.057   4.493   3.997  0.8700 -0.5356 -0.2591
 5866SOL     OW29059   2.225   0.408   7.352 -0.2633 -0.0088 -0.2970
 5866SOL    HW129060   2.302   0.451   7.315 -0.7072  1.9789  1.1106
 5866SOL    HW229061   2.257   0.390   7.440  0.8361  0.8544 -0.5328
 5867SOL     OW29062   1.284   0.605   1.060  0.2128  0.5436  0.5768
 5867SOL    HW129063   1.292   0.684   1.113 -1.8312  0.1126  1.5143
 5867SOL    HW229064   1.202   0.570   1.094  0.0381 -0.8153 -1.1968
 5868SOL     OW29065   3.640   3.698   7.854 -0.0519  0.3270 -0.1798
 5868SOL    HW129066   3.575   3.737   7.795  0.3287 -1.8709 -2.0799
 5868SOL    HW229067   3.577   3.672   7.922 -0.2465 -1.0082 -0.8564
 5869SOL     OW29068   2.259   3.769   3.557  0.7590  0.5887  0.0968
 5869SOL    HW129069   2.319   3.732   3.493  0.7537  2.3081 -0.9009
 5869SOL    HW229070   2.305   3.851   3.578  2.3706 -0.5392  1.0007
 5870SOL     OW29071   1.693   1.169   3.113 -0.5605  0.0815  0.3153
 5870SOL    HW129072   1.779   1.190   3.148 -0.7622 -1.0976  1.4994
 5870SOL    HW229073   1.633   1.241   3.132  1.4299  2.7754 -3.7235
 5871SOL     OW29074   0.634   2.317   6.668  0.0381 -0.0152 -0.7144
 5871SOL    HW129075   0.727   2.334   6.650  0.0199  1.3113  0.3904
 5871SOL    HW229076   0.585   2.348   6.592 -1.6302 -0.1617  0.3231
 5872SOL     OW29077   1.482   2.670   2.025 -0.0098  0.7671  0.7071
 5872SOL    HW129078   1.423   2.737   1.992  0.8110  0.6964 -0.8971
 5872SOL    HW229079   1.562   2.722   2.027 -0.8148  2.0512 -0.3258
 5873SOL     OW29080   2.386   4.505   4.513 -0.0464  0.0592 -0.2474
 5873SOL    HW129081   2.392   4.591   4.556  0.6912  0.3705 -0.9703
 5873SOL    HW229082   2.336   4.524   4.434 -2.3318 -0.5454  1.0466
 5874SOL     OW29083   2.327   4.614   5.966  0.4821  0.1041  0.1012
 5874SOL    HW129084   2.314   4.702   6.002 -0.6720  0.8856 -2.1972
 5874SOL    HW229085   2.242   4.607   5.921  0.0136 -0.5376  1.0914
 5875SOL     OW29086   0.866   2.645   5.251  0.0549  0.0935  0.0146
 5875SOL    HW129087   0.784   2.693   5.262  0.2217 -0.3821  3.2199
 5875SOL    HW229088   0.836   2.567   5.206  2.3373  0.3096 -1.9278
 5876SOL     OW29089   1.175   2.544   1.698  0.2781  0.1109 -0.1640
 5876SOL    HW129090   1.247   2.514   1.753 -0.5692  0.2842  1.0388
 5876SOL    HW229091   1.113   2.553   1.770 -2.1859 -1.3786 -2.0678
 5877SOL     OW29092   1.331   1.429   4.173 -0.0007  0.0140  0.3551
 5877SOL    HW129093   1.295   1.506   4.128  3.5307  0.6713 -1.3557
 5877SOL    HW229094   1.274   1.427   4.250 -0.2767 -1.7281  0.1046
 5878SOL     OW29095   0.375   3.727   8.712  0.1765  0.2902 -0.1517
 5878SOL    HW129096   0.444   3.674   8.674  0.3813 -0.4448  1.2284
 5878SOL    HW229097   0.365   3.689   8.800 -0.0899  1.3944  0.2978
 5879SOL     OW29098   0.486   3.307   8.996 -0.2220 -0.2415 -0.1297
 5879SOL    HW129099   0.575   3.290   9.028 -0.0365  1.6866  0.3652
 5879SOL    HW229100   0.504   3.378   8.935 -1.1106 -0.8555 -1.1207
 5880SOL     OW29101   0.598   2.069   4.521  0.3387 -0.1087 -0.3359
 5880SOL    HW129102   0.652   2.039   4.448  3.4168  0.8587  1.5327
 5880SOL    HW229103   0.595   1.993   4.579 -3.6552  0.5997  0.4215
 5881SOL     OW29104   0.080   0.529   7.509  0.4630  0.1693 -0.9085
 5881SOL    HW129105   0.088   0.620   7.479  2.1552  0.0476 -0.8047
 5881SOL    HW229106   0.110   0.531   7.600  2.5562 -0.4868 -1.5800
 5882SOL     OW29107   4.362   3.281  12.075 -0.4580 -0.3933  0.0341
 5882SOL    HW129108   4.412   3.306  12.152 -0.7081 -2.0428  0.7362
 5882SOL    HW229109   4.423   3.258  12.004  1.4290  0.7378  1.3066
 5883SOL     OW29110   0.930   4.118   6.023  0.0184 -0.0204 -0.1950
 5883SOL    HW129111   0.843   4.139   5.990  0.1777  1.0656  0.0747
 5883SOL    HW229112   0.984   4.120   5.944 -0.8284  0.9518 -0.7482
 5884SOL     OW29113   4.100   1.955   6.771  0.0031  0.1885  0.0754
 5884SOL    HW129114   4.169   1.908   6.725  0.0624 -0.2160  0.5734
 5884SOL    HW229115   4.126   1.929   6.860 -2.4464  2.9271  1.6193
 5885SOL     OW29116   3.132   2.765   7.849 -0.2725 -0.3859 -0.2535
 5885SOL    HW129117   3.087   2.799   7.926  3.0705  2.5384  0.4287
 5885SOL    HW229118   3.149   2.851   7.811  0.2999  0.5559  2.1295
 5886SOL     OW29119   4.046   2.209   9.466  0.5259 -0.4034  0.0599
 5886SOL    HW129120   4.053   2.114   9.460  1.3182 -0.2121 -1.8209
 5886SOL    HW229121   4.099   2.237   9.391 -0.8356 -3.4141 -1.9901
 5887SOL     OW29122   2.315   2.723   7.851 -0.0840  0.8158  0.7046
 5887SOL    HW129123   2.334   2.724   7.944  0.9840 -1.0958  0.5076
 5887SOL    HW229124   2.389   2.674   7.817  0.1394  1.6165  0.0243
 5888SOL     OW29125   3.187   0.565   0.220  0.1129  0.0616 -0.0081
 5888SOL    HW129126   3.150   0.591   0.136 -2.2396  0.0753  1.0464
 5888SOL    HW229127   3.238   0.490   0.190  1.9984  1.0209  0.7348
 5889SOL     OW29128   0.410   1.016  13.150 -0.4320 -0.1239 -0.0507
 5889SOL    HW129129   0.440   1.008  13.240  0.8428  1.1493 -0.3592
 5889SOL    HW229130   0.404   1.110  13.131 -1.0753 -0.3144 -0.8012
 5890SOL     OW29131   1.122   3.737  17.393 -0.6532 -0.1807  0.3914
 5890SOL    HW129132   1.085   3.701  17.474 -1.6570  2.0511  0.9108
 5890SOL    HW229133   1.086   3.825  17.399  0.1646  0.3082 -1.9494
 5891SOL     OW29134   0.937   1.355  17.204 -0.0975 -0.1427  0.5300
 5891SOL    HW129135   0.918   1.353  17.111  2.2660  0.1666  0.0498
 5891SOL    HW229136   0.855   1.330  17.248 -0.0077 -1.1981  0.0999
 5892SOL     OW29137   4.540   2.905  11.188 -0.2015  0.1721  0.7520
 5892SOL    HW129138   4.489   2.953  11.123  0.5190 -1.5766 -1.0911
 5892SOL    HW229139   4.466   2.856  11.225 -0.7485  0.5754  0.2028
 5893SOL     OW29140   2.640   1.636   9.672  0.2392 -0.3658  0.2609
 5893SOL    HW129141   2.547   1.636   9.693  0.7387 -2.6904  2.4999
 5893SOL    HW229142   2.652   1.724   9.638  0.4245 -0.8459 -0.9031
 5894SOL     OW29143   1.930   3.142   1.366 -0.2446  0.0416 -0.0331
 5894SOL    HW129144   1.971   3.227   1.380 -2.2772  0.8259  1.0041
 5894SOL    HW229145   1.902   3.120   1.455  0.2403 -0.9774 -0.1253
 5895SOL     OW29146   3.343   2.786   4.828  0.5198 -0.0439 -0.3043
 5895SOL    HW129147   3.427   2.741   4.811 -0.4224 -1.0901 -2.2032
 5895SOL    HW229148   3.342   2.853   4.760  0.7425 -0.0430 -0.3082
 5896SOL     OW29149   2.733   0.892  17.181 -0.3939  0.3476 -0.2096
 5896SOL    HW129150   2.758   0.930  17.097  2.1370 -1.2142 -0.1427
 5896SOL    HW229151   2.765   0.802  17.178  1.4631  1.0130 -0.1328
 5897SOL     OW29152   0.603   3.199   8.203 -0.4287  0.4148  0.2287
 5897SOL    HW129153   0.580   3.292   8.210  0.5512  0.8204 -1.7713
 5897SOL    HW229154   0.517   3.157   8.207  0.3428 -1.1272  0.5124
 5898SOL     OW29155   1.662   1.043   7.513 -0.4385  0.2194  0.1295
 5898SOL    HW129156   1.727   0.974   7.527 -0.0979  1.2216  3.3157
 5898SOL    HW229157   1.701   1.119   7.555 -0.8188  1.0750 -1.0511
 5899SOL     OW29158   2.212   1.069   7.078  0.1271  0.0829  0.0331
 5899SOL    HW129159   2.168   1.016   7.145  1.4130 -1.4313 -0.3309
 5899SOL    HW229160   2.145   1.077   7.010 -0.3915 -0.5155  0.4736
 5900SOL     OW29161   1.158   4.622   3.656 -0.1412 -0.2344  0.2710
 5900SOL    HW129162   1.148   4.641   3.750 -0.9047  2.3400 -0.3327
 5900SOL    HW229163   1.234   4.565   3.647 -0.6564 -0.8285 -0.3489
 5901SOL     OW29164   1.693   3.047  12.673  0.0679  0.2529  0.8612
 5901SOL    HW129165   1.643   3.000  12.740 -0.8692  0.6679  0.4515
 5901SOL    HW229166   1.647   3.131  12.669  1.7411  1.1234  0.0517
 5902SOL     OW29167   4.212   1.144   3.625  0.4876  0.2609 -0.0934
 5902SOL    HW129168   4.167   1.073   3.670  0.2406  2.4449  3.1199
 5902SOL    HW229169   4.188   1.117   3.536  1.4699  0.4231 -0.4120
 5903SOL     OW29170   2.540   3.301   2.235 -0.1762 -0.4703  0.2309
 5903SOL    HW129171   2.582   3.265   2.157 -0.5806  2.4841 -1.3926
 5903SOL    HW229172   2.572   3.392   2.236  1.4166 -1.0413  0.1959
 5904SOL     OW29173   1.952   2.729  16.158 -0.0163  0.8172  0.2051
 5904SOL    HW129174   2.018   2.798  16.152  0.4267  0.6545  3.3262
 5904SOL    HW229175   1.978   2.674  16.231  0.3321 -1.2991 -1.5022
 5905SOL     OW29176   1.003   1.387   9.709  0.0079  0.0566 -0.2293
 5905SOL    HW129177   0.989   1.440   9.631 -0.3420 -1.8610 -1.4743
 5905SOL    HW229178   0.929   1.407   9.766  0.5672 -0.5960  0.7378
 5906SOL     OW29179   0.401   3.279   5.020  0.2953 -0.0102 -0.0306
 5906SOL    HW129180   0.435   3.255   4.934 -0.3193 -1.8231  0.2246
 5906SOL    HW229181   0.456   3.219   5.070 -1.3117  1.1971  3.1997
 5907SOL     OW29182   4.681   2.753  10.998 -0.3679 -0.4751  0.0180
 5907SOL    HW129183   4.702   2.837  11.040 -0.1591  0.0315 -1.1007
 5907SOL    HW229184   4.593   2.732  11.028 -0.3971  2.0996  1.7483
 5908SOL     OW29185   4.029   4.633   5.737  0.2326 -0.3232 -0.8113
 5908SOL    HW129186   3.939   4.643   5.770  0.8559  0.5815  0.6127
 5908SOL    HW229187   4.069   4.578   5.805 -1.9464 -0.4393  0.3690
 5909SOL     OW29188   3.421   3.251  13.069  0.5289  0.1225 -0.5621
 5909SOL    HW129189   3.444   3.263  13.161  0.9035 -2.1066 -0.3613
 5909SOL    HW229190   3.347   3.190  13.074  0.7363 -0.1445 -0.7752
 5910SOL     OW29191   3.005   1.882   6.676  0.2988  0.3535  0.6583
 5910SOL    HW129192   2.961   1.946   6.620 -0.1386  0.7622  1.4813
 5910SOL    HW229193   3.033   1.923   6.757  1.3355  1.6760 -0.3697
 5911SOL     OW29194   3.555   3.492   3.248 -0.1865  0.1200 -0.1448
 5911SOL    HW129195   3.468   3.513   3.282  0.2178 -0.7508  1.4342
 5911SOL    HW229196   3.609   3.555   3.297  0.1789 -0.3795  0.1054
 5912SOL     OW29197   1.922   4.561  10.872 -0.1757  0.5674 -0.1670
 5912SOL    HW129198   1.999   4.526  10.917 -0.6652  0.0933  0.3026
 5912SOL    HW229199   1.852   4.515  10.918  0.3460 -0.5933 -0.5391
 5913SOL     OW29200   4.698   3.297   6.196  0.2520 -0.2818 -0.2847
 5913SOL    HW129201   0.055   3.244   6.206 -0.4963 -0.8879  2.3217
 5913SOL    HW229202   0.015   3.385   6.194 -1.6877  0.5872  0.8158
 5914SOL     OW29203   3.890   3.506   5.303 -0.1099  0.2869 -0.7996
 5914SOL    HW129204   3.920   3.561   5.374 -0.1696 -0.7738  0.0478
 5914SOL    HW229205   3.963   3.446   5.285 -0.9343 -1.1393  0.5633
 5915SOL     OW29206   3.475   3.867  12.460  0.3573  0.3218 -0.0199
 5915SOL    HW129207   3.443   3.821  12.382  0.9102  1.3596 -0.8528
 5915SOL    HW229208   3.437   3.822  12.536 -0.3364  1.4733  0.3124
 5916SOL     OW29209   2.838   3.580   8.531 -0.7350 -0.5527 -0.1238
 5916SOL    HW129210   2.797   3.498   8.504  0.6882 -0.6332 -2.0353
 5916SOL    HW229211   2.853   3.563   8.624 -0.4962 -0.1040 -0.0820
 5917SOL     OW29212   0.698   3.191   3.104 -0.3528 -0.3296  0.1694
 5917SOL    HW129213   0.668   3.282   3.110 -0.0679 -0.1270 -1.3570
 5917SOL    HW229214   0.641   3.146   3.041 -1.3859  1.7111 -0.3614
 5918SOL     OW29215   3.963   2.625   4.749  0.1707  0.5432  0.1350
 5918SOL    HW129216   3.896   2.686   4.780 -0.4115  0.2569 -0.5609
 5918SOL    HW229217   3.926   2.543   4.783  0.3740 -0.2721 -1.6253
 5919SOL     OW29218   4.267   4.161   0.370  0.0615 -0.0916  0.2828
 5919SOL    HW129219   4.179   4.172   0.404  1.3595 -0.2623  3.7261
 5919SOL    HW229220   4.326   4.140   0.443  0.5705  2.1224  0.4980
 5920SOL     OW29221   4.115   3.187   7.004  0.3856 -0.3861 -0.2619
 5920SOL    HW129222   4.064   3.129   7.061  2.5440 -0.2354  1.8015
 5920SOL    HW229223   4.129   3.268   7.055 -0.1861 -0.2618 -0.2945
 5921SOL     OW29224   3.851   4.281   5.614  0.6077  1.0338 -0.9738
 5921SOL    HW129225   3.879   4.356   5.562  0.1773  1.7472 -0.1687
 5921SOL    HW229226   3.789   4.312   5.681 -0.6983 -1.4112 -1.0544
 5922SOL     OW29227   3.017   0.167   8.630  0.1745 -0.0091  0.1657
 5922SOL    HW129228   3.078   0.103   8.665 -1.2134 -0.9293  0.8749
 5922SOL    HW229229   3.063   0.201   8.552  1.9937 -0.5578  0.9962
 5923SOL     OW29230   3.899   4.083  16.700  0.2378  0.0174 -0.2979
 5923SOL    HW129231   3.814   4.104  16.662  0.0341 -0.4205 -0.0794
 5923SOL    HW229232   3.960   4.104  16.630 -0.0808  2.9447  0.2918
 5924SOL     OW29233   0.796   3.900   9.166  0.1698 -0.2380  0.0823
 5924SOL    HW129234   0.754   3.982   9.141  2.2725  0.5122 -0.9784
 5924SOL    HW229235   0.875   3.935   9.206  1.2153 -0.1676 -2.0087
 5925SOL     OW29236   0.131   3.486   1.280  0.2024  0.1610 -0.2781
 5925SOL    HW129237   0.123   3.394   1.255  1.0805  0.2817 -0.9882
 5925SOL    HW229238   0.142   3.485   1.376  0.7464 -0.0099 -0.3430
 5926SOL     OW29239   4.528   3.412   3.867 -0.2117 -0.1129  0.6801
 5926SOL    HW129240   4.519   3.381   3.777  1.3880  0.1547  0.4154
 5926SOL    HW229241   4.512   3.505   3.850 -1.9055 -0.6970 -0.8749
 5927SOL     OW29242   0.523   1.595   3.856  0.4819 -0.3852  0.3052
 5927SOL    HW129243   0.507   1.549   3.939 -3.5195 -0.3721 -0.4447
 5927SOL    HW229244   0.537   1.683   3.891 -0.9105 -0.1125  0.1686
 5928SOL     OW29245   2.285   2.728   7.319  0.3707  0.9292  0.0348
 5928SOL    HW129246   2.328   2.701   7.400  0.4486  1.1678  0.0723
 5928SOL    HW229247   2.367   2.744   7.271  1.4139 -1.1073  1.1491
 5929SOL     OW29248   3.368   0.998   3.967 -0.4706  0.1459  0.4812
 5929SOL    HW129249   3.306   0.975   4.036 -0.2319 -0.6159  0.4352
 5929SOL    HW229250   3.396   1.081   4.005 -0.3791 -0.2032  1.1612
 5930SOL     OW29251   1.036   2.341   6.193  0.2805  0.0865 -0.1565
 5930SOL    HW129252   1.126   2.368   6.211  0.7269 -1.0737 -0.6157
 5930SOL    HW229253   0.997   2.345   6.280  0.4787  1.6200 -0.1449
 5931SOL     OW29254   3.776   1.285   2.453  0.2048 -0.1660  0.3967
 5931SOL    HW129255   3.756   1.217   2.517 -1.8780 -0.1844 -0.2935
 5931SOL    HW229256   3.715   1.262   2.384 -0.1977 -1.4683  1.1946
 5932SOL     OW29257   2.487   2.679  12.035 -0.2098  0.5838  0.3827
 5932SOL    HW129258   2.417   2.679  12.101  0.8535 -2.4382  1.4854
 5932SOL    HW229259   2.502   2.774  12.035  0.9844  0.3942  0.1716
 5933SOL     OW29260   1.179   0.993  14.683 -0.1597  0.4177 -0.0602
 5933SOL    HW129261   1.214   1.071  14.726 -1.5294  0.9604  0.0475
 5933SOL    HW229262   1.256   0.966  14.632  0.9175  0.0041  1.7691
 5934SOL     OW29263   1.639   1.008   6.131  0.3186  0.0102 -0.2473
 5934SOL    HW129264   1.591   0.943   6.080 -1.3023 -0.7269  2.2008
 5934SOL    HW229265   1.726   0.969   6.133  1.2777  2.0901 -2.1512
 5935SOL     OW29266   2.364   2.199   7.981 -0.2842 -0.2368 -0.6382
 5935SOL    HW129267   2.304   2.263   7.944 -0.9988  1.4891  3.4406
 5935SOL    HW229268   2.309   2.138   8.031  0.4048  1.9883  2.8133
 5936SOL     OW29269   1.340   2.889   1.179  0.0827 -0.4829  0.2569
 5936SOL    HW129270   1.432   2.904   1.158 -0.9059  3.1029 -1.3918
 5936SOL    HW229271   1.300   2.955   1.123  0.0968 -0.6447  0.0541
 5937SOL     OW29272   2.541   3.855   4.923  0.0287  0.3105 -0.3843
 5937SOL    HW129273   2.539   3.951   4.925 -2.4448  0.2306  0.6796
 5937SOL    HW229274   2.466   3.829   4.975  0.4138  0.8216  0.4368
 5938SOL     OW29275   1.664   3.701   8.221 -0.2326  0.1970 -0.1860
 5938SOL    HW129276   1.675   3.758   8.298 -0.7932  0.4380 -0.2823
 5938SOL    HW229277   1.573   3.671   8.222  0.0682 -0.7021 -0.1636
 5939SOL     OW29278   3.287   2.818   3.151  0.8606 -0.3173  0.1286
 5939SOL    HW129279   3.253   2.739   3.192 -1.2904  2.4195  3.6506
 5939SOL    HW229280   3.244   2.818   3.066  0.9949 -1.0581  0.0586
 5940SOL     OW29281   3.978   0.335  11.143 -0.4819  0.0473 -0.2196
 5940SOL    HW129282   3.977   0.409  11.205  3.1775  1.2439 -1.5635
 5940SOL    HW229283   4.063   0.335  11.100 -0.7182 -0.8691 -0.6784
 5941SOL     OW29284   1.946   0.272  14.573  0.1026  0.2930  0.4967
 5941SOL    HW129285   1.966   0.365  14.568  0.0696  0.2764 -0.0016
 5941SOL    HW229286   1.991   0.241  14.652 -1.3972 -0.4663  1.0475
 5942SOL     OW29287   4.085   0.780   2.611  0.5229 -0.1911  0.4220
 5942SOL    HW129288   3.991   0.775   2.596  0.5163 -1.7494  0.8941
 5942SOL    HW229289   4.104   0.873   2.613  2.2554 -0.5178 -0.4241
 5943SOL     OW29290   1.647   2.066   0.029 -0.0557  0.3505  0.1643
 5943SOL    HW129291   1.727   2.023  17.684 -1.9446 -1.9742 -1.4676
 5943SOL    HW229292   1.589   2.052  17.641  0.7447  0.6768 -0.5220
 5944SOL     OW29293   2.141   3.727   0.753  0.2220 -0.2475  0.4151
 5944SOL    HW129294   2.156   3.670   0.678 -0.6860  0.6601 -0.4642
 5944SOL    HW229295   2.070   3.788   0.731  0.1034  0.9151  3.9441
 5945SOL     OW29296   2.336   1.439   3.564 -0.4434  0.9506  0.4163
 5945SOL    HW129297   2.408   1.375   3.565 -1.0513  0.2166 -2.9191
 5945SOL    HW229298   2.356   1.482   3.647  2.7951 -0.1386  0.2091
 5946SOL     OW29299   3.449   4.418   7.575 -0.1282 -0.5344  0.1734
 5946SOL    HW129300   3.465   4.402   7.668 -1.9149 -0.2950  0.5204
 5946SOL    HW229301   3.442   4.328   7.543  0.0502 -0.2343 -0.6920
 5947SOL     OW29302   2.647   3.569   5.693  0.1359 -0.2866  0.2313
 5947SOL    HW129303   2.555   3.567   5.719  0.6002  0.7871  2.0353
 5947SOL    HW229304   2.682   3.627   5.762 -0.6704 -1.9936  2.0817
 5948SOL     OW29305   2.165   3.385  14.851 -0.3867 -0.3242  0.8662
 5948SOL    HW129306   2.150   3.456  14.788  1.4401  0.5884  1.4575
 5948SOL    HW229307   2.252   3.399  14.888 -0.5207 -0.0125  1.0647
 5949SOL     OW29308   0.435   0.676   7.677 -0.1470  0.4944 -0.1897
 5949SOL    HW129309   0.358   0.620   7.688 -1.4426  2.4070  0.4277
 5949SOL    HW229310   0.488   0.647   7.751 -0.4638 -0.8220 -0.4705
 5950SOL     OW29311   2.530   1.231   3.610 -0.0521 -0.3220 -0.3432
 5950SOL    HW129312   2.485   1.156   3.571  1.5454 -0.6983 -1.4529
 5950SOL    HW229313   2.510   1.223   3.704  0.7709 -1.7315 -0.2862
 5951SOL     OW29314   1.248   2.838   3.102  0.1123  0.2819 -0.2238
 5951SOL    HW129315   1.237   2.882   3.018 -3.2320 -0.3080 -0.0978
 5951SOL    HW229316   1.343   2.845   3.109 -0.0425 -0.1539  2.3404
 5952SOL     OW29317   4.050   2.826  14.678 -0.1358  0.1453 -0.0383
 5952SOL    HW129318   4.076   2.889  14.611  0.5197  0.1243  0.1935
 5952SOL    HW229319   4.126   2.827  14.736 -0.8189 -0.4755  0.8619
 5953SOL     OW29320   2.883   0.024   7.140  0.1166  0.9500  0.3117
 5953SOL    HW129321   2.969   0.054   7.168  0.0285  5.5140 -4.1645
 5953SOL    HW229322   2.846   0.113   7.147  0.1773  0.7666  2.8542
 5954SOL     OW29323   3.163   3.024   7.775 -0.3217 -0.2452 -0.1617
 5954SOL    HW129324   3.160   3.081   7.851 -3.4573  1.2768 -1.4328
 5954SOL    HW229325   3.255   3.029   7.750  0.2735 -0.4778  2.0055
 5955SOL     OW29326   1.750   0.755   4.746  0.0383  0.0772  0.0777
 5955SOL    HW129327   1.730   0.815   4.675 -0.0600  2.0632  1.7617
 5955SOL    HW229328   1.689   0.684   4.730 -1.3787  1.1872  0.5024
 5956SOL     OW29329   0.863   4.564  13.454  0.3841 -0.0709 -0.0299
 5956SOL    HW129330   0.948   4.538  13.489  0.5140 -1.5896 -1.5212
 5956SOL    HW229331   0.866   4.656  13.480 -0.1442  0.0530 -0.3974
 5957SOL     OW29332   1.399   3.561   7.918  0.2950 -0.3476 -0.7229
 5957SOL    HW129333   1.373   3.653   7.911 -1.1286 -0.8883 -2.3326
 5957SOL    HW229334   1.494   3.572   7.916  0.3681 -0.7568  0.4382
 5958SOL     OW29335   4.667   3.396   8.340  0.3787  0.0203 -0.0405
 5958SOL    HW129336   0.028   3.440   8.316  1.2638 -1.7681 -0.2668
 5958SOL    HW229337   4.623   3.408   8.256 -0.2751  0.1714  0.3181
 5959SOL     OW29338   2.967   1.629  10.663 -0.3027 -0.1126  1.0626
 5959SOL    HW129339   2.901   1.697  10.677  1.9875  2.1525  0.7138
 5959SOL    HW229340   3.019   1.631  10.744 -1.5873 -1.1999  1.9134
 5960SOL     OW29341   1.098   1.090   6.711  0.3029 -0.4711 -0.1857
 5960SOL    HW129342   1.089   1.000   6.741  2.0484 -0.9259 -1.0553
 5960SOL    HW229343   1.176   1.081   6.657  1.0401  0.8506  0.6677
 5961SOL     OW29344   4.651   2.522   2.724  0.3749 -0.4742 -0.4820
 5961SOL    HW129345   4.624   2.591   2.663 -1.3359  0.2035  1.0285
 5961SOL    HW229346   4.707   2.474   2.663  0.8860 -0.6327  0.1106
 5962SOL     OW29347   0.176   2.585  15.161  0.0996  0.7599  0.0828
 5962SOL    HW129348   0.173   2.561  15.254 -2.7886  0.5680 -0.0584
 5962SOL    HW229349   0.199   2.504  15.116 -1.2422 -0.5433  1.7903
 5963SOL     OW29350   1.761   0.071  16.275  0.0579  0.3704 -0.5028
 5963SOL    HW129351   1.693   0.006  16.253  0.9468 -1.0091  0.8822
 5963SOL    HW229352   1.836   0.016  16.294  0.0308  0.5569  0.1266
 5964SOL     OW29353   0.694   4.543   3.628 -0.0012  0.3106  0.1594
 5964SOL    HW129354   0.676   4.521   3.719  3.4996 -0.9412  0.5544
 5964SOL    HW229355   0.783   4.515   3.606  0.4089  1.1781  0.7305
 5965SOL     OW29356   3.847   2.501  14.519 -0.3232 -0.5565  0.3486
 5965SOL    HW129357   3.789   2.534  14.451  0.6958  0.6909  0.0829
 5965SOL    HW229358   3.892   2.434  14.467 -2.7605 -2.0982  0.2018
 5966SOL     OW29359   1.499   2.866   6.679 -0.1471  0.0154 -0.3936
 5966SOL    HW129360   1.459   2.799   6.623 -0.8074 -1.2684  1.6211
 5966SOL    HW229361   1.427   2.877   6.741 -0.5340  2.8072 -1.3690
 5967SOL     OW29362   3.840   4.049   2.812 -0.0247 -0.1445  0.6123
 5967SOL    HW129363   3.935   4.042   2.823  0.5007  1.3727 -3.0581
 5967SOL    HW229364   3.815   3.956   2.807  2.0891 -0.5092 -2.8640
 5968SOL     OW29365   3.184   1.964   5.787 -0.1601  0.3311  0.1379
 5968SOL    HW129366   3.107   1.992   5.737 -0.9878  0.2231  1.3471
 5968SOL    HW229367   3.246   2.023   5.746 -1.1855  0.7965 -0.7453
 5969SOL     OW29368   1.950   3.030   6.350  0.0341  0.4878 -0.6966
 5969SOL    HW129369   1.953   2.958   6.413 -0.4584  0.4349 -0.7355
 5969SOL    HW229370   1.960   2.971   6.276 -0.0090  0.5742 -0.7713
 5970SOL     OW29371   4.452   3.080   3.110  0.2533 -0.3028  0.2263
 5970SOL    HW129372   4.387   3.106   3.044  1.1527 -0.8473 -0.8800
 5970SOL    HW229373   4.459   3.160   3.162 -3.7951  1.2359 -1.5794
 5971SOL     OW29374   3.251   4.010   2.312  0.3513  0.4528 -0.4987
 5971SOL    HW129375   3.332   4.002   2.261  1.5189 -2.4233  1.7631
 5971SOL    HW229376   3.270   3.947   2.382 -0.9044 -1.3728 -1.7974
 5972SOL     OW29377   0.616   0.906   9.099  0.2040  0.2498 -0.3914
 5972SOL    HW129378   0.627   0.909   9.004  0.4285  1.0437 -0.3322
 5972SOL    HW229379   0.527   0.871   9.100 -0.4378  1.9885  2.2366
 5973SOL     OW29380   3.360   0.866   8.735  0.0139 -0.1855  0.2775
 5973SOL    HW129381   3.364   0.897   8.644  1.3126 -1.8154 -0.2255
 5973SOL    HW229382   3.451   0.837   8.746  0.4065  2.5780  4.0459
 5974SOL     OW29383   3.102   1.703  16.918  0.2758  0.2458  0.2207
 5974SOL    HW129384   3.109   1.627  16.976 -1.4982  1.3794  1.9323
 5974SOL    HW229385   3.134   1.773  16.975 -1.4657  2.1551 -1.1373
 5975SOL     OW29386   4.415   2.991  14.278 -0.3031 -0.7635  0.1102
 5975SOL    HW129387   4.427   3.010  14.185 -3.0640 -0.0471 -0.0886
 5975SOL    HW229388   4.477   3.049  14.322 -1.4684  0.1027  0.6080
 5976SOL     OW29389   3.033   3.990   2.135  0.1946  0.0361 -0.1190
 5976SOL    HW129390   3.092   3.982   2.210  1.2505 -4.1227 -1.4034
 5976SOL    HW229391   3.057   4.078   2.104  1.5276 -0.0786  0.5862
 5977SOL     OW29392   2.530   1.870   4.863 -0.4108 -0.0874 -0.2072
 5977SOL    HW129393   2.515   1.934   4.932 -0.3247  1.3403 -1.5236
 5977SOL    HW229394   2.614   1.896   4.825 -0.7186 -0.7732 -1.3610
 5978SOL     OW29395   0.665   4.377  10.494 -0.0999  0.1109  0.2897
 5978SOL    HW129396   0.575   4.354  10.474  0.0179  0.4209 -0.6002
 5978SOL    HW229397   0.714   4.362  10.413 -1.8647 -0.2161 -0.7107
 5979SOL     OW29398   3.882   1.040  10.763 -0.4143 -0.2009  0.6479
 5979SOL    HW129399   3.916   1.121  10.801 -0.3176  0.9064 -1.7757
 5979SOL    HW229400   3.789   1.057  10.781 -0.1316  1.2201  0.7773
 5980SOL     OW29401   0.520   1.349   7.321  0.2153 -0.1134  0.4019
 5980SOL    HW129402   0.440   1.401   7.317  0.1627 -0.2793 -0.9351
 5980SOL    HW229403   0.482   1.268   7.356 -0.4076 -0.8835 -2.0275
 5981SOL     OW29404   1.725   2.658   9.847  0.0362  0.1489  0.1960
 5981SOL    HW129405   1.739   2.571   9.810 -0.5914  0.0543  0.1899
 5981SOL    HW229406   1.647   2.652   9.902 -0.0563  0.5281  0.1066
 5982SOL     OW29407   1.179   1.804  17.672 -0.3449 -0.2143  0.9182
 5982SOL    HW129408   1.202   1.717   0.018  0.6365  0.1162  1.0979
 5982SOL    HW229409   1.085   1.797   0.004 -0.9359  4.0251 -0.5388
 5983SOL     OW29410   4.652   3.997   5.856 -0.3895  0.2345 -0.4104
 5983SOL    HW129411   4.663   3.902   5.854 -1.0469  0.1395  1.2848
 5983SOL    HW229412   4.626   4.002   5.948 -1.1441 -1.6119 -0.5320
 5984SOL     OW29413   1.965   1.353   4.555 -0.2269  0.0995  0.4537
 5984SOL    HW129414   2.044   1.407   4.559 -1.6391  2.2459 -0.1417
 5984SOL    HW229415   1.907   1.403   4.497 -1.2509  0.5640  1.8833
 5985SOL     OW29416   1.996   3.858   9.047  0.0384  0.2132  0.1817
 5985SOL    HW129417   2.028   3.769   9.063  0.2006 -0.0228 -1.4643
 5985SOL    HW229418   1.934   3.867   9.119 -0.7912  1.4231 -0.6927
 5986SOL     OW29419   1.027   2.538  16.324 -0.0295 -0.1492 -0.2203
 5986SOL    HW129420   1.121   2.521  16.319  0.3799  1.5945  1.2565
 5986SOL    HW229421   1.001   2.493  16.404  0.1425  0.2245  0.0481
 5987SOL     OW29422   1.662   3.635   2.226 -0.0291 -0.5702  0.1061
 5987SOL    HW129423   1.708   3.712   2.260 -1.7449 -0.0978  1.3534
 5987SOL    HW229424   1.574   3.673   2.229  0.6373  0.7889  2.9080
 5988SOL     OW29425   2.390   2.107   0.893 -0.0417 -0.8366 -0.6076
 5988SOL    HW129426   2.454   2.156   0.945  0.6251 -2.0959 -0.2344
 5988SOL    HW229427   2.310   2.110   0.945  0.4559  1.4229  0.0276
 5989SOL     OW29428   2.292   2.176   2.231 -0.1388 -0.3375  0.2561
 5989SOL    HW129429   2.276   2.082   2.229  0.3682 -0.4982  2.9137
 5989SOL    HW229430   2.381   2.172   2.198 -0.9508 -0.4635 -1.8804
 5990SOL     OW29431   2.254   4.596  14.565 -0.1969  0.2815  0.2668
 5990SOL    HW129432   2.279   4.611  14.656  0.8468  1.3522 -0.1900
 5990SOL    HW229433   2.252   4.687  14.534  1.3442  0.7591  1.5301
 5991SOL     OW29434   4.080   1.569   3.679  0.0801 -0.1424  0.3942
 5991SOL    HW129435   4.170   1.597   3.696  0.6409 -1.3792 -0.5730
 5991SOL    HW229436   4.098   1.544   3.589 -0.1446 -0.4209  0.4287
 5992SOL     OW29437   3.303   1.604   8.736 -0.8710  0.4110  0.7973
 5992SOL    HW129438   3.321   1.549   8.659 -0.9194  0.3560  0.8255
 5992SOL    HW229439   3.216   1.569   8.755 -1.0313 -0.4125 -1.4013
 5993SOL     OW29440   0.535   1.498   5.252  0.5247  0.0644 -0.0150
 5993SOL    HW129441   0.587   1.484   5.331 -3.0371 -0.6582  2.2210
 5993SOL    HW229442   0.449   1.524   5.285  1.7171  1.1442  2.2435
 5994SOL     OW29443   3.378   4.474  14.917  0.2499  0.0194 -0.0628
 5994SOL    HW129444   3.291   4.508  14.898  0.7851  1.4868  0.1276
 5994SOL    HW229445   3.391   4.462  15.011  2.1941  2.3539 -0.0401
 5995SOL     OW29446   3.471   3.996  17.579 -0.4588  0.4986  0.2954
 5995SOL    HW129447   3.566   3.987  17.566 -0.4643 -0.4350  0.9028
 5995SOL    HW229448   3.459   4.091  17.581  0.8558  0.7449 -4.3305
 5996SOL     OW29449   0.494   3.582   1.032  0.1806 -0.3447 -0.6918
 5996SOL    HW129450   0.463   3.491   1.037  0.8571 -0.5417 -0.0248
 5996SOL    HW229451   0.416   3.624   1.068  0.5635 -1.5008  1.4979
 5997SOL     OW29452   2.021   0.492   1.869 -0.2156 -0.0072  0.5379
 5997SOL    HW129453   1.990   0.581   1.853  1.2245  0.3657 -0.2029
 5997SOL    HW229454   1.978   0.465   1.950  0.5732 -1.5366  0.4483
 5998SOL     OW29455   0.712   2.712   7.522 -0.2120  0.0223  0.3386
 5998SOL    HW129456   0.635   2.667   7.487 -0.6202  1.5214 -0.7148
 5998SOL    HW229457   0.727   2.785   7.461 -0.3384 -1.4502 -1.4551
 5999SOL     OW29458   4.582   3.155   9.201 -0.4105  0.7348 -0.5318
 5999SOL    HW129459   4.541   3.068   9.210 -0.8096  1.1774  1.9777
 5999SOL    HW229460   4.519   3.210   9.246  0.3196  0.0866  1.2797
 6000SOL     OW29461   0.014   4.361  13.521 -0.1374  0.5446 -0.0566
 6000SOL    HW129462   4.693   4.280  13.549 -0.3445  1.4579  2.2713
 6000SOL    HW229463   0.016   4.354  13.425 -0.1166 -1.8802  0.1133
 6001SOL     OW29464   0.309   3.787  16.295  0.3043  0.4326  0.3621
 6001SOL    HW129465   0.226   3.825  16.325 -0.0910 -0.3369  0.2510
 6001SOL    HW229466   0.276   3.727  16.227  2.1379 -1.7225  1.3759
 6002SOL     OW29467   1.161   3.261   7.392  0.2716  1.2154  0.1761
 6002SOL    HW129468   1.195   3.235   7.306  2.7464  1.2526  1.1510
 6002SOL    HW229469   1.135   3.352   7.378 -1.1809  0.7346 -0.2005
 6003SOL     OW29470   3.692   4.110   9.937  0.2620 -0.3674 -0.7175
 6003SOL    HW129471   3.693   4.021   9.972 -1.9568  0.2756  0.9639
 6003SOL    HW229472   3.739   4.153  10.009  1.3022 -0.3303 -1.4126
 6004SOL     OW29473   1.909   0.415  16.561 -0.3253 -0.2341 -0.0239
 6004SOL    HW129474   1.828   0.421  16.509 -0.2583 -1.6740 -0.3046
 6004SOL    HW229475   1.941   0.330  16.530 -3.7746 -1.0674 -1.3943
 6005SOL     OW29476   4.711   2.638   6.737  0.2323  0.2487  0.7882
 6005SOL    HW129477   0.032   2.557   6.709 -0.2244  1.4084 -3.2904
 6005SOL    HW229478   0.047   2.673   6.805  0.7466 -0.8899  0.9249
 6006SOL     OW29479   1.077   3.373   2.887  0.0151  0.7745 -0.1453
 6006SOL    HW129480   1.059   3.465   2.868 -1.6752  0.6955  1.1140
 6006SOL    HW229481   1.011   3.325   2.837 -0.3008  1.4154 -0.3483
 6007SOL     OW29482   3.318   1.959   3.273 -0.3973  0.3396 -0.0463
 6007SOL    HW129483   3.350   2.039   3.231  0.6339  1.2623  2.5344
 6007SOL    HW229484   3.284   1.902   3.204  1.6580 -0.9815  0.0370
 6008SOL     OW29485   3.091   4.539   6.947 -1.0812  0.2519 -0.1717
 6008SOL    HW129486   3.083   4.501   7.035  0.9411 -1.2815 -0.6550
 6008SOL    HW229487   3.177   4.580   6.956 -1.2018  0.0162  2.2779
 6009SOL     OW29488   0.401   0.901   4.912 -0.0693  0.5030  0.5393
 6009SOL    HW129489   0.333   0.839   4.886 -0.2825  0.1229  2.0383
 6009SOL    HW229490   0.372   0.928   4.999  2.2391  0.3365  1.3532
 6010SOL     OW29491   1.784   4.268   6.416  0.0913  0.4116 -0.0808
 6010SOL    HW129492   1.758   4.329   6.347 -5.1162 -0.8786  0.7026
 6010SOL    HW229493   1.772   4.192   6.359 -0.2315  0.5042 -0.1381
 6011SOL     OW29494   1.911   3.043   0.633  0.1011  0.1910  0.2079
 6011SOL    HW129495   1.891   3.077   0.546 -0.3963 -1.5076 -0.3562
 6011SOL    HW229496   1.901   2.947   0.631 -1.0966  0.3119  0.4302
 6012SOL     OW29497   1.435   3.609   1.335 -0.0552  0.4000 -0.2066
 6012SOL    HW129498   1.402   3.648   1.416 -0.9623 -0.3092 -0.2226
 6012SOL    HW229499   1.364   3.549   1.310  0.6602 -0.6698  0.3375
 6013SOL     OW29500   2.442   1.869  10.154  0.4035 -0.0061  0.5102
 6013SOL    HW129501   2.501   1.877  10.079 -1.6862 -2.6756 -1.4207
 6013SOL    HW229502   2.498   1.823  10.216  0.9609 -0.7748 -0.5834
 6014SOL     OW29503   2.279   1.110  10.733 -0.1177  0.0199  0.3955
 6014SOL    HW129504   2.241   1.168  10.668 -0.8583 -0.6912  0.1942
 6014SOL    HW229505   2.251   1.156  10.812  0.4584 -0.5690  0.9428
 6015SOL     OW29506   3.152   4.241   3.622 -0.1922 -0.3480 -0.4115
 6015SOL    HW129507   3.110   4.321   3.591  0.6450  0.1325 -0.2915
 6015SOL    HW229508   3.236   4.244   3.576  0.0536  1.8288  0.2079
 6016SOL     OW29509   3.523   1.414   0.353  0.1674 -0.1506  0.1475
 6016SOL    HW129510   3.536   1.503   0.385 -1.6792 -0.4467  1.7115
 6016SOL    HW229511   3.443   1.392   0.400 -0.0384 -2.1882 -1.1504
 6017SOL     OW29512   1.744   2.602   2.403 -0.0431  0.3150 -0.5225
 6017SOL    HW129513   1.821   2.545   2.393 -1.2767 -1.2697 -1.0610
 6017SOL    HW229514   1.777   2.691   2.408 -0.1481  0.3105  0.2918
 6018SOL     OW29515   3.034   3.948  17.657  0.3036 -0.0473 -0.6100
 6018SOL    HW129516   3.003   3.876  17.602 -0.1808 -0.5652  0.3438
 6018SOL    HW229517   2.976   4.021  17.637  1.2012  0.4410 -1.4328
 6019SOL     OW29518   4.405   0.702   7.945  0.8917 -0.4810 -0.3015
 6019SOL    HW129519   4.357   0.639   7.999  1.0633 -0.1667  0.2155
 6019SOL    HW229520   4.360   0.693   7.861  0.7116 -0.6602 -0.1865
 6020SOL     OW29521   3.971   1.812   4.759  0.4240  0.4366  0.2100
 6020SOL    HW129522   3.994   1.726   4.725 -0.7879 -0.1385  0.8427
 6020SOL    HW229523   4.027   1.829   4.835 -0.1743  0.0723  0.7311
 6021SOL     OW29524   3.893   3.709   8.384 -0.2756  0.3647 -0.7484
 6021SOL    HW129525   3.869   3.736   8.473 -0.1508  1.1362 -0.9554
 6021SOL    HW229526   3.809   3.690   8.342 -0.6374  3.6642 -1.5011
 6022SOL     OW29527   2.652   2.565  12.604 -0.1473 -0.0288  0.0369
 6022SOL    HW129528   2.589   2.527  12.543  0.0826  0.0467 -0.2476
 6022SOL    HW229529   2.735   2.518  12.592  0.6832  1.1893  1.0182
 6023SOL     OW29530   1.922   3.989   1.661  0.1277 -0.3881  0.1350
 6023SOL    HW129531   1.863   3.970   1.734  1.4582  1.7548  1.7858
 6023SOL    HW229532   1.901   4.078   1.632  2.6462  0.1362 -0.0604
 6024SOL     OW29533   2.754   2.465   8.635  0.1158  0.6052  0.0516
 6024SOL    HW129534   2.812   2.400   8.593  0.4910 -0.5837  2.4201
 6024SOL    HW229535   2.780   2.458   8.727 -1.9547 -1.2716  0.4842
 6025SOL     OW29536   4.585   0.725   9.574  0.0896  0.1990 -0.4734
 6025SOL    HW129537   4.597   0.767   9.488 -1.8531  0.3226 -0.6725
 6025SOL    HW229538   4.660   0.760   9.622  1.0901 -1.3807 -0.8882
 6026SOL     OW29539   1.705   1.900   5.420 -0.5135 -0.0092  0.5413
 6026SOL    HW129540   1.792   1.927   5.392 -0.0635 -1.7531  0.2315
 6026SOL    HW229541   1.736   1.865   5.504  1.2225 -1.0716 -0.5378
 6027SOL     OW29542   4.111   1.764   3.332  0.2085  0.3446  0.2862
 6027SOL    HW129543   4.034   1.798   3.377  0.9094  1.6781  0.4557
 6027SOL    HW229544   4.115   1.834   3.268  1.2407 -0.3501 -0.4211
 6028SOL     OW29545   4.005   3.132   7.690  0.0135  0.1309  0.8264
 6028SOL    HW129546   3.981   3.042   7.670  2.7937 -0.1232 -1.2289
 6028SOL    HW229547   3.987   3.132   7.784 -0.4035  3.2889  0.7472
 6029SOL     OW29548   1.889   0.399   2.082  0.0193  0.3965 -0.0649
 6029SOL    HW129549   1.881   0.304   2.093 -1.5833  0.3105 -1.8800
 6029SOL    HW229550   1.943   0.414   2.159 -0.2766  4.2180 -0.5929
 6030SOL     OW29551   2.798   0.920  14.675  0.3900  0.3639 -0.5903
 6030SOL    HW129552   2.774   0.834  14.640  1.2915  0.2109 -0.8231
 6030SOL    HW229553   2.800   0.955  14.586  1.7787 -1.2001 -1.1779
 6031SOL     OW29554   2.065   0.577  10.951  0.8782 -0.9259  0.1780
 6031SOL    HW129555   2.096   0.650  11.005 -0.9305  0.9774 -1.3450
 6031SOL    HW229556   1.973   0.603  10.956  1.0118 -1.0303  3.3996
 6032SOL     OW29557   0.704   0.678   2.724 -0.2303  0.6931 -0.0304
 6032SOL    HW129558   0.777   0.620   2.704 -1.4509 -1.3284  1.4044
 6032SOL    HW229559   0.675   0.707   2.637 -1.7886  0.5514  0.4453
 6033SOL     OW29560   1.230   3.180   6.894  0.3463  0.1182  0.0241
 6033SOL    HW129561   1.142   3.181   6.857  0.6793 -1.6884 -0.8226
 6033SOL    HW229562   1.279   3.199   6.814  0.9420 -2.3840 -0.1900
 6034SOL     OW29563   1.477   2.696  12.846  0.3446 -0.4057 -0.0589
 6034SOL    HW129564   1.562   2.738  12.863  0.9829 -0.6769 -2.5347
 6034SOL    HW229565   1.495   2.607  12.875  5.5092  0.6173 -0.1303
 6035SOL     OW29566   0.542   4.009   5.478  0.0060  0.1245 -0.4333
 6035SOL    HW129567   0.528   3.933   5.534 -2.5414  0.6834 -0.3086
 6035SOL    HW229568   0.570   3.968   5.397  0.2618  1.8789 -1.2348
 6036SOL     OW29569   0.279   3.055   8.695 -0.4595 -0.4724  0.1972
 6036SOL    HW129570   0.280   3.127   8.758  4.5450  1.8217 -2.4529
 6036SOL    HW229571   0.259   3.113   8.621  1.7977  2.6949  2.0599
 6037SOL     OW29572   3.838   0.484   9.036  0.0917  0.2329  0.1371
 6037SOL    HW129573   3.905   0.533   9.084  0.6290  0.1474 -0.5371
 6037SOL    HW229574   3.800   0.425   9.101 -0.7910  1.7152  0.9666
 6038SOL     OW29575   2.665   0.299   2.802 -0.2029 -0.1593 -0.4379
 6038SOL    HW129576   2.710   0.378   2.771 -2.1329  0.5499 -1.4078
 6038SOL    HW229577   2.713   0.282   2.883 -0.7062 -2.0494 -0.5394
 6039SOL     OW29578   2.735   4.557   5.778  0.4898  0.5062 -0.2852
 6039SOL    HW129579   2.717   4.612   5.853 -0.0233 -0.8068  0.5617
 6039SOL    HW229580   2.757   4.619   5.709  0.3736  0.1140 -0.6788
 6040SOL     OW29581   2.887   2.905   1.974 -0.2800 -0.3579  0.2110
 6040SOL    HW129582   2.976   2.870   1.981 -0.0822  0.2979  0.9660
 6040SOL    HW229583   2.888   2.962   1.896 -2.8655  0.4738  0.7992
 6041SOL     OW29584   0.278   2.369  16.372 -0.1231  0.2351 -0.4496
 6041SOL    HW129585   0.257   2.343  16.282 -0.4363  0.8615 -0.5544
 6041SOL    HW229586   0.373   2.372  16.376 -0.2170  1.4101  0.8518
 6042SOL     OW29587   4.538   1.354  11.260  0.0816  0.3487  0.0461
 6042SOL    HW129588   4.490   1.336  11.179 -1.1382  1.2994  0.5587
 6042SOL    HW229589   4.495   1.425  11.307 -0.4047  0.3564 -0.4116
 6043SOL     OW29590   4.172   2.122   8.165 -0.5918 -0.1044  0.2367
 6043SOL    HW129591   4.212   2.190   8.219  0.1584 -0.3279 -0.0410
 6043SOL    HW229592   4.116   2.082   8.232 -0.1287  0.1309  0.7616
 6044SOL     OW29593   3.267   0.849  17.316  0.0021  0.2697  0.1536
 6044SOL    HW129594   3.340   0.893  17.359  1.0292 -1.3012  0.0118
 6044SOL    HW229595   3.298   0.872  17.229  0.5780 -2.0165 -0.2524
 6045SOL     OW29596   0.264   4.284   8.271 -0.1789 -0.3189  0.1016
 6045SOL    HW129597   0.256   4.191   8.291  0.6236 -0.8594 -2.0319
 6045SOL    HW229598   0.344   4.293   8.219  1.4026 -1.7593  2.3245
 6046SOL     OW29599   4.306   4.670   3.837  0.0965 -0.1873  0.0715
 6046SOL    HW129600   4.217   4.704   3.845 -1.0517 -3.4252  0.8496
 6046SOL    HW229601   4.353   0.012   3.893  0.1476  0.1912 -0.4010
 6047SOL     OW29602   2.489   3.129   6.250  0.1497 -0.4214 -0.3499
 6047SOL    HW129603   2.512   3.082   6.170  0.8002  1.1829 -1.1121
 6047SOL    HW229604   2.557   3.100   6.311 -1.8512  1.7681  2.9393
 6048SOL     OW29605   3.224   0.625  10.955 -0.1855  0.7007  0.2921
 6048SOL    HW129606   3.239   0.677  11.033 -2.5959 -1.9848  2.5548
 6048SOL    HW229607   3.272   0.545  10.977 -0.3966  0.3577 -0.4922
 6049SOL     OW29608   1.941   3.884  15.423  0.8440 -0.2293  0.0137
 6049SOL    HW129609   1.946   3.845  15.335  1.1965  1.7324 -0.8261
 6049SOL    HW229610   1.894   3.960  15.389  1.2743 -0.0570 -0.1967
 6050SOL     OW29611   4.421   2.313   2.135  0.2132 -0.3631 -0.1922
 6050SOL    HW129612   4.334   2.300   2.173  0.3714 -1.0001 -0.0305
 6050SOL    HW229613   4.404   2.283   2.046 -0.2896 -0.6704  0.0051
 6051SOL     OW29614   0.851   0.342   1.283  0.0416 -0.5689  0.6422
 6051SOL    HW129615   0.778   0.382   1.235  1.4353 -0.5276 -1.4438
 6051SOL    HW229616   0.863   0.414   1.345 -0.1359 -0.5540  0.6613
 6052SOL     OW29617   2.291   4.359  13.618  0.2893  0.6962  0.7166
 6052SOL    HW129618   2.201   4.340  13.645  0.6352 -0.2140  1.2322
 6052SOL    HW229619   2.276   4.431  13.557  2.1420  1.8973  1.6742
 6053SOL     OW29620   4.568   2.363  12.481 -0.7347  0.3501 -0.4798
 6053SOL    HW129621   4.602   2.328  12.398 -0.8468 -0.5444 -0.1516
 6053SOL    HW229622   4.481   2.395  12.457 -1.4546 -0.5912  0.9042
 6054SOL     OW29623   3.184   0.558   7.570 -0.3914  0.3795  0.5411
 6054SOL    HW129624   3.219   0.558   7.659  0.7723  0.9440  0.0771
 6054SOL    HW229625   3.224   0.641   7.546  2.0278 -1.1679 -0.7916
 6055SOL     OW29626   2.471   4.303  10.352  0.8251  0.4504 -0.0781
 6055SOL    HW129627   2.483   4.236  10.420 -0.4472  0.1504 -0.1669
 6055SOL    HW229628   2.558   4.305  10.311  0.0384  2.7951 -1.5850
 6056SOL     OW29629   1.789   2.612   7.889 -0.0160  0.0614  0.4961
 6056SOL    HW129630   1.774   2.519   7.907  0.7558 -0.4788 -1.6672
 6056SOL    HW229631   1.821   2.649   7.971  1.0948 -0.2928  0.2150
 6057SOL     OW29632   0.304   2.174   3.115  0.1374  0.0329 -0.3270
 6057SOL    HW129633   0.243   2.225   3.063  2.1069  0.5134 -2.1488
 6057SOL    HW229634   0.251   2.108   3.160 -0.1423  0.1028 -0.5587
 6058SOL     OW29635   4.304   0.566  11.228 -0.3016 -0.0021 -0.7566
 6058SOL    HW129636   4.381   0.513  11.207 -0.9854 -1.9342  1.5814
 6058SOL    HW229637   4.233   0.512  11.192 -0.2695 -0.2088 -0.5088
 6059SOL     OW29638   2.438   0.733   3.371 -0.1111 -0.5517  0.4658
 6059SOL    HW129639   2.522   0.755   3.330 -0.9287 -0.9532 -1.4216
 6059SOL    HW229640   2.418   0.660   3.313  0.4831 -0.2974 -0.0580
 6060SOL     OW29641   0.595   1.370   8.563  0.3310  0.0211  0.0419
 6060SOL    HW129642   0.634   1.398   8.646  1.3925 -1.5575  0.0913
 6060SOL    HW229643   0.640   1.417   8.493  0.2448 -0.9631 -0.6844
 6061SOL     OW29644   0.446   1.523   7.967  0.3736 -0.5388 -0.0559
 6061SOL    HW129645   0.433   1.527   8.062  0.7774  1.8806 -0.0953
 6061SOL    HW229646   0.474   1.432   7.960 -0.0162 -0.6682  0.0977
 6062SOL     OW29647   0.814   1.165   1.381 -0.6355 -0.0886 -0.0720
 6062SOL    HW129648   0.844   1.255   1.368 -0.9105 -0.0776 -0.6132
 6062SOL    HW229649   0.719   1.172   1.375 -0.3756  2.3341 -1.4074
 6063SOL     OW29650   3.675   0.756   7.875 -0.8117  0.3965  0.1693
 6063SOL    HW129651   3.606   0.814   7.842 -1.6494 -1.0188 -0.5362
 6063SOL    HW229652   3.732   0.736   7.800 -1.0957 -0.1273  0.0981
 6064SOL     OW29653   3.552   1.973  17.572  0.6548 -0.3354 -0.5745
 6064SOL    HW129654   3.561   2.019  17.656  0.4305 -1.0654 -0.1555
 6064SOL    HW229655   3.512   1.892  17.602 -0.5281  0.9510  1.2813
 6065SOL     OW29656   4.594   0.478   7.334  0.8922  0.2209 -0.6495
 6065SOL    HW129657   4.523   0.442   7.386  1.7744  0.3920  0.6618
 6065SOL    HW229658   4.654   0.507   7.403 -0.9056 -0.3344  1.1402
 6066SOL     OW29659   4.041   4.222  12.067  0.0455 -0.5076 -0.0917
 6066SOL    HW129660   4.034   4.203  11.973  0.9150 -1.6192  0.0603
 6066SOL    HW229661   4.068   4.135  12.097 -1.4300 -0.1905  2.0921
 6067SOL     OW29662   4.477   2.204   5.612  0.1312 -0.0194  0.3697
 6067SOL    HW129663   4.418   2.135   5.583 -0.6110  0.6017  0.4208
 6067SOL    HW229664   4.428   2.284   5.594  2.0350  1.6642  2.5264
 6068SOL     OW29665   2.274   2.533   0.747  0.5907 -0.5769  0.1742
 6068SOL    HW129666   2.259   2.625   0.722  2.5185 -0.8151 -1.8599
 6068SOL    HW229667   2.292   2.496   0.660  0.5938  1.0331 -0.5146
 6069SOL     OW29668   4.379   2.714   9.201 -0.2050  0.0063  0.3607
 6069SOL    HW129669   4.443   2.777   9.234 -1.3398  0.9614  0.7096
 6069SOL    HW229670   4.382   2.726   9.106  3.1367 -0.0744  0.4595
 6070SOL     OW29671   0.960   2.733   5.845 -0.3904  0.0330  0.5021
 6070SOL    HW129672   0.884   2.738   5.789 -0.5884 -0.4392  0.7217
 6070SOL    HW229673   1.032   2.709   5.787 -2.6239 -1.1624 -1.7593
 6071SOL     OW29674   2.267   0.229   5.773 -0.2698 -0.1094 -0.8401
 6071SOL    HW129675   2.292   0.223   5.680 -0.0302  0.1833 -0.7938
 6071SOL    HW229676   2.352   0.243   5.816 -0.8401  1.3538 -0.2235
 6072SOL     OW29677   2.266   0.617  11.315 -0.2140  0.1775 -0.4111
 6072SOL    HW129678   2.203   0.633  11.245  0.4006 -1.3599 -1.3298
 6072SOL    HW229679   2.245   0.675  11.388 -0.7852  2.4403 -2.4231
 6073SOL     OW29680   3.386   2.120  15.521 -0.6270 -0.1585  0.8545
 6073SOL    HW129681   3.451   2.066  15.566 -0.1720  0.0067  0.3908
 6073SOL    HW229682   3.443   2.197  15.512  0.9432 -1.7671 -2.7925
 6074SOL     OW29683   1.919   1.406   2.109  0.5945 -0.1055  0.1308
 6074SOL    HW129684   1.970   1.350   2.050  1.2202  0.0951  0.4755
 6074SOL    HW229685   1.989   1.446   2.162 -2.2773  3.4168  1.2539
 6075SOL     OW29686   0.100   3.124   1.815  0.3257 -0.1207  0.0598
 6075SOL    HW129687   0.102   3.093   1.725 -0.3172 -0.3279  0.1150
 6075SOL    HW229688   0.074   3.215   1.801 -0.9907 -0.4498  0.3505
 6076SOL     OW29689   4.527   3.194   4.034 -0.0394  0.1635 -0.1593
 6076SOL    HW129690   4.536   3.280   3.993 -0.8026  0.0298 -0.6114
 6076SOL    HW229691   4.540   3.221   4.125 -0.3440 -1.8427  0.4696
 6077SOL     OW29692   4.521   4.029   3.639  0.1650 -0.0878  0.9036
 6077SOL    HW129693   4.468   4.076   3.575 -0.0481 -0.2021  0.9984
 6077SOL    HW229694   4.563   3.965   3.582  2.4182  1.0938  1.2240
 6078SOL     OW29695   2.057   1.740   5.332 -0.0360  0.1249 -0.2714
 6078SOL    HW129696   2.031   1.814   5.387  0.2100 -2.0043  2.6918
 6078SOL    HW229697   1.975   1.692   5.323 -0.2102  0.4072 -0.1643
 6079SOL     OW29698   0.284   2.306   5.399  0.6345  0.0728 -0.0385
 6079SOL    HW129699   0.217   2.371   5.378  1.0123  0.0887 -1.2202
 6079SOL    HW229700   0.350   2.371   5.423 -0.3675  1.5935 -1.3346
 6080SOL     OW29701   2.778   3.113   6.787  0.1382  0.5613 -0.0379
 6080SOL    HW129702   2.720   3.188   6.773 -0.4426  0.1837  0.3848
 6080SOL    HW229703   2.743   3.066   6.862 -3.3776  0.3196 -1.8523
 6081SOL     OW29704   4.498   2.971  11.682 -0.7526 -0.6704 -0.4173
 6081SOL    HW129705   4.532   2.943  11.597 -2.0937  1.7528 -1.7906
 6081SOL    HW229706   4.550   2.921  11.744  2.1127  3.0743  0.2215
 6082SOL     OW29707   2.501   2.785  11.325 -0.1127 -0.7607  0.0946
 6082SOL    HW129708   2.514   2.745  11.239 -0.5585 -2.1082  0.6416
 6082SOL    HW229709   2.413   2.821  11.313  0.1118  0.7603  3.1052
 6083SOL     OW29710   2.904   1.172   6.349 -0.0642  0.2900 -0.5423
 6083SOL    HW129711   2.857   1.233   6.406  0.7170 -1.3731  1.8910
 6083SOL    HW229712   2.977   1.230   6.328  1.4573 -1.5387 -0.3074
 6084SOL     OW29713   1.607   2.561   3.092 -0.1835  0.0981 -0.7233
 6084SOL    HW129714   1.675   2.509   3.135 -2.1176  1.4549  3.9324
 6084SOL    HW229715   1.538   2.496   3.102  0.2823 -0.4053 -0.7470
 6085SOL     OW29716   0.062   3.068   3.968 -0.3246  0.0818 -0.5931
 6085SOL    HW129717   0.029   2.983   3.995 -1.1162  0.5124 -0.1943
 6085SOL    HW229718   4.709   3.085   3.911 -0.8376  0.2053  0.1060
 6086SOL     OW29719   4.265   2.621  15.476 -1.0633  0.0836  0.8115
 6086SOL    HW129720   4.308   2.643  15.559  0.5291  0.6850 -0.1608
 6086SOL    HW229721   4.173   2.636  15.499 -1.2504 -0.0230  0.1552
 6087SOL     OW29722   1.696   4.702   4.428  0.1069  0.4966  0.1614
 6087SOL    HW129723   1.639   4.632   4.395 -0.4727 -0.1588  2.5607
 6087SOL    HW229724   1.772   4.671   4.379 -0.8077  2.2628 -2.3396
 6088SOL     OW29725   0.062   2.372  12.675 -0.1872 -0.1341 -0.3002
 6088SOL    HW129726   4.719   2.381  12.606  0.3525  2.3754 -0.4554
 6088SOL    HW229727   0.141   2.345  12.629 -1.0482 -2.3760 -0.4519
 6089SOL     OW29728   2.818   2.505   5.862 -0.9007  0.1242 -0.5326
 6089SOL    HW129729   2.744   2.511   5.922 -0.4941  1.9604 -0.2177
 6089SOL    HW229730   2.809   2.594   5.829  0.6394  0.2879 -0.5430
 6090SOL     OW29731   0.964   0.113  11.074 -0.3033 -0.2569 -0.0827
 6090SOL    HW129732   0.945   0.149  11.160 -2.1109  1.9045 -1.3799
 6090SOL    HW229733   0.908   0.035  11.068  0.2143 -0.6139 -0.2758
 6091SOL     OW29734   0.327   1.541   2.396  0.1692  0.3649  0.0004
 6091SOL    HW129735   0.280   1.620   2.423 -2.4226 -1.7010  1.5251
 6091SOL    HW229736   0.311   1.480   2.468 -0.8336  0.0889 -0.4612
 6092SOL     OW29737   4.457   3.907   1.128  0.3009  0.1366  0.9207
 6092SOL    HW129738   4.377   3.888   1.178 -1.0600  0.2182 -1.2539
 6092SOL    HW229739   4.520   3.867   1.189  1.4584  0.2662 -0.1947
 6093SOL     OW29740   2.142   1.820   5.084 -0.2163  0.3417 -0.1666
 6093SOL    HW129741   2.114   1.797   5.172 -2.1450  0.7152 -0.6832
 6093SOL    HW229742   2.206   1.748   5.077  1.5457  1.9525 -0.5924
 6094SOL     OW29743   4.682   3.227   1.011  0.1588  0.2604  0.0627
 6094SOL    HW129744   4.718   3.266   1.091 -0.7723 -1.5417  1.3567
 6094SOL    HW229745   0.048   3.204   0.982  0.7128  1.6016  0.6478
 6095SOL     OW29746   0.929   3.993  11.200 -0.2176 -0.1482 -0.2374
 6095SOL    HW129747   0.977   4.064  11.158  0.1972  0.3066  0.9972
 6095SOL    HW229748   0.978   3.914  11.175  0.1036 -1.0911  3.3900
 6096SOL     OW29749   4.095   0.955   6.455 -0.0442  0.2221 -0.1757
 6096SOL    HW129750   4.124   1.029   6.401 -0.6277 -1.0289 -2.1769
 6096SOL    HW229751   4.128   0.990   6.538  1.0698  1.7485 -1.2688
 6097SOL     OW29752   1.985   3.399   1.343  0.1728  0.4707  0.4851
 6097SOL    HW129753   1.905   3.446   1.318 -0.0797  0.6068  1.5370
 6097SOL    HW229754   2.052   3.449   1.297  1.5640 -0.3858  1.5834
 6098SOL     OW29755   1.538   0.475   7.408 -0.0721 -0.1337  0.3569
 6098SOL    HW129756   1.603   0.423   7.456  0.2441 -0.5262 -0.5050
 6098SOL    HW229757   1.451   0.468   7.447  0.2248 -0.9340  0.8745
 6099SOL     OW29758   4.054   1.802  10.914  0.4704 -0.3838 -0.0494
 6099SOL    HW129759   4.060   1.844  11.000  0.8923 -0.6897  0.0705
 6099SOL    HW229760   4.136   1.835  10.876  0.1017 -0.0353 -0.5476
 6100SOL     OW29761   3.553   4.232   9.741 -0.0602  0.0652  0.4325
 6100SOL    HW129762   3.490   4.160   9.746 -1.6845  1.4171 -0.1553
 6100SOL    HW229763   3.626   4.197   9.791  1.7790  2.7796 -0.3213
 6101SOL     OW29764   4.526   2.960   6.181  0.5055  0.2205  0.3922
 6101SOL    HW129765   4.564   2.964   6.268  0.9798  0.3610  0.1765
 6101SOL    HW229766   4.588   2.899   6.141 -0.3206 -0.5026  0.1992
 6102SOL     OW29767   2.329   3.396   2.632 -0.3495  0.1001 -0.4801
 6102SOL    HW129768   2.275   3.337   2.579 -0.5604 -0.6920  0.6024
 6102SOL    HW229769   2.283   3.475   2.603  2.7963  1.6136 -1.2780
 6103SOL     OW29770   3.969   4.574  12.541  0.1917  0.0159 -0.1971
 6103SOL    HW129771   3.881   4.602  12.513  0.1734 -1.7750 -1.9495
 6103SOL    HW229772   3.985   4.652  12.595 -1.7471  1.9802 -2.4571
 6104SOL     OW29773   2.507   1.520  11.879  0.0730 -0.1725  0.3591
 6104SOL    HW129774   2.556   1.473  11.811  0.6828  0.3994  0.4019
 6104SOL    HW229775   2.566   1.594  11.891 -0.2682  0.2987 -0.9080
 6105SOL     OW29776   2.971   1.475   5.427  0.5816  0.2270 -0.2760
 6105SOL    HW129777   2.890   1.446   5.469  0.6875  1.4347  0.7610
 6105SOL    HW229778   2.947   1.560   5.391 -1.0633  0.1658  0.6868
 6106SOL     OW29779   4.484   1.991  17.572 -0.4178 -0.4530 -0.2967
 6106SOL    HW129780   4.578   1.976  17.566 -0.7032 -1.5254 -2.1573
 6106SOL    HW229781   4.484   2.011  17.478  0.6179 -0.1284 -0.2196
 6107SOL     OW29782   4.238   2.207   6.761  0.0338 -0.1603  0.5553
 6107SOL    HW129783   4.248   2.138   6.827  1.1040 -1.2870 -0.7811
 6107SOL    HW229784   4.242   2.284   6.817  1.2506 -0.2019  0.5271
 6108SOL     OW29785   1.363   0.290   7.168  0.5326  0.0889 -0.5424
 6108SOL    HW129786   1.322   0.304   7.083 -2.9441 -2.3799  0.7455
 6108SOL    HW229787   1.336   0.378   7.197 -0.9149 -0.3728 -0.5101
 6109SOL     OW29788   0.664   3.645  10.714 -0.1251 -0.4022  0.1040
 6109SOL    HW129789   0.634   3.658  10.803  0.7972 -2.0713  0.6557
 6109SOL    HW229790   0.637   3.557  10.687  2.7478 -1.2872  0.0683
 6110SOL     OW29791   2.201   3.248   8.232  0.4284 -0.3269  0.1333
 6110SOL    HW129792   2.109   3.228   8.250  0.4936 -0.4314  0.3437
 6110SOL    HW229793   2.237   3.172   8.186 -3.1216 -1.6254 -0.4506
 6111SOL     OW29794   4.205   0.423   4.673 -0.1994  0.3254  0.1592
 6111SOL    HW129795   4.182   0.504   4.718  0.4893 -0.5221  2.0374
 6111SOL    HW229796   4.160   0.360   4.729 -0.0473 -0.1067 -0.2061
 6112SOL     OW29797   3.135   1.744   6.978  0.0250  0.5709  0.2989
 6112SOL    HW129798   3.195   1.809   7.015 -0.0090  1.1690 -0.7225
 6112SOL    HW229799   3.189   1.726   6.902  2.4467  0.2646  2.0827
 6113SOL     OW29800   0.910   1.082  12.011  0.4601  0.1964  0.5062
 6113SOL    HW129801   0.839   1.018  12.022  0.7389 -0.7808 -3.3888
 6113SOL    HW229802   0.967   1.046  11.943 -0.4733 -0.5818  0.1319
 6114SOL     OW29803   3.429   0.280   2.474  0.3811 -0.4981  0.3052
 6114SOL    HW129804   3.336   0.298   2.486  0.5902  1.4855 -1.0195
 6114SOL    HW229805   3.424   0.189   2.446  0.8320 -0.3835 -0.1593
 6115SOL     OW29806   0.112   1.383   1.907  0.1909  0.6656  0.0476
 6115SOL    HW129807   0.121   1.358   1.815  0.0038  2.1482 -0.3866
 6115SOL    HW229808   0.169   1.318   1.948  0.0294  1.7619  2.0380
 6116SOL     OW29809   2.471   1.608   6.059  0.3861 -0.1290 -0.2894
 6116SOL    HW129810   2.450   1.684   6.114  2.2592 -0.2370  0.5964
 6116SOL    HW229811   2.389   1.565   6.037  1.0436  0.2668 -3.5238
 6117SOL     OW29812   1.206   2.481   4.173 -0.1530 -0.0645 -0.3178
 6117SOL    HW129813   1.215   2.484   4.268  0.9770 -2.2474 -0.3608
 6117SOL    HW229814   1.112   2.468   4.159  0.2122  0.9041 -3.6700
 6118SOL     OW29815   3.690   1.355   6.308  0.1916 -0.6857  0.2524
 6118SOL    HW129816   3.597   1.342   6.288  0.1799  1.2300 -0.9840
 6118SOL    HW229817   3.696   1.324   6.398  1.9876  2.2263  1.1151
 6119SOL     OW29818   4.341   1.603   6.935  0.0347 -0.2504  0.0402
 6119SOL    HW129819   4.299   1.548   6.869  1.3067 -1.0051 -0.1247
 6119SOL    HW229820   4.432   1.598   6.905 -0.3217  1.2003 -1.3316
 6120SOL     OW29821   1.045   2.891   6.036  0.2854  0.1469 -0.2986
 6120SOL    HW129822   1.094   2.964   5.999 -1.1518  0.1402 -2.2256
 6120SOL    HW229823   1.016   2.847   5.956 -0.7659  1.4746 -0.6558
 6121SOL     OW29824   4.065   0.031  10.047  0.2180 -0.6209  0.3155
 6121SOL    HW129825   4.001   0.102  10.054  1.7316  0.6068  1.5730
 6121SOL    HW229826   4.107   0.026  10.132  0.1366  1.6616  0.4879
 6122SOL     OW29827   3.310   3.905  15.200  0.6020 -0.6183  0.4512
 6122SOL    HW129828   3.356   3.839  15.149  1.1810  0.6202 -0.6242
 6122SOL    HW229829   3.233   3.852  15.220  0.0183  1.0227  2.5366
 6123SOL     OW29830   0.021   3.967   9.449  0.0685  0.0547  0.3140
 6123SOL    HW129831   0.061   3.945   9.533  0.6303  0.7163  0.2166
 6123SOL    HW229832   4.721   4.059   9.462  2.1113  0.7685 -1.4249
 6124SOL     OW29833   3.080   1.578   3.529  0.0686 -0.0153  0.1138
 6124SOL    HW129834   3.160   1.543   3.568 -0.7497 -2.2930 -0.2807
 6124SOL    HW229835   3.071   1.652   3.589  0.6115 -0.3658  0.6216
 6125SOL     OW29836   2.253   2.055  17.641 -0.2894 -0.8893 -0.1245
 6125SOL    HW129837   2.260   1.963  17.668 -1.5481 -0.2458  2.3953
 6125SOL    HW229838   2.206   2.100   0.024 -1.3731  0.3751 -1.6574
 6126SOL     OW29839   0.625   3.416   3.368 -0.1554 -1.1234  0.9098
 6126SOL    HW129840   0.690   3.486   3.379 -3.7085  2.0418  1.4863
 6126SOL    HW229841   0.548   3.461   3.403  0.2994 -0.2579  0.8093
 6127SOL     OW29842   3.678   3.227   9.724 -0.2292  0.3570 -0.1482
 6127SOL    HW129843   3.619   3.239   9.799  1.7557  0.7533  1.3409
 6127SOL    HW229844   3.649   3.141   9.692  0.2042 -0.0705  0.6037
 6128SOL     OW29845   0.059   3.792   4.729  0.4198 -0.2292  0.2606
 6128SOL    HW129846   0.026   3.702   4.737  0.3394 -0.3048 -0.8772
 6128SOL    HW229847   0.113   3.790   4.651  0.3255  0.7266  0.1817
 6129SOL     OW29848   1.915   3.173   5.807  0.4926 -0.4761 -0.2826
 6129SOL    HW129849   1.868   3.166   5.724  0.8843 -2.2527 -0.3513
 6129SOL    HW229850   1.859   3.117   5.861 -0.1499 -0.4784 -0.9493
 6130SOL     OW29851   4.697   2.206   5.464  0.1430 -0.4360 -0.5717
 6130SOL    HW129852   4.677   2.157   5.385  0.8695 -0.5270 -0.7017
 6130SOL    HW229853   4.621   2.182   5.516  0.8320  0.8716  1.0576
 6131SOL     OW29854   1.667   2.576   5.279 -0.3539  0.1138 -0.2367
 6131SOL    HW129855   1.675   2.530   5.195 -1.5089  1.5826 -1.1435
 6131SOL    HW229856   1.640   2.498   5.328 -2.3147  0.3976 -0.8458
 6132SOL     OW29857   1.532   4.001  16.941  0.2351  0.1911 -0.6316
 6132SOL    HW129858   1.440   3.978  16.925  1.1454 -5.0326  1.6459
 6132SOL    HW229859   1.566   3.989  16.853 -0.9483  0.2726 -1.0995
 6133SOL     OW29860   0.917   1.202  10.030 -0.0446  0.4172  0.7195
 6133SOL    HW129861   0.831   1.236  10.057 -0.2759  2.3120 -2.4596
 6133SOL    HW229862   0.981   1.212  10.101  1.5377  0.0070 -0.6706
 6134SOL     OW29863   2.334   3.413  17.265  0.5866  0.0869 -0.4228
 6134SOL    HW129864   2.292   3.329  17.249  0.7799 -0.1564  0.3187
 6134SOL    HW229865   2.266   3.462  17.312 -0.1095  0.8928 -2.2749
 6135SOL     OW29866   0.066   4.456   0.585 -0.5046  0.3193  0.1237
 6135SOL    HW129867   0.001   4.461   0.654 -2.0244 -0.9455 -1.2023
 6135SOL    HW229868   0.147   4.479   0.631 -0.0657  1.8132 -1.3916
 6136SOL     OW29869   1.330   4.553  12.908 -0.5437 -0.4678  0.8804
 6136SOL    HW129870   1.270   4.506  12.965  0.5851 -0.6047  1.9678
 6136SOL    HW229871   1.374   4.613  12.967  0.7619 -1.7227  1.1966
 6137SOL     OW29872   1.197   1.584  10.033  0.3014 -0.0447 -0.3167
 6137SOL    HW129873   1.106   1.602  10.057  0.6580  0.4374  0.6744
 6137SOL    HW229874   1.214   1.658   9.974 -0.4057  1.6894  1.6342
 6138SOL     OW29875   2.791   3.257   7.459  0.6673 -0.6155 -0.6142
 6138SOL    HW129876   2.719   3.319   7.466  1.0040 -0.2297 -0.5683
 6138SOL    HW229877   2.771   3.228   7.370  0.5136  1.9553 -1.4254
 6139SOL     OW29878   0.812   1.804  14.482  0.6952 -0.1882 -0.2865
 6139SOL    HW129879   0.772   1.718  14.469 -0.4373  0.4084 -0.7418
 6139SOL    HW229880   0.842   1.798  14.573  1.8869 -2.3210 -0.8209
 6140SOL     OW29881   0.217   1.412   1.610  0.3212 -0.7659 -0.0455
 6140SOL    HW129882   0.265   1.389   1.531  2.8371 -0.8286  1.4743
 6140SOL    HW229883   0.291   1.451   1.657  0.9477 -2.3200  0.2407
 6141SOL     OW29884   0.327   3.506   2.504  0.3085 -0.3306 -0.4154
 6141SOL    HW129885   0.266   3.479   2.572 -2.2008  2.7575 -1.4194
 6141SOL    HW229886   0.368   3.584   2.543  1.0083 -0.2640 -1.2752
 6142SOL     OW29887   4.099   0.888   2.890  0.3889  0.3822  0.5821
 6142SOL    HW129888   4.093   0.802   2.930  0.3036  0.1796  0.1394
 6142SOL    HW229889   4.110   0.875   2.796  3.1987  1.1733  0.8129
 6143SOL     OW29890   2.677   1.969   6.734  0.0735  0.0346  0.2198
 6143SOL    HW129891   2.600   1.918   6.762 -0.5701  1.3644  0.8920
 6143SOL    HW229892   2.701   2.008   6.818 -0.6864 -1.2770  1.0580
 6144SOL     OW29893   4.721   2.592   7.367 -0.0167  0.6199  0.0311
 6144SOL    HW129894   4.646   2.637   7.408 -0.6949 -0.9158  0.4745
 6144SOL    HW229895   4.679   2.506   7.363 -0.0725  0.6782 -0.5215
 6145SOL     OW29896   3.194   0.542  10.533  0.6474 -0.1916  1.0853
 6145SOL    HW129897   3.223   0.620  10.580 -0.2510  0.1294  1.1136
 6145SOL    HW229898   3.147   0.586  10.461  0.8960 -0.5891  0.6777
 6146SOL     OW29899   0.610   2.955   3.365  0.2738  0.3633 -0.1180
 6146SOL    HW129900   0.658   3.001   3.433 -0.9017  3.7866 -1.5861
 6146SOL    HW229901   0.577   2.881   3.415 -3.0064  1.1629 -1.1055
 6147SOL     OW29902   4.198   0.142   3.418 -0.1004 -0.5387  0.4520
 6147SOL    HW129903   4.158   0.193   3.347  1.7773  0.1653 -0.0879
 6147SOL    HW229904   4.286   0.175   3.406 -0.9570  0.8939 -1.8672
 6148SOL     OW29905   2.545   3.345   4.318  0.0157 -0.0738  0.1247
 6148SOL    HW129906   2.492   3.303   4.249  0.0145 -2.3902  1.5188
 6148SOL    HW229907   2.628   3.299   4.302  1.1665  2.3744 -0.8100
 6149SOL     OW29908   2.122   1.090   3.003  0.4055  0.0413  0.3962
 6149SOL    HW129909   2.071   1.057   2.930 -0.4540 -0.0562  1.0402
 6149SOL    HW229910   2.108   1.185   3.001 -0.8962 -0.1639  0.2699
 6150SOL     OW29911   2.835   0.304   3.019  0.1829 -0.0694  0.5957
 6150SOL    HW129912   2.923   0.330   2.992  0.3618 -1.5808 -0.2704
 6150SOL    HW229913   2.827   0.361   3.096  2.4772 -1.8675  2.1618
 6151SOL     OW29914   2.173   4.294   4.707 -0.2666 -0.2730 -0.1868
 6151SOL    HW129915   2.128   4.283   4.623  0.5462 -2.0078 -0.3881
 6151SOL    HW229916   2.102   4.266   4.765  0.7029 -0.0281  1.1192
 6152SOL     OW29917   2.571   3.967  11.168  0.0630 -0.4578 -0.2076
 6152SOL    HW129918   2.655   3.982  11.213 -0.1231 -1.2746  0.4123
 6152SOL    HW229919   2.510   3.953  11.241  1.4346  1.6027  1.3399
 6153SOL     OW29920   0.169   3.974   7.070  0.0106  0.0106  0.2647
 6153SOL    HW129921   0.225   4.021   7.132  0.5098 -0.7964  0.4236
 6153SOL    HW229922   0.223   3.981   6.992  0.3111 -0.2973  0.4484
 6154SOL     OW29923   4.002   3.356  10.966  0.0055  0.2940  0.1785
 6154SOL    HW129924   3.922   3.409  10.968 -2.3475 -3.3288  0.9180
 6154SOL    HW229925   4.060   3.432  10.956  1.3846 -0.7071  0.6027
 6155SOL     OW29926   4.083   3.949   0.992  0.8072  0.1834 -0.0795
 6155SOL    HW129927   4.088   4.032   1.040  1.3056  0.7517 -1.1157
 6155SOL    HW229928   4.166   3.958   0.945  0.5246 -1.0955 -0.8155
 6156SOL     OW29929   3.838   1.592   5.042 -0.1812  0.9695  0.0205
 6156SOL    HW129930   3.764   1.533   5.031  0.9713 -0.5593  0.4224
 6156SOL    HW229931   3.908   1.566   4.983 -0.0440  0.6100  0.3412
 6157SOL     OW29932   2.953   1.520   4.959  0.7982  0.1538 -0.2167
 6157SOL    HW129933   2.876   1.485   5.003  1.0248  0.1941  0.2117
 6157SOL    HW229934   2.916   1.594   4.911  0.8773 -0.5632 -1.4024
 6158SOL     OW29935   3.624   3.126  16.735 -0.7130 -0.1711 -0.1589
 6158SOL    HW129936   3.652   3.196  16.793  0.3766 -1.0598  0.3957
 6158SOL    HW229937   3.541   3.170  16.716 -0.8614 -0.7806 -0.9819
 6159SOL     OW29938   0.394   3.567   0.388  0.5219  0.2285 -0.4099
 6159SOL    HW129939   0.408   3.476   0.413 -1.6687  0.2622  0.9576
 6159SOL    HW229940   0.481   3.600   0.410  0.6423  1.1484 -2.2037
 6160SOL     OW29941   2.672   4.286  12.783  0.1166 -0.5936 -0.5710
 6160SOL    HW129942   2.590   4.286  12.735  0.1880 -0.9886 -0.6889
 6160SOL    HW229943   2.728   4.348  12.737  0.6118 -0.4570  0.2108
 6161SOL     OW29944   2.073   4.534   5.805  0.1327  0.3858 -0.0562
 6161SOL    HW129945   2.111   4.449   5.826  0.9391  0.6045 -0.6447
 6161SOL    HW229946   1.988   4.531   5.849  1.0414 -1.4075  1.5545
 6162SOL     OW29947   4.040   0.806   2.269  0.2165  0.6002 -0.2785
 6162SOL    HW129948   4.091   0.883   2.295 -0.6762  1.4437 -1.0357
 6162SOL    HW229949   4.058   0.806   2.175 -1.0178  1.2787 -0.5149
 6163SOL     OW29950   1.049   0.912  15.789 -0.3663  0.0933 -0.2386
 6163SOL    HW129951   1.052   0.853  15.714 -2.2710 -0.7397  0.3413
 6163SOL    HW229952   1.007   0.992  15.756  0.6478  0.4613 -0.6404
 6164SOL     OW29953   0.446   0.847  16.505  0.4258 -0.1328  0.4435
 6164SOL    HW129954   0.363   0.892  16.518 -0.5147 -1.7038 -0.2168
 6164SOL    HW229955   0.459   0.814  16.594  2.3362  1.7133  0.8526
 6165SOL     OW29956   4.693   3.855   3.494 -0.1330 -0.1478  0.1649
 6165SOL    HW129957   4.626   3.850   3.426 -2.0217  2.9759  1.7817
 6165SOL    HW229958   0.014   3.769   3.494  1.6582  0.7354 -0.4549
 6166SOL     OW29959   0.242   0.506   7.769  0.0854 -0.1568 -0.2101
 6166SOL    HW129960   0.181   0.521   7.842  1.0166  2.2507  0.0958
 6166SOL    HW229961   0.268   0.417   7.790  0.6487  0.8343  3.4200
 6167SOL     OW29962   2.023   3.336   7.499  0.2910  0.1206  0.2392
 6167SOL    HW129963   2.107   3.304   7.532  0.9100  0.3933 -1.0567
 6167SOL    HW229964   2.043   3.373   7.412 -0.5274 -3.2845 -1.3990
 6168SOL     OW29965   2.535   1.572  15.533 -0.0602  0.8237 -0.2347
 6168SOL    HW129966   2.460   1.539  15.583  0.4511  0.1210  0.0664
 6168SOL    HW229967   2.493   1.622  15.463  0.5583  1.3589 -0.2197
 6169SOL     OW29968   2.983   1.376   4.568 -0.1964 -0.1744  0.1523
 6169SOL    HW129969   2.947   1.389   4.656  1.2584  1.3085  0.5294
 6169SOL    HW229970   3.057   1.434   4.552 -0.9298  0.6210 -0.4084
 6170SOL     OW29971   3.970   2.192   6.949 -1.1756  0.3812 -0.5190
 6170SOL    HW129972   4.014   2.128   6.892 -0.8000  2.0699 -2.1186
 6170SOL    HW229973   3.881   2.191   6.912 -0.7366  1.6425 -1.6073
 6171SOL     OW29974   2.398   2.835   0.921  0.6294  0.1277  0.4778
 6171SOL    HW129975   2.490   2.847   0.900 -0.0608 -1.2937 -3.3994
 6171SOL    HW229976   2.363   2.803   0.837  0.6982  3.2587 -0.7525
 6172SOL     OW29977   4.529   4.557  13.619  0.1462  0.0339 -0.0966
 6172SOL    HW129978   4.564   4.470  13.598  3.1445  1.4520 -0.9101
 6172SOL    HW229979   4.437   4.534  13.602  0.1303  1.4155 -2.0035
 6173SOL     OW29980   2.686   2.524   8.019 -0.4327  0.0412 -0.3825
 6173SOL    HW129981   2.675   2.559   8.108  0.1535  1.3231 -0.8146
 6173SOL    HW229982   2.650   2.436   8.019  1.5270 -0.7522 -1.7224
 6174SOL     OW29983   0.079   3.288   3.450 -0.4407  0.2423  0.0500
 6174SOL    HW129984   0.174   3.293   3.456 -0.5034  0.6356  0.8662
 6174SOL    HW229985   0.070   3.194   3.439  0.3447  0.2875 -0.9378
 6175SOL     OW29986   0.401   0.512   3.491  0.5492 -0.4076  0.0671
 6175SOL    HW129987   0.427   0.518   3.399 -0.0119  1.8398  0.0556
 6175SOL    HW229988   0.438   0.435   3.534 -1.4090 -1.9701 -1.0550
 6176SOL     OW29989   0.136   0.675   3.090 -0.0299 -0.0477  0.5058
 6176SOL    HW129990   0.226   0.678   3.058  0.3759 -1.8105  1.5003
 6176SOL    HW229991   0.147   0.625   3.171  0.9586  1.6174  1.4068
 6177SOL     OW29992   2.154   3.624   4.770 -0.5660 -0.0865  0.8432
 6177SOL    HW129993   2.093   3.624   4.696 -2.2071  1.1386  2.1824
 6177SOL    HW229994   2.166   3.530   4.773  1.9538  0.1693 -1.3423
 6178SOL     OW29995   2.186   0.481   5.914 -0.1826 -0.1450 -0.2301
 6178SOL    HW129996   2.267   0.495   5.963 -0.6358  1.7789 -0.0295
 6178SOL    HW229997   2.210   0.402   5.866  1.4377  0.3838 -0.2959
 6179SOL     OW29998   0.572   3.581   8.565 -0.0737 -0.7734  0.4726
 6179SOL    HW129999   0.609   3.497   8.539  0.2173 -0.2059 -0.9421
 6179SOL    HW230000   0.644   3.637   8.537  0.0495 -1.3187 -0.3028
 6180SOL     OW30001   2.937   1.060   4.238  0.1441  0.4359  0.1719
 6180SOL    HW130002   2.980   1.121   4.178 -2.0682 -1.9293 -3.8053
 6180SOL    HW230003   2.929   0.980   4.187 -1.2270  1.5895 -1.4266
 6181SOL     OW30004   3.278   4.287   2.291 -0.5303  0.1745  0.2825
 6181SOL    HW130005   3.285   4.196   2.318 -0.5128 -0.0015 -0.3042
 6181SOL    HW230006   3.184   4.293   2.305 -0.9308 -1.1900 -1.7793
 6182SOL     OW30007   1.661   3.700   3.756 -0.2626 -0.0592 -0.1373
 6182SOL    HW130008   1.686   3.724   3.667  0.1049 -2.0175 -0.5660
 6182SOL    HW230009   1.567   3.687   3.748 -0.1838 -0.4185 -0.4532
 6183SOL     OW30010   1.469   3.568   4.013 -0.9357  0.0684  0.2100
 6183SOL    HW130011   1.395   3.551   4.072 -1.1340  0.4976  0.0827
 6183SOL    HW230012   1.522   3.619   4.073  0.9972 -1.9553  0.2128
 6184SOL     OW30013   0.874   4.472  10.979 -0.3078  0.0081  0.7151
 6184SOL    HW130014   0.813   4.421  10.926 -0.2310 -1.7228  2.2961
 6184SOL    HW230015   0.814   4.545  10.991 -0.5807  0.1435 -1.3648
 6185SOL     OW30016   4.281   0.182   7.966 -0.3825  0.0154  1.3016
 6185SOL    HW130017   4.319   0.209   8.050  2.0515  0.2893  0.1244
 6185SOL    HW230018   4.337   0.236   7.909 -0.5696  0.3209  1.4098
 6186SOL     OW30019   3.631   0.544   4.050  0.0250  0.2626  0.1093
 6186SOL    HW130020   3.557   0.555   3.991 -0.3496 -1.0245  0.3475
 6186SOL    HW230021   3.687   0.478   4.010  0.0331 -0.6120  1.5684
 6187SOL     OW30022   3.124   1.340   3.307 -0.1380 -0.4920  0.9789
 6187SOL    HW130023   3.154   1.414   3.358 -1.8341  0.4345  0.6474
 6187SOL    HW230024   3.197   1.301   3.259 -0.4251 -0.6481  0.6601
 6188SOL     OW30025   1.578   0.910   4.132  0.2228  0.6173 -0.2867
 6188SOL    HW130026   1.583   0.866   4.048 -0.0931 -0.2207  0.1337
 6188SOL    HW230027   1.562   0.842   4.197  0.6516 -0.5863 -1.4574
 6189SOL     OW30028   1.945   3.954  13.581  0.2731  0.2388  0.0822
 6189SOL    HW130029   1.867   3.900  13.568  0.0932  1.0488 -2.2181
 6189SOL    HW230030   1.936   3.993  13.668 -2.0080 -1.1028  0.4431
 6190SOL     OW30031   0.745   4.687  11.120  0.2185 -0.2583 -0.3097
 6190SOL    HW130032   0.710   0.054  11.120 -2.4363 -1.3352  0.0097
 6190SOL    HW230033   0.694   4.642  11.187  0.6444 -0.3790 -0.0664
 6191SOL     OW30034   2.302   0.165   4.918  0.1152 -0.8357  0.0226
 6191SOL    HW130035   2.226   0.197   4.967 -0.4071  0.1812 -1.4460
 6191SOL    HW230036   2.350   0.242   4.888  0.3634 -0.6385  0.9306
 6192SOL     OW30037   3.091   0.129  14.276  0.3029  0.3513  0.4189
 6192SOL    HW130038   3.086   0.182  14.197  0.4935 -1.5082 -0.8280
 6192SOL    HW230039   3.164   0.175  14.316  0.4278  0.3205  0.2241
 6193SOL     OW30040   0.259   3.447   5.172 -0.4057 -1.2167  0.5650
 6193SOL    HW130041   0.315   3.394   5.116  2.8645  0.9308  1.8091
 6193SOL    HW230042   0.199   3.479   5.105  0.5082 -1.2634 -0.2823
 6194SOL     OW30043   0.681   1.444   1.780 -0.3304 -0.3090  0.8592
 6194SOL    HW130044   0.733   1.387   1.836  0.1929  1.6926  2.4103
 6194SOL    HW230045   0.614   1.381   1.756  0.3330 -0.3578 -0.8371
 6195SOL     OW30046   3.598   3.437   6.502 -0.0301 -0.2470  0.2165
 6195SOL    HW130047   3.525   3.487   6.466 -0.1076 -1.1902 -0.9307
 6195SOL    HW230048   3.659   3.506   6.528  0.1596 -1.0461  1.8910
 6196SOL     OW30049   0.260   0.421   5.299  0.3119 -0.5374  0.2156
 6196SOL    HW130050   0.169   0.406   5.323  0.9608 -2.3642  1.4734
 6196SOL    HW230051   0.299   0.360   5.361  2.0115 -1.1575 -1.4270
 6197SOL     OW30052   0.926   1.396   3.127 -0.1357  0.7517 -0.5858
 6197SOL    HW130053   0.896   1.367   3.041  0.9623  0.6522 -0.9410
 6197SOL    HW230054   1.018   1.367   3.127 -0.9016 -1.6597  2.1926
 6198SOL     OW30055   3.750   1.853   3.103 -0.9181 -0.1630 -0.0875
 6198SOL    HW130056   3.842   1.853   3.075 -1.0626  0.6726 -0.5565
 6198SOL    HW230057   3.725   1.763   3.080  1.6727 -0.8264 -0.3132
 6199SOL     OW30058   0.061   2.785  15.701  0.0743  0.4952  0.0961
 6199SOL    HW130059   0.022   2.853  15.646 -1.4414 -0.9074 -0.5797
 6199SOL    HW230060   0.131   2.762  15.639 -0.9556 -0.4413 -0.7094
 6200SOL     OW30061   4.021   3.041   7.241  0.2664 -0.3613 -0.2997
 6200SOL    HW130062   4.078   3.051   7.317 -0.9694 -0.3693  0.6124
 6200SOL    HW230063   3.941   3.007   7.281  0.9839 -0.9476  0.6504
 6201SOL     OW30064   2.475   0.624   9.169  0.1408 -0.0949 -0.2724
 6201SOL    HW130065   2.392   0.633   9.122  0.7257  0.6051 -1.1548
 6201SOL    HW230066   2.501   0.715   9.181  1.4272 -0.3885 -0.7799
 6202SOL     OW30067   0.691   3.619   2.003  0.1010 -0.3767  0.3703
 6202SOL    HW130068   0.624   3.685   1.981 -0.8142 -1.3110  0.3664
 6202SOL    HW230069   0.679   3.596   2.095 -1.2005 -2.2013 -0.2682
 6203SOL     OW30070   2.757   4.242   1.977  0.0104 -0.4632 -0.0640
 6203SOL    HW130071   2.729   4.242   1.885  0.0663  1.0896 -0.0775
 6203SOL    HW230072   2.801   4.157   1.985 -0.4562 -0.5293  1.7352
 6204SOL     OW30073   1.896   2.207   6.824  0.3553 -0.2490  0.1191
 6204SOL    HW130074   1.851   2.126   6.850  1.6952 -0.6147  1.2840
 6204SOL    HW230075   1.957   2.204   6.897  1.9915  2.9104 -1.1479
 6205SOL     OW30076   4.334   1.973   5.549 -0.3011 -0.0926  0.2745
 6205SOL    HW130077   4.269   1.929   5.602  0.1396 -0.7985  0.2230
 6205SOL    HW230078   4.386   1.910   5.498  0.9101  0.2291  1.0929
 6206SOL     OW30079   2.784   3.950   1.972  0.5137 -0.5261 -0.0916
 6206SOL    HW130080   2.864   3.898   1.964  0.5554 -0.5033  0.1708
 6206SOL    HW230081   2.750   3.955   2.061  1.8134  2.7563  0.2287
 6207SOL     OW30082   1.464   1.863  17.241 -0.1382 -0.7189  0.4235
 6207SOL    HW130083   1.381   1.832  17.279  0.4893  1.2874  3.4896
 6207SOL    HW230084   1.474   1.786  17.185 -1.5155 -0.7174  0.1603
 6208SOL     OW30085   4.189   1.515   8.628 -0.4000 -0.1464  0.3287
 6208SOL    HW130086   4.145   1.599   8.618  4.2730  2.2395 -0.3293
 6208SOL    HW230087   4.274   1.543   8.662  0.5708 -1.4935 -1.0021
 6209SOL     OW30088   2.346   1.690  15.346  0.5299 -0.5902  0.1585
 6209SOL    HW130089   2.353   1.751  15.273 -0.6387  0.3703  0.8475
 6209SOL    HW230090   2.342   1.606  15.299 -0.3665  0.9741 -2.5275
 6210SOL     OW30091   1.983   1.031   2.786 -0.0171 -0.7713 -0.1746
 6210SOL    HW130092   2.038   1.008   2.711 -0.8264  0.5279 -1.1513
 6210SOL    HW230093   1.936   0.947   2.795  1.5345 -1.5036  0.9822
 6211SOL     OW30094   3.756   1.854   9.616 -0.4636  0.5577 -0.1649
 6211SOL    HW130095   3.726   1.941   9.592  1.6279  1.4844  0.5644
 6211SOL    HW230096   3.836   1.838   9.566 -0.1922  0.7884  0.1941
 6212SOL     OW30097   3.131   4.628   5.468  0.3725  0.2868 -0.3814
 6212SOL    HW130098   3.067   4.699   5.471  0.8550  0.6951  0.3988
 6212SOL    HW230099   3.124   4.605   5.376  0.4502 -1.5795  0.0760
 6213SOL     OW30100   3.987   2.620   7.223  0.5591 -0.1628  0.3121
 6213SOL    HW130101   3.972   2.687   7.156 -0.2599 -0.2044  0.4555
 6213SOL    HW230102   3.999   2.541   7.170 -0.0893  0.5193 -0.8618
 6214SOL     OW30103   1.880   0.516   3.911  0.4065  0.7612 -0.0490
 6214SOL    HW130104   1.829   0.544   3.987 -0.0166  0.4984 -0.2300
 6214SOL    HW230105   1.805   0.507   3.852  1.5858 -3.1356 -0.9661
 6215SOL     OW30106   0.855   0.415  15.683  0.1585 -0.0637  0.4303
 6215SOL    HW130107   0.906   0.437  15.760  0.7920  2.4952 -0.7227
 6215SOL    HW230108   0.810   0.499  15.674  0.9149  0.4513  1.4285
 6216SOL     OW30109   3.270   1.547  13.463  0.7236 -0.0553  0.9694
 6216SOL    HW130110   3.337   1.615  13.458 -0.8151  1.3620 -0.7561
 6216SOL    HW230111   3.326   1.470  13.454 -0.6945 -1.2238  2.0166
 6217SOL     OW30112   4.078   3.904   8.723  0.0327  0.3749 -0.2362
 6217SOL    HW130113   4.163   3.943   8.699  0.4482 -0.7048 -0.5356
 6217SOL    HW230114   4.021   3.980   8.736 -0.9673 -0.8635  2.4540
 6218SOL     OW30115   4.297   2.828  10.301 -0.7191 -0.0720  0.0204
 6218SOL    HW130116   4.287   2.917  10.268 -2.9627 -0.5187 -0.4760
 6218SOL    HW230117   4.274   2.771  10.228  0.1725  0.7542 -0.8950
 6219SOL     OW30118   1.342   1.576   6.395  0.1659  0.0002 -0.0557
 6219SOL    HW130119   1.331   1.515   6.322 -1.5395  0.0296  0.1622
 6219SOL    HW230120   1.250   1.593   6.418 -0.0648 -1.6153  0.2193
 6220SOL     OW30121   1.913   3.962  12.984 -0.0758  0.3964  0.8278
 6220SOL    HW130122   1.936   4.017  13.059  0.9618  0.3128  0.5577
 6220SOL    HW230123   1.930   3.874  13.016  2.4437  0.4926 -0.2759
 6221SOL     OW30124   2.643   0.334   7.983 -0.1548  0.1636 -0.3181
 6221SOL    HW130125   2.639   0.430   7.988 -0.9806 -0.0076  2.5562
 6221SOL    HW230126   2.735   0.324   7.959 -0.6234  0.2820 -2.1668
 6222SOL     OW30127   4.402   4.177   4.023  0.3722  0.2616 -0.1521
 6222SOL    HW130128   4.336   4.145   4.085  3.1100 -0.9096  2.1802
 6222SOL    HW230129   4.373   4.265   4.000  2.5029  1.6798  2.5746
 6223SOL     OW30130   3.833   3.656  16.260 -0.0363 -0.5926 -0.2989
 6223SOL    HW130131   3.861   3.717  16.328 -3.8120 -1.2998  1.8608
 6223SOL    HW230132   3.911   3.621  16.216  0.2800 -0.4286  0.1334
 6224SOL     OW30133   0.144   1.876  14.868  0.3521 -0.5432  0.3596
 6224SOL    HW130134   0.131   1.945  14.933 -2.9196 -0.0804 -0.7969
 6224SOL    HW230135   0.200   1.922  14.805 -1.1478  2.5660  1.3481
 6225SOL     OW30136   2.761   1.697  15.606  0.3022  0.7707 -0.0672
 6225SOL    HW130137   2.679   1.654  15.581  0.9780 -1.4531  1.5964
 6225SOL    HW230138   2.775   1.652  15.689  1.1629  1.1629  0.0001
 6226SOL     OW30139   0.340   3.991   2.873 -0.1991 -0.0387 -0.6220
 6226SOL    HW130140   0.334   4.079   2.909 -0.4524 -0.1647 -0.3511
 6226SOL    HW230141   0.434   3.974   2.867  0.4603  3.3902  0.1773
 6227SOL     OW30142   0.156   1.755   1.745 -0.0549  0.4161 -0.2470
 6227SOL    HW130143   0.065   1.765   1.772 -0.4752  1.1323 -1.9673
 6227SOL    HW230144   0.170   1.662   1.762  1.7074  0.7185 -0.0312
 6228SOL     OW30145   0.580   0.048   0.682 -0.6150 -0.4420 -0.5691
 6228SOL    HW130146   0.542   4.689   0.645  0.5431 -1.3480  0.1830
 6228SOL    HW230147   0.626   0.029   0.764 -1.3012  0.9413  0.1406
 6229SOL     OW30148   1.763   0.485  12.106  0.0488 -0.6042 -0.0806
 6229SOL    HW130149   1.766   0.434  12.025 -0.0724 -0.8662  0.0800
 6229SOL    HW230150   1.857   0.501  12.108 -0.1025  0.3796 -1.0764
 6230SOL     OW30151   3.256   3.473   2.841 -0.1681 -0.0776  0.0792
 6230SOL    HW130152   3.324   3.451   2.904  1.1205  1.6179 -0.7355
 6230SOL    HW230153   3.172   3.478   2.887  0.2424  1.9428  0.6158
 6231SOL     OW30154   0.373   3.786   2.051  0.5155 -0.0517  0.4763
 6231SOL    HW130155   0.325   3.736   2.116 -0.6202  1.0887  0.5187
 6231SOL    HW230156   0.392   3.722   1.982  0.2229 -0.8798  1.1715
 6232SOL     OW30157   1.029   0.247   7.308 -0.5087 -0.2530  0.0681
 6232SOL    HW130158   1.121   0.223   7.323 -0.0158  0.3965 -1.9601
 6232SOL    HW230159   1.043   0.342   7.302  0.3882 -0.4145 -0.4282
 6233SOL     OW30160   3.646   4.386  12.737 -0.4657  0.2737  0.0820
 6233SOL    HW130161   3.559   4.426  12.737  0.0452  1.4083  0.8806
 6233SOL    HW230162   3.634   4.320  12.669  1.3798 -0.1821  0.1954
 6234SOL     OW30163   1.759   3.694  10.117 -0.0775  0.2130  0.2781
 6234SOL    HW130164   1.754   3.771  10.061  1.7489  0.3928  0.3589
 6234SOL    HW230165   1.821   3.720  10.184 -0.9575  1.5393  0.5714
 6235SOL     OW30166   1.363   2.435  13.134 -0.6775  0.0362  0.0595
 6235SOL    HW130167   1.425   2.436  13.208  0.6270  0.8172 -1.0338
 6235SOL    HW230168   1.290   2.417  13.193 -1.0004 -0.9150 -0.6362
 6236SOL     OW30169   3.910   3.594   4.758 -0.4792  0.0490  0.5304
 6236SOL    HW130170   3.954   3.641   4.687  2.1786 -0.6786  1.7032
 6236SOL    HW230171   3.854   3.527   4.720 -0.7952  1.0342 -0.7205
 6237SOL     OW30172   2.332   2.900  10.404  0.2029 -0.4820  0.1597
 6237SOL    HW130173   2.402   2.898  10.339 -0.7344  0.1828 -0.8647
 6237SOL    HW230174   2.279   2.973  10.373  1.8327 -0.5439 -2.7692
 6238SOL     OW30175   0.060   3.894   4.984  0.6006 -0.1279  0.2715
 6238SOL    HW130176   4.714   3.899   5.052 -1.1351 -1.2104 -1.3572
 6238SOL    HW230177   0.021   3.830   4.925  0.7453 -0.9199  1.0297
 6239SOL     OW30178   3.098   2.146  14.570  0.1488 -0.0319  0.3754
 6239SOL    HW130179   3.114   2.075  14.509 -3.2697  0.7050 -1.3928
 6239SOL    HW230180   3.173   2.134  14.628  0.5736 -2.5895 -0.7502
 6240SOL     OW30181   3.502   0.359   2.936  0.0864  0.3659 -0.7159
 6240SOL    HW130182   3.534   0.326   2.852  0.2849  0.2809 -0.6064
 6240SOL    HW230183   3.583   0.340   2.982  0.0316  1.8442 -0.0360
 6241SOL     OW30184   2.554   4.298  15.691 -0.7160 -0.7904 -0.2877
 6241SOL    HW130185   2.593   4.367  15.637  0.7898  0.0365  1.8659
 6241SOL    HW230186   2.467   4.331  15.714 -1.4142 -1.3745 -2.0410
 6242SOL     OW30187   4.072   1.027  13.641 -0.1387 -0.2979  0.3095
 6242SOL    HW130188   4.084   1.122  13.637  1.4268 -0.3956  2.9182
 6242SOL    HW230189   4.082   1.010  13.547 -2.4553  0.7340 -0.1329
 6243SOL     OW30190   4.003   4.673   2.294  0.1875  0.6734 -0.3681
 6243SOL    HW130191   3.924   4.692   2.345  1.3348 -0.5403  1.8907
 6243SOL    HW230192   3.973   4.697   2.207 -1.1721  0.1955 -0.0205
 6244SOL     OW30193   1.828   1.296   6.784 -0.0256  0.6754 -0.1863
 6244SOL    HW130194   1.899   1.358   6.794  2.2599 -1.8807 -0.6029
 6244SOL    HW230195   1.877   1.219   6.755  2.2401  0.6620  3.6743
 6245SOL     OW30196   3.321   4.540   0.395 -0.1566 -0.4633  0.3733
 6245SOL    HW130197   3.250   4.597   0.366 -1.0774 -1.1897  1.2214
 6245SOL    HW230198   3.380   4.614   0.411  0.6243 -0.8390 -0.7437
 6246SOL     OW30199   0.478   2.904   3.778 -0.2124  0.3308  0.0539
 6246SOL    HW130200   0.416   2.974   3.796  1.1467  2.0435 -2.0061
 6246SOL    HW230201   0.488   2.858   3.862 -0.6752 -1.3019 -0.7747
 6247SOL     OW30202   1.573   1.220   5.962 -0.0442 -0.1786 -0.2155
 6247SOL    HW130203   1.625   1.196   5.884 -0.9288 -0.0747 -0.8339
 6247SOL    HW230204   1.615   1.158   6.021  0.9288 -0.7227 -1.4705
 6248SOL     OW30205   0.285   0.505   4.226  0.3722 -0.3655  0.0969
 6248SOL    HW130206   0.370   0.545   4.245  0.0878  0.8842 -1.2420
 6248SOL    HW230207   0.304   0.412   4.237 -0.6183 -0.6533 -0.6704
 6249SOL     OW30208   2.422   3.932   0.331  0.2809  0.0746 -0.2302
 6249SOL    HW130209   2.499   3.984   0.353 -0.0909  0.3323  0.4481
 6249SOL    HW230210   2.434   3.853   0.384  1.5074 -0.5986 -1.5069
 6250SOL     OW30211   4.178   1.786  13.649  0.2145  0.1773  0.0988
 6250SOL    HW130212   4.109   1.724  13.673  0.1669  0.4007  0.5321
 6250SOL    HW230213   4.186   1.850  13.719  1.1904 -0.4509  0.5576
 6251SOL     OW30214   3.766   1.156   9.632 -0.0176 -0.6355 -0.0218
 6251SOL    HW130215   3.735   1.103   9.706 -0.4233  0.3156  0.4830
 6251SOL    HW230216   3.820   1.090   9.588  1.6727  1.7638 -1.5082
 6252SOL     OW30217   2.749   3.792   2.996  0.2660 -0.5608 -0.3445
 6252SOL    HW130218   2.749   3.851   2.920 -2.0627 -0.8047 -0.5184
 6252SOL    HW230219   2.677   3.733   2.976 -1.4415  1.2963  0.3128
 6253SOL     OW30220   1.246   3.096   1.023  0.2338  0.2319 -0.4130
 6253SOL    HW130221   1.178   3.077   0.957  0.3726 -0.6092 -0.3191
 6253SOL    HW230222   1.314   3.143   0.976  0.4828 -0.3448 -0.6209
 6254SOL     OW30223   3.622   3.247   8.315 -0.5281  0.1375  0.1331
 6254SOL    HW130224   3.574   3.174   8.277  1.2224 -0.8868 -0.1088
 6254SOL    HW230225   3.624   3.211   8.404 -2.7644  1.5425  0.7503
 6255SOL     OW30226   1.748   3.905  13.267 -0.2820 -0.0248  0.3972
 6255SOL    HW130227   1.708   3.957  13.336 -1.3500  0.6478 -0.7307
 6255SOL    HW230228   1.683   3.843  13.236  1.0629 -1.0035 -0.4943
 6256SOL     OW30229   2.162   2.030   4.588  0.4315  0.0087 -0.2541
 6256SOL    HW130230   2.194   1.947   4.624 -2.4752 -0.5683  1.0700
 6256SOL    HW230231   2.177   2.078   4.670 -0.5332 -1.7998  1.0010
 6257SOL     OW30232   2.315   2.664   1.108 -0.2413  0.1329  0.0016
 6257SOL    HW130233   2.400   2.642   1.147 -0.3500 -1.8542 -0.8904
 6257SOL    HW230234   2.351   2.719   1.038  1.8851 -2.6337 -1.1019
 6258SOL     OW30235   1.357   1.245   7.919 -0.1685 -0.3389  0.2656
 6258SOL    HW130236   1.372   1.283   7.832 -1.1444  1.0538  0.6962
 6258SOL    HW230237   1.278   1.288   7.951  0.9343  2.0527 -0.1965
 6259SOL     OW30238   1.454   3.498   5.538  0.0505  0.4636  0.7396
 6259SOL    HW130239   1.527   3.469   5.592  0.4069  2.7707  1.4714
 6259SOL    HW230240   1.406   3.415   5.525  1.9785 -0.5083 -0.1094
 6260SOL     OW30241   0.668   0.166   8.912  0.1611  0.2102  0.7542
 6260SOL    HW130242   0.659   0.192   8.821 -1.1255  0.3961  0.9319
 6260SOL    HW230243   0.754   0.127   8.899  0.1703  0.5041 -0.0605
 6261SOL     OW30244   0.822   4.415   9.522  0.7103  0.5713 -0.4275
 6261SOL    HW130245   0.878   4.459   9.459 -0.3417  0.4678 -1.4302
 6261SOL    HW230246   0.735   4.448   9.498 -1.0765 -3.3413  0.7444
 6262SOL     OW30247   1.567   4.632   2.617  0.1050  0.4128  0.2269
 6262SOL    HW130248   1.610   4.549   2.595 -3.2977 -1.2315 -0.2667
 6262SOL    HW230249   1.525   4.658   2.534  2.0959 -0.0734 -0.9311
 6263SOL     OW30250   1.182   2.721  11.814  0.4023  0.1487  0.2789
 6263SOL    HW130251   1.139   2.740  11.898  1.3203  1.2010  0.5134
 6263SOL    HW230252   1.179   2.626  11.802  0.1625  0.2028 -0.0815
 6264SOL     OW30253   1.086   3.695   8.804  0.4624 -0.0976  0.0224
 6264SOL    HW130254   1.165   3.750   8.806  1.2770 -1.2475 -0.5653
 6264SOL    HW230255   1.023   3.749   8.851  0.6382 -0.9657  1.2626
 6265SOL     OW30256   3.495   0.913   2.205  0.3251  0.3609 -0.1922
 6265SOL    HW130257   3.531   0.839   2.156 -3.0407 -0.0751 -2.0600
 6265SOL    HW230258   3.482   0.874   2.291 -1.2719  0.9266 -0.1730
 6266SOL     OW30259   1.754   4.504  16.369 -0.4953  0.3645  0.2859
 6266SOL    HW130260   1.693   4.511  16.443 -0.0728 -0.1077  0.6808
 6266SOL    HW230261   1.840   4.512  16.410  0.7339 -2.8830 -1.6040
 6267SOL     OW30262   3.674   3.087   4.224  0.5496  0.4769 -0.7365
 6267SOL    HW130263   3.699   3.115   4.312 -0.5741  3.5519 -1.4139
 6267SOL    HW230264   3.583   3.117   4.216 -0.0523 -1.1776 -0.2053
 6268SOL     OW30265   4.604   1.239   1.978 -0.3441 -0.2182 -0.4832
 6268SOL    HW130266   4.672   1.278   2.034 -2.0208  0.3827  1.1544
 6268SOL    HW230267   4.619   1.285   1.896 -1.9222  0.3658 -0.4451
 6269SOL     OW30268   0.661   4.471   3.874  0.3545 -0.3290  0.0209
 6269SOL    HW130269   0.571   4.489   3.899  0.5897  1.3259 -0.3376
 6269SOL    HW230270   0.673   4.378   3.894 -1.5052 -1.3439 -3.6296
 6270SOL     OW30271   4.334   3.868   8.101 -0.2110 -0.5159  0.2722
 6270SOL    HW130272   4.255   3.863   8.155 -0.7400 -5.0484 -0.9039
 6270SOL    HW230273   4.293   3.928   8.039  1.2670 -0.0250 -0.2249
 6271SOL     OW30274   1.992   0.724   9.513 -0.1933 -0.0272 -0.1870
 6271SOL    HW130275   2.036   0.800   9.475 -1.2929  0.6297 -0.1601
 6271SOL    HW230276   2.061   0.680   9.561 -0.3374  0.2253  0.2467
 6272SOL     OW30277   1.939   0.458   6.658 -0.1821  0.1579 -0.8165
 6272SOL    HW130278   2.017   0.407   6.637 -0.0425 -0.1394  0.4164
 6272SOL    HW230279   1.868   0.396   6.645  0.0707 -0.1146 -0.8820
 6273SOL     OW30280   3.486   0.041   9.012 -0.5409 -0.4563  0.2992
 6273SOL    HW130281   3.546   0.111   8.987  0.0754 -0.5121  1.6493
 6273SOL    HW230282   3.529   0.019   9.094 -0.2809 -0.6547  0.1075
 6274SOL     OW30283   0.380   1.343   1.404  0.5270  0.3050  0.3047
 6274SOL    HW130284   0.413   1.432   1.410  0.9472  0.2366 -0.9058
 6274SOL    HW230285   0.427   1.311   1.327  0.5132 -0.4863  0.6280
 6275SOL     OW30286   0.247   3.567  15.560 -0.3050  0.6686  0.3557
 6275SOL    HW130287   0.276   3.517  15.483 -0.6146  0.6982  0.2188
 6275SOL    HW230288   0.198   3.637  15.516 -1.0236  0.5560  0.9760
 6276SOL     OW30289   3.088   0.619   6.331 -0.3268  0.0765 -0.1071
 6276SOL    HW130290   3.140   0.663   6.263 -1.0348  0.2843 -0.5126
 6276SOL    HW230291   3.067   0.682   6.400 -1.8463 -2.6507  1.9109
 6277SOL     OW30292   4.497   4.071   4.930  0.0537 -0.3374 -0.3680
 6277SOL    HW130293   4.542   4.140   4.882 -1.1516 -0.3193 -1.5025
 6277SOL    HW230294   4.568   4.006   4.934 -1.2058 -1.5568  2.0918
 6278SOL     OW30295   1.064   1.058   1.247  0.3770 -0.2506 -0.7678
 6278SOL    HW130296   1.107   1.099   1.172  1.5007 -1.2060 -0.6430
 6278SOL    HW230297   0.981   1.106   1.247 -1.0575 -2.7445  1.2877
 6279SOL     OW30298   2.564   0.395   7.413  0.2456 -0.2738 -0.1645
 6279SOL    HW130299   2.579   0.447   7.492 -1.1071 -0.5510  0.2840
 6279SOL    HW230300   2.531   0.453   7.344  0.7125 -1.1349 -1.1140
 6280SOL     OW30301   2.059   4.337   1.806 -0.0394  0.1037  0.4658
 6280SOL    HW130302   2.079   4.430   1.818  0.4307 -0.1124  1.3741
 6280SOL    HW230303   2.143   4.314   1.766 -0.7229  0.6494 -1.2691
 6281SOL     OW30304   4.273   2.497  12.157  0.5495 -0.5930  0.1749
 6281SOL    HW130305   4.287   2.459  12.244  0.1881 -1.9628 -0.3596
 6281SOL    HW230306   4.236   2.580  12.186  2.6390 -0.0578  1.3830
 6282SOL     OW30307   3.421   0.100   5.456  0.0881 -0.4568  0.2209
 6282SOL    HW130308   3.435   0.121   5.549 -1.1106 -0.8497  0.4982
 6282SOL    HW230309   3.386   0.012   5.444 -1.9592  0.5629 -1.2861
 6283SOL     OW30310   2.327   1.779   0.768  0.3791  0.1731 -0.4312
 6283SOL    HW130311   2.358   1.690   0.782 -0.6328  0.1200  1.5101
 6283SOL    HW230312   2.400   1.809   0.715 -0.0587 -2.1759 -2.3133
 6284SOL     OW30313   4.332   2.238   2.894  0.2224  0.1782  0.4969
 6284SOL    HW130314   4.292   2.322   2.870 -1.2314  0.2881  3.2294
 6284SOL    HW230315   4.371   2.209   2.812 -0.6382  1.2199 -0.2791
 6285SOL     OW30316   1.697   0.772  13.759 -0.4145 -0.0790  0.1130
 6285SOL    HW130317   1.657   0.793  13.675  0.4460  0.5176 -0.1527
 6285SOL    HW230318   1.755   0.848  13.767 -0.4763 -0.0607  0.3813
 6286SOL     OW30319   4.032   3.125   3.939 -0.4416 -0.9171 -0.3378
 6286SOL    HW130320   3.941   3.144   3.917 -1.0990 -1.6059  1.7733
 6286SOL    HW230321   4.054   3.202   3.992  1.1101 -3.2036  2.3557
 6287SOL     OW30322   4.020   3.666   5.078 -0.3300  0.0511 -0.8633
 6287SOL    HW130323   4.004   3.581   5.118 -1.3847 -0.3419 -2.1218
 6287SOL    HW230324   4.078   3.649   5.004  1.6480  0.5944  0.5580
 6288SOL     OW30325   0.905   3.210   1.069 -0.1004 -0.6704  0.3266
 6288SOL    HW130326   0.878   3.287   1.018  1.7736  0.0591  0.4311
 6288SOL    HW230327   0.819   3.198   1.110 -1.6084 -0.8371 -2.8576
 6289SOL     OW30328   3.139   1.204  13.619 -0.4773 -0.2264  0.3200
 6289SOL    HW130329   3.073   1.223  13.686 -0.5893 -1.7648  0.6401
 6289SOL    HW230330   3.092   1.128  13.585  0.1391 -1.5215  2.3522
 6290SOL     OW30331   3.055   2.279   2.489  0.6235  0.1204 -0.0133
 6290SOL    HW130332   2.965   2.256   2.464  1.1654 -0.7138 -1.2374
 6290SOL    HW230333   3.114   2.241   2.423  2.6444 -0.0920  1.9141
 6291SOL     OW30334   3.454   4.112   7.121 -0.5421 -0.4259 -0.3141
 6291SOL    HW130335   3.363   4.105   7.089 -1.0491  2.4449  0.5246
 6291SOL    HW230336   3.449   4.040   7.183  0.5434 -1.2699 -1.2114
 6292SOL     OW30337   2.326   1.334   6.964 -0.1146 -0.4913  0.3964
 6292SOL    HW130338   2.273   1.286   6.900 -1.5203 -1.8919  2.6312
 6292SOL    HW230339   2.371   1.261   7.007 -0.1392 -0.8077 -0.1157
 6293SOL     OW30340   2.422   4.371   6.722 -0.6066  0.4175 -0.1578
 6293SOL    HW130341   2.349   4.411   6.769  0.4768  2.8174 -0.4835
 6293SOL    HW230342   2.483   4.441   6.700 -1.8839  2.3040  2.2743
 6294SOL     OW30343   0.976   3.171   7.559  0.0683 -0.3795  0.0959
 6294SOL    HW130344   0.909   3.236   7.537 -1.1752 -1.7189 -0.0551
 6294SOL    HW230345   1.036   3.195   7.489 -0.5995  1.7197  0.2475
 6295SOL     OW30346   3.677   3.656   3.804  0.4194 -0.6857 -0.0200
 6295SOL    HW130347   3.681   3.749   3.826 -2.7678 -0.0614 -2.0207
 6295SOL    HW230348   3.623   3.654   3.725 -1.8877 -1.7553  1.5811
 6296SOL     OW30349   1.033   2.419   4.887 -0.0088 -0.0210  0.0864
 6296SOL    HW130350   1.110   2.416   4.943 -0.1465  2.6224  0.4029
 6296SOL    HW230351   1.047   2.498   4.835 -0.2975 -0.9937 -1.4781
 6297SOL     OW30352   2.304   2.473   4.596  0.3420  0.0970 -0.2464
 6297SOL    HW130353   2.354   2.476   4.678  2.2855  1.7881 -1.5030
 6297SOL    HW230354   2.350   2.405   4.548 -2.2706 -1.6687 -0.2441
 6298SOL     OW30355   0.486   3.984  16.240 -0.4979 -0.1362  0.3020
 6298SOL    HW130356   0.439   3.910  16.278 -1.2845  0.3870  0.3495
 6298SOL    HW230357   0.416   4.024  16.189 -2.0240 -3.4015 -0.2067
 6299SOL     OW30358   2.848   1.168   8.959 -0.2924  0.0085  0.2499
 6299SOL    HW130359   2.789   1.243   8.966  0.6113  0.9417 -1.8689
 6299SOL    HW230360   2.815   1.104   9.022  0.7009 -0.6143  0.1449
 6300SOL     OW30361   0.178   0.367  12.253  0.2659 -0.0305 -0.0253
 6300SOL    HW130362   0.177   0.442  12.313 -0.5558 -0.1757  0.1525
 6300SOL    HW230363   0.139   0.406  12.174 -0.8678 -2.1054 -0.4860
 6301SOL     OW30364   3.867   1.785   1.949  0.1555 -0.5111 -0.3782
 6301SOL    HW130365   3.923   1.710   1.927 -0.0148 -0.1999 -1.8802
 6301SOL    HW230366   3.842   1.815   1.862 -1.0929 -0.4013  0.0198
 6302SOL     OW30367   4.229   1.310   1.990  0.0776  0.4590  0.5425
 6302SOL    HW130368   4.150   1.358   1.964  1.5079  2.7335  0.3169
 6302SOL    HW230369   4.301   1.372   1.979  1.3659 -1.1671 -0.1868
 6303SOL     OW30370   2.656   4.475   4.495  0.4628 -0.0616  0.3451
 6303SOL    HW130371   2.658   4.544   4.428 -3.1975  0.2286  0.5600
 6303SOL    HW230372   2.566   4.492   4.523 -0.3412 -0.2231 -2.1381
 6304SOL     OW30373   0.802   0.661   7.218 -0.0926  0.6459  0.5030
 6304SOL    HW130374   0.816   0.624   7.131  0.9446  2.0505  0.0745
 6304SOL    HW230375   0.796   0.582   7.272 -0.9450  0.2232 -0.2017
 6305SOL     OW30376   3.153   2.709   6.992 -0.0866  0.6097 -0.3123
 6305SOL    HW130377   3.208   2.786   7.006 -0.7519  1.4148 -2.0874
 6305SOL    HW230378   3.224   2.646   6.982 -2.0113 -1.7833  1.2631
 6306SOL     OW30379   4.055   1.290  13.602  0.6949 -0.4277  0.0709
 6306SOL    HW130380   3.963   1.318  13.604  1.7531  2.9453  0.2693
 6306SOL    HW230381   4.089   1.357  13.543 -4.2074  1.2837 -0.7946
 6307SOL     OW30382   2.007   4.667  16.333 -0.1427 -0.1353  0.1020
 6307SOL    HW130383   2.044   4.634  16.251 -1.6506  0.9595 -1.0244
 6307SOL    HW230384   2.031   4.596  16.392  0.4416 -0.0411 -0.0184
 6308SOL     OW30385   3.573   1.215   8.291  0.1308  0.2645 -0.2771
 6308SOL    HW130386   3.502   1.217   8.355  1.2082  0.3726  0.9173
 6308SOL    HW230387   3.637   1.154   8.327  0.0104  1.6042  2.2112
 6309SOL     OW30388   1.958   1.515   3.143 -0.3388  0.5337  0.0939
 6309SOL    HW130389   1.867   1.521   3.172 -0.2772 -0.3113  0.4803
 6309SOL    HW230390   1.973   1.609   3.135 -2.4027  0.8185 -0.4244
 6310SOL     OW30391   2.886   4.505  15.981 -0.1181 -0.8829  0.0022
 6310SOL    HW130392   2.980   4.500  16.001  0.3411  2.1646 -1.3411
 6310SOL    HW230393   2.891   4.506  15.885  0.5356  0.1805  0.0383
 6311SOL     OW30394   0.271   3.798   0.616 -0.3929 -0.2016  0.0343
 6311SOL    HW130395   0.322   3.768   0.691 -0.9393 -0.3623  0.3423
 6311SOL    HW230396   0.284   3.892   0.632 -0.9302 -0.4683  1.9133
 6312SOL     OW30397   3.572   0.477   8.030  0.2778  0.7142  0.0959
 6312SOL    HW130398   3.567   0.385   8.056 -0.4012  1.0998  1.3124
 6312SOL    HW230399   3.666   0.482   8.009  0.6364 -0.9058  1.3067
 6313SOL     OW30400   1.535   1.637  15.500  0.1469 -0.2002 -0.0829
 6313SOL    HW130401   1.538   1.565  15.436  0.1422  0.1304 -0.4549
 6313SOL    HW230402   1.441   1.652  15.515  0.0673  0.5034 -1.2694
 6314SOL     OW30403   3.275   2.913   4.309 -0.5907  0.1092 -0.6148
 6314SOL    HW130404   3.210   2.890   4.376 -0.0269 -1.1000 -0.4846
 6314SOL    HW230405   3.319   2.986   4.352 -1.1115 -1.1648  2.0648
 6315SOL     OW30406   2.363   3.635   8.187 -0.1462  0.0006 -0.9912
 6315SOL    HW130407   2.350   3.556   8.240 -0.2315  0.6155 -0.0853
 6315SOL    HW230408   2.419   3.600   8.119  1.5352  2.4521 -0.8897
 6316SOL     OW30409   3.079   2.699   5.780 -0.6943 -0.3645  0.4272
 6316SOL    HW130410   3.092   2.643   5.704 -0.8897 -1.1517  0.9704
 6316SOL    HW230411   3.094   2.633   5.848 -0.3110  0.0826  0.7790
 6317SOL     OW30412   1.635   2.602   6.606  0.7828  0.6439 -0.1013
 6317SOL    HW130413   1.703   2.633   6.666 -0.2360 -0.1658  1.4577
 6317SOL    HW230414   1.657   2.659   6.532  0.0213  0.4711 -0.4612
 6318SOL     OW30415   3.397   4.038   6.748 -0.6842  0.0020  0.6397
 6318SOL    HW130416   3.472   4.037   6.688 -1.0871  1.3363  0.1366
 6318SOL    HW230417   3.443   4.060   6.829  0.8356 -0.1290 -0.1843
 6319SOL     OW30418   0.153   3.568   8.292 -0.0785 -0.2690 -0.0247
 6319SOL    HW130419   0.169   3.584   8.199  2.2377 -1.8235  0.1199
 6319SOL    HW230420   0.149   3.658   8.323  0.9529 -0.3809  0.4318
 6320SOL     OW30421   2.569   1.234   4.306 -0.3030 -0.0511  0.5668
 6320SOL    HW130422   2.500   1.260   4.365 -1.0475  0.1429 -0.3901
 6320SOL    HW230423   2.634   1.295   4.342  0.2705  1.1048 -2.4330
 6321SOL     OW30424   3.836   3.824  10.452  0.2927  0.0283 -0.2485
 6321SOL    HW130425   3.772   3.761  10.486  0.9928 -1.6217 -2.0188
 6321SOL    HW230426   3.785   3.904  10.449  0.7953  0.2597 -2.5037
 6322SOL     OW30427   1.462   4.362  10.761  0.0046  0.2438 -0.2890
 6322SOL    HW130428   1.444   4.293  10.697  0.4972 -0.3246  0.1920
 6322SOL    HW230429   1.497   4.325  10.842  1.1143  0.1663 -0.8073
 6323SOL     OW30430   4.122   0.933   9.717 -0.4038  0.6828 -0.1829
 6323SOL    HW130431   4.173   0.989   9.776  0.7528 -2.0955  1.4461
 6323SOL    HW230432   4.056   0.891   9.772 -0.8471 -0.0450 -1.2729
 6324SOL     OW30433   2.322   0.964   3.755 -0.2043 -0.4729  0.1758
 6324SOL    HW130434   2.365   1.015   3.824 -0.8735 -1.1206  1.0626
 6324SOL    HW230435   2.257   1.022   3.714  1.1569  1.2813  0.4993
 6325SOL     OW30436   2.448   0.143   6.705  0.7096  0.3626 -0.0002
 6325SOL    HW130437   2.393   0.134   6.783 -0.9355 -0.8335 -1.2777
 6325SOL    HW230438   2.450   0.052   6.676  1.1164  0.7810 -1.2653
 6326SOL     OW30439   1.816   0.637  11.288  0.1659 -0.0159  0.8654
 6326SOL    HW130440   1.885   0.644  11.353  3.0817  2.3146 -2.5147
 6326SOL    HW230441   1.744   0.585  11.325  0.2804  0.2609  1.4758
 6327SOL     OW30442   4.382   1.543   9.266 -0.3024  0.0490  0.1540
 6327SOL    HW130443   4.364   1.622   9.214 -0.6305 -0.7663 -0.9875
 6327SOL    HW230444   4.293   1.516   9.286 -0.2232 -0.1130  0.2880
 6328SOL     OW30445   4.657   0.949   2.567 -0.0608  0.2671  0.0206
 6328SOL    HW130446   4.595   1.015   2.535 -1.4235 -0.9619  0.0908
 6328SOL    HW230447   4.683   0.903   2.487 -2.2638  0.3643 -0.7540
 6329SOL     OW30448   3.696   0.313  11.786 -0.1222  0.5196  0.0881
 6329SOL    HW130449   3.707   0.301  11.881 -0.3941  0.4920  0.1167
 6329SOL    HW230450   3.781   0.330  11.744 -0.1043  1.3564  0.4494
 6330SOL     OW30451   4.173   3.907   7.693 -0.3865  0.2563 -0.1699
 6330SOL    HW130452   4.191   4.001   7.690  0.1257  0.1589 -0.1502
 6330SOL    HW230453   4.221   3.864   7.623 -0.6492  0.2166 -0.3239
 6331SOL     OW30454   2.009   3.780  13.351  0.1360  0.2823  0.5621
 6331SOL    HW130455   1.985   3.779  13.258 -1.8513 -0.9356  1.0939
 6331SOL    HW230456   1.942   3.720  13.382 -0.8761  1.2055  0.1487
 6332SOL     OW30457   1.488   0.315   8.838  0.0811  0.1518 -0.0317
 6332SOL    HW130458   1.548   0.384   8.866  0.9842  0.2846 -2.2558
 6332SOL    HW230459   1.478   0.349   8.749 -0.7031  0.3575  0.1351
 6333SOL     OW30460   0.692   4.362   6.303  0.2329  0.4892  0.5715
 6333SOL    HW130461   0.769   4.321   6.341 -0.6593 -2.8786 -1.2046
 6333SOL    HW230462   0.710   4.454   6.323  0.0325  1.0305 -1.7075
 6334SOL     OW30463   2.728   2.539   7.105 -0.5003  0.4246 -0.0644
 6334SOL    HW130464   2.817   2.559   7.133 -0.0616 -1.8201  0.1342
 6334SOL    HW230465   2.740   2.451   7.068 -4.2598  0.7496 -2.0072
 6335SOL     OW30466   0.936   2.666   9.341 -0.0161 -0.0345 -0.0588
 6335SOL    HW130467   0.949   2.761   9.339 -0.0078 -0.0834 -1.9566
 6335SOL    HW230468   0.854   2.661   9.390 -0.8500  0.8893 -1.3588
 6336SOL     OW30469   2.664   3.384   1.103  0.0173 -0.5781 -0.3027
 6336SOL    HW130470   2.629   3.341   1.025  0.2629 -0.8401 -0.2671
 6336SOL    HW230471   2.689   3.468   1.063 -1.9173  0.4325  0.6091
 6337SOL     OW30472   4.057   3.881   9.743  0.3256 -0.2539 -0.4812
 6337SOL    HW130473   4.087   3.956   9.796  0.8247 -0.3986 -0.5568
 6337SOL    HW230474   3.970   3.862   9.776 -0.1232  2.3410 -0.1558
 6338SOL     OW30475   4.066   3.959   9.444 -0.1211 -0.3315 -0.1713
 6338SOL    HW130476   4.092   3.931   9.532 -1.1310  0.0664  0.2449
 6338SOL    HW230477   4.154   3.966   9.406  0.6318  0.3620  1.6987
 6339SOL     OW30478   1.123   0.310  15.007  0.2333  0.1459 -0.2786
 6339SOL    HW130479   1.102   0.309  15.101 -0.2292  0.5564 -0.3805
 6339SOL    HW230480   1.106   0.398  14.974  1.6034  0.0915 -1.1473
 6340SOL     OW30481   3.070   3.460   7.489 -0.1464 -0.4281  0.6243
 6340SOL    HW130482   3.133   3.517   7.445  1.4231 -1.3518  1.6402
 6340SOL    HW230483   3.009   3.515   7.536 -1.7598  0.0064 -1.9530
 6341SOL     OW30484   2.584   3.931   1.823 -0.0534  0.2864 -0.1888
 6341SOL    HW130485   2.674   3.929   1.857 -0.6849 -1.8602  1.2934
 6341SOL    HW230486   2.585   3.995   1.751 -0.8553  1.6316  0.9958
 6342SOL     OW30487   4.294   4.418   3.962 -0.7436  0.2309 -0.1295
 6342SOL    HW130488   4.301   4.459   4.047  0.5386  0.9285 -0.5684
 6342SOL    HW230489   4.308   4.497   3.910 -0.9503 -0.3893 -1.1350
 6343SOL     OW30490   0.726   4.614   5.495 -0.6162  0.3965 -0.2201
 6343SOL    HW130491   0.642   4.567   5.497  1.1695 -2.8245 -0.4541
 6343SOL    HW230492   0.766   4.571   5.419 -1.9997  0.5004 -1.0023
 6344SOL     OW30493   4.524   1.564   3.996  0.4075  0.0502 -0.3078
 6344SOL    HW130494   4.565   1.514   4.067  1.3601 -0.7866 -1.4534
 6344SOL    HW230495   4.590   1.564   3.927 -0.3819  1.5085 -1.0634
 6345SOL     OW30496   0.126   2.351  11.883 -0.2839 -0.1615  0.1597
 6345SOL    HW130497   0.196   2.345  11.817  0.0055 -1.1455  0.5623
 6345SOL    HW230498   0.055   2.338  11.820 -2.1100 -0.4845  2.2709
 6346SOL     OW30499   3.805   1.054   6.129  0.0823 -0.8230  0.5719
 6346SOL    HW130500   3.712   1.035   6.119  0.4661 -1.3700 -1.8595
 6346SOL    HW230501   3.807   1.136   6.080  1.1408 -1.4340 -0.3999
 6347SOL     OW30502   1.786   3.907   1.891 -0.2776  0.2052  0.4685
 6347SOL    HW130503   1.777   3.907   1.986 -0.8368  0.2285  0.4139
 6347SOL    HW230504   1.743   3.828   1.860 -0.8765  0.5144  0.5053
 6348SOL     OW30505   1.883   2.818  15.879 -0.5528 -0.3833 -0.0122
 6348SOL    HW130506   1.920   2.856  15.799 -3.2136  0.4616 -0.8420
 6348SOL    HW230507   1.882   2.889  15.944  1.5672  0.0676 -0.4664
 6349SOL     OW30508   0.634   1.902   1.488 -0.1928  0.3259  0.5268
 6349SOL    HW130509   0.558   1.853   1.520 -0.2474  1.2895  1.8562
 6349SOL    HW230510   0.706   1.852   1.527 -0.2892  0.0696  0.3830
 6350SOL     OW30511   1.234   3.424   1.294 -0.3405 -0.3171 -0.7417
 6350SOL    HW130512   1.203   3.416   1.204  0.0890  1.0150 -1.0054
 6350SOL    HW230513   1.287   3.344   1.288  1.3606  0.8257 -0.9589
 6351SOL     OW30514   3.474   0.229   4.700 -0.1786  0.6221 -0.2342
 6351SOL    HW130515   3.509   0.267   4.780 -0.2294  0.0310  0.0641
 6351SOL    HW230516   3.437   0.309   4.662 -0.4877 -0.2585 -1.8035
 6352SOL     OW30517   0.535   0.221   0.491 -0.2627  0.5031 -0.4364
 6352SOL    HW130518   0.524   0.302   0.541 -0.6183  0.4162 -0.3742
 6352SOL    HW230519   0.565   0.162   0.559 -1.5438 -0.9546 -1.1335
 6353SOL     OW30520   1.370   1.828   8.646  0.2441  0.6465 -0.2973
 6353SOL    HW130521   1.419   1.899   8.687  0.4630  0.5412 -0.3769
 6353SOL    HW230522   1.279   1.852   8.666  0.8711  1.7268  1.2663
 6354SOL     OW30523   0.303   2.003   1.350  0.1457 -0.2301  0.6240
 6354SOL    HW130524   0.393   1.997   1.317 -1.7216 -0.6134 -4.3721
 6354SOL    HW230525   0.296   1.919   1.396 -1.3193 -0.2179  0.4053
 6355SOL     OW30526   4.554   4.540   5.673  0.4633  0.0576 -0.1488
 6355SOL    HW130527   4.554   4.462   5.618 -0.7824  0.1396 -0.2793
 6355SOL    HW230528   4.633   4.584   5.644  1.4412 -0.8668  1.0988
 6356SOL     OW30529   2.817   4.154   1.674  0.2381  0.3630 -0.0178
 6356SOL    HW130530   2.909   4.166   1.698  0.0025  0.5196  0.8201
 6356SOL    HW230531   2.809   4.059   1.664  0.4258  0.3729 -0.2694
 6357SOL     OW30532   1.466   2.715  10.265  0.2459  0.5265 -0.7108
 6357SOL    HW130533   1.414   2.653  10.315  0.3300  0.5711 -0.5666
 6357SOL    HW230534   1.397   2.757  10.215  0.1849  0.4959 -0.6532
 6358SOL     OW30535   0.969   2.894  15.663  0.2477  0.3451  0.0151
 6358SOL    HW130536   1.005   2.842  15.590 -0.1710 -0.0183  0.0661
 6358SOL    HW230537   0.984   2.845  15.743  0.9195  1.9294  0.8439
 6359SOL     OW30538   0.196   3.938   9.220  0.2557  0.2602  0.2283
 6359SOL    HW130539   0.235   4.025   9.231  2.1623 -0.5207 -0.2663
 6359SOL    HW230540   0.127   3.943   9.285  0.5972 -1.6877  0.7287
 6360SOL     OW30541   0.740   4.101   7.948 -0.0153  0.3843 -0.3146
 6360SOL    HW130542   0.823   4.059   7.923 -1.0611 -1.4969 -0.5796
 6360SOL    HW230543   0.717   4.065   8.034 -0.9097  1.7037  0.0087
 6361SOL     OW30544   2.033   2.427   4.591 -0.7598  0.1841  0.4159
 6361SOL    HW130545   2.126   2.426   4.567 -1.1333 -1.5213 -0.9249
 6361SOL    HW230546   1.994   2.391   4.511 -0.8053  0.4464  0.3202
 6362SOL     OW30547   3.616   0.328   4.435  0.6679  0.2247  0.5339
 6362SOL    HW130548   3.550   0.280   4.486  0.6789 -0.8714 -0.4888
 6362SOL    HW230549   3.672   0.256   4.407 -1.3733 -1.5351  0.9826
 6363SOL     OW30550   3.526   0.986   4.216 -0.0518  0.1324 -0.0407
 6363SOL    HW130551   3.556   0.923   4.281 -0.9331  1.3913  1.5861
 6363SOL    HW230552   3.542   0.937   4.135 -1.6632  0.1690 -0.3827
 6364SOL     OW30553   4.705   1.421   1.269 -0.4790  0.0609 -0.4457
 6364SOL    HW130554   4.620   1.454   1.300  0.2357  0.1554  1.4176
 6364SOL    HW230555   0.034   1.481   1.324 -2.2301 -1.0204  2.3557
 6365SOL     OW30556   0.540   2.434   5.189 -0.0807  0.0568 -0.0308
 6365SOL    HW130557   0.473   2.487   5.146  1.3256  0.9319 -1.1582
 6365SOL    HW230558   0.579   2.384   5.118  0.0514  0.9142 -0.5696
 6366SOL     OW30559   2.131   3.337   0.556 -0.2850  0.4837  0.6231
 6366SOL    HW130560   2.144   3.431   0.545 -3.0599  0.5731 -1.9688
 6366SOL    HW230561   2.057   3.324   0.615 -0.3383 -1.2742  0.1802
 6367SOL     OW30562   2.099   3.377   5.831  0.2827  0.3350  0.5928
 6367SOL    HW130563   2.029   3.312   5.835 -0.4194  1.0591  0.0700
 6367SOL    HW230564   2.163   3.341   5.769 -0.7255 -1.3285  0.5065
 6368SOL     OW30565   4.295   3.732  13.538 -0.4151 -0.0431 -0.3313
 6368SOL    HW130566   4.258   3.738  13.450  1.5662 -0.0965 -1.1803
 6368SOL    HW230567   4.373   3.787  13.543  0.1895 -0.6481 -2.9115
 6369SOL     OW30568   0.303   2.100  17.456 -0.8124  0.6020  0.1718
 6369SOL    HW130569   0.367   2.069  17.520  1.0611 -0.1578 -2.0807
 6369SOL    HW230570   0.283   2.190  17.483 -1.6840  0.9930 -1.7847
 6370SOL     OW30571   3.407   0.164   7.196  0.2096 -0.5399  0.1507
 6370SOL    HW130572   3.419   0.093   7.132 -1.3679 -0.0522 -0.6917
 6370SOL    HW230573   3.495   0.202   7.192  0.2047 -0.6235 -0.8807
 6371SOL     OW30574   2.533   4.324   2.540  0.3523  0.5218  0.2793
 6371SOL    HW130575   2.494   4.377   2.609 -1.2651 -1.5344  0.9340
 6371SOL    HW230576   2.606   4.382   2.517  1.5762 -0.8369  0.7514
 6372SOL     OW30577   3.392   1.727   2.021 -0.0934  0.5153  0.1336
 6372SOL    HW130578   3.435   1.650   1.985 -0.7617  0.5820 -0.7948
 6372SOL    HW230579   3.304   1.703   1.994  0.7565  0.0586 -2.2369
 6373SOL     OW30580   0.540   0.138   9.288 -0.4180  0.0561  0.0822
 6373SOL    HW130581   0.621   0.173   9.326  1.2080 -0.3981 -2.9770
 6373SOL    HW230582   0.566   0.073   9.223 -0.7609  0.4979 -0.4917
 6374SOL     OW30583   0.291   3.398   2.035  0.0864  0.0313  0.3957
 6374SOL    HW130584   0.281   3.488   2.003 -2.6118  0.3982  2.2802
 6374SOL    HW230585   0.229   3.401   2.108  0.4818  2.1850  0.6357
 6375SOL     OW30586   2.982   1.412   7.216  0.0843 -0.1524  0.1730
 6375SOL    HW130587   3.021   1.478   7.273  0.3874 -0.2341  0.0585
 6375SOL    HW230588   3.016   1.325   7.237  0.0832 -0.4067 -0.9029
 6376SOL     OW30589   0.956   1.278  12.208 -0.7269  0.2136 -0.4217
 6376SOL    HW130590   0.952   1.226  12.128  0.7428 -1.1014  0.3549
 6376SOL    HW230591   1.041   1.246  12.238 -0.9134  1.4468  1.4511
 6377SOL     OW30592   1.080   1.811   8.395  0.5411 -0.0138  0.1478
 6377SOL    HW130593   1.019   1.760   8.448  0.6959 -0.6954 -0.3314
 6377SOL    HW230594   1.161   1.775   8.431  0.8193  0.1886 -0.2777
 6378SOL     OW30595   2.913   4.176   4.997  0.6777 -0.2259 -0.1093
 6378SOL    HW130596   2.827   4.208   5.021  0.3362 -0.9014 -0.4346
 6378SOL    HW230597   2.882   4.091   4.964  1.2342 -0.0054 -1.2258
 6379SOL     OW30598   0.923   3.066   5.745  0.2608 -0.2599 -0.7080
 6379SOL    HW130599   0.916   3.061   5.841  2.5561 -1.0152 -0.5832
 6379SOL    HW230600   0.835   3.095   5.719  0.1731 -0.7677 -0.9821
 6380SOL     OW30601   1.101   3.110   8.358  0.3341 -0.1539  0.7723
 6380SOL    HW130602   1.134   3.040   8.301  0.1955  1.3248 -1.1068
 6380SOL    HW230603   1.009   3.087   8.349 -0.2394  1.5900  2.3456
 6381SOL     OW30604   0.743   1.448   1.170 -0.5955  0.3065  0.6268
 6381SOL    HW130605   0.739   1.523   1.228 -0.4412  0.2309  0.7332
 6381SOL    HW230606   0.829   1.407   1.175  0.0546  1.9304  2.5728
 6382SOL     OW30607   1.964   0.853   2.100 -0.1841  0.5001 -0.4788
 6382SOL    HW130608   1.898   0.799   2.057 -0.9209  1.4952 -0.5928
 6382SOL    HW230609   1.938   0.945   2.091 -0.8450  0.3370 -0.1618
 6383SOL     OW30610   0.001   0.693   2.374 -0.3458 -0.3839 -0.1458
 6383SOL    HW130611   4.640   0.741   2.368  0.1070  0.5975  1.4411
 6383SOL    HW230612   4.691   0.603   2.373 -2.4951  0.3681  0.2257
 6384SOL     OW30613   4.508   0.857   7.041  0.3210  0.2364  0.0516
 6384SOL    HW130614   4.527   0.869   7.134  0.6767  0.5821 -0.0682
 6384SOL    HW230615   4.556   0.776   7.024 -0.6426 -0.7178  1.7948
 6385SOL     OW30616   1.081   0.392   5.204  0.4679  0.6645 -0.6723
 6385SOL    HW130617   1.010   0.328   5.199  1.2762 -0.3403  0.5672
 6385SOL    HW230618   1.059   0.449   5.278 -1.2172  0.6719 -1.1950
 6386SOL     OW30619   3.685   3.246   6.317 -0.0625 -0.5454  0.0507
 6386SOL    HW130620   3.663   3.288   6.400  0.6153 -1.4564  0.6871
 6386SOL    HW230621   3.645   3.159   6.330  4.3677 -2.9283 -2.4881
 6387SOL     OW30622   4.316   2.307  15.631 -0.3682 -0.2843 -0.1185
 6387SOL    HW130623   4.257   2.335  15.560  1.8698  0.2362 -1.7642
 6387SOL    HW230624   4.265   2.238  15.672 -0.7933 -0.0315 -0.2175
 6388SOL     OW30625   0.488   4.301   3.590 -0.1873  0.0038  0.0539
 6388SOL    HW130626   0.556   4.234   3.593 -0.1748 -0.0859 -2.0257
 6388SOL    HW230627   0.538   4.381   3.572 -0.1556  0.1793  0.9610
 6389SOL     OW30628   0.346   2.685  11.803  0.2798  0.3993  0.1499
 6389SOL    HW130629   0.273   2.698  11.863  1.0681 -0.4095  1.2881
 6389SOL    HW230630   0.408   2.747  11.841  0.8897 -0.4425  0.5402
 6390SOL     OW30631   2.198   3.958  16.840 -0.5868  0.1688 -0.2059
 6390SOL    HW130632   2.215   3.915  16.924  0.2099 -0.9387 -0.9180
 6390SOL    HW230633   2.151   4.034  16.873 -0.8206 -0.9866  2.1146
 6391SOL     OW30634   3.922   3.516   1.856  0.3125 -0.2374 -0.7275
 6391SOL    HW130635   3.836   3.497   1.893  0.3771 -0.3132 -0.6124
 6391SOL    HW230636   3.923   3.611   1.862 -0.5559 -0.2295 -0.7132
 6392SOL     OW30637   4.554   1.103   6.926 -0.4539 -0.1279 -0.4866
 6392SOL    HW130638   4.560   1.154   7.007 -0.8400 -0.2780 -0.3632
 6392SOL    HW230639   4.542   1.012   6.953  2.3999 -0.1430  0.7221
 6393SOL     OW30640   1.539   3.530   1.974 -0.7074 -0.5427  0.4886
 6393SOL    HW130641   1.450   3.565   1.980 -0.8741 -1.4730  3.5718
 6393SOL    HW230642   1.532   3.449   2.026  0.0759 -1.3057 -0.5928
 6394SOL     OW30643   0.434   0.139  15.865 -0.1620 -0.1638 -0.3632
 6394SOL    HW130644   0.420   0.094  15.781 -1.4556  1.7031 -1.1478
 6394SOL    HW230645   0.366   0.207  15.867  0.9655  0.9151  1.5150
 6395SOL     OW30646   4.426   4.214   5.683  0.1603 -0.3178 -0.0463
 6395SOL    HW130647   4.408   4.123   5.706  2.2025 -0.1879  2.0440
 6395SOL    HW230648   4.349   4.225   5.627 -0.1920  0.3154  0.5576
 6396SOL     OW30649   1.051   4.418   7.747  0.3409  0.0898  0.4795
 6396SOL    HW130650   1.141   4.406   7.781  0.6005 -1.8707 -0.9277
 6396SOL    HW230651   1.016   4.331   7.730 -0.3585  0.4369  0.1678
 6397SOL     OW30652   1.153   4.172   5.335  0.2398 -0.1559  0.5128
 6397SOL    HW130653   1.104   4.109   5.387  1.7921 -1.8955 -0.1308
 6397SOL    HW230654   1.215   4.181   5.406  0.3853 -0.0324  0.3711
 6398SOL     OW30655   3.578   2.389   0.270 -0.5355  0.5872 -0.5047
 6398SOL    HW130656   3.574   2.302   0.310  1.8533  0.5774 -0.3259
 6398SOL    HW230657   3.615   2.366   0.185 -0.7806 -0.8595 -0.2165
 6399SOL     OW30658   3.701   0.228   5.394 -0.3058 -0.1230 -0.4122
 6399SOL    HW130659   3.667   0.210   5.306 -0.9958 -2.3723  0.3134
 6399SOL    HW230660   3.643   0.295   5.429  1.8532  1.6311 -0.2183
 6400SOL     OW30661   1.651   0.496   8.563 -0.0538  0.1159 -0.3002
 6400SOL    HW130662   1.566   0.451   8.570  0.0010  0.2560  1.3246
 6400SOL    HW230663   1.632   0.553   8.489  0.2040 -1.1547 -1.3484
 6401SOL     OW30664   2.389   0.850   7.082 -0.1474  0.4323  0.3998
 6401SOL    HW130665   2.327   0.904   7.033 -0.4130  0.0936  0.3605
 6401SOL    HW230666   2.466   0.898   7.050  0.1636  0.3423  1.0224
 6402SOL     OW30667   4.172   3.951   5.374  0.8901 -0.1429  0.0989
 6402SOL    HW130668   4.094   3.997   5.405  1.6780  0.6890  0.8437
 6402SOL    HW230669   4.160   3.931   5.281 -0.1688  0.0998  0.1843
 6403SOL     OW30670   3.184   1.801   5.423 -1.0206 -0.3032 -0.1303
 6403SOL    HW130671   3.114   1.769   5.366 -0.4154 -2.0463  0.1086
 6403SOL    HW230672   3.164   1.894   5.434  0.4107  0.2724 -2.4409
 6404SOL     OW30673   0.605   4.656   0.930  0.6496  0.4948  0.3993
 6404SOL    HW130674   0.627   4.592   0.862  0.1033 -1.7339  2.3324
 6404SOL    HW230675   0.615   4.590   0.998 -0.7454 -0.5859 -0.4303
 6405SOL     OW30676   0.056   3.856  16.400  0.3808  0.6768  0.4021
 6405SOL    HW130677   0.089   3.933  16.446  1.4718  0.2890  0.2788
 6405SOL    HW230678   0.001   3.825  16.471 -0.2832 -0.5906 -0.6722
 6406SOL     OW30679   4.438   2.199   8.862  0.0424  0.5217  0.4293
 6406SOL    HW130680   4.426   2.236   8.775 -0.5778 -2.5216 -0.8025
 6406SOL    HW230681   4.452   2.283   8.904 -0.7348  0.9308 -0.1230
 6407SOL     OW30682   1.708   2.499  11.905 -0.3928  0.0441  0.3459
 6407SOL    HW130683   1.658   2.546  11.972  1.2839  0.0837  1.5686
 6407SOL    HW230684   1.670   2.413  11.923 -0.2086  0.1602  1.3127
 6408SOL     OW30685   1.851   1.166   1.785  0.1302  0.0650  0.4764
 6408SOL    HW130686   1.772   1.219   1.769  0.4997  1.2872  2.7726
 6408SOL    HW230687   1.801   1.084   1.785 -0.2748  0.2999 -1.8369
 6409SOL     OW30688   4.096   2.629  11.761 -0.2525  0.2629  0.2565
 6409SOL    HW130689   4.172   2.593  11.806  0.3943 -1.3213 -2.1582
 6409SOL    HW230690   4.049   2.556  11.722 -0.8599  0.4489  0.6341
 6410SOL     OW30691   1.767   0.703   9.681 -0.6879 -0.4243 -1.0119
 6410SOL    HW130692   1.846   0.700   9.627  0.3557  0.3423  0.4590
 6410SOL    HW230693   1.754   0.797   9.678 -1.2880 -0.4187  1.3872
 6411SOL     OW30694   3.594   3.791   2.520 -0.2044  0.3712  0.5467
 6411SOL    HW130695   3.523   3.797   2.456  0.6738  0.1017 -0.4536
 6411SOL    HW230696   3.546   3.771   2.600 -1.4121 -1.4590 -0.6303
 6412SOL     OW30697   0.274   1.518   2.754 -0.3054 -0.1494  0.2391
 6412SOL    HW130698   0.184   1.549   2.765  0.0598  1.6571 -1.8710
 6412SOL    HW230699   0.260   1.440   2.701 -1.2064 -1.2481  2.1291
 6413SOL     OW30700   1.619   0.530   4.596  0.3310  0.4329 -0.0887
 6413SOL    HW130701   1.635   0.451   4.649 -0.4397 -0.1662 -0.7556
 6413SOL    HW230702   1.529   0.560   4.609  0.3140  1.0152 -1.6695
 6414SOL     OW30703   2.241   1.228   1.146 -0.7146  0.2531 -0.0435
 6414SOL    HW130704   2.240   1.181   1.063  1.8421 -0.9857  0.6321
 6414SOL    HW230705   2.262   1.311   1.105  2.5138 -2.1409 -3.2033
 6415SOL     OW30706   1.264   2.885   2.796  0.0712  0.6989  0.0487
 6415SOL    HW130707   1.302   2.973   2.807  2.7109 -0.5062  0.4457
 6415SOL    HW230708   1.324   2.842   2.735 -0.5146  0.4692 -0.3594
 6416SOL     OW30709   0.507   0.722   3.623 -0.1404 -0.3610 -0.9272
 6416SOL    HW130710   0.419   0.758   3.612 -0.5926 -1.5001 -1.0973
 6416SOL    HW230711   0.486   0.647   3.567 -2.6801  0.0337 -0.5284
 6417SOL     OW30712   2.862   4.517   3.045  0.1536  0.3928  0.5511
 6417SOL    HW130713   2.940   4.559   3.009  0.8415  0.1363  1.7614
 6417SOL    HW230714   2.841   4.574   3.119  0.1671  1.7163 -0.4601
 6418SOL     OW30715   4.405   4.423   0.651 -0.0499 -0.3838 -0.3410
 6418SOL    HW130716   4.334   4.415   0.588 -0.0151  1.6860 -0.6696
 6418SOL    HW230717   4.446   4.500   0.610 -0.1612  0.8776  1.8762
 6419SOL     OW30718   4.296   2.379  10.823  0.4778 -0.2883 -0.5929
 6419SOL    HW130719   4.323   2.318  10.754 -0.1246 -2.1860  0.8581
 6419SOL    HW230720   4.203   2.392  10.802 -0.0534 -2.1690  0.5984
 6420SOL     OW30721   3.292   3.305  14.956 -0.0229 -0.1106 -0.1637
 6420SOL    HW130722   3.209   3.314  14.909  0.2504 -2.0770 -0.9989
 6420SOL    HW230723   3.345   3.379  14.925  3.4542 -1.8367  1.6620
 6421SOL     OW30724   2.266   4.642   8.264  0.9268  0.1351 -0.0857
 6421SOL    HW130725   2.231   4.717   8.312 -2.6361 -1.1924 -0.5919
 6421SOL    HW230726   2.189   4.602   8.224  1.5038 -2.3314  1.3025
 6422SOL     OW30727   3.596   3.948   4.592 -0.9541 -0.3702 -0.3694
 6422SOL    HW130728   3.576   3.985   4.678  0.9000 -0.4524  0.1003
 6422SOL    HW230729   3.541   4.012   4.545 -1.9833  0.4786  1.9920
 6423SOL     OW30730   3.582   0.468   5.179 -0.7314  0.3185 -0.0211
 6423SOL    HW130731   3.569   0.533   5.248 -1.4316  0.9216 -0.7320
 6423SOL    HW230732   3.505   0.415   5.200 -0.7924  1.0587  1.5857
 6424SOL     OW30733   3.503   2.465   9.329  0.4478 -0.3483 -0.3474
 6424SOL    HW130734   3.577   2.525   9.328 -0.1712  0.4358  1.1554
 6424SOL    HW230735   3.529   2.406   9.258  1.3285 -3.0489  2.2641
 6425SOL     OW30736   3.520   1.512   9.268 -0.1588  0.6062  0.5165
 6425SOL    HW130737   3.490   1.480   9.353  1.6045  0.1960  0.9878
 6425SOL    HW230738   3.450   1.490   9.207 -0.7888 -1.2807  1.9263
 6426SOL     OW30739   2.590   0.747   1.386  0.1868 -0.1395  0.2048
 6426SOL    HW130740   2.537   0.724   1.309 -0.1828  1.6830 -0.0683
 6426SOL    HW230741   2.665   0.687   1.381  0.7182  0.6069 -1.0178
 6427SOL     OW30742   0.680   3.169   7.644 -0.1966  0.6929  0.7990
 6427SOL    HW130743   0.737   3.143   7.717 -0.3717 -1.3964  0.1840
 6427SOL    HW230744   0.597   3.174   7.693 -1.9254 -0.7122 -2.0076
 6428SOL     OW30745   3.327   3.363  13.706  0.0006  0.1312  0.8063
 6428SOL    HW130746   3.248   3.361  13.760 -0.0981  1.6734  0.7181
 6428SOL    HW230747   3.372   3.279  13.719 -0.5200 -0.2937 -0.1748
 6429SOL     OW30748   0.473   1.581   4.329  0.4299 -0.0321 -0.2967
 6429SOL    HW130749   0.524   1.500   4.340 -1.8637 -1.6957 -2.1079
 6429SOL    HW230750   0.387   1.542   4.316  1.6196 -3.1037  0.7413
 6430SOL     OW30751   2.596   0.974   7.814 -0.1272  0.7543 -0.1035
 6430SOL    HW130752   2.649   1.010   7.886  0.6283  1.2662 -0.9161
 6430SOL    HW230753   2.656   0.923   7.760  1.9751  0.9695  2.0325
 6431SOL     OW30754   0.799   1.844   2.857  0.4785  0.1167 -0.6561
 6431SOL    HW130755   0.754   1.817   2.937  1.1559 -0.4931 -0.4822
 6431SOL    HW230756   0.844   1.761   2.846 -1.1347 -1.0045  1.2761
 6432SOL     OW30757   4.450   2.001   6.302 -0.2363  0.1948 -0.3731
 6432SOL    HW130758   4.454   2.062   6.375 -1.5685  0.3973 -0.4529
 6432SOL    HW230759   4.359   2.020   6.275 -0.6546 -2.9786 -1.2003
 6433SOL     OW30760   3.169   1.613   1.937 -0.6240 -0.1852 -0.3298
 6433SOL    HW130761   3.118   1.535   1.956  1.0159 -1.2102 -0.1505
 6433SOL    HW230762   3.153   1.634   1.845  0.1165 -1.0412 -0.6548
 6434SOL     OW30763   3.667   3.738   5.649  0.0989  0.2043 -0.1609
 6434SOL    HW130764   3.596   3.766   5.590 -0.6157  1.3711  1.2412
 6434SOL    HW230765   3.635   3.653   5.678  0.1820  0.8669  1.8603
 6435SOL     OW30766   4.206   1.998  17.661  0.6661  0.7167  0.3993
 6435SOL    HW130767   4.298   1.990  17.636  1.5761  0.8697  3.7720
 6435SOL    HW230768   4.177   1.923  17.609  0.5645  2.0399 -1.4559
 6436SOL     OW30769   4.493   0.512   9.686  0.3532 -0.4216 -0.1384
 6436SOL    HW130770   4.397   0.506   9.689  0.4936 -2.6098  0.3845
 6436SOL    HW230771   4.512   0.597   9.648  0.2034 -1.1605 -1.8611
 6437SOL     OW30772   4.023   2.219  15.842 -0.4624 -0.1486 -0.2697
 6437SOL    HW130773   4.038   2.268  15.922 -1.7179 -1.7146  0.9305
 6437SOL    HW230774   3.955   2.277  15.808  0.7059  1.4782  0.1886
 6438SOL     OW30775   3.139   0.410   5.512 -0.1579  0.0735 -0.3844
 6438SOL    HW130776   3.134   0.343   5.444 -1.0891  1.6579 -1.8966
 6438SOL    HW230777   3.056   0.456   5.500  0.1365  1.1462  1.6779
 6439SOL     OW30778   3.303   1.099   3.553 -0.1517 -0.4835  0.4553
 6439SOL    HW130779   3.310   1.031   3.620  0.0243  0.7161  1.6309
 6439SOL    HW230780   3.393   1.130   3.552 -0.5980  0.7297 -2.6879
 6440SOL     OW30781   3.749   1.466   1.933  0.2583 -0.1056 -0.4573
 6440SOL    HW130782   3.654   1.464   1.941  0.3280 -1.3145  0.1946
 6440SOL    HW230783   3.760   1.509   1.849  0.7302  2.2542  0.8154
 6441SOL     OW30784   4.388   1.201   4.546  0.1703 -0.1682  0.1537
 6441SOL    HW130785   4.309   1.168   4.589  0.9513 -2.0775  0.1086
 6441SOL    HW230786   4.419   1.134   4.485 -0.8108 -0.5374  0.0677
 6442SOL     OW30787   1.485   1.237   9.426  0.2626  0.1555  0.5578
 6442SOL    HW130788   1.568   1.200   9.456 -0.1267 -2.5629 -1.7429
 6442SOL    HW230789   1.427   1.215   9.498 -1.7389 -0.9942 -1.3878
 6443SOL     OW30790   0.829   1.506   1.429 -0.0189 -0.7356 -0.1048
 6443SOL    HW130791   0.916   1.465   1.436  1.4007  2.1094 -0.9352
 6443SOL    HW230792   0.853   1.587   1.473 -0.5256 -1.4361  1.4628
 6444SOL     OW30793   2.747   1.034   6.760  0.0048  0.5027  0.2891
 6444SOL    HW130794   2.813   1.084   6.711  0.3486 -1.1815 -0.9492
 6444SOL    HW230795   2.798   0.983   6.823 -0.0479  0.6974  0.4903
 6445SOL     OW30796   3.091   4.604   8.827  0.7090  0.3389  0.4272
 6445SOL    HW130797   3.061   4.676   8.882 -1.9351  1.5153 -2.5457
 6445SOL    HW230798   3.181   4.637   8.822  1.4761 -1.8541 -0.5027
 6446SOL     OW30799   2.022   0.575   0.616  0.0464 -0.1951  0.0276
 6446SOL    HW130800   2.087   0.537   0.673 -0.1933  0.2580  0.6028
 6446SOL    HW230801   1.993   0.646   0.673 -0.9263 -0.5362 -0.0332
 6447SOL     OW30802   4.174   2.990  15.024 -0.4276  0.0443 -0.2080
 6447SOL    HW130803   4.242   2.981  15.091  0.2408  2.0627 -0.6107
 6447SOL    HW230804   4.144   2.900  15.026 -0.1086 -0.0927 -1.8232
 6448SOL     OW30805   1.296   1.774   8.976  0.1962  1.0443 -0.5345
 6448SOL    HW130806   1.306   1.754   9.069  1.5294 -2.3382 -1.4228
 6448SOL    HW230807   1.202   1.785   8.964  0.3759  1.0896 -1.8856
 6449SOL     OW30808   4.511   4.696   2.044  0.2036  0.4761  0.0174
 6449SOL    HW130809   4.448   4.631   2.073  0.2799  0.5942  0.4466
 6449SOL    HW230810   4.463   0.013   1.970 -0.5999  0.4223  0.5205
 6450SOL     OW30811   2.598   4.535   6.279  0.4445 -0.3453  0.3899
 6450SOL    HW130812   2.629   4.469   6.340  0.3111 -0.8567 -0.0992
 6450SOL    HW230813   2.559   4.477   6.214 -2.7537  2.0222  0.1663
 6451SOL     OW30814   0.967   1.498   6.677 -0.4390  0.0218  0.5536
 6451SOL    HW130815   0.931   1.436   6.613 -3.0599  1.1656  0.9125
 6451SOL    HW230816   1.001   1.441   6.746 -0.0973 -0.1624  0.2355
 6452SOL     OW30817   1.013   0.586   5.384 -0.3211 -0.3858 -0.0354
 6452SOL    HW130818   1.048   0.660   5.335 -2.4531  0.9744  0.5353
 6452SOL    HW230819   1.042   0.608   5.472 -3.1112 -0.7915  0.9764
 6453SOL     OW30820   4.380   1.281   3.760  0.3614 -0.0960  0.0193
 6453SOL    HW130821   4.309   1.248   3.706  1.0836  0.2787 -1.1654
 6453SOL    HW230822   4.368   1.218   3.830  0.9741 -2.2082 -1.7853
 6454SOL     OW30823   1.031   1.737  15.081  0.4460  0.0587 -0.0480
 6454SOL    HW130824   1.018   1.645  15.061 -0.4462  0.4306 -1.1558
 6454SOL    HW230825   1.126   1.743  15.077  0.4624 -0.4029 -0.2391
 6455SOL     OW30826   2.120   3.252  16.204 -0.1102 -0.1267  0.1642
 6455SOL    HW130827   2.046   3.205  16.242 -0.1105 -1.4281 -1.4842
 6455SOL    HW230828   2.095   3.345  16.205  0.1389 -0.0571  0.1209
 6456SOL     OW30829   1.382   1.982  14.081 -0.7151 -0.5112 -0.5575
 6456SOL    HW130830   1.364   1.906  14.026  0.4238 -0.3935 -1.1076
 6456SOL    HW230831   1.293   1.993  14.113 -0.7308  0.7641 -1.0254
 6457SOL     OW30832   4.700   0.799   7.414 -0.8598  0.0817 -0.0406
 6457SOL    HW130833   4.619   0.823   7.368 -1.9216  0.5157  2.0178
 6457SOL    HW230834   4.675   0.812   7.506  1.3275 -0.2011  0.5975
 6458SOL     OW30835   2.861   0.448   2.647  0.4200 -0.0361 -0.3849
 6458SOL    HW130836   2.846   0.363   2.606  0.0150 -0.9931  1.7993
 6458SOL    HW230837   2.835   0.506   2.575  0.5044 -0.2092 -0.5559
 6459SOL     OW30838   2.651   4.337   1.554  0.3994  0.2460 -0.5521
 6459SOL    HW130839   2.699   4.393   1.493  1.3493  1.4165  1.2446
 6459SOL    HW230840   2.723   4.286   1.590 -0.7351 -0.0503  1.3200
 6460SOL     OW30841   2.162   4.234  14.101 -0.1611  0.6642  0.3074
 6460SOL    HW130842   2.187   4.273  14.185  4.5031 -1.4869 -0.0600
 6460SOL    HW230843   2.242   4.238  14.048  1.0746 -1.2883  2.0242
 6461SOL     OW30844   4.518   1.075  11.377  0.3574 -0.3677 -0.2186
 6461SOL    HW130845   4.482   1.157  11.343  1.8309  0.7886  0.9942
 6461SOL    HW230846   4.610   1.103  11.385  0.7788 -2.1521  1.1066
 6462SOL     OW30847   3.489   1.869   7.656  0.2513 -0.1542 -0.6193
 6462SOL    HW130848   3.521   1.907   7.574  2.2567 -3.2946 -1.2887
 6462SOL    HW230849   3.435   1.936   7.698  0.5245  0.2331 -0.8818
 6463SOL     OW30850   3.944   3.628  15.935 -0.2845  0.1754 -0.3551
 6463SOL    HW130851   4.000   3.603  15.861 -1.0863  0.1680 -0.9699
 6463SOL    HW230852   3.854   3.616  15.905 -0.6990  3.2330 -0.2871
 6464SOL     OW30853   3.287   1.348   8.993 -0.0608  0.0825 -0.1048
 6464SOL    HW130854   3.225   1.321   9.062  0.6749  1.3428  1.0457
 6464SOL    HW230855   3.314   1.261   8.964 -1.2367 -0.4737  0.4339
 6465SOL     OW30856   4.237   1.198   2.955  0.1565 -0.1070  0.1964
 6465SOL    HW130857   4.268   1.287   2.970 -1.0845  0.3792 -0.1364
 6465SOL    HW230858   4.255   1.163   3.043 -0.3842  1.0225  0.7515
 6466SOL     OW30859   2.343   1.588   7.054  0.0700  0.0532 -0.6976
 6466SOL    HW130860   2.366   1.579   7.146  0.6776  0.3837 -0.8158
 6466SOL    HW230861   2.345   1.494   7.034 -0.6191 -0.6252  2.4330
 6467SOL     OW30862   4.060   4.448   8.785  0.0077 -0.3885 -0.0290
 6467SOL    HW130863   4.132   4.430   8.724  0.0050 -0.0649 -0.1269
 6467SOL    HW230864   4.088   4.415   8.870 -2.5937 -1.9142  0.2260
 6468SOL     OW30865   0.069   4.251   6.750  0.1767  0.1131 -0.6747
 6468SOL    HW130866   0.036   4.163   6.769  2.2646 -0.4247  0.4543
 6468SOL    HW230867   4.705   4.294   6.760  0.2381 -0.1287  0.9856
 6469SOL     OW30868   3.977   2.303   6.682  0.2176 -0.0180  0.4053
 6469SOL    HW130869   3.975   2.301   6.586  0.5340 -0.6161  0.4090
 6469SOL    HW230870   4.064   2.265   6.700 -0.4854 -0.4578  2.8481
 6470SOL     OW30871   4.353   0.465   6.187 -0.0617  0.1714  0.1668
 6470SOL    HW130872   4.261   0.446   6.171 -0.5001  1.5527  1.0984
 6470SOL    HW230873   4.354   0.483   6.281  0.6987 -3.0499  0.7756
 6471SOL     OW30874   0.758   4.434   2.949  0.0067  0.8041  0.5104
 6471SOL    HW130875   0.664   4.419   2.936  0.1651 -1.2418  1.7973
 6471SOL    HW230876   0.757   4.512   3.006  0.4745  0.3663  1.1211
 6472SOL     OW30877   1.070   4.292   3.841 -0.1547 -0.2611 -0.1454
 6472SOL    HW130878   1.082   4.214   3.895 -0.9253 -0.3218 -0.0666
 6472SOL    HW230879   1.035   4.352   3.907 -0.9714 -2.7972  1.7274
 6473SOL     OW30880   3.441   2.955   7.742 -0.0243 -0.0975  0.2036
 6473SOL    HW130881   3.515   2.894   7.745  0.4735  0.3571 -2.5918
 6473SOL    HW230882   3.492   3.029   7.709  1.4901 -1.6344 -0.9048
 6474SOL     OW30883   2.968   3.106   4.419 -0.2535 -0.2954  0.0515
 6474SOL    HW130884   2.881   3.115   4.379  0.5256  1.2850 -1.3066
 6474SOL    HW230885   3.023   3.143   4.350 -1.2554  0.6153 -0.2641
 6475SOL     OW30886   3.076   1.507  17.186  0.4240  0.1671  0.2685
 6475SOL    HW130887   3.066   1.554  17.269  0.0676  0.4762  0.0542
 6475SOL    HW230888   2.996   1.455  17.184  1.1150 -0.7585 -2.4267
 6476SOL     OW30889   2.645   1.551  14.397  0.3131  0.6212  0.3213
 6476SOL    HW130890   2.724   1.605  14.387 -0.4021  1.5346 -0.3747
 6476SOL    HW230891   2.648   1.516  14.308 -0.1572  0.9612  0.1724
 6477SOL     OW30892   2.007   3.434   7.253  0.2749  0.0452  0.3294
 6477SOL    HW130893   2.032   3.364   7.194 -1.1137 -1.3783  1.4387
 6477SOL    HW230894   1.917   3.459   7.230  0.3529  0.3136  0.3155
 6478SOL     OW30895   1.511   3.014   6.991  0.2907 -0.1073 -0.1916
 6478SOL    HW130896   1.488   3.072   7.064 -0.0940 -1.2446  0.5935
 6478SOL    HW230897   1.491   2.930   7.033  1.6990 -0.1961  0.2988
 6479SOL     OW30898   3.808   3.761   2.799 -0.0823 -0.1125  0.1989
 6479SOL    HW130899   3.722   3.769   2.757  0.2786  2.9142  0.0500
 6479SOL    HW230900   3.867   3.743   2.726  0.0018 -3.0446  1.0013
 6480SOL     OW30901   2.887   0.919   1.796  0.3025  0.2557  0.2596
 6480SOL    HW130902   2.847   0.841   1.757  1.4923 -0.0234 -0.3973
 6480SOL    HW230903   2.875   0.989   1.732  0.3456  0.0464  0.0219
 6481SOL     OW30904   3.804   0.296  10.670  0.5412  0.3835  0.2981
 6481SOL    HW130905   3.818   0.389  10.655  2.0667  0.3961  1.7077
 6481SOL    HW230906   3.897   0.272  10.672  0.9218  1.9525  1.3657
 6482SOL     OW30907   3.102   0.844   1.259 -0.1915 -0.2428 -0.5314
 6482SOL    HW130908   3.187   0.811   1.286 -0.2644 -0.1227 -0.1429
 6482SOL    HW230909   3.115   0.830   1.166 -0.3593 -1.5359 -0.3642
 6483SOL     OW30910   0.600   3.952   5.171  0.1588 -0.2568  0.5700
 6483SOL    HW130911   0.653   3.917   5.242  1.5558 -0.6655 -0.6768
 6483SOL    HW230912   0.614   3.883   5.106  0.3026  0.8366 -0.5690
 6484SOL     OW30913   4.062   1.609   2.152  0.5367 -0.1209 -0.2006
 6484SOL    HW130914   3.970   1.605   2.179  0.6443  0.2661  0.2244
 6484SOL    HW230915   4.061   1.597   2.057 -0.9550  1.7749 -0.4242
 6485SOL     OW30916   4.426   0.595   2.051 -0.6818 -0.2372 -0.2044
 6485SOL    HW130917   4.400   0.680   2.087 -1.0956 -1.0932  1.4841
 6485SOL    HW230918   4.472   0.628   1.973  0.0698  2.1692  1.2714
 6486SOL     OW30919   2.109   1.139  11.215 -0.7495 -0.3050 -0.2939
 6486SOL    HW130920   2.144   1.135  11.126  0.0033  0.3665 -0.0243
 6486SOL    HW230921   2.170   1.202  11.254 -0.9427 -0.8014  0.8103
 6487SOL     OW30922   0.218   1.030   9.351  0.3371  0.0845  0.1452
 6487SOL    HW130923   0.284   1.095   9.327  0.3217 -0.2873 -0.9216
 6487SOL    HW230924   0.134   1.072   9.334  1.0244  1.3736 -0.0361
 6488SOL     OW30925   4.443   0.241   1.101 -0.0916 -0.1414  0.6240
 6488SOL    HW130926   4.417   0.231   1.009  0.8224 -2.8703  0.6665
 6488SOL    HW230927   4.413   0.326   1.134  1.4057  1.4586 -2.1537
 6489SOL     OW30928   0.692   4.160   0.045  0.0973  0.3505 -0.3205
 6489SOL    HW130929   0.668   4.252   0.052 -0.1745  0.1373  1.5323
 6489SOL    HW230930   0.613   4.129   0.090  0.1926  1.5790  0.6954
 6490SOL     OW30931   0.132   1.511   4.923  0.6057  0.6769  0.5278
 6490SOL    HW130932   0.120   1.416   4.919  0.4235  0.7671 -1.3451
 6490SOL    HW230933   0.228   1.506   4.924  0.5855  0.2893  0.5514
 6491SOL     OW30934   3.681   2.876   6.714 -0.1948  0.0208 -0.1498
 6491SOL    HW130935   3.619   2.927   6.663  0.7079  0.7170 -0.5401
 6491SOL    HW230936   3.750   2.858   6.650 -1.2499 -0.3239 -1.1830
 6492SOL     OW30937   1.059   3.429   7.158  0.2882  0.6008  0.2870
 6492SOL    HW130938   1.140   3.401   7.117 -0.3536 -0.6405 -0.1430
 6492SOL    HW230939   1.011   3.475   7.090 -0.9782 -0.1238  0.6774
 6493SOL     OW30940   2.131   3.164   3.336 -0.4572  0.0167  0.1521
 6493SOL    HW130941   2.121   3.131   3.425  0.8305  0.5356  0.4791
 6493SOL    HW230942   2.045   3.206   3.333  0.7974  2.5836 -0.2294
 6494SOL     OW30943   0.840   0.379   4.087 -0.1171  0.1048 -0.4249
 6494SOL    HW130944   0.761   0.419   4.049 -0.7772 -1.8767 -1.1421
 6494SOL    HW230945   0.912   0.435   4.061 -0.0242 -0.4419 -1.3347
 6495SOL     OW30946   1.906   3.437   4.075  0.1095 -0.0164  0.4425
 6495SOL    HW130947   1.888   3.453   3.983  1.3397 -2.9179 -0.3048
 6495SOL    HW230948   1.844   3.366   4.095  1.4970 -1.7376 -1.3510
 6496SOL     OW30949   3.895   3.858  14.696 -0.3791  0.3769 -0.4311
 6496SOL    HW130950   3.862   3.935  14.651 -2.5292 -0.4530 -0.2439
 6496SOL    HW230951   3.990   3.873  14.688 -0.2495 -0.8373 -1.1147
 6497SOL     OW30952   1.616   0.266  12.591 -0.7574 -0.1349 -0.4037
 6497SOL    HW130953   1.647   0.179  12.565  1.5239  0.9585 -1.3196
 6497SOL    HW230954   1.628   0.318  12.511  0.3885  1.0687  0.5618
 6498SOL     OW30955   1.734   2.630   8.404 -0.3330 -0.0611  0.3643
 6498SOL    HW130956   1.804   2.655   8.464 -1.7090  1.2364  1.4179
 6498SOL    HW230957   1.659   2.642   8.463 -0.2963  1.4150  0.1007
 6499SOL     OW30958   2.610   3.203   1.981 -0.3302  0.3839  0.3550
 6499SOL    HW130959   2.675   3.215   1.912 -0.3073 -2.0189 -0.0354
 6499SOL    HW230960   2.531   3.206   1.928  0.1372  1.2518 -0.2958
 6500SOL     OW30961   2.191   4.146   2.918  0.7972 -0.0944  0.0259
 6500SOL    HW130962   2.215   4.083   2.986 -0.4380  0.7875  1.2720
 6500SOL    HW230963   2.257   4.136   2.849  0.6727  0.6034 -0.1886
 6501SOL     OW30964   3.826   2.106   7.202  0.2562 -0.2041 -0.5427
 6501SOL    HW130965   3.858   2.035   7.148  2.8468 -0.0071  0.7108
 6501SOL    HW230966   3.752   2.073   7.252 -0.6412  1.5260 -0.7080
 6502SOL     OW30967   0.244   0.145   4.477 -0.4070  0.1001 -0.5508
 6502SOL    HW130968   0.235   0.171   4.569 -1.7725  3.2666 -1.5765
 6502SOL    HW230969   0.152   0.128   4.457 -0.8780  0.9317  0.8962
 6503SOL     OW30970   0.076   0.285   3.934  0.0300  0.0819  0.2524
 6503SOL    HW130971   0.130   0.365   3.937  1.0149 -0.5336 -1.1917
 6503SOL    HW230972   0.048   0.280   4.026 -1.3862  0.8348 -0.1297
 6504SOL     OW30973   1.926   1.356  15.383  0.1148 -0.0512  0.0733
 6504SOL    HW130974   1.834   1.366  15.361 -0.2665  0.1284  1.7801
 6504SOL    HW230975   1.961   1.342  15.295 -1.2894 -1.2761 -0.2985
 6505SOL     OW30976   1.930   0.660   3.285  0.5222 -0.0417  0.3786
 6505SOL    HW130977   2.007   0.604   3.293  1.1554  0.6410 -1.0766
 6505SOL    HW230978   1.974   0.745   3.288  1.0397 -0.3226  0.8147
 6506SOL     OW30979   3.498   0.077  17.269  0.5876  0.0315  0.1924
 6506SOL    HW130980   3.539   0.155  17.306  0.4989 -0.5788  1.5729
 6506SOL    HW230981   3.456   0.036  17.344  2.4883  0.0090  1.2616
 6507SOL     OW30982   2.792   0.948   4.691 -0.3445  0.4213  0.1930
 6507SOL    HW130983   2.803   1.014   4.622  2.8350 -0.8540 -0.4936
 6507SOL    HW230984   2.848   0.984   4.759 -2.3590  0.9255  1.5775
 6508SOL     OW30985   0.640   0.776   2.479  0.1689  0.4843 -0.1274
 6508SOL    HW130986   0.709   0.819   2.428  1.0324 -0.0341  0.5936
 6508SOL    HW230987   0.586   0.853   2.493  0.7196  0.9422 -0.4971
 6509SOL     OW30988   2.797   3.127   7.828  0.0278 -0.6378 -0.4610
 6509SOL    HW130989   2.835   3.159   7.910 -0.7678 -0.3150 -0.2240
 6509SOL    HW230990   2.842   3.171   7.756  4.0335 -1.9091  1.2595
 6510SOL     OW30991   4.229   2.215   3.147  0.1496 -0.5325 -0.1093
 6510SOL    HW130992   4.168   2.289   3.149  3.3105  2.0331  1.5757
 6510SOL    HW230993   4.269   2.235   3.062 -0.1174 -1.6568 -0.4938
 6511SOL     OW30994   3.333   1.928  13.675  0.0854 -0.6342  0.5540
 6511SOL    HW130995   3.307   1.867  13.744 -2.3604 -0.1307  0.0708
 6511SOL    HW230996   3.370   1.867  13.611  2.2711  1.6380 -0.3464
 6512SOL     OW30997   2.702   3.916  17.547 -0.0032 -0.0366 -0.3169
 6512SOL    HW130998   2.726   3.868  17.626  0.6491  0.9548  0.0924
 6512SOL    HW230999   2.683   4.000  17.589 -0.9898 -0.6733  0.4913
 6513SOL     OW31000   0.403   1.762   4.667  0.2336  0.2442  0.2928
 6513SOL    HW131001   0.413   1.789   4.576  2.6758  2.2130  1.1316
 6513SOL    HW231002   0.308   1.758   4.658 -0.1050  1.9445  3.1881
 6514SOL     OW31003   4.190   0.167   2.103 -0.1654 -0.6718 -0.1217
 6514SOL    HW131004   4.195   0.179   2.008 -0.6876  0.8414  0.0431
 6514SOL    HW231005   4.109   0.211   2.124  0.6545  0.9553 -0.4029
 6515SOL     OW31006   1.772   1.782   8.992  0.4158  0.0262 -0.0276
 6515SOL    HW131007   1.679   1.803   8.993  0.3366 -0.2728 -0.7276
 6515SOL    HW231008   1.815   1.864   9.017 -0.3476  1.1725 -2.4363
 6516SOL     OW31009   2.066   0.320  11.010  0.0545  0.2386 -0.9665
 6516SOL    HW131010   2.059   0.409  10.974  0.0597  1.9541  3.3269
 6516SOL    HW231011   2.152   0.300  10.973  0.6551  1.0760 -0.0283
 6517SOL     OW31012   4.614   3.472   4.168 -0.7480  0.3393  0.1148
 6517SOL    HW131013   4.531   3.494   4.126 -0.4802 -3.6407 -2.4530
 6517SOL    HW231014   4.647   3.561   4.182 -0.6290  0.1559  1.0227
 6518SOL     OW31015   3.565   0.825   5.863  0.7451  0.1998  0.1334
 6518SOL    HW131016   3.562   0.861   5.952 -0.7102  1.2080 -0.3280
 6518SOL    HW231017   3.527   0.738   5.871  0.4590  0.3294  0.1861
 6519SOL     OW31018   3.629   1.774   6.335  0.0639 -0.4559  0.3115
 6519SOL    HW131019   3.701   1.831   6.359  0.8381 -2.1933  2.1007
 6519SOL    HW231020   3.666   1.711   6.273  0.3148  0.3408 -0.3475
 6520SOL     OW31021   1.385   0.105   4.785 -0.6723 -0.3106 -0.1627
 6520SOL    HW131022   1.298   0.110   4.825 -1.0561 -3.5626 -0.6378
 6520SOL    HW231023   1.435   0.086   4.865  0.2138  1.0077 -0.4030
 6521SOL     OW31024   0.973   2.377   5.442 -0.2048 -0.8921  0.5040
 6521SOL    HW131025   0.879   2.394   5.442  0.1389  0.9710  2.1768
 6521SOL    HW231026   0.964   2.291   5.402  0.4003 -1.5466  1.7950
 6522SOL     OW31027   4.505   1.807   7.696 -0.4829 -0.4109  0.2598
 6522SOL    HW131028   4.414   1.795   7.720 -1.0534  1.2407 -1.0260
 6522SOL    HW231029   4.509   1.754   7.616  2.0431  0.3288 -0.1131
 6523SOL     OW31030   3.884   3.670  10.932  0.5094 -0.4510 -0.3466
 6523SOL    HW131031   3.866   3.735  10.863  2.7995  0.1249 -0.3917
 6523SOL    HW231032   3.800   3.630  10.955  1.7970 -1.6870  2.1063
 6524SOL     OW31033   0.546   0.917   8.687 -0.3126  0.3945 -0.4139
 6524SOL    HW131034   0.554   0.954   8.599 -0.7310 -1.6686 -1.3077
 6524SOL    HW231035   0.628   0.868   8.692 -1.8886 -1.9938  2.0317
 6525SOL     OW31036   3.878   3.905   3.483  0.2959 -0.1413 -0.0438
 6525SOL    HW131037   3.966   3.867   3.477  0.5497  0.2036  1.4840
 6525SOL    HW231038   3.890   3.992   3.445 -1.7296  0.2999  0.3431
 6526SOL     OW31039   1.658   3.604  11.530 -0.0821 -0.3724  0.0227
 6526SOL    HW131040   1.639   3.629  11.620  0.0330  0.9618 -0.3289
 6526SOL    HW231041   1.657   3.687  11.483  1.2209 -0.1235  0.4277
 6527SOL     OW31042   1.975   3.116   4.673 -0.2489  0.5126 -0.0162
 6527SOL    HW131043   2.070   3.125   4.665 -0.0105 -2.6582 -0.9560
 6527SOL    HW231044   1.965   3.044   4.736  2.2074 -1.9692 -2.4194
 6528SOL     OW31045   1.798   4.435   0.290 -0.1058 -0.0344 -0.0062
 6528SOL    HW131046   1.823   4.516   0.334  1.2283 -1.1822  1.3646
 6528SOL    HW231047   1.704   4.440   0.276 -0.2350  1.0927  1.2860
 6529SOL     OW31048   3.073   4.016   6.747 -0.5924  0.0474  0.2483
 6529SOL    HW131049   3.140   4.063   6.796  0.8037  0.5512 -2.1281
 6529SOL    HW231050   3.072   4.064   6.664 -1.9583 -0.0920  0.1944
 6530SOL     OW31051   0.963   4.492   8.042 -0.1347 -0.1119 -0.5905
 6530SOL    HW131052   1.009   4.506   7.959  3.0780 -1.9378  0.8698
 6530SOL    HW231053   0.875   4.474   8.011 -0.9526  2.2091  0.3839
 6531SOL     OW31054   4.299   0.694   7.698  0.2179 -0.3813 -0.4532
 6531SOL    HW131055   4.257   0.622   7.650 -3.3921  0.4529  1.4816
 6531SOL    HW231056   4.291   0.772   7.644 -0.6513 -0.8639 -1.0333
 6532SOL     OW31057   0.622   2.017   4.999  0.0291 -0.6368 -0.0708
 6532SOL    HW131058   0.614   2.031   5.093 -0.9715 -0.9372 -0.1030
 6532SOL    HW231059   0.653   1.926   4.997  0.9294 -0.3687  1.5457
 6533SOL     OW31060   1.115   2.857   8.604  0.3941 -0.2470  0.5389
 6533SOL    HW131061   1.129   2.806   8.684 -2.3425 -1.8702 -0.0033
 6533SOL    HW231062   1.043   2.803   8.569  0.8476 -1.6173  1.7133
 6534SOL     OW31063   0.881   1.510   5.197 -0.1861 -0.3263 -0.6961
 6534SOL    HW131064   0.793   1.483   5.225  0.1211 -1.8789 -1.2463
 6534SOL    HW231065   0.931   1.430   5.211  1.2132  0.6159 -0.3645
 6535SOL     OW31066   2.442   0.755   0.023 -0.3547  0.0686 -0.2395
 6535SOL    HW131067   2.398   0.840   0.023  1.5304  1.0368  0.9706
 6535SOL    HW231068   2.379   0.695   0.064  1.1664 -0.1274  1.7906
 6536SOL     OW31069   3.982   1.273   4.900  0.7219 -0.1136 -0.5307
 6536SOL    HW131070   3.922   1.257   4.827  1.2900 -2.2354 -0.5429
 6536SOL    HW231071   4.038   1.196   4.892 -0.5097 -1.0574 -0.0804
 6537SOL     OW31072   0.786   3.873  10.377 -0.0436  0.0539  0.4139
 6537SOL    HW131073   0.807   3.855  10.469  1.1370  2.3915  0.5785
 6537SOL    HW231074   0.691   3.864  10.368 -0.2356  3.8249 -1.0714
 6538SOL     OW31075   2.752   3.786  13.071  0.2667 -0.3086 -0.1321
 6538SOL    HW131076   2.813   3.846  13.029 -0.8307  0.4794 -0.6009
 6538SOL    HW231077   2.667   3.817  13.038  1.1783  1.5509 -0.7209
 6539SOL     OW31078   0.094   1.546   8.926  0.4785  0.0556 -0.1589
 6539SOL    HW131079   0.026   1.561   8.860 -0.4980  0.4238  0.9395
 6539SOL    HW231080   0.039   1.536   9.004 -0.4943 -0.7652 -0.9442
 6540SOL     OW31081   0.916   0.470   2.320  0.0316  0.4687  0.7481
 6540SOL    HW131082   0.991   0.412   2.331 -0.7600 -1.0250 -1.8549
 6540SOL    HW231083   0.942   0.502   2.233 -1.3671 -0.5467 -0.0332
 6541SOL     OW31084   0.617   3.861   6.627 -0.3448 -0.0650  0.1571
 6541SOL    HW131085   0.625   3.855   6.722  0.7400  1.4422  0.1600
 6541SOL    HW231086   0.696   3.906   6.596  0.4087 -0.7088  1.1373
 6542SOL     OW31087   3.431   3.327   6.007  0.2005  0.8180 -0.2805
 6542SOL    HW131088   3.343   3.363   6.004 -0.2744 -0.5039 -2.4007
 6542SOL    HW231089   3.426   3.243   6.054  0.2557  0.4747 -0.8901
 6543SOL     OW31090   1.132   3.053  10.977  0.1738  0.8981 -0.6470
 6543SOL    HW131091   1.072   3.122  11.007  0.6047  0.4887  1.1298
 6543SOL    HW231092   1.101   3.059  10.886 -0.6119  1.5931 -0.3309
 6544SOL     OW31093   3.725   0.820   3.286 -0.6239  0.0955  0.2773
 6544SOL    HW131094   3.675   0.894   3.252 -0.1664  0.3874  0.2350
 6544SOL    HW231095   3.696   0.804   3.375 -2.2615 -1.6636 -0.5560
 6545SOL     OW31096   2.071   1.587   4.450  0.1809 -0.2253 -0.5132
 6545SOL    HW131097   2.100   1.601   4.359  1.7815  1.4316  0.2528
 6545SOL    HW231098   1.995   1.644   4.450  1.0193  0.8905 -0.8088
 6546SOL     OW31099   2.209   0.406   2.817  0.0947  0.7331 -0.2092
 6546SOL    HW131100   2.197   0.397   2.722 -1.0491  1.6144 -0.1452
 6546SOL    HW231101   2.134   0.349   2.837 -0.6868  1.4521 -1.0562
 6547SOL     OW31102   4.584   4.047  11.419 -0.0980 -0.2720 -0.1583
 6547SOL    HW131103   4.502   4.002  11.439  0.3921 -0.2151  1.9822
 6547SOL    HW231104   4.586   4.113  11.488  4.2190 -1.3643  0.8060
 6548SOL     OW31105   0.002   1.418   7.114  0.5994 -0.0029  0.0994
 6548SOL    HW131106   4.639   1.420   7.158  0.0671 -0.2109 -0.9071
 6548SOL    HW231107   0.026   1.511   7.108  0.7826 -0.1982 -2.3679
 6549SOL     OW31108   2.803   1.890   4.294  0.0485 -0.0240  0.0177
 6549SOL    HW131109   2.755   1.808   4.304 -2.9040  1.8198  0.7711
 6549SOL    HW231110   2.739   1.960   4.298  1.2997  1.0584  1.1174
 6550SOL     OW31111   3.909   1.157   8.749  0.6163  0.3133 -0.1549
 6550SOL    HW131112   4.004   1.170   8.751  0.7408 -0.4338 -1.2742
 6550SOL    HW231113   3.873   1.244   8.765  1.2116  0.5688 -0.1973
 6551SOL     OW31114   2.665   2.574   7.426  0.2144 -0.5224  0.3302
 6551SOL    HW131115   2.717   2.653   7.411 -0.6694 -0.0469 -0.2334
 6551SOL    HW231116   2.660   2.536   7.338  1.4958  0.8501 -0.3489
 6552SOL     OW31117   0.625   2.600   2.914  0.5136 -0.1186  0.9380
 6552SOL    HW131118   0.686   2.664   2.949 -0.6621 -0.1984  3.1389
 6552SOL    HW231119   0.558   2.584   2.981 -0.3952  1.4672  0.4059
 6553SOL     OW31120   4.585   1.179  14.501  0.1935  0.5012 -0.0844
 6553SOL    HW131121   4.591   1.204  14.593  1.1860 -0.7257  0.1851
 6553SOL    HW231122   4.670   1.203  14.463  1.0319  0.5428  1.8344
 6554SOL     OW31123   2.147   0.843   8.820 -0.3801  0.3909  0.0144
 6554SOL    HW131124   2.059   0.880   8.816 -0.4826  0.1009 -0.4120
 6554SOL    HW231125   2.134   0.749   8.831  1.5805 -0.0079 -1.0990
 6555SOL     OW31126   0.229   4.576   4.736 -0.0217 -0.6642  0.1769
 6555SOL    HW131127   0.256   4.580   4.827  0.2243 -0.1565  0.0821
 6555SOL    HW231128   0.314   4.598   4.697 -0.5099  0.8889 -0.0236
 6556SOL     OW31129   3.570   0.673   2.790  0.5101 -0.1384  0.4672
 6556SOL    HW131130   3.497   0.668   2.728 -0.5279 -0.5537  1.7460
 6556SOL    HW231131   3.518   0.643   2.865 -1.0364  0.8632 -0.1991
 6557SOL     OW31132   0.605   4.503   1.876  0.3341  0.2897 -0.0837
 6557SOL    HW131133   0.632   4.414   1.899 -2.4277 -1.0929 -2.1154
 6557SOL    HW231134   0.568   4.528   1.960  0.7031 -0.1099  0.1946
 6558SOL     OW31135   3.879   0.284  15.779 -0.1233 -0.4186 -0.2802
 6558SOL    HW131136   3.847   0.367  15.744  0.1198 -0.3160 -0.2607
 6558SOL    HW231137   3.800   0.236  15.804  1.1903 -1.6238  1.5705
 6559SOL     OW31138   1.509   0.171   6.552  0.1553 -0.5934  0.0570
 6559SOL    HW131139   1.450   0.099   6.532  2.0098 -2.1006  0.0549
 6559SOL    HW231140   1.448   0.244   6.536 -0.8135 -1.4797 -0.2990
 6560SOL     OW31141   0.261   1.953  17.190  0.3139  0.2173  0.2527
 6560SOL    HW131142   0.277   1.975  17.282 -0.7358  0.9723  0.2463
 6560SOL    HW231143   0.256   2.034  17.141  0.2486  1.5942  2.5194
 6561SOL     OW31144   3.013   1.026   9.819  0.4468 -0.0041 -0.0607
 6561SOL    HW131145   3.067   0.958   9.860 -2.9540 -3.1012 -0.6637
 6561SOL    HW231146   3.019   1.108   9.867 -4.4708  0.0797  0.4403
 6562SOL     OW31147   4.558   3.913  16.256  0.0053 -0.0669 -0.1726
 6562SOL    HW131148   4.496   3.842  16.238  0.2123 -0.5439  1.0074
 6562SOL    HW231149   4.632   3.871  16.300 -0.8428 -0.5255  0.8090
 6563SOL     OW31150   1.620   0.019   3.425  0.3613 -0.0255  0.3729
 6563SOL    HW131151   1.648   0.025   3.333 -0.5610  2.1508  0.2296
 6563SOL    HW231152   1.545   4.684   3.406  0.8652 -0.4331 -0.4102
 6564SOL     OW31153   0.089   3.326   4.344  0.1119  0.6153  0.4224
 6564SOL    HW131154   0.020   3.368   4.292 -1.9972 -1.7168  1.3614
 6564SOL    HW231155   0.138   3.398   4.384  0.4242 -0.0724  1.2564
 6565SOL     OW31156   2.108   2.797   5.455 -0.2602  0.5242 -0.5178
 6565SOL    HW131157   2.078   2.716   5.414  1.2364  0.1487 -0.8535
 6565SOL    HW231158   2.024   2.824   5.493 -0.1663  1.0020 -0.6538
 6566SOL     OW31159   3.840   1.958   8.811  0.4863 -0.1614 -0.1996
 6566SOL    HW131160   3.783   1.987   8.739  0.1994  0.4441  0.2677
 6566SOL    HW231161   3.829   2.032   8.871 -0.8885 -1.5328  1.2386
 6567SOL     OW31162   2.092   4.600   6.450 -0.1116  0.0309 -0.1829
 6567SOL    HW131163   2.142   4.681   6.445  0.3925 -0.0789  2.6897
 6567SOL    HW231164   2.130   4.541   6.384 -2.4952 -1.6952 -0.0154
 6568SOL     OW31165   1.842   0.061   2.280 -0.2637 -0.0827  0.2669
 6568SOL    HW131166   1.884   4.714   2.333  0.4738  1.1504  1.2608
 6568SOL    HW231167   1.832   0.130   2.346 -0.7523  0.0051  0.1037
 6569SOL     OW31168   0.775   0.238   9.380  0.2894  0.2784 -0.5919
 6569SOL    HW131169   0.856   0.198   9.412  0.5388  0.0886 -1.4677
 6569SOL    HW231170   0.809   0.277   9.299 -0.4866  0.8358 -0.6438
 6570SOL     OW31171   2.328   1.278   5.641  0.8068 -0.1185  0.2137
 6570SOL    HW131172   2.326   1.349   5.706 -1.0580  0.1720 -0.1766
 6570SOL    HW231173   2.268   1.213   5.676  0.1808  0.1582 -0.3257
 6571SOL     OW31174   2.978   2.645   7.196  0.0650 -0.2784 -0.3947
 6571SOL    HW131175   3.032   2.681   7.125 -1.1242  0.1600 -1.0815
 6571SOL    HW231176   2.958   2.717   7.255  0.2752 -0.1369 -0.4953
 6572SOL     OW31177   0.694   1.412   2.128 -0.0053  0.6495 -0.2760
 6572SOL    HW131178   0.770   1.381   2.080  0.4941 -1.0413  1.6006
 6572SOL    HW231179   0.729   1.485   2.178 -3.1135  2.9467 -1.4568
 6573SOL     OW31180   1.823   1.936   4.629  0.3072 -0.5088  0.6337
 6573SOL    HW131181   1.878   1.935   4.550  0.2148  0.0709  0.5594
 6573SOL    HW231182   1.842   2.018   4.675  1.6133  0.4082 -1.5288
 6574SOL     OW31183   0.835   2.746   6.258 -0.5160 -0.2233  0.0470
 6574SOL    HW131184   0.862   2.833   6.228 -0.9274 -0.8321 -2.0636
 6574SOL    HW231185   0.886   2.689   6.201 -1.1496  1.5557 -2.3144
 6575SOL     OW31186   1.436   4.288  16.020 -0.0975  0.0344  0.2587
 6575SOL    HW131187   1.482   4.331  16.092  0.7286  0.2095 -0.3750
 6575SOL    HW231188   1.348   4.327  16.015  1.1205  2.5913 -1.4711
 6576SOL     OW31189   4.675   3.741   7.592 -0.1245 -0.0754  0.2798
 6576SOL    HW131190   4.593   3.765   7.637 -0.5583 -2.0379  0.5656
 6576SOL    HW231191   4.665   3.784   7.507 -0.8381 -2.3111 -0.7706
 6577SOL     OW31192   0.338   4.394  16.426  0.6313 -0.1841  0.0167
 6577SOL    HW131193   0.393   4.466  16.394 -0.9968  1.4068  0.7988
 6577SOL    HW231194   0.313   4.351  16.344  0.3136  1.5738 -0.8045
 6578SOL     OW31195   3.446   0.190   5.740  0.4286  0.3008 -0.2370
 6578SOL    HW131196   3.481   0.244   5.669  0.7919  1.1472  0.5905
 6578SOL    HW231197   3.391   0.257   5.779  1.1322 -0.0655  1.4256
 6579SOL     OW31198   3.887   3.387   1.605 -0.2634 -0.2242  0.1681
 6579SOL    HW131199   3.815   3.334   1.637  0.2513 -0.6220  0.6754
 6579SOL    HW231200   3.897   3.439   1.685  0.2383  1.4023 -0.9400
 6580SOL     OW31201   0.180   0.100   6.092 -0.3234  0.0899 -0.4146
 6580SOL    HW131202   0.236   0.177   6.091 -2.3469  1.5318 -2.3718
 6580SOL    HW231203   0.220   0.062   6.170  0.8139  0.5001 -0.7997
 6581SOL     OW31204   0.734   1.461  13.782 -0.1673 -0.2670 -0.0471
 6581SOL    HW131205   0.718   1.555  13.768 -3.4812 -0.8220  0.0419
 6581SOL    HW231206   0.668   1.427  13.722  1.4673  1.8914 -3.0592
 6582SOL     OW31207   4.679   2.197  17.270 -0.4726 -0.2255 -0.3149
 6582SOL    HW131208   0.005   2.266  17.316 -1.7901 -0.2535  1.0436
 6582SOL    HW231209   4.695   2.225  17.180  3.9147  0.7510  0.7635
 6583SOL     OW31210   1.783   2.082   2.452  0.1435 -0.4569  0.1102
 6583SOL    HW131211   1.730   2.154   2.418 -0.0661  0.1802  1.7771
 6583SOL    HW231212   1.864   2.128   2.474  0.7119 -1.7107  0.6182
 6584SOL     OW31213   1.024   3.073  12.904  0.2526 -0.1285 -0.0665
 6584SOL    HW131214   0.996   3.158  12.868 -0.5217  0.6824  2.3787
 6584SOL    HW231215   1.091   3.101  12.967 -1.9258  0.8926  1.8285
 6585SOL     OW31216   3.070   0.346   0.411  0.5298  0.4343  0.3723
 6585SOL    HW131217   3.005   0.283   0.441  0.3564  1.2408  1.6578
 6585SOL    HW231218   3.022   0.369   0.331 -0.7632  0.7662  1.2531
 6586SOL     OW31219   2.302   3.945   2.469  0.4557  0.4226 -0.2984
 6586SOL    HW131220   2.374   3.882   2.468  0.7393  0.7582 -1.0414
 6586SOL    HW231221   2.250   3.897   2.405 -0.3169 -1.2723  1.5840
 6587SOL     OW31222   4.660   1.539   6.286 -0.0945 -0.6498 -0.5476
 6587SOL    HW131223   4.622   1.608   6.340 -0.3708 -1.4955  0.3507
 6587SOL    HW231224   4.585   1.491   6.251 -2.0216 -0.4482  3.2506
 6588SOL     OW31225   3.387   3.284   4.682  0.0895 -0.5987  0.8376
 6588SOL    HW131226   3.336   3.356   4.647 -0.0869  0.4115  3.1437
 6588SOL    HW231227   3.469   3.287   4.632 -1.1344 -0.5627 -1.1603
 6589SOL     OW31228   1.354   3.893   5.626 -0.1006  0.5764 -0.5339
 6589SOL    HW131229   1.429   3.942   5.660  0.0193  0.9228 -1.2949
 6589SOL    HW231230   1.392   3.824   5.573  0.2989 -1.4458  2.4060
 6590SOL     OW31231   0.212   0.966  16.534 -0.2827  0.1363 -0.2376
 6590SOL    HW131232   0.188   0.999  16.447  2.8003  0.4478 -0.9772
 6590SOL    HW231233   0.134   0.917  16.560 -1.5938  0.8363 -2.8716
 6591SOL     OW31234   2.541   1.131   5.261  0.0664 -0.0126  0.6460
 6591SOL    HW131235   2.631   1.156   5.284 -1.1667  1.9312  3.4099
 6591SOL    HW231236   2.510   1.138   5.351 -0.2987 -0.3384  0.5443
 6592SOL     OW31237   2.244   3.403   2.048 -0.3380  0.2350 -0.3059
 6592SOL    HW131238   2.256   3.402   2.143  1.5468 -1.3908 -0.5635
 6592SOL    HW231239   2.189   3.480   2.035 -0.1425  0.4153 -0.0657
 6593SOL     OW31240   2.794   4.110   4.574 -0.1397 -0.4086 -0.4154
 6593SOL    HW131241   2.774   4.178   4.638  2.3564  0.5013 -0.5827
 6593SOL    HW231242   2.726   4.045   4.590 -0.6513 -0.0668 -1.2190
 6594SOL     OW31243   0.042   3.547   2.907  0.1716 -0.4548  0.8790
 6594SOL    HW131244   0.051   3.641   2.922 -0.8361 -0.3066  0.5417
 6594SOL    HW231245   0.130   3.513   2.891  0.4502 -0.2877  2.0283
 6595SOL     OW31246   3.567   4.403   6.344 -0.0659 -0.7423 -0.0668
 6595SOL    HW131247   3.571   4.415   6.439 -1.0334  1.2852 -0.2898
 6595SOL    HW231248   3.634   4.458   6.303  0.2736 -0.4684  0.8553
 6596SOL     OW31249   2.450   0.776  11.582  0.0163 -0.2523 -0.3007
 6596SOL    HW131250   2.497   0.707  11.630  1.4534  0.4563 -0.6837
 6596SOL    HW231251   2.415   0.841  11.643  1.1118 -2.1712  2.3780
 6597SOL     OW31252   3.232   2.261   4.620 -0.1498 -0.0938  0.6604
 6597SOL    HW131253   3.255   2.295   4.707 -1.8291  0.9208  0.7106
 6597SOL    HW231254   3.278   2.322   4.563  1.6951 -2.0657  0.0284
 6598SOL     OW31255   2.232   3.397   5.563 -0.5758  0.4993 -0.2064
 6598SOL    HW131256   2.305   3.443   5.523 -0.7351  1.1881  0.2923
 6598SOL    HW231257   2.160   3.437   5.514 -2.1808 -0.9201  0.9904
 6599SOL     OW31258   0.665   0.874   0.971  0.0150 -0.3994 -0.6176
 6599SOL    HW131259   0.624   0.957   0.950 -1.3843 -0.8918  0.1306
 6599SOL    HW231260   0.757   0.901   0.975  0.3016 -1.5749  0.8831
 6600SOL     OW31261   0.422   0.023   7.221 -0.2278 -0.3962  0.1491
 6600SOL    HW131262   0.415   4.680   7.150 -0.3927 -0.5633  0.3202
 6600SOL    HW231263   0.515   0.043   7.214 -0.0874 -0.7512  1.1108
 6601SOL     OW31264   3.428   4.593   7.932  0.5905 -0.1485  0.7444
 6601SOL    HW131265   3.358   4.558   7.877  0.6949 -2.4824  2.1089
 6601SOL    HW231266   3.486   4.517   7.938  3.9793  2.3180 -0.7195
 6602SOL     OW31267   2.254   4.229   4.215  0.1617  1.1387  0.5388
 6602SOL    HW131268   2.312   4.178   4.272 -0.4793 -0.5907 -0.3829
 6602SOL    HW231269   2.170   4.185   4.205  1.7910 -1.0380 -3.2652
 6603SOL     OW31270   0.671   3.916   7.540 -0.0417 -0.1286  0.3946
 6603SOL    HW131271   0.678   3.912   7.445 -0.7001 -1.6617  0.4102
 6603SOL    HW231272   0.763   3.917   7.567  0.1768 -1.5664 -0.2928
 6604SOL     OW31273   2.007   4.119   9.541  0.2761  0.3934 -0.6855
 6604SOL    HW131274   1.990   4.173   9.464  1.3083  0.5633 -0.7977
 6604SOL    HW231275   2.094   4.144   9.572 -1.0879 -0.2036  3.7105
 6605SOL     OW31276   3.273   1.490   8.187  0.1663 -0.5277  0.2403
 6605SOL    HW131277   3.242   1.427   8.252  0.2483 -1.3993 -0.5670
 6605SOL    HW231278   3.253   1.578   8.220  1.0097 -0.0424 -0.5380
 6606SOL     OW31279   0.635   2.972   7.994  0.3549 -0.0492 -0.0639
 6606SOL    HW131280   0.713   3.000   7.945  0.5516  0.0464  0.3088
 6606SOL    HW231281   0.631   3.045   8.055 -3.7497 -2.2267  2.2385
 6607SOL     OW31282   1.823   2.994   3.885 -0.0437 -0.1973 -0.6188
 6607SOL    HW131283   1.791   2.922   3.832 -3.0124  2.0032 -1.7894
 6607SOL    HW231284   1.785   3.074   3.850  2.0969  0.7482 -0.7908
 6608SOL     OW31285   0.575   3.918  17.320 -0.7142  0.1110 -0.2038
 6608SOL    HW131286   0.513   3.856  17.280 -0.3390 -0.4186  0.0467
 6608SOL    HW231287   0.587   3.978  17.246  2.4393  1.9769  1.8660
 6609SOL     OW31288   4.372   4.426   5.891  0.0805  0.2713 -0.3047
 6609SOL    HW131289   4.429   4.467   5.826  0.3893  1.1098  0.5007
 6609SOL    HW231290   4.377   4.334   5.866 -1.4543  1.0216 -3.3778
 6610SOL     OW31291   1.601   3.578   4.638 -0.2643  0.2798  1.1827
 6610SOL    HW131292   1.686   3.596   4.600 -0.7044 -0.0272  0.0619
 6610SOL    HW231293   1.591   3.483   4.638  0.1435  0.2241  2.9865
 6611SOL     OW31294   2.643   1.489  13.291  0.2947 -0.0352 -0.7760
 6611SOL    HW131295   2.663   1.456  13.379 -0.7072 -1.2336 -0.9944
 6611SOL    HW231296   2.733   1.503  13.264  0.6443 -0.3376  0.2184
 6612SOL     OW31297   0.686   0.263   3.272  0.1907  0.4079 -0.2152
 6612SOL    HW131298   0.688   0.278   3.177 -1.0604 -0.3881 -0.3588
 6612SOL    HW231299   0.780   0.268   3.290 -0.1777  0.2719  1.7318
 6613SOL     OW31300   2.192   3.482  16.941  0.1472 -0.2051 -0.0574
 6613SOL    HW131301   2.146   3.523  17.014  1.2969  1.7195 -0.4313
 6613SOL    HW231302   2.275   3.465  16.985 -0.7288 -0.6091  1.4223
 6614SOL     OW31303   0.634   0.300   8.678  0.3722 -0.7333  0.1001
 6614SOL    HW131304   0.580   0.334   8.607  2.0987  1.9598  0.0924
 6614SOL    HW231305   0.695   0.372   8.688  0.1754 -0.3980 -1.1835
 6615SOL     OW31306   1.217   0.175  11.405  0.5352 -0.6559 -0.1290
 6615SOL    HW131307   1.207   0.176  11.500  1.0509 -1.9872 -0.0665
 6615SOL    HW231308   1.126   0.193  11.382  1.3548  3.5501 -0.1680
 6616SOL     OW31309   1.049   3.839   8.501  0.2575  0.0062 -0.2086
 6616SOL    HW131310   1.086   3.754   8.476  0.4366 -0.2963  1.0599
 6616SOL    HW231311   1.095   3.905   8.448 -0.9526  0.9089 -0.1316
 6617SOL     OW31312   2.768   0.675   7.091  0.4523  0.1659  0.3646
 6617SOL    HW131313   2.759   0.657   7.185  0.2348 -0.2110  0.2700
 6617SOL    HW231314   2.745   0.589   7.056 -0.3243 -0.3366  2.0798
 6618SOL     OW31315   2.010   4.066   6.724 -0.3399  0.1068  0.5199
 6618SOL    HW131316   2.084   4.063   6.664 -2.1565  0.4586 -1.7441
 6618SOL    HW231317   2.039   4.020   6.802 -1.1075 -0.8463  0.2427
 6619SOL     OW31318   3.740   4.069  12.047  0.2026 -0.4146  0.0067
 6619SOL    HW131319   3.714   4.069  11.955 -0.4612 -1.2750  0.1915
 6619SOL    HW231320   3.803   3.997  12.045  0.1031 -0.4645 -1.1592
 6620SOL     OW31321   4.526   3.070   7.941 -0.4174  0.1023  0.0145
 6620SOL    HW131322   4.437   3.045   7.915 -1.8459  1.9643  3.1437
 6620SOL    HW231323   4.584   3.018   7.886 -1.5057 -0.3617 -0.7007
 6621SOL     OW31324   0.173   0.143   0.859  0.6301 -0.3761 -0.6255
 6621SOL    HW131325   0.193   0.053   0.883 -0.2842 -0.8172 -1.5154
 6621SOL    HW231326   0.112   0.161   0.931  2.1068 -0.5462  0.6728
 6622SOL     OW31327   1.001   4.073  14.961 -0.3045  0.9706  0.0029
 6622SOL    HW131328   1.012   4.026  15.043 -0.5881 -0.0342 -0.5385
 6622SOL    HW231329   1.091   4.102  14.943 -0.4558  0.9913 -0.7233
 6623SOL     OW31330   3.129   4.068   1.307  0.1863  0.6693 -0.4448
 6623SOL    HW131331   3.182   4.145   1.289  0.2850  1.1115  1.7121
 6623SOL    HW231332   3.141   4.044   1.399  0.1179 -3.1156 -1.4070
 6624SOL     OW31333   0.942   4.524   3.530 -0.1822  0.1782  0.0101
 6624SOL    HW131334   1.035   4.540   3.547 -0.1631 -1.6922  1.6413
 6624SOL    HW231335   0.944   4.442   3.480  2.9527  1.7036 -2.3493
 6625SOL     OW31336   2.459   0.416   2.973 -0.6865 -0.2931 -0.7020
 6625SOL    HW131337   2.394   0.426   2.903 -0.8107 -1.4287 -0.7369
 6625SOL    HW231338   2.533   0.370   2.934  0.2327  1.6737 -1.3174
 6626SOL     OW31339   3.026   2.565  16.438 -0.3926 -0.1122 -0.3302
 6626SOL    HW131340   3.073   2.494  16.481 -1.5951  0.8791  2.5851
 6626SOL    HW231341   3.027   2.539  16.345 -3.4381 -0.3089 -0.3132
 6627SOL     OW31342   3.411   1.770  10.092  0.1762 -0.1509  0.3728
 6627SOL    HW131343   3.439   1.759  10.183  1.4941  0.2688  0.0109
 6627SOL    HW231344   3.348   1.842  10.091 -0.2627 -0.5566 -1.2326
 6628SOL     OW31345   3.263   4.386   5.299 -0.2155 -0.3277 -0.4381
 6628SOL    HW131346   3.339   4.406   5.354 -0.4565  0.0970 -0.2639
 6628SOL    HW231347   3.292   4.319   5.237 -1.3779 -1.1099 -0.1293
 6629SOL     OW31348   2.454   1.199   8.075 -0.5242  0.7003  0.2029
 6629SOL    HW131349   2.377   1.151   8.103 -0.4858 -0.7444 -2.1975
 6629SOL    HW231350   2.410   1.281   8.051  1.2209  1.6516  0.2234
 6630SOL     OW31351   0.690   2.849   8.875  0.0519  0.0634 -0.5377
 6630SOL    HW131352   0.728   2.932   8.902 -1.4508  0.1338  1.3464
 6630SOL    HW231353   0.675   2.861   8.781  0.6923 -0.8704 -0.7555
 6631SOL     OW31354   2.490   1.034  11.645 -0.6452  0.4006 -0.1461
 6631SOL    HW131355   2.555   1.087  11.599  0.7372 -1.8696 -0.7885
 6631SOL    HW231356   2.413   1.053  11.592 -0.2692  3.2339  0.3067
 6632SOL     OW31357   1.809   4.184  14.188  0.1192  0.6909  0.4129
 6632SOL    HW131358   1.804   4.276  14.166 -0.4877  0.5566 -0.0020
 6632SOL    HW231359   1.731   4.144  14.148 -0.4324  2.0139  0.1917
 6633SOL     OW31360   2.971   3.714  12.763  0.1552 -0.4133 -0.6878
 6633SOL    HW131361   3.002   3.795  12.803  0.8868 -0.4107 -1.2865
 6633SOL    HW231362   2.889   3.754  12.733  0.8360 -1.7664 -4.2848
 6634SOL     OW31363   0.646   1.742  13.768  0.3253  0.6950  0.1919
 6634SOL    HW131364   0.606   1.704  13.846  0.9947 -0.3284  0.0396
 6634SOL    HW231365   0.583   1.805  13.735 -1.3168 -1.2430 -0.3787
 6635SOL     OW31366   2.734   2.298   7.332  0.3956 -0.9890 -0.9216
 6635SOL    HW131367   2.739   2.216   7.380 -0.9434 -0.1723  0.6153
 6635SOL    HW231368   2.660   2.338   7.378  0.1423 -2.8755  0.3145
 6636SOL     OW31369   1.702   1.684   7.215  0.2040 -0.6979  0.6798
 6636SOL    HW131370   1.693   1.591   7.194 -1.4518  0.1960 -2.5065
 6636SOL    HW231371   1.612   1.705   7.189 -0.2294 -2.2758  0.8762
 6637SOL     OW31372   2.011   2.581   1.739  0.0436 -0.3980 -0.4715
 6637SOL    HW131373   2.075   2.603   1.807 -0.8116 -1.6671  0.7472
 6637SOL    HW231374   1.963   2.513   1.786  2.4689 -1.1280  0.9836
 6638SOL     OW31375   4.698   4.532   4.664  0.3556  0.3376  0.2334
 6638SOL    HW131376   0.062   4.549   4.703  0.4841  1.7692 -0.6443
 6638SOL    HW231377   4.643   4.526   4.742 -0.4043 -1.2618 -0.4184
 6639SOL     OW31378   1.438   1.518   5.564 -0.8717 -0.0312  0.2743
 6639SOL    HW131379   1.351   1.515   5.524 -1.4173  0.4292  1.4236
 6639SOL    HW231380   1.424   1.510   5.659  1.8315 -0.1663  0.6592
 6640SOL     OW31381   0.579   4.503  16.912  0.3555  0.9829  0.2162
 6640SOL    HW131382   0.672   4.505  16.933  0.4349 -0.1249 -0.0341
 6640SOL    HW231383   0.589   4.490  16.818  4.2912  2.3132  0.4426
 6641SOL     OW31384   4.571   0.060   9.439  0.5372 -0.0089  0.5804
 6641SOL    HW131385   4.590   0.119   9.366  2.6548  0.1206  1.2360
 6641SOL    HW231386   4.531   4.705   9.397  0.5225 -0.0429  0.6568
 6642SOL     OW31387   1.874   3.922   2.604  0.4469  0.3896  0.2828
 6642SOL    HW131388   1.959   3.901   2.641 -0.0070  0.0048  1.1131
 6642SOL    HW231389   1.857   3.841   2.554 -3.4374  0.4309  1.5203
 6643SOL     OW31390   4.418   2.475   8.813  0.3606  0.1463  0.1721
 6643SOL    HW131391   4.422   2.499   8.721  2.0113  1.0250  0.4731
 6643SOL    HW231392   4.488   2.534   8.842  1.0905 -0.5836 -0.1344
 6644SOL     OW31393   2.881   3.608  16.921 -0.1536 -0.3031 -0.0689
 6644SOL    HW131394   2.905   3.517  16.908  0.5742 -0.0977 -0.1394
 6644SOL    HW231395   2.873   3.636  16.830  2.0691 -1.5059 -0.6139
 6645SOL     OW31396   3.331   3.549  15.364 -0.6666  0.1905 -0.7612
 6645SOL    HW131397   3.380   3.617  15.411 -0.5665 -0.8316  0.6093
 6645SOL    HW231398   3.259   3.600  15.328  2.0565  3.4373 -1.6182
 6646SOL     OW31399   3.379   0.600   4.954  0.2250  0.2058  0.2105
 6646SOL    HW131400   3.421   0.514   4.948 -1.6709 -0.6846 -0.3998
 6646SOL    HW231401   3.377   0.633   4.864  0.4237  0.9730  0.4823
 6647SOL     OW31402   2.895   4.104  14.515 -0.3636 -0.0604  0.5192
 6647SOL    HW131403   2.965   4.064  14.566 -0.5196 -0.3569  0.4974
 6647SOL    HW231404   2.820   4.106  14.575  0.7370  1.9134  1.8467
 6648SOL     OW31405   0.769   4.351  10.745 -0.5846 -0.5971 -0.1539
 6648SOL    HW131406   0.754   4.370  10.653 -0.9939  0.2588  0.0881
 6648SOL    HW231407   0.774   4.256  10.742  0.5813 -0.6281  2.4939
 6649SOL     OW31408   0.278   3.284   3.179 -0.0220  0.0748  0.2122
 6649SOL    HW131409   0.272   3.340   3.256  0.6194 -0.4481  0.6336
 6649SOL    HW231410   0.301   3.202   3.222  0.6779  0.8361  1.2877
 6650SOL     OW31411   3.811   1.593   7.435  0.2876 -0.0874 -0.4515
 6650SOL    HW131412   3.717   1.598   7.420  0.2583  0.8607  0.0859
 6650SOL    HW231413   3.812   1.527   7.505 -1.8842 -2.1174 -2.3473
 6651SOL     OW31414   0.055   1.015   4.420  0.5157  0.3880  0.3506
 6651SOL    HW131415   0.020   0.998   4.507  1.7305 -2.8636  0.2085
 6651SOL    HW231416   0.005   0.947   4.375 -1.8721  0.3971  3.0151
 6652SOL     OW31417   1.892   4.501   9.682  0.5221  0.4676  0.2391
 6652SOL    HW131418   1.907   4.424   9.737 -0.6576 -1.0167 -1.5061
 6652SOL    HW231419   1.960   4.500   9.614 -0.0445 -1.3007 -0.2926
 6653SOL     OW31420   2.752   3.744   8.034  0.1474 -0.2527  0.0050
 6653SOL    HW131421   2.822   3.802   8.003  1.6929 -2.0524  0.1311
 6653SOL    HW231422   2.806   3.704   8.102  1.3294 -1.2983 -1.5207
 6654SOL     OW31423   0.167   4.028   3.453 -0.4284  0.0478  0.5078
 6654SOL    HW131424   0.079   3.991   3.447 -0.8314  0.9952  0.6444
 6654SOL    HW231425   0.211   3.969   3.514 -2.0116 -0.2125  1.4002
 6655SOL     OW31426   2.614   3.792   6.220 -0.0409 -0.4875  0.7483
 6655SOL    HW131427   2.709   3.791   6.204  0.1917 -3.1395  2.3093
 6655SOL    HW231428   2.605   3.788   6.315  0.0098 -0.9931  0.7352
 6656SOL     OW31429   2.730   0.761   5.680  0.1648  0.5182  0.2139
 6656SOL    HW131430   2.701   0.685   5.730  0.7110 -0.7334 -1.4131
 6656SOL    HW231431   2.662   0.777   5.615  0.0755  3.0148  0.8839
 6657SOL     OW31432   3.658   3.931   3.990  0.5576 -0.7529 -0.4306
 6657SOL    HW131433   3.637   3.980   4.070  0.5424 -0.8120 -0.3987
 6657SOL    HW231434   3.689   4.002   3.933  0.3210 -0.2748  0.0260
 6658SOL     OW31435   1.281   1.100  15.155  0.1602 -0.1504  1.0424
 6658SOL    HW131436   1.264   1.022  15.102 -0.2277  0.9738 -0.4883
 6658SOL    HW231437   1.246   1.081  15.243 -0.1341 -2.1486  0.5119
 6659SOL     OW31438   1.597   0.801   5.007 -0.1719 -0.6077 -0.1161
 6659SOL    HW131439   1.683   0.765   5.027  0.0893  0.1057  0.0151
 6659SOL    HW231440   1.617   0.835   4.920 -1.5162 -0.6294 -0.4427
 6660SOL     OW31441   4.142   4.019  15.615  0.6547  0.0625  0.0296
 6660SOL    HW131442   4.059   3.973  15.600  0.8177 -0.2470  0.0723
 6660SOL    HW231443   4.205   3.966  15.565  1.9635  0.8720  0.8328
 6661SOL     OW31444   3.471   1.088   9.286 -0.3682  0.1041 -0.4473
 6661SOL    HW131445   3.465   1.012   9.228  1.3915 -1.3277  1.2420
 6661SOL    HW231446   3.536   1.138   9.238 -1.0362 -0.2122 -1.6761
 6662SOL     OW31447   3.751   4.683   7.621  0.3154 -0.5090 -0.4249
 6662SOL    HW131448   3.703   0.023   7.676 -2.3998  0.6036 -4.0268
 6662SOL    HW231449   3.720   4.601   7.658  2.2187 -0.5683  1.0339
 6663SOL     OW31450   0.487   4.616   3.448  0.6577  0.2311  0.1992
 6663SOL    HW131451   0.549   4.687   3.433  0.9752 -0.0803  0.0353
 6663SOL    HW231452   0.536   4.570   3.517  0.7186 -1.3676 -0.9188
 6664SOL     OW31453   2.916   4.544   7.999 -0.9058 -0.1080  0.7601
 6664SOL    HW131454   2.918   4.483   7.924 -1.0046  0.5582  0.2169
 6664SOL    HW231455   2.823   4.564   8.008 -1.0273  0.1085 -0.8636
 6665SOL     OW31456   3.997   4.263   6.830  0.2471  0.2333 -0.0868
 6665SOL    HW131457   4.051   4.333   6.867 -0.1109  1.3135 -1.5942
 6665SOL    HW231458   4.061   4.240   6.763  2.5386 -0.2464  2.2344
 6666SOL     OW31459   0.320   1.198   2.006  0.7748  0.2674 -0.9342
 6666SOL    HW131460   0.330   1.213   2.100  0.4993 -0.8557 -0.7172
 6666SOL    HW231461   0.247   1.136   2.004  0.0687  1.0666  0.1166
 6667SOL     OW31462   0.720   4.121  16.147 -0.3720  0.1469  0.2470
 6667SOL    HW131463   0.773   4.129  16.226  0.1768 -0.0468 -0.1034
 6667SOL    HW231464   0.658   4.064  16.192 -0.3351  2.3330  3.0656
 6668SOL     OW31465   0.079   0.249   0.509  0.1970  0.2038  0.4389
 6668SOL    HW131466   0.158   0.242   0.454 -0.9616 -1.2771 -1.0456
 6668SOL    HW231467   0.110   0.306   0.579 -4.2867  2.8689  0.2402
 6669SOL     OW31468   3.843   1.853   0.563 -0.2888  0.7354  0.3406
 6669SOL    HW131469   3.776   1.883   0.502 -2.1889 -0.4816  1.8030
 6669SOL    HW231470   3.796   1.801   0.629 -2.4152  1.4488 -0.5985
 6670SOL     OW31471   0.246   0.026   8.249  0.3321 -0.0350  0.6713
 6670SOL    HW131472   0.317   0.091   8.248  1.1063 -0.9104 -1.3071
 6670SOL    HW231473   0.173   0.084   8.272 -1.0416  0.2038 -4.2896
 6671SOL     OW31474   2.209   2.876   6.225 -0.1421 -0.1580  0.4854
 6671SOL    HW131475   2.249   2.834   6.148 -1.7148 -0.0074 -0.4142
 6671SOL    HW231476   2.116   2.861   6.208  0.1780 -1.5057 -0.0969
 6672SOL     OW31477   2.928   3.988  12.994 -0.0063  0.1765 -0.1099
 6672SOL    HW131478   2.983   3.971  13.071  0.3616  0.0725 -0.3939
 6672SOL    HW231479   2.996   3.970  12.929  0.0500  2.1391 -0.5819
 6673SOL     OW31480   3.328   0.092   9.323  0.8970 -0.1627  0.2229
 6673SOL    HW131481   3.304   0.167   9.269  0.7224  0.8615  1.7305
 6673SOL    HW231482   3.293   0.023   9.267 -0.0077  2.0551 -1.9096
 6674SOL     OW31483   3.455   2.368   3.658 -0.2783 -0.2792  0.0217
 6674SOL    HW131484   3.477   2.283   3.696  1.7842  0.5853  0.7412
 6674SOL    HW231485   3.387   2.391   3.721  0.8482 -1.6573  1.7330
 6675SOL     OW31486   3.943   2.685   0.196  1.0347 -0.1794  0.2813
 6675SOL    HW131487   3.966   2.717   0.109  0.7448  1.2367  0.7252
 6675SOL    HW231488   4.007   2.614   0.193 -0.4772 -1.6888  3.5604
 6676SOL     OW31489   2.491   0.552   5.500 -0.1305  0.5988 -0.7988
 6676SOL    HW131490   2.413   0.599   5.530 -1.2062 -0.7615 -1.4531
 6676SOL    HW231491   2.490   0.486   5.569  0.0757 -2.7989 -4.0582
 6677SOL     OW31492   1.598   1.401  10.152  0.1197  0.2702  0.3781
 6677SOL    HW131493   1.514   1.379  10.193  1.7108 -1.9093  2.5279
 6677SOL    HW231494   1.667   1.362  10.206  0.6210  1.0240  0.2859
 6678SOL     OW31495   3.306   3.151   2.036 -0.3212  0.1535  0.5476
 6678SOL    HW131496   3.223   3.160   1.988 -0.4778 -0.0654  0.7777
 6678SOL    HW231497   3.321   3.061   2.008 -1.1924  1.0538 -2.8127
 6679SOL     OW31498   2.387   3.128   5.861 -0.2979 -0.0846 -0.2398
 6679SOL    HW131499   2.391   3.125   5.765  1.0712 -0.4533 -0.1713
 6679SOL    HW231500   2.462   3.075   5.886 -1.1494 -1.7782 -1.3006
 6680SOL     OW31501   3.962   1.354   6.087  0.1355 -0.0359 -0.4337
 6680SOL    HW131502   3.985   1.436   6.042  2.4234 -0.5566 -0.2141
 6680SOL    HW231503   3.869   1.342   6.072  0.3096 -0.1481 -1.4328
 6681SOL     OW31504   0.931   0.200   0.005  0.1933  0.6753 -0.5188
 6681SOL    HW131505   0.855   0.193   0.063 -0.9213  0.5316 -2.0162
 6681SOL    HW231506   0.972   0.115  17.677 -2.1162 -0.1710 -1.9959
 6682SOL     OW31507   3.560   0.882   4.476 -0.1801  0.4687 -0.2004
 6682SOL    HW131508   3.587   0.970   4.451  0.6999 -0.5169 -2.7364
 6682SOL    HW231509   3.633   0.850   4.529  0.7618  1.7011 -0.7461
 6683SOL     OW31510   3.830   2.699   5.428  0.1830  0.9396  0.3255
 6683SOL    HW131511   3.786   2.618   5.405  1.3931  0.2138  0.5579
 6683SOL    HW231512   3.881   2.662   5.501  2.0961 -0.1262 -1.5486
 6684SOL     OW31513   0.007   4.719   0.076 -0.3984 -0.5040  0.0853
 6684SOL    HW131514   4.633   0.001   0.084 -0.3426  1.1223 -0.0433
 6684SOL    HW231515   0.033   4.674   0.156  1.0342  0.1393 -0.0176
 6685SOL     OW31516   1.209   1.337   3.040 -0.5254 -0.3002  0.0075
 6685SOL    HW131517   1.200   1.247   3.071  0.5981 -0.3038  0.3060
 6685SOL    HW231518   1.199   1.315   2.948 -1.4761 -0.0223  0.0381
 6686SOL     OW31519   3.780   0.297   9.225  0.1287 -0.1649 -0.4063
 6686SOL    HW131520   3.839   0.225   9.202  0.0700  0.2951 -1.9742
 6686SOL    HW231521   3.824   0.339   9.299 -1.9219  1.4505 -0.0885
 6687SOL     OW31522   3.098   1.625   0.713 -0.1712 -0.1699  0.5367
 6687SOL    HW131523   3.007   1.615   0.683  0.9011 -0.3160 -2.6737
 6687SOL    HW231524   3.108   1.534   0.738  1.5706 -0.3781 -0.8911
 6688SOL     OW31525   1.796   0.689   1.965 -0.6294 -0.8702 -0.0840
 6688SOL    HW131526   1.745   0.727   1.893  1.3419  2.6708  0.3597
 6688SOL    HW231527   1.743   0.612   1.986 -0.1575 -1.3303 -0.5809
 6689SOL     OW31528   4.641   2.150   1.775  0.3881  0.3048 -0.8464
 6689SOL    HW131529   0.009   2.134   1.743  0.7712  1.6110 -0.3883
 6689SOL    HW231530   4.637   2.244   1.791  0.0110  0.3125 -0.9732
 6690SOL     OW31531   3.487   0.706   0.051  0.3629 -0.7375 -0.1389
 6690SOL    HW131532   3.463   0.794   0.024  0.2169  0.4419  3.9564
 6690SOL    HW231533   3.484   0.710   0.146 -0.3146 -0.9958 -0.1446
 6691SOL     OW31534   0.186   2.088   6.705  0.2258  0.4139  0.3934
 6691SOL    HW131535   0.154   2.035   6.633 -1.5645  1.8517  0.1334
 6691SOL    HW231536   0.281   2.085   6.693  0.7011 -1.9485  4.7433
 6692SOL     OW31537   2.109   1.328   2.334 -0.0984 -0.5061 -0.2788
 6692SOL    HW131538   2.105   1.260   2.267  3.5663  0.8794 -1.8947
 6692SOL    HW231539   2.169   1.283   2.394  0.1374 -0.7971 -0.7267
 6693SOL     OW31540   4.681   0.352   6.594  0.9369 -0.1438 -0.0006
 6693SOL    HW131541   4.624   0.387   6.662 -0.2200 -1.2777 -0.3858
 6693SOL    HW231542   0.028   0.416   6.615 -0.3594  0.5557  2.0643
 6694SOL     OW31543   3.370   3.175   1.133  0.0947 -0.1592 -0.0075
 6694SOL    HW131544   3.343   3.179   1.041 -1.8470  3.1800  0.6837
 6694SOL    HW231545   3.412   3.090   1.146  1.2217  0.4071 -0.0018
 6695SOL     OW31546   2.716   1.238  17.028 -0.6369 -0.1442  0.0317
 6695SOL    HW131547   2.757   1.194  17.103 -0.1959 -0.0670 -0.1588
 6695SOL    HW231548   2.630   1.247  17.067 -1.4520  2.5020 -2.3876
 6696SOL     OW31549   3.532   1.784   5.211 -0.2329 -0.5944  0.1358
 6696SOL    HW131550   3.446   1.820   5.188 -0.2368 -0.8280 -0.2221
 6696SOL    HW231551   3.548   1.735   5.130  2.4594 -0.1253  0.3739
 6697SOL     OW31552   0.936   3.261   2.688 -0.0072 -0.3248 -0.2031
 6697SOL    HW131553   0.964   3.248   2.597  1.2050  0.5818  0.0325
 6697SOL    HW231554   0.869   3.196   2.709 -0.2624 -0.4875 -1.5421
 6698SOL     OW31555   0.041   1.321   5.589  0.1916  0.5013 -0.1393
 6698SOL    HW131556   0.014   1.287   5.674 -0.7042  1.3444 -0.0877
 6698SOL    HW231557   0.002   1.266   5.521  0.7729 -0.8807  0.6458
 6699SOL     OW31558   0.364   0.288   3.078 -0.4334  0.2043  0.6239
 6699SOL    HW131559   0.315   0.316   3.156 -0.5591 -0.2005  0.6873
 6699SOL    HW231560   0.386   0.196   3.090  2.0642  0.5077 -1.5895
 6700SOL     OW31561   2.104   0.611  14.701  0.1326  0.7860  0.4852
 6700SOL    HW131562   2.088   0.681  14.764  0.6224 -0.1532  1.6563
 6700SOL    HW231563   2.023   0.608  14.649 -0.1138  2.0090  0.8062
 6701SOL     OW31564   4.286   3.322   0.461 -1.0603 -0.0712 -0.1594
 6701SOL    HW131565   4.287   3.417   0.454  0.1116  0.0382  1.2931
 6701SOL    HW231566   4.231   3.317   0.539 -1.8907  1.1651 -0.6629
 6702SOL     OW31567   3.586   3.321   4.489 -0.1052 -0.3305  0.4747
 6702SOL    HW131568   3.598   3.348   4.398  1.7022  0.7579  1.0330
 6702SOL    HW231569   3.675   3.347   4.514  1.4071 -2.6212 -2.4468
 6703SOL     OW31570   0.415   1.816   8.052 -0.1589  0.2250  0.1020
 6703SOL    HW131571   0.488   1.830   8.113 -1.3475  1.2289  1.2868
 6703SOL    HW231572   0.360   1.767   8.112 -0.6398 -0.3785 -0.8351
 6704SOL     OW31573   1.315   1.145   5.385  0.4142  0.1849 -0.3524
 6704SOL    HW131574   1.394   1.170   5.433  1.1138  2.1572 -2.5348
 6704SOL    HW231575   1.356   1.083   5.324 -0.1438 -1.5229  1.0169
 6705SOL     OW31576   1.600   1.801   5.200 -0.0716  0.5802  0.6405
 6705SOL    HW131577   1.607   1.830   5.291  0.5839  0.0453  0.7600
 6705SOL    HW231578   1.524   1.746   5.216  0.1115  0.2289  0.2998
 6706SOL     OW31579   1.855   0.608   6.459 -0.0069 -0.1838  0.0745
 6706SOL    HW131580   1.919   0.679   6.465  0.8355 -1.0369  0.9604
 6706SOL    HW231581   1.871   0.558   6.539 -2.0955 -1.0680 -0.0558
 6707SOL     OW31582   0.436   0.624   5.371  0.2424  0.3115 -0.5249
 6707SOL    HW131583   0.524   0.589   5.387 -0.4194 -0.9575  0.2957
 6707SOL    HW231584   0.378   0.548   5.378 -1.0851  1.4746  1.1968
 6708SOL     OW31585   1.730   0.293   7.490 -0.3288 -0.3367  0.1766
 6708SOL    HW131586   1.819   0.308   7.520 -0.3659  1.1909 -0.4649
 6708SOL    HW231587   1.747   0.230   7.420  0.2230  0.1951 -0.1639
 6709SOL     OW31588   4.362   1.286   0.740  0.2103  0.3454  0.3237
 6709SOL    HW131589   4.402   1.214   0.690  1.8692  0.9283  0.8005
 6709SOL    HW231590   4.268   1.277   0.725  0.2661  1.3254 -0.5574
 6710SOL     OW31591   3.205   0.658   5.218 -0.0204  0.3050 -0.0408
 6710SOL    HW131592   3.157   0.604   5.154  0.3314  2.2606 -1.9708
 6710SOL    HW231593   3.297   0.642   5.199 -0.3962 -1.3176 -0.5536
 6711SOL     OW31594   4.260   1.155  13.065 -0.0006  0.2751  0.4949
 6711SOL    HW131595   4.238   1.235  13.017 -0.6217  0.7946  1.6343
 6711SOL    HW231596   4.178   1.108  13.049  1.2687 -1.9403  0.4067
 6712SOL     OW31597   2.770   1.255   5.705 -0.4873 -0.0895 -0.4945
 6712SOL    HW131598   2.841   1.226   5.761  1.0662  0.6065 -2.0992
 6712SOL    HW231599   2.696   1.282   5.760  0.4764 -0.5237  0.9907
 6713SOL     OW31600   0.554   4.366   3.240  0.0143 -0.2203 -0.6395
 6713SOL    HW131601   0.498   4.395   3.312 -0.1882 -0.9129 -0.5147
 6713SOL    HW231602   0.502   4.385   3.162  1.1356  0.3535 -1.2405
 6714SOL     OW31603   4.608   3.815   7.352  0.2887  0.0860 -0.0624
 6714SOL    HW131604   4.650   3.751   7.294 -0.7671 -0.5075 -0.1605
 6714SOL    HW231605   4.626   3.893   7.299  2.3121 -0.1230  0.3109
 6715SOL     OW31606   0.464   0.089   5.044 -0.7709 -0.4737 -0.5732
 6715SOL    HW131607   0.551   0.052   5.061  0.5672  2.7718 -0.3004
 6715SOL    HW231608   0.444   0.119   5.132 -2.1217 -0.2656 -0.9486
 6716SOL     OW31609   2.798   4.415  12.551 -0.6651 -0.3638 -0.6022
 6716SOL    HW131610   2.754   4.469  12.617  0.6497 -0.4685  0.3544
 6716SOL    HW231611   2.848   4.487  12.513  2.9032 -3.9265 -2.6607
 6717SOL     OW31612   1.527   4.516   4.328 -0.3850  0.3530 -0.5016
 6717SOL    HW131613   1.436   4.519   4.361 -0.1032  3.7921 -0.0062
 6717SOL    HW231614   1.501   4.520   4.236  1.9737 -0.9728 -1.2161
 6718SOL     OW31615   2.044   2.409   3.805 -0.1557 -0.2127  0.6407
 6718SOL    HW131616   2.115   2.400   3.742 -1.5421 -0.0561 -0.9432
 6718SOL    HW231617   1.971   2.372   3.755 -0.0258 -1.0239  1.0588
 6719SOL     OW31618   4.336   1.625   4.760 -0.1575 -0.0185  0.1183
 6719SOL    HW131619   4.296   1.640   4.674  0.6448 -1.4667 -0.5069
 6719SOL    HW231620   4.406   1.690   4.752 -0.3062  0.1682  0.3240
 6720SOL     OW31621   2.110   2.458  13.101  0.0249  0.1404  0.2540
 6720SOL    HW131622   2.054   2.380  13.104 -0.6929  0.6578  0.4098
 6720SOL    HW231623   2.110   2.475  13.007  2.0783 -1.3426 -0.0038
 6721SOL     OW31624   2.931   4.310   7.855  0.4647 -0.0358  0.2159
 6721SOL    HW131625   2.850   4.268   7.884 -0.1892 -0.5894 -2.4810
 6721SOL    HW231626   2.930   4.284   7.763  1.0315 -2.1700  0.7956
 6722SOL     OW31627   0.402   2.426   3.439  0.1183  0.0181 -0.4405
 6722SOL    HW131628   0.335   2.486   3.470 -0.3961 -1.9308  2.1463
 6722SOL    HW231629   0.361   2.342   3.459  0.6932 -0.9332 -3.1460
 6723SOL     OW31630   0.882   2.623   2.384  0.3565 -0.1045 -0.2500
 6723SOL    HW131631   0.938   2.565   2.436 -0.8892 -0.2972  0.8718
 6723SOL    HW231632   0.823   2.552   2.358 -1.7857  1.4655  0.3069
 6724SOL     OW31633   3.082   3.179   3.214 -0.4403 -0.3687  0.2144
 6724SOL    HW131634   3.068   3.252   3.153 -1.8129 -1.3219 -0.5961
 6724SOL    HW231635   3.041   3.206   3.296  0.3764  0.7767  0.2515
 6725SOL     OW31636   0.920   3.199   3.250 -0.7810  0.5040  0.4576
 6725SOL    HW131637   0.852   3.167   3.191 -0.2220 -0.4450  0.3293
 6725SOL    HW231638   0.968   3.258   3.191  0.4867 -2.0009 -1.0399
 6726SOL     OW31639   3.714   0.944  13.112 -0.0703 -0.7124  0.3396
 6726SOL    HW131640   3.718   0.857  13.149 -1.4966 -0.1102  1.8864
 6726SOL    HW231641   3.731   0.921  13.020  1.6885  1.3687  0.1225
 6727SOL     OW31642   3.475   1.298  12.301 -0.5989 -0.3158 -0.3964
 6727SOL    HW131643   3.384   1.326  12.299 -0.5726 -0.1229  1.3257
 6727SOL    HW231644   3.478   1.259  12.389  0.0957 -1.2821 -0.8466
 6728SOL     OW31645   3.614   2.280  16.552 -0.5365 -0.4591 -0.1285
 6728SOL    HW131646   3.553   2.227  16.500 -0.1485 -0.9468 -0.0881
 6728SOL    HW231647   3.549   2.339  16.592 -0.6787 -0.3904 -0.4575
 6729SOL     OW31648   2.115   1.919   0.836  0.0869 -0.1531  0.2550
 6729SOL    HW131649   2.089   1.947   0.748 -0.8126 -2.2519 -0.1217
 6729SOL    HW231650   2.193   1.868   0.813 -1.4636 -1.0745 -2.9914
 6730SOL     OW31651   0.356   1.971   1.682 -0.2146 -0.1251 -0.3776
 6730SOL    HW131652   0.397   1.944   1.764  0.6628  2.0244 -0.1225
 6730SOL    HW231653   0.267   1.941   1.698 -0.3329  0.6854  0.5010
 6731SOL     OW31654   3.598   2.825  12.951  0.0380 -0.3195 -0.3531
 6731SOL    HW131655   3.578   2.918  12.964 -1.1706 -0.8281  1.4873
 6731SOL    HW231656   3.690   2.821  12.977 -0.0693 -0.3435  0.0243
 6732SOL     OW31657   1.643   2.725  10.541  0.2748 -0.7290  0.3572
 6732SOL    HW131658   1.622   2.813  10.572 -0.5937 -1.9613  3.2814
 6732SOL    HW231659   1.706   2.739  10.470 -2.6136 -0.2494 -2.1073
 6733SOL     OW31660   1.402   0.524   4.341 -0.7045  0.3516  0.2094
 6733SOL    HW131661   1.360   0.438   4.340  0.9513 -0.4551 -1.6019
 6733SOL    HW231662   1.329   0.583   4.360 -1.0948 -0.4469  1.1699
 6734SOL     OW31663   0.308   3.288   7.647 -0.0601  0.2275  0.4657
 6734SOL    HW131664   0.359   3.224   7.697 -2.2986 -1.7880  0.1682
 6734SOL    HW231665   0.336   3.254   7.562 -1.0057 -2.1224  1.0922
 6735SOL     OW31666   1.080   3.124   3.922  0.2343 -0.2972  0.3408
 6735SOL    HW131667   1.029   3.048   3.896  0.2209 -0.1494 -0.0554
 6735SOL    HW231668   1.037   3.141   4.006 -1.1569 -2.8571  0.1406
 6736SOL     OW31669   1.116   2.747  10.518  0.1772  0.1144 -0.4327
 6736SOL    HW131670   1.144   2.720  10.431 -0.4092  1.1022 -0.9418
 6736SOL    HW231671   1.199   2.725  10.560 -0.3063  1.7130  1.3711
 6737SOL     OW31672   2.601   2.114  10.551 -0.2499  0.2982 -0.1355
 6737SOL    HW131673   2.535   2.131  10.483  0.5327  0.5754 -0.8322
 6737SOL    HW231674   2.583   2.023  10.574 -1.6503  0.6330  0.1129
 6738SOL     OW31675   3.154   1.847   3.475  0.0051 -0.1371 -0.3836
 6738SOL    HW131676   3.184   1.902   3.402 -0.6026 -1.1194 -1.3711
 6738SOL    HW231677   3.139   1.761   3.436 -0.7662  0.9428 -2.5169
 6739SOL     OW31678   3.976   1.794   2.474  0.7603  0.1751 -0.4530
 6739SOL    HW131679   3.898   1.841   2.445  0.4223  0.6152  1.1705
 6739SOL    HW231680   4.040   1.841   2.420 -1.2730  1.4938 -1.6847
 6740SOL     OW31681   1.311   0.353   6.543 -0.2467 -0.2483  0.0615
 6740SOL    HW131682   1.230   0.390   6.580 -1.1401 -1.2037 -0.9210
 6740SOL    HW231683   1.376   0.409   6.584 -0.0458 -0.5702  0.1828
 6741SOL     OW31684   3.046   1.287   4.856  0.2927 -0.1023 -0.1417
 6741SOL    HW131685   3.000   1.206   4.835  1.4168 -1.2174  1.7069
 6741SOL    HW231686   2.979   1.351   4.879 -0.6738 -1.8237  1.8465
 6742SOL     OW31687   1.658   0.953   9.685  0.1482  0.6043 -0.5192
 6742SOL    HW131688   1.625   0.982   9.770 -1.0634 -2.3192  0.0131
 6742SOL    HW231689   1.705   1.028   9.649  2.7896  0.4801  2.6056
 6743SOL     OW31690   3.593   2.195   4.013 -0.0491  0.4254  0.0167
 6743SOL    HW131691   3.687   2.209   4.002 -0.5856  3.5293 -0.7662
 6743SOL    HW231692   3.580   2.102   3.996  1.2592  0.3028 -0.2842
 6744SOL     OW31693   0.691   0.438   3.873 -0.7236 -0.0027 -0.3721
 6744SOL    HW131694   0.661   0.350   3.849 -2.0819  0.3330  0.1109
 6744SOL    HW231695   0.704   0.474   3.786  0.4875  1.4977  0.4278
 6745SOL     OW31696   4.694   3.646   8.915  0.9391  0.2144  0.0575
 6745SOL    HW131697   0.007   3.605   8.994  1.7143  0.7301 -0.0023
 6745SOL    HW231698   4.620   3.683   8.962  0.4045 -1.7396  0.7614
 6746SOL     OW31699   3.578   0.899  15.485 -0.0060 -0.5994  0.4932
 6746SOL    HW131700   3.596   0.815  15.527 -0.4335 -1.1278 -0.3643
 6746SOL    HW231701   3.662   0.899  15.440  0.2551 -0.6389  0.9778
 6747SOL     OW31702   4.074   4.720   8.689 -0.6516  0.2358 -0.1640
 6747SOL    HW131703   4.127   4.688   8.616 -2.1839  0.0390 -1.1971
 6747SOL    HW231704   4.091   4.651   8.753  1.0616 -1.6329 -2.6660
 6748SOL     OW31705   0.331   2.653   6.673 -0.0755 -0.6239  0.1519
 6748SOL    HW131706   0.424   2.647   6.650  0.2489  0.5047  1.1261
 6748SOL    HW231707   0.338   2.662   6.768 -1.8898  0.5690  0.1842
 6749SOL     OW31708   4.029   1.734   8.609 -0.0822  0.0823 -0.4792
 6749SOL    HW131709   3.938   1.719   8.582  0.2261 -3.5551  0.4883
 6749SOL    HW231710   4.062   1.774   8.529 -0.1064 -0.1673 -0.6154
 6750SOL     OW31711   4.578   3.887  15.682 -0.2968  0.5085 -0.1521
 6750SOL    HW131712   4.642   3.945  15.723 -1.4279  0.8089  1.2007
 6750SOL    HW231713   4.558   3.824  15.752  0.3441 -1.5561 -1.8196
 6751SOL     OW31714   0.707   1.857  10.953 -0.2524 -0.4170  0.2673
 6751SOL    HW131715   0.651   1.904  10.891  1.7664  1.5783 -0.0463
 6751SOL    HW231716   0.673   1.881  11.039  1.5852 -0.6701  1.0848
 6752SOL     OW31717   0.354   1.949   4.882  0.4321  0.0107  0.1557
 6752SOL    HW131718   0.385   1.895   4.811  1.7778  2.1871 -0.9197
 6752SOL    HW231719   0.437   1.986   4.912 -0.2267  2.9323 -1.5810
 6753SOL     OW31720   2.161   2.724   9.180  0.1296 -0.6048 -0.1428
 6753SOL    HW131721   2.153   2.782   9.105  1.4768  1.0086  0.9366
 6753SOL    HW231722   2.157   2.783   9.255  0.1204  0.3142 -0.8684
 6754SOL     OW31723   4.568   2.620  15.070 -0.5635 -0.4710  0.5964
 6754SOL    HW131724   4.585   2.527  15.062  1.2290 -0.1967  1.4408
 6754SOL    HW231725   4.562   2.645  14.978 -0.4026 -2.4758  0.0490
 6755SOL     OW31726   4.151   3.886  16.847 -0.6690  0.2374 -0.2611
 6755SOL    HW131727   4.171   3.975  16.877  0.4699 -0.0152 -0.2371
 6755SOL    HW231728   4.223   3.844  16.895 -2.0531 -1.3917  0.3793
 6756SOL     OW31729   3.775   0.400   2.383 -1.1196  0.2338  0.1621
 6756SOL    HW131730   3.691   0.423   2.344 -1.2633 -0.0019  0.3354
 6756SOL    HW231731   3.818   0.354   2.311  0.5849  0.5799  0.9665
 6757SOL     OW31732   1.952   4.574   6.686  0.5181 -0.4263 -0.3239
 6757SOL    HW131733   1.909   4.489   6.673 -1.0207  0.1895  0.8989
 6757SOL    HW231734   2.017   4.578   6.615 -0.1419  0.9726 -0.8440
 6758SOL     OW31735   2.967   0.874   9.587  0.1102 -0.3449 -0.2459
 6758SOL    HW131736   2.989   0.920   9.668 -0.9281  0.6724 -0.5291
 6758SOL    HW231737   2.945   0.951   9.534 -2.1812 -0.7461  0.0908
 6759SOL     OW31738   3.935   1.189   7.141 -0.6567  0.2026  0.0601
 6759SOL    HW131739   3.883   1.147   7.209  1.9091  0.9928  2.4775
 6759SOL    HW231740   3.881   1.185   7.062  1.5424 -5.0880 -1.2163
 6760SOL     OW31741   4.650   2.988  10.780 -0.0260 -0.4370 -0.3051
 6760SOL    HW131742   4.583   3.014  10.843  2.4755 -0.4788  2.3784
 6760SOL    HW231743   4.607   2.945  10.706 -2.0477 -2.0216  1.8131
 6761SOL     OW31744   3.848   1.379   8.963 -0.9588 -0.1030  0.6736
 6761SOL    HW131745   3.867   1.441   9.033 -1.3989  1.0135 -0.2066
 6761SOL    HW231746   3.856   1.298   9.014  0.0335  0.3349  1.2374
 6762SOL     OW31747   1.919   0.504   8.698  0.2431 -0.0009  0.2007
 6762SOL    HW131748   1.936   0.468   8.611  0.2573 -1.1772  0.6952
 6762SOL    HW231749   1.921   0.421   8.745  0.3093 -0.4115 -0.5298
 6763SOL     OW31750   1.159   3.732   1.223 -0.2534  0.1450 -0.2619
 6763SOL    HW131751   1.154   3.822   1.256  4.0132  0.2995 -0.0662
 6763SOL    HW231752   1.217   3.699   1.292  0.4298  1.0628 -0.3947
 6764SOL     OW31753   0.333   0.277  17.560  0.2754 -0.0338  0.4078
 6764SOL    HW131754   0.421   0.308  17.540  0.5025  0.1898  1.7771
 6764SOL    HW231755   0.358   0.220  17.632  0.4227 -0.6935 -0.1636
 6765SOL     OW31756   3.409   3.108   2.827 -0.1552  0.1710 -0.8272
 6765SOL    HW131757   3.314   3.105   2.831 -0.2502  1.6781 -1.9894
 6765SOL    HW231758   3.433   3.181   2.885  0.4449 -1.8535  1.4817
 6766SOL     OW31759   4.594   3.459   7.819  0.4232  0.2204  0.2354
 6766SOL    HW131760   4.585   3.546   7.779 -1.5617 -1.3643 -2.7635
 6766SOL    HW231761   4.666   3.425   7.765  0.8651 -1.3022  1.7843
 6767SOL     OW31762   3.553   1.252   9.474 -0.0149  0.1930 -0.3314
 6767SOL    HW131763   3.535   1.192   9.402  1.0449 -0.5545  0.0278
 6767SOL    HW231764   3.631   1.223   9.522 -0.5427  0.7893  0.8843
 6768SOL     OW31765   0.242   1.794   5.073  0.1258  0.0733  0.2051
 6768SOL    HW131766   0.293   1.721   5.038  1.3466  0.5871  0.8951
 6768SOL    HW231767   0.257   1.863   5.009 -0.0751  1.8946  2.1261
 6769SOL     OW31768   2.185   3.920  13.959 -0.4696  0.3357 -0.1293
 6769SOL    HW131769   2.277   3.944  13.958 -0.3313 -0.1532  0.5460
 6769SOL    HW231770   2.187   3.836  13.912 -0.8550  1.6160 -2.4578
 6770SOL     OW31771   1.554   2.269  14.512 -0.9576 -0.8388  0.5101
 6770SOL    HW131772   1.474   2.217  14.521 -2.2464  0.8909 -0.8932
 6770SOL    HW231773   1.597   2.201  14.460 -0.8319  0.0749 -0.5822
 6771SOL     OW31774   1.008   1.455   8.826 -0.1727 -0.9848 -0.2237
 6771SOL    HW131775   0.965   1.374   8.800 -0.3543 -0.7751 -0.5813
 6771SOL    HW231776   1.065   1.471   8.750 -0.9384  0.4751 -0.4797
 6772SOL     OW31777   0.034   1.821  15.168  0.1158 -0.4226  0.1332
 6772SOL    HW131778   0.106   1.795  15.225 -0.9945  1.5190  2.4479
 6772SOL    HW231779   0.046   1.753  15.102 -4.5402 -0.0213 -1.1176
 6773SOL     OW31780   2.833   0.233   1.525 -0.2084  0.2439 -0.0871
 6773SOL    HW131781   2.910   0.212   1.578 -0.7135 -1.7528 -0.1519
 6773SOL    HW231782   2.811   0.147   1.489 -2.8556  0.5728  0.7071
 6774SOL     OW31783   4.717   2.049   6.944  0.7201  0.0383  0.6017
 6774SOL    HW131784   0.086   2.070   6.919 -0.2587  1.3075 -1.7881
 6774SOL    HW231785   4.712   2.065   7.039  0.5658 -3.5332  1.1818
 6775SOL     OW31786   3.020   2.622   5.511 -0.4571 -0.0925 -0.0699
 6775SOL    HW131787   2.980   2.562   5.448 -0.8706 -1.5721  1.6070
 6775SOL    HW231788   2.951   2.686   5.526 -1.2784 -0.7424 -1.0590
 6776SOL     OW31789   4.552   4.471   8.985  0.5532 -0.1856 -0.8036
 6776SOL    HW131790   4.632   4.491   8.937  0.1546  1.2505 -0.8834
 6776SOL    HW231791   4.561   4.377   8.972 -2.0772 -0.3406 -1.5252
 6777SOL     OW31792   4.309   4.024   8.616 -0.5440  0.1174 -0.2512
 6777SOL    HW131793   4.316   3.950   8.556  1.7779  1.4621 -1.6482
 6777SOL    HW231794   4.372   4.086   8.579  1.4325 -0.3055  2.4142
 6778SOL     OW31795   3.115   4.175   6.531  0.1848 -0.1522 -0.1918
 6778SOL    HW131796   3.142   4.239   6.597  1.5565  1.1063 -1.9910
 6778SOL    HW231797   3.059   4.220   6.469  0.8852  1.5452  0.3905
 6779SOL     OW31798   0.221   4.403  16.913  0.3226 -0.5238  0.6091
 6779SOL    HW131799   0.134   4.367  16.933  0.1452  0.6090  1.8863
 6779SOL    HW231800   0.207   4.449  16.830  1.4125  0.1553  0.8143
 6780SOL     OW31801   4.290   3.833   1.588  0.1936  0.7697 -0.5465
 6780SOL    HW131802   4.341   3.849   1.667  2.2458 -1.6655 -1.3723
 6780SOL    HW231803   4.228   3.764   1.614  1.4686 -0.3433 -0.4359
 6781SOL     OW31804   3.038   3.658   4.419 -0.7264 -0.3186 -0.7628
 6781SOL    HW131805   2.944   3.674   4.423 -0.2291  2.3184 -0.0157
 6781SOL    HW231806   3.070   3.729   4.363  0.2430 -1.1531 -1.2788
 6782SOL     OW31807   0.945   4.601  10.753 -0.4680 -0.4375 -0.0157
 6782SOL    HW131808   0.926   4.558  10.836 -2.9122  2.1713  0.7629
 6782SOL    HW231809   1.007   4.534  10.724  0.1295  0.3857 -0.6676
 6783SOL     OW31810   3.488   0.209   2.103 -0.3156  0.1764  0.2035
 6783SOL    HW131811   3.562   0.183   2.047 -0.7891 -0.4868 -0.1138
 6783SOL    HW231812   3.434   0.131   2.088 -0.8986  0.7310 -0.6136
 6784SOL     OW31813   2.109   2.883  14.282 -0.1384 -0.1551  0.2381
 6784SOL    HW131814   2.138   2.904  14.371  0.6079  1.2902 -0.3566
 6784SOL    HW231815   2.040   2.819  14.300 -1.0931  0.9029  0.3373
 6785SOL     OW31816   4.164   2.604  10.154  0.0541 -0.0847  0.6946
 6785SOL    HW131817   4.125   2.589  10.240  0.8392 -0.3450  1.0050
 6785SOL    HW231818   4.081   2.625  10.111  1.0583 -0.8305 -1.6040
 6786SOL     OW31819   2.673   4.617  10.613  0.3149 -0.0096 -0.2836
 6786SOL    HW131820   2.759   4.575  10.611 -0.1414 -0.9566  0.1231
 6786SOL    HW231821   2.645   4.604  10.523  2.0558  0.7800 -0.9540
 6787SOL     OW31822   1.240   3.173  13.051 -0.1569 -0.9396 -0.2299
 6787SOL    HW131823   1.205   3.243  13.107  2.5526  0.0407  0.2352
 6787SOL    HW231824   1.312   3.226  13.015 -2.7804  2.8613  0.1467
 6788SOL     OW31825   1.409   0.173   7.429 -0.0429  0.1012  0.2389
 6788SOL    HW131826   1.388   0.178   7.336  3.4247  1.0173 -0.5094
 6788SOL    HW231827   1.503   0.188   7.439  0.0306 -0.7651  0.8376
 6789SOL     OW31828   2.715   2.406   6.714 -0.3597  0.1113  0.3406
 6789SOL    HW131829   2.799   2.363   6.697  0.2049  2.4081 -2.7256
 6789SOL    HW231830   2.672   2.381   6.632 -1.7724  1.1852  0.7493
 6790SOL     OW31831   4.462   0.175   7.581 -0.0228 -0.0828 -0.7112
 6790SOL    HW131832   4.395   0.113   7.552  0.5341 -0.1600 -1.8379
 6790SOL    HW231833   4.474   0.147   7.672  1.2432  2.4567 -0.0993
 6791SOL     OW31834   3.290   2.708   0.958 -0.5060  0.4406 -0.0440
 6791SOL    HW131835   3.252   2.796   0.955  1.6177  1.3414 -0.4163
 6791SOL    HW231836   3.286   2.683   0.866 -0.4285  0.6312 -0.0994
 6792SOL     OW31837   1.624   2.093  12.548  0.1762  0.0409  0.1450
 6792SOL    HW131838   1.696   2.154  12.534  0.6092 -0.3539  0.6358
 6792SOL    HW231839   1.555   2.143  12.503  0.9420  0.2859 -0.7346
 6793SOL     OW31840   4.029   1.848  17.412 -0.0794  0.5578 -0.0930
 6793SOL    HW131841   4.047   1.937  17.385 -1.4579  0.9440  0.2683
 6793SOL    HW231842   3.980   1.819  17.336 -1.4208  0.5181  0.7933
 6794SOL     OW31843   3.692   2.917  13.781 -0.4660  0.0530  0.4401
 6794SOL    HW131844   3.689   3.010  13.804  0.2014  0.5972 -1.6992
 6794SOL    HW231845   3.782   2.904  13.809  0.6604 -1.1133 -3.7461
 6795SOL     OW31846   2.453   4.513   1.003 -0.0056  0.2556  0.0883
 6795SOL    HW131847   2.442   4.599   0.963 -1.8053  0.1647  0.3946
 6795SOL    HW231848   2.366   4.482   1.028 -0.0880  1.8235  1.7533
 6796SOL     OW31849   2.941   2.484   4.712  0.4966  0.3585 -0.0301
 6796SOL    HW131850   2.847   2.480   4.733  0.5704  0.5872  0.3519
 6796SOL    HW231851   2.935   2.447   4.624 -0.5298  2.9278 -1.0537
 6797SOL     OW31852   0.848   0.444  13.867  0.1019  0.0792  0.1888
 6797SOL    HW131853   0.884   0.510  13.927  1.0730  0.0133 -0.3178
 6797SOL    HW231854   0.879   0.471  13.781 -1.0048  1.7160  0.3210
 6798SOL     OW31855   3.294   1.065  13.277 -0.0617 -0.1245 -0.2689
 6798SOL    HW131856   3.352   1.076  13.353  2.2333  0.6101 -2.1049
 6798SOL    HW231857   3.228   1.133  13.288  1.9845  1.7263  0.6508
 6799SOL     OW31858   1.162   1.949   3.388 -0.0512 -0.2462 -0.0732
 6799SOL    HW131859   1.132   2.023   3.335  0.0764 -0.3827 -0.3391
 6799SOL    HW231860   1.097   1.961   3.457 -1.7386 -0.9533 -1.5362
 6800SOL     OW31861   2.891   1.295   0.398  0.0171  0.5567 -0.5915
 6800SOL    HW131862   2.891   1.375   0.452  0.8023  2.2291 -3.0663
 6800SOL    HW231863   2.983   1.300   0.373  0.3812 -1.8297  0.2998
 6801SOL     OW31864   2.295   2.954   7.689  0.2482  0.5647  0.2578
 6801SOL    HW131865   2.365   2.934   7.627 -0.0022 -0.4295  0.3033
 6801SOL    HW231866   2.300   2.895   7.763  1.9522 -1.3094 -1.3569
 6802SOL     OW31867   3.884   2.991   2.769 -0.3125 -0.2169  0.0109
 6802SOL    HW131868   3.920   3.002   2.681  1.8575 -0.5812  0.8583
 6802SOL    HW231869   3.795   2.974   2.738  0.5217 -3.5097 -0.6281
 6803SOL     OW31870   4.546   1.066   5.781 -0.0767 -0.2170 -0.0267
 6803SOL    HW131871   4.528   1.155   5.811  0.4232  0.1022 -0.6750
 6803SOL    HW231872   4.549   1.023   5.866 -0.3450  0.2541  0.2219
 6804SOL     OW31873   0.655   4.045   9.836 -0.3073  0.0107 -0.5433
 6804SOL    HW131874   0.627   4.134   9.858  1.2229  0.6799 -1.3036
 6804SOL    HW231875   0.611   4.019   9.755  0.8223 -2.2362 -0.4292
 6805SOL     OW31876   1.079   1.301   2.788 -0.0402  0.5194  0.2651
 6805SOL    HW131877   1.011   1.243   2.755 -1.4016  1.4910  1.3701
 6805SOL    HW231878   1.062   1.380   2.736  3.7687 -0.1859 -2.0420
 6806SOL     OW31879   4.594   4.218   9.571  0.0971 -0.1722  0.3335
 6806SOL    HW131880   4.565   4.309   9.575  0.7621  0.1215 -1.3045
 6806SOL    HW231881   4.689   4.231   9.570  0.0626  0.0865  0.2612
 6807SOL     OW31882   0.212   1.849  11.549  0.3285  0.1886  0.0649
 6807SOL    HW131883   0.270   1.869  11.622  0.2911 -2.0964  0.7128
 6807SOL    HW231884   0.237   1.765  11.511 -2.7026 -1.2165  1.1056
 6808SOL     OW31885   4.003   3.800   1.883  0.1204  0.2897 -0.1499
 6808SOL    HW131886   4.047   3.783   1.799 -0.9204  1.3363 -0.9181
 6808SOL    HW231887   4.072   3.786   1.947 -1.2603  4.1882  2.1829
 6809SOL     OW31888   0.613   4.189  10.218 -0.4003  0.6831  0.0894
 6809SOL    HW131889   0.683   4.252  10.237 -0.9625  1.5461 -0.7386
 6809SOL    HW231890   0.668   4.129  10.167 -2.0810  0.0258 -0.9373
 6810SOL     OW31891   0.484   1.722   7.803  0.4053 -0.8131 -0.0090
 6810SOL    HW131892   0.500   1.770   7.884 -1.9380  0.2291 -0.1563
 6810SOL    HW231893   0.474   1.636   7.843 -1.1699 -0.4469  0.4180
 6811SOL     OW31894   2.024   0.457   5.561 -0.0121 -0.7267 -0.5244
 6811SOL    HW131895   2.008   0.363   5.570  1.5269 -0.8678  0.7469
 6811SOL    HW231896   1.936   0.493   5.566 -0.0323 -0.8550  0.1200
 6812SOL     OW31897   3.135   4.466   7.480  0.0030  0.3301 -0.7667
 6812SOL    HW131898   3.144   4.371   7.494 -1.2527  0.5376  1.3477
 6812SOL    HW231899   3.195   4.494   7.549 -0.6698 -3.2147  1.2957
 6813SOL     OW31900   1.031   2.696   3.942 -0.1647  0.4625  0.0110
 6813SOL    HW131901   0.959   2.635   3.929  0.4070 -0.3879  0.8698
 6813SOL    HW231902   1.017   2.734   4.029  0.5836 -2.1630  1.2582
 6814SOL     OW31903   1.939   4.527   2.070  0.0659  0.2596  0.2927
 6814SOL    HW131904   1.941   4.466   2.144  1.2381 -0.0859 -0.0231
 6814SOL    HW231905   1.998   4.474   2.016 -0.5365 -1.0633  0.9154
 6815SOL     OW31906   0.175   0.750   8.705  0.6202  0.1515  0.3229
 6815SOL    HW131907   0.081   0.730   8.697  0.9664 -1.6597  0.8749
 6815SOL    HW231908   0.178   0.841   8.675 -0.3219 -0.1500 -0.6835
 6816SOL     OW31909   3.433   3.773   6.401  0.1193 -0.0526  0.3580
 6816SOL    HW131910   3.395   3.706   6.345 -1.8489  0.6097  0.8858
 6816SOL    HW231911   3.358   3.800   6.455 -0.4170 -0.0243 -0.4075
 6817SOL     OW31912   3.906   1.002   5.855 -0.3814  0.4351 -0.3178
 6817SOL    HW131913   3.900   1.026   5.947  1.4742  2.2306 -0.6695
 6817SOL    HW231914   3.928   1.083   5.809  2.8453 -0.3759 -0.2232
 6818SOL     OW31915   2.807   1.467   9.512 -0.3419  0.4955  0.5089
 6818SOL    HW131916   2.786   1.435   9.424  0.9502 -2.2245  1.1974
 6818SOL    HW231917   2.733   1.522   9.537 -1.5491 -1.4087  1.1615
 6819SOL     OW31918   4.008   4.661   4.953 -0.4030 -0.7998  0.3022
 6819SOL    HW131919   4.004   4.703   5.038  1.5046  1.6366 -0.8040
 6819SOL    HW231920   3.961   4.580   4.972  0.6062 -1.1663  1.2403
 6820SOL     OW31921   2.350   3.297   7.907  0.2376 -0.5076  0.3675
 6820SOL    HW131922   2.324   3.213   7.944  0.6009 -1.1663 -0.8586
 6820SOL    HW231923   2.295   3.301   7.829 -0.2571 -2.9381  0.5864
 6821SOL     OW31924   3.749   1.902   2.622  0.2478  0.7439 -0.1986
 6821SOL    HW131925   3.823   1.846   2.645 -0.3707  0.1142  0.2236
 6821SOL    HW231926   3.730   1.948   2.704 -0.1365 -1.2678  0.8447
 6822SOL     OW31927   1.140   2.350  13.337 -0.2518  0.0874  0.2584
 6822SOL    HW131928   1.065   2.377  13.283  2.1933  0.4668 -2.9704
 6822SOL    HW231929   1.106   2.384  13.420  1.8769  0.8414  0.8155
 6823SOL     OW31930   0.405   2.521   1.766 -0.0124  0.0998  0.6218
 6823SOL    HW131931   0.392   2.534   1.672  1.9407  0.4072  0.4105
 6823SOL    HW231932   0.418   2.427   1.758 -0.0436  0.0165  1.6496
 6824SOL     OW31933   0.230   0.509   3.956 -0.2270  0.0349  0.0978
 6824SOL    HW131934   0.313   0.543   3.925 -0.0195  2.0002  2.8183
 6824SOL    HW231935   0.236   0.539   4.047  0.6270  0.0786  0.0224
 6825SOL     OW31936   4.074   0.743   7.418  0.0343 -0.0532  0.7863
 6825SOL    HW131937   3.985   0.744   7.453 -0.0498  2.3532  0.4787
 6825SOL    HW231938   4.067   0.774   7.328 -1.6621 -0.9801  0.5987
 6826SOL     OW31939   0.324   4.628   0.313  0.6104 -0.0251  0.5044
 6826SOL    HW131940   0.231   4.641   0.328  0.2975 -2.7229  0.9649
 6826SOL    HW231941   0.370   4.620   0.397 -2.2648 -0.8159  1.9797
 6827SOL     OW31942   1.562   0.584   2.867  0.1273 -0.0689  0.4510
 6827SOL    HW131943   1.608   0.584   2.951 -0.0136  1.5518  0.5350
 6827SOL    HW231944   1.525   0.497   2.861 -1.4106  0.8114 -2.7946
 6828SOL     OW31945   4.621   3.518  16.889  0.6332 -0.4281  0.0641
 6828SOL    HW131946   4.558   3.557  16.828  0.0798 -2.5246 -0.7153
 6828SOL    HW231947   4.564   3.469  16.948 -1.0127  0.5117 -0.7160
 6829SOL     OW31948   1.972   1.305   1.253 -0.6750  0.3032  0.3640
 6829SOL    HW131949   2.057   1.273   1.222 -0.5487  2.5584 -1.6522
 6829SOL    HW231950   1.939   1.232   1.306 -0.0658  0.4789  0.9842
 6830SOL     OW31951   0.663   0.806   5.379 -0.4199  0.7661 -0.4997
 6830SOL    HW131952   0.700   0.892   5.398 -1.5362  0.7014  1.9127
 6830SOL    HW231953   0.598   0.799   5.449 -0.2352 -1.7803 -0.5929
 6831SOL     OW31954   4.693   1.407  16.649 -0.6770 -0.1566  0.2832
 6831SOL    HW131955   4.712   1.442  16.736 -0.3052  1.6343 -0.5139
 6831SOL    HW231956   4.696   1.312  16.654 -1.4804 -0.1510  0.8515
 6832SOL     OW31957   0.537   0.863   7.502  0.0936 -0.0976  0.8533
 6832SOL    HW131958   0.501   0.793   7.557  1.2467 -1.1711  0.2462
 6832SOL    HW231959   0.538   0.829   7.413  1.4850  1.1993  0.3758
 6833SOL     OW31960   4.190   2.635  12.559 -0.2826  0.2819  0.1018
 6833SOL    HW131961   4.136   2.714  12.558 -1.5915 -0.6511 -2.6398
 6833SOL    HW231962   4.154   2.587  12.633 -0.8690  0.9803  0.2758
 6834SOL     OW31963   1.655   1.536   8.834  0.4524 -0.1313 -0.2549
 6834SOL    HW131964   1.667   1.540   8.929 -0.4959 -1.2466 -0.0829
 6834SOL    HW231965   1.562   1.555   8.820  0.6562  0.1234 -1.2706
 6835SOL     OW31966   1.112   2.788  15.465  0.4593  0.6935 -0.8434
 6835SOL    HW131967   1.132   2.702  15.430  1.4274  0.0025  1.3783
 6835SOL    HW231968   1.185   2.830  15.419 -1.1568  1.5567 -2.6198
 6836SOL     OW31969   4.639   1.444   4.205 -0.4665 -0.1506 -0.2432
 6836SOL    HW131970   4.693   1.496   4.265 -1.8859  0.0818  0.8334
 6836SOL    HW231971   4.690   1.365   4.190 -2.4724 -1.3233 -0.8381
 6837SOL     OW31972   1.525   1.824   3.783  0.7331  0.0260 -0.1881
 6837SOL    HW131973   1.593   1.887   3.807 -0.8927  2.8068 -2.9331
 6837SOL    HW231974   1.454   1.884   3.763 -0.6979 -1.2449  1.0696
 6838SOL     OW31975   3.767   2.206  15.065  0.5294  0.3405 -0.0850
 6838SOL    HW131976   3.692   2.237  15.116  0.8428  0.6387  0.1878
 6838SOL    HW231977   3.750   2.112  15.072  1.6619  0.3281  2.2827
 6839SOL     OW31978   2.569   1.328   2.360  0.0227  0.3997 -0.3310
 6839SOL    HW131979   2.562   1.273   2.282 -1.0041 -0.3241  0.2717
 6839SOL    HW231980   2.617   1.400   2.321 -1.7484  0.3029 -2.7180
 6840SOL     OW31981   4.701   2.756   8.734 -0.0109  0.3045 -0.3659
 6840SOL    HW131982   4.611   2.775   8.762 -0.3936 -2.4784  0.3269
 6840SOL    HW231983   4.718   2.697   8.807 -1.0076  0.8484  0.3100
 6841SOL     OW31984   3.176   2.964  11.739 -0.6394  0.1339  0.0894
 6841SOL    HW131985   3.253   2.912  11.760 -2.6723 -2.0690  2.1261
 6841SOL    HW231986   3.213   3.029  11.679 -2.0540  3.0234  2.3150
 6842SOL     OW31987   2.259   0.551   2.038 -0.0781 -0.1472  0.3211
 6842SOL    HW131988   2.284   0.485   1.973 -0.5730  0.0810 -0.0955
 6842SOL    HW231989   2.243   0.624   1.979 -0.5942 -1.1586 -0.8024
 6843SOL     OW31990   1.625   4.024   8.185  0.4725 -0.2846 -0.1550
 6843SOL    HW131991   1.563   3.961   8.151 -0.3729 -1.1473  2.9488
 6843SOL    HW231992   1.705   4.004   8.137  0.7786 -0.3997  0.3939
 6844SOL     OW31993   3.030   3.098   4.670  0.6691 -0.0942  0.3195
 6844SOL    HW131994   3.000   3.109   4.580  0.5612  0.1252  0.3843
 6844SOL    HW231995   2.990   3.014   4.693  0.7309  0.0380  0.9241
 6845SOL     OW31996   3.315   3.267  14.611 -0.2777 -0.7370  0.1898
 6845SOL    HW131997   3.244   3.246  14.672 -0.5735 -0.4323 -0.0468
 6845SOL    HW231998   3.366   3.187  14.621 -1.6389 -1.6119  0.2288
 6846SOL     OW31999   2.760   1.415   4.428  1.0182  0.1005 -0.5349
 6846SOL    HW132000   2.792   1.405   4.339 -0.2826 -0.2146 -0.9797
 6846SOL    HW232001   2.831   1.388   4.487  0.8136 -2.8274 -1.6227
 6847SOL     OW32002   1.382   2.042   8.858  0.3924 -0.1097  0.1888
 6847SOL    HW132003   1.369   1.960   8.906 -0.3374 -0.3969 -0.5014
 6847SOL    HW232004   1.471   2.066   8.882 -0.2999  2.9231 -0.2560
 6848SOL     OW32005   2.069   4.197   5.494  0.4447  0.2514 -0.2950
 6848SOL    HW132006   2.116   4.266   5.448  1.1856  0.8137  1.3129
 6848SOL    HW232007   2.107   4.120   5.453 -1.0955  0.6142 -2.4262
 6849SOL     OW32008   0.857   0.076   7.941  0.0542  0.0195  0.6549
 6849SOL    HW132009   0.936   0.123   7.916 -0.6049  0.2921 -0.9338
 6849SOL    HW232010   0.864   0.052   8.033  0.6695 -1.9723  0.0928
 6850SOL     OW32011   2.262   1.729   7.443 -0.5299  0.2743  0.0229
 6850SOL    HW132012   2.280   1.746   7.536  0.4845 -0.0756 -0.1070
 6850SOL    HW232013   2.167   1.719   7.438 -0.8794  3.2509  0.3722
 6851SOL     OW32014   3.722   1.951   8.273  0.0250 -0.5979 -0.2262
 6851SOL    HW132015   3.783   2.018   8.242 -0.4586  0.0763  0.2709
 6851SOL    HW232016   3.647   2.009   8.258  0.3444 -0.1369 -0.0358
 6852SOL     OW32017   4.459   1.856   6.018 -0.1312  0.3286  0.3047
 6852SOL    HW132018   4.475   1.851   6.112 -4.5711  0.3267  1.0446
 6852SOL    HW232019   4.491   1.771   5.990  1.4501  1.1123 -0.3288
 6853SOL     OW32020   4.100   0.841   4.722  0.0764  0.1420 -0.4391
 6853SOL    HW132021   4.129   0.777   4.787 -1.9816 -1.0013 -0.6544
 6853SOL    HW232022   4.013   0.805   4.708 -0.4556  1.4299 -0.4332
 6854SOL     OW32023   0.770   2.215  13.262  0.4528 -0.0552 -0.1208
 6854SOL    HW132024   0.695   2.270  13.242  1.3467  1.2568  0.1245
 6854SOL    HW232025   0.801   2.241  13.349  0.2034 -1.6461  0.4506
 6855SOL     OW32026   4.380   2.432   5.488  0.4347  0.1695 -0.0677
 6855SOL    HW132027   4.346   2.497   5.428 -2.4870 -0.7192  0.6454
 6855SOL    HW232028   4.401   2.368   5.419 -1.1493 -1.2137  0.7346
 6856SOL     OW32029   1.687   3.967  10.675 -0.2087 -0.5910 -0.1313
 6856SOL    HW132030   1.733   3.984  10.757 -2.0090  0.0015  0.7388
 6856SOL    HW232031   1.758   3.959  10.610  0.9501 -0.0412  1.0670
 6857SOL     OW32032   3.623   2.193   6.664 -0.6226 -0.0174 -0.0130
 6857SOL    HW132033   3.704   2.163   6.622 -0.8105 -0.5761  0.0276
 6857SOL    HW232034   3.624   2.162   6.754 -3.0558  1.8921  0.6661
 6858SOL     OW32035   0.556   0.495   1.460 -0.4224 -0.3156  0.0543
 6858SOL    HW132036   0.587   0.475   1.371  3.4691 -1.4338  1.6708
 6858SOL    HW232037   0.462   0.475   1.458 -0.5014  0.0240  0.4730
 6859SOL     OW32038   2.723   1.046   1.195  0.6532  0.0298 -0.6663
 6859SOL    HW132039   2.708   1.139   1.211 -1.5921 -0.5569  0.5583
 6859SOL    HW232040   2.701   0.994   1.272  0.8804  0.1148 -0.5453
 6860SOL     OW32041   3.829   0.514   2.666 -0.0696  0.3385 -0.1613
 6860SOL    HW132042   3.740   0.536   2.690 -0.5886 -1.1680 -0.6875
 6860SOL    HW232043   3.812   0.495   2.574  0.4482  0.2716 -0.2470
 6861SOL     OW32044   3.544   2.070   6.391  0.2685  0.1295 -0.2032
 6861SOL    HW132045   3.628   2.078   6.346 -1.0671 -0.9060 -2.8480
 6861SOL    HW232046   3.559   2.119   6.472 -2.0839  1.9691 -0.8710
 6862SOL     OW32047   0.093   2.372   2.536 -0.2449 -0.2329 -0.0313
 6862SOL    HW132048   0.152   2.314   2.489  1.1271  2.4719 -1.6231
 6862SOL    HW232049   0.145   2.400   2.611  0.7085 -0.2576 -0.6906
 6863SOL     OW32050   2.127   3.449   0.952  0.0731 -0.0315  0.2176
 6863SOL    HW132051   2.051   3.470   1.006 -0.3737 -0.6643 -0.1634
 6863SOL    HW232052   2.197   3.483   1.007  0.3071  0.2328 -0.2393
 6864SOL     OW32053   1.725   2.813   2.685  0.2793 -0.0110 -0.1389
 6864SOL    HW132054   1.798   2.792   2.626  0.5368 -1.6782  0.7634
 6864SOL    HW232055   1.753   2.790   2.773 -0.0790  3.3466  0.8286
 6865SOL     OW32056   2.336   2.953  11.884  0.2006  0.0924  0.4471
 6865SOL    HW132057   2.410   2.961  11.944  0.6861  2.6579 -0.4747
 6865SOL    HW232058   2.289   2.878  11.920 -0.5718 -0.0389 -0.8339
 6866SOL     OW32059   1.579   2.313   1.066  0.1404  0.7023 -0.1757
 6866SOL    HW132060   1.515   2.375   1.098  0.9538  1.7816 -0.6524
 6866SOL    HW232061   1.656   2.328   1.122 -1.1563  2.4698  1.1153
 6867SOL     OW32062   3.836   2.855  14.830 -0.4302 -0.2828 -0.1687
 6867SOL    HW132063   3.899   2.865  14.759 -1.3785  0.4943 -0.8779
 6867SOL    HW232064   3.835   2.762  14.808 -1.5001 -0.3280  0.0941
 6868SOL     OW32065   2.994   1.738   7.983 -0.2616 -0.3415 -0.0893
 6868SOL    HW132066   2.909   1.699   7.964 -1.7912  2.8693  0.1775
 6868SOL    HW232067   2.974   1.785   8.064 -1.3446 -0.1188 -0.4879
 6869SOL     OW32068   3.516   1.193   4.808 -0.1953 -0.1659  0.4936
 6869SOL    HW132069   3.427   1.200   4.773  0.4992 -0.9970 -1.4678
 6869SOL    HW232070   3.520   1.102   4.840 -0.9707 -0.6824 -0.8773
 6870SOL     OW32071   0.053   3.849   3.796  0.5619 -0.5137 -0.7432
 6870SOL    HW132072   4.710   3.790   3.757  0.6124 -2.8804  2.7384
 6870SOL    HW232073   0.022   3.937   3.776  0.2084 -0.4464  0.0870
 6871SOL     OW32074   1.646   1.954   1.299 -0.0219  0.1655 -0.0937
 6871SOL    HW132075   1.572   1.989   1.349 -0.5321 -0.3762 -0.4669
 6871SOL    HW232076   1.686   1.910   1.373 -2.8150 -0.2684  1.1497
 6872SOL     OW32077   4.055   2.006   3.636 -0.2461 -0.5159 -0.1386
 6872SOL    HW132078   3.987   1.939   3.641 -0.6613 -0.1049 -0.2366
 6872SOL    HW232079   4.112   1.971   3.568 -0.9127  1.4264 -1.7108
 6873SOL     OW32080   0.503   4.060   6.409 -0.5221 -0.1566  0.0660
 6873SOL    HW132081   0.554   4.024   6.337 -2.5271 -1.2758 -0.7984
 6873SOL    HW232082   0.474   3.976   6.446  0.7851 -0.9182 -0.6430
 6874SOL     OW32083   1.776   4.214   1.992  0.2779  0.3102  0.4241
 6874SOL    HW132084   1.854   4.163   2.017  0.0900 -0.6138 -0.8818
 6874SOL    HW232085   1.791   4.224   1.898 -2.5370 -0.1342 -0.0712
 6875SOL     OW32086   4.666   2.471   6.322 -0.1854 -0.0751  0.1837
 6875SOL    HW132087   4.642   2.561   6.348  0.9514  0.5579 -1.0004
 6875SOL    HW232088   4.595   2.430   6.273  0.8121  0.0381 -1.3340
 6876SOL     OW32089   3.750   3.917  17.533  0.0399  0.5450 -0.5682
 6876SOL    HW132090   3.765   3.896  17.626  1.6999  3.2472 -0.2464
 6876SOL    HW232091   3.775   3.834  17.491 -0.2709 -0.2318  0.7578
 6877SOL     OW32092   2.532   4.128  11.975  0.1157 -0.1958  0.0500
 6877SOL    HW132093   2.560   4.076  12.051 -0.4039 -1.3209 -0.5168
 6877SOL    HW232094   2.448   4.083  11.976 -0.2268  0.4825  2.4060
 6878SOL     OW32095   1.088   2.543  14.838 -0.7021  0.0873  0.2475
 6878SOL    HW132096   1.129   2.554  14.923  2.0325  0.1809 -1.1048
 6878SOL    HW232097   1.009   2.494  14.861  1.6877 -3.1404  1.4772
 6879SOL     OW32098   0.538   2.574   6.918 -0.2186 -0.8704  0.0041
 6879SOL    HW132099   0.511   2.661   6.947  0.0928 -1.2542  1.4594
 6879SOL    HW232100   0.601   2.599   6.851 -0.7629 -2.2609 -1.0294
 6880SOL     OW32101   2.058   4.554   7.703 -0.1353 -0.0788 -0.0829
 6880SOL    HW132102   2.021   4.473   7.739  0.9378 -0.9744 -0.9897
 6880SOL    HW232103   2.069   4.552   7.608 -0.9028 -0.2867 -0.1720
 6881SOL     OW32104   3.813   4.179   0.800  0.3318 -0.0940  0.1429
 6881SOL    HW132105   3.747   4.147   0.739  1.0117  0.4572 -0.8958
 6881SOL    HW232106   3.763   4.174   0.881 -3.3725 -1.4739 -2.2021
 6882SOL     OW32107   4.688   1.493  17.146 -0.7300 -0.3203 -0.1905
 6882SOL    HW132108   0.020   1.512  17.223 -0.2384  0.3452 -0.6951
 6882SOL    HW232109   4.624   1.564  17.148  0.5366  0.7138  3.1084
 6883SOL     OW32110   2.822   4.285   2.948  0.7426  0.1627  0.3449
 6883SOL    HW132111   2.886   4.246   3.008  0.1664  1.5216  1.8319
 6883SOL    HW232112   2.825   4.374   2.982  3.3215  0.3840 -0.4911
 6884SOL     OW32113   3.133   4.221   2.069  0.0211  0.3458  0.5662
 6884SOL    HW132114   3.124   4.316   2.055  0.6698  0.7299  2.7955
 6884SOL    HW232115   3.209   4.228   2.127 -0.0160 -0.4028  0.6941
 6885SOL     OW32116   1.096   3.453  13.759  0.7334 -0.2656  0.0636
 6885SOL    HW132117   1.006   3.451  13.792  1.1962 -0.9798  1.3124
 6885SOL    HW232118   1.122   3.361  13.765 -2.5640 -1.0362  2.8120
 6886SOL     OW32119   0.824   4.159   2.179  0.3224 -0.6783  0.2517
 6886SOL    HW132120   0.908   4.154   2.133  0.8729 -3.7246  1.5393
 6886SOL    HW232121   0.795   4.070   2.162 -2.6107  0.3814 -0.1844
 6887SOL     OW32122   0.198   4.441   9.755 -0.1501  0.7596  0.0430
 6887SOL    HW132123   0.159   4.520   9.717  2.1016  0.3190 -3.2012
 6887SOL    HW232124   0.292   4.454   9.741  0.0368 -0.2583  0.4051
 6888SOL     OW32125   0.936   1.494   0.757  0.0614  0.5062  0.3354
 6888SOL    HW132126   1.011   1.474   0.813  1.2684  1.3698 -0.9689
 6888SOL    HW232127   0.933   1.589   0.759  1.0979  0.5140  1.9000
 6889SOL     OW32128   1.778   2.634  14.843 -0.2628  0.1940  0.3596
 6889SOL    HW132129   1.704   2.594  14.797  0.9106 -3.4307  1.5753
 6889SOL    HW232130   1.787   2.706  14.780 -1.5907 -1.7668 -2.0801
 6890SOL     OW32131   3.849   0.927  14.195  0.1531 -0.2538  0.1712
 6890SOL    HW132132   3.827   1.018  14.174 -0.5382 -0.2245  0.9872
 6890SOL    HW232133   3.790   0.886  14.132 -1.8446  0.8985  1.2640
 6891SOL     OW32134   1.397   0.779   2.055 -0.0614 -0.2423  0.0220
 6891SOL    HW132135   1.308   0.748   2.070 -0.1540  0.8941  1.8791
 6891SOL    HW232136   1.374   0.872   2.065 -4.9868 -1.2810 -1.5763
 6892SOL     OW32137   3.168   0.350   1.870  0.2069  0.0962 -0.5216
 6892SOL    HW132138   3.210   0.381   1.950  2.2013 -3.1684 -0.2904
 6892SOL    HW232139   3.095   0.309   1.917  0.5058  1.5530  1.2221
 6893SOL     OW32140   2.214   3.860  17.605 -0.3037 -0.5104  0.1799
 6893SOL    HW132141   2.205   3.819   0.004 -0.2087 -0.7174  0.0887
 6893SOL    HW232142   2.144   3.925  17.611 -2.1378 -2.3254 -1.6638
 6894SOL     OW32143   1.251   3.654  10.294  0.3177  0.1613  0.0646
 6894SOL    HW132144   1.232   3.748  10.288  0.2253  0.2200  1.3042
 6894SOL    HW232145   1.182   3.627  10.354  1.5591 -0.2893  1.3027
 6895SOL     OW32146   2.455   3.940  15.357  0.2805 -0.1989  0.1432
 6895SOL    HW132147   2.371   3.971  15.389 -1.5571 -2.6432 -2.3257
 6895SOL    HW232148   2.484   4.030  15.340  1.4663 -1.0787 -2.5872
 6896SOL     OW32149   3.416   0.555  17.550  0.7368  0.2142  0.0546
 6896SOL    HW132150   3.442   0.605  17.627  0.9972 -1.2977  0.9340
 6896SOL    HW232151   3.322   0.571  17.557  0.7134 -0.5148  1.3600
 6897SOL     OW32152   2.607   2.082   5.624 -0.2251  0.1885 -0.0225
 6897SOL    HW132153   2.650   2.164   5.646 -0.6087  0.2208  0.5895
 6897SOL    HW232154   2.580   2.047   5.708 -0.3690 -1.8343 -0.9122
 6898SOL     OW32155   3.834   0.448   4.742  0.1952 -0.1731  0.1685
 6898SOL    HW132156   3.774   0.487   4.806 -0.7809 -1.9826  0.3642
 6898SOL    HW232157   3.834   0.515   4.673  0.6065 -0.0706  0.2688
 6899SOL     OW32158   4.182   0.169   5.739 -0.3490 -0.1888 -0.4467
 6899SOL    HW132159   4.250   0.103   5.724 -1.5421 -1.7606  1.1008
 6899SOL    HW232160   4.102   0.123   5.716 -1.0919 -1.5976  4.9994
 6900SOL     OW32161   2.033   2.205  15.922 -0.0901  0.2911 -0.0164
 6900SOL    HW132162   2.012   2.193  15.829 -0.1939  0.9101 -0.0742
 6900SOL    HW232163   1.984   2.132  15.959 -0.5351  0.4428 -0.2977
 6901SOL     OW32164   0.370   4.562  17.092  0.2386  0.0532 -0.6058
 6901SOL    HW132165   0.445   4.551  17.033  1.1869 -0.3843  0.6651
 6901SOL    HW232166   0.307   4.535  17.025 -2.2532  1.3462  1.2195
 6902SOL     OW32167   1.955   3.016   8.226 -0.2248 -0.3018 -0.2057
 6902SOL    HW132168   1.917   2.944   8.176  2.2101 -0.7170 -1.4931
 6902SOL    HW232169   1.880   3.075   8.230 -1.7335 -2.3233  0.8479
 6903SOL     OW32170   2.392   4.055   7.959  0.3647 -0.5085 -0.6954
 6903SOL    HW132171   2.415   4.091   8.044 -1.6652  1.2085 -0.8673
 6903SOL    HW232172   2.320   3.997   7.986 -1.0804  2.1141  1.0944
 6904SOL     OW32173   0.411   3.906   1.672  0.0234  0.4007  0.2025
 6904SOL    HW132174   0.322   3.869   1.677  1.2213 -2.7438 -1.7580
 6904SOL    HW232175   0.463   3.826   1.673  0.2483  0.5601  2.2603
 6905SOL     OW32176   2.140   1.317   5.425 -0.3184  0.5777 -0.4701
 6905SOL    HW132177   2.166   1.289   5.337 -1.9012 -1.0082 -0.4261
 6905SOL    HW232178   2.225   1.338   5.464 -0.0117 -0.6442 -0.4822
 6906SOL     OW32179   4.079   0.872  11.521  0.2122 -0.1200  0.1245
 6906SOL    HW132180   4.090   0.948  11.577 -0.3110 -0.0444  0.1181
 6906SOL    HW232181   4.019   0.815  11.569 -0.4336  0.7668  0.3595
 6907SOL     OW32182   2.588   1.423   5.836  0.4617  0.0681  0.0733
 6907SOL    HW132183   2.606   1.487   5.905  1.6890 -0.6077  0.3815
 6907SOL    HW232184   2.502   1.459   5.812  1.7595  2.3091 -1.2042
 6908SOL     OW32185   4.176   1.810   7.004 -0.1963  0.0220  0.0892
 6908SOL    HW132186   4.113   1.785   7.072 -1.6142 -1.0095 -1.6088
 6908SOL    HW232187   4.235   1.737   6.988 -0.4667  0.5858 -3.3339
 6909SOL     OW32188   4.104   2.254   6.431  0.1139  0.2957  0.5680
 6909SOL    HW132189   4.195   2.257   6.461 -0.0187  0.0193  1.0000
 6909SOL    HW232190   4.101   2.160   6.411 -0.7482  0.3156  0.6034
 6910SOL     OW32191   1.266   0.384   3.188 -0.2951  0.3487  0.0904
 6910SOL    HW132192   1.285   0.466   3.142  0.4395  0.3540  0.4050
 6910SOL    HW232193   1.330   0.334   3.138 -0.9705 -0.5267  0.1092
 6911SOL     OW32194   0.453   4.294   0.711 -0.1424  0.0840  0.5279
 6911SOL    HW132195   0.475   4.244   0.789  0.0107  0.0839  0.4859
 6911SOL    HW232196   0.434   4.219   0.654 -2.3785  0.8615  0.2406
 6912SOL     OW32197   2.596   4.313   2.171 -0.1702  0.3725 -0.4140
 6912SOL    HW132198   2.661   4.304   2.101  1.8927 -1.4951  1.7363
 6912SOL    HW232199   2.628   4.383   2.228 -0.6807 -0.9867  1.5283
 6913SOL     OW32200   4.182   1.221   7.095 -0.0496 -0.3262 -0.3581
 6913SOL    HW132201   4.091   1.212   7.120  0.1403 -2.3985 -0.4546
 6913SOL    HW232202   4.171   1.306   7.052  0.1913  0.1692  0.5482
 6914SOL     OW32203   1.567   1.175  13.158 -0.3650  0.2873  0.1912
 6914SOL    HW132204   1.598   1.091  13.125 -1.7015  0.1517 -0.7450
 6914SOL    HW232205   1.486   1.153  13.204 -0.7242 -1.7332 -1.4202
 6915SOL     OW32206   0.694   4.458   0.764 -0.4673  0.2267 -0.1822
 6915SOL    HW132207   0.631   4.404   0.716 -1.6020  0.7881  0.6673
 6915SOL    HW232208   0.772   4.402   0.767 -0.6527 -0.0069  0.4118
 6916SOL     OW32209   3.458   3.741  15.537  0.1371 -0.1965  0.1435
 6916SOL    HW132210   3.465   3.711  15.628 -1.9987  1.5862  0.9149
 6916SOL    HW232211   3.489   3.831  15.540  3.5816 -1.4839  2.5584
 6917SOL     OW32212   2.145   2.353   0.906 -0.4085  0.1259 -0.1173
 6917SOL    HW132213   2.163   2.405   0.827  1.3998  0.7602  0.7202
 6917SOL    HW232214   2.105   2.277   0.864 -2.4313  0.6282  0.9100
 6918SOL     OW32215   3.631   4.047  12.309  0.0275  0.0931 -0.2417
 6918SOL    HW132216   3.578   3.985  12.359  1.8161  1.0327  2.8243
 6918SOL    HW232217   3.630   4.019  12.218 -3.7318  0.9654 -0.4559
 6919SOL     OW32218   0.448   1.188   5.465  0.8666  0.5061  0.0331
 6919SOL    HW132219   0.420   1.240   5.540  2.9608  1.6409  0.0269
 6919SOL    HW232220   0.371   1.202   5.409  0.8222 -1.2651 -0.3619
 6920SOL     OW32221   0.865   3.089   2.013  0.0287  0.6941  0.2778
 6920SOL    HW132222   0.838   3.024   2.078 -1.1215  0.7846 -0.0919
 6920SOL    HW232223   0.775   3.118   1.993  0.3618  1.0428 -0.7164
 6921SOL     OW32224   1.773   4.691   6.320  0.8933  0.5480 -0.2798
 6921SOL    HW132225   1.688   4.685   6.276  1.5520  0.5520 -1.5715
 6921SOL    HW232226   1.759   4.635   6.396 -1.1769  1.9340  0.3499
 6922SOL     OW32227   3.307   3.453   8.353  0.4862  0.0380 -0.2385
 6922SOL    HW132228   3.291   3.429   8.445 -0.4880  1.4694 -0.0379
 6922SOL    HW232229   3.361   3.531   8.359  0.3863 -0.0148  1.3670
 6923SOL     OW32230   2.202   2.697   3.562  0.0706  0.5314 -0.1450
 6923SOL    HW132231   2.163   2.751   3.631 -1.1961  0.3423 -0.7119
 6923SOL    HW232232   2.130   2.721   3.504  0.5219  1.8201 -0.1582
 6924SOL     OW32233   3.764   0.055  13.204  0.1499  0.3728  0.2335
 6924SOL    HW132234   3.765   0.001  13.126  0.1983  2.3533 -1.1491
 6924SOL    HW232235   3.670   0.075  13.203  0.1677  0.4755  0.7708
 6925SOL     OW32236   4.661   1.746   1.984  0.2572  0.2680  0.1159
 6925SOL    HW132237   4.592   1.791   2.033 -0.6791  0.8717 -1.7637
 6925SOL    HW232238   0.016   1.780   2.031 -0.8899  1.6066  1.0045
 6926SOL     OW32239   1.615   4.187   5.167 -0.0637  0.8092 -0.2069
 6926SOL    HW132240   1.662   4.172   5.250  0.2077 -4.4185 -1.3357
 6926SOL    HW232241   1.552   4.254   5.196  0.8612  0.6050  2.3432
 6927SOL     OW32242   0.423   0.829   3.281  0.3815  0.0840  0.0164
 6927SOL    HW132243   0.495   0.849   3.222  1.5058  0.3773  1.4854
 6927SOL    HW232244   0.439   0.735   3.292 -2.9091 -0.6848 -1.8380
 6928SOL     OW32245   0.452   2.176   0.104 -0.5836  0.1503  0.0992
 6928SOL    HW132246   0.470   2.144   0.192 -0.0301  1.4474  0.4443
 6928SOL    HW232247   0.528   2.234   0.102 -0.6544  0.2554  0.4820
 6929SOL     OW32248   2.016   4.215   0.218 -0.1667 -0.2095  0.3766
 6929SOL    HW132249   1.925   4.237   0.239  0.3070  0.3237  1.8812
 6929SOL    HW232250   2.055   4.295   0.253  2.7358 -0.7543 -1.6006
 6930SOL     OW32251   0.451   3.611   1.848 -0.5252 -0.2507  0.0696
 6930SOL    HW132252   0.475   3.520   1.829  0.6133 -0.1286  0.9744
 6930SOL    HW232253   0.479   3.654   1.767 -0.1227  1.1635  0.9614
 6931SOL     OW32254   0.548   4.652   6.153 -0.0501 -0.2422  0.4015
 6931SOL    HW132255   0.592   4.624   6.233 -0.3101 -0.2900  0.5266
 6931SOL    HW232256   0.462   4.613   6.169  1.2278 -1.6792  3.6641
 6932SOL     OW32257   0.333   2.088   3.486  0.1817 -0.0622  0.8235
 6932SOL    HW132258   0.422   2.081   3.453  0.1744 -0.0338  0.7978
 6932SOL    HW232259   0.294   2.011   3.444  1.6367 -1.0988  1.3539
 6933SOL     OW32260   4.103   2.734   0.479  0.2416  0.4344  0.0013
 6933SOL    HW132261   4.148   2.713   0.397  1.8217  1.9175  0.5011
 6933SOL    HW232262   4.042   2.660   0.478  1.2949 -0.4224 -1.5793
 6934SOL     OW32263   0.330   0.917   9.147  0.5884  0.1682 -0.0442
 6934SOL    HW132264   0.288   0.942   9.229  2.0961 -2.4806  1.5382
 6934SOL    HW232265   0.345   0.997   9.097  1.8751  0.9547  1.6170
 6935SOL     OW32266   4.536   3.579   1.436 -0.1545 -0.4977 -0.5854
 6935SOL    HW132267   4.441   3.580   1.426 -0.2654 -1.2354  0.3531
 6935SOL    HW232268   4.548   3.488   1.463  1.5461 -0.1364 -0.1246
 6936SOL     OW32269   1.733   1.338   4.233  0.1901 -0.4233  0.3626
 6936SOL    HW132270   1.775   1.410   4.186  0.7391 -0.2811  1.0673
 6936SOL    HW232271   1.717   1.385   4.316 -0.2009  1.1518 -0.6018
 6937SOL     OW32272   3.047   3.596  13.942 -0.3905  0.3721  0.1921
 6937SOL    HW132273   3.034   3.690  13.936 -0.4002  0.2269 -2.1859
 6937SOL    HW232274   3.109   3.605  14.014  0.5673 -0.2382 -0.5461
 6938SOL     OW32275   0.857   3.833   4.993 -0.0600  0.1070  0.9386
 6938SOL    HW132276   0.901   3.822   4.908 -2.3665 -1.8335 -0.0047
 6938SOL    HW232277   0.768   3.805   4.970  1.2034 -1.5307 -2.0624
 6939SOL     OW32278   1.714   0.542   5.970 -0.1847  0.7826 -1.1091
 6939SOL    HW132279   1.762   0.516   6.049 -1.4288  0.8678 -0.3213
 6939SOL    HW232280   1.743   0.466   5.920  0.0425  0.1358 -0.0023
 6940SOL     OW32281   0.477   1.707   2.754  1.0493  0.1690  0.1327
 6940SOL    HW132282   0.470   1.723   2.848  2.0970  0.9661  0.0744
 6940SOL    HW232283   0.407   1.643   2.739  2.5349 -1.2910 -0.5653
 6941SOL     OW32284   3.611   0.459   7.586 -0.1552  0.3859  1.0367
 6941SOL    HW132285   3.564   0.381   7.558  1.2103 -0.3717  0.8787
 6941SOL    HW232286   3.599   0.510   7.505  1.5716  0.5579  0.8874
 6942SOL     OW32287   2.825   2.734   6.458  0.2706 -0.2974 -0.0733
 6942SOL    HW132288   2.855   2.705   6.544 -1.4902 -0.4595  0.4888
 6942SOL    HW232289   2.749   2.779   6.494  0.4637  1.0763 -1.3787
 6943SOL     OW32290   4.569   0.122   5.855 -1.1664  0.0784 -0.5389
 6943SOL    HW132291   4.659   0.137   5.827 -0.4283 -1.2077  1.1100
 6943SOL    HW232292   4.556   0.196   5.915 -0.0213  1.5264 -2.0745
 6944SOL     OW32293   0.644   2.454   7.387 -0.6041  0.4323 -0.1017
 6944SOL    HW132294   0.689   2.372   7.409  1.3703  1.2928 -0.9138
 6944SOL    HW232295   0.558   2.416   7.374 -0.3028  0.1866 -1.4068
 6945SOL     OW32296   1.048   1.323  10.264 -0.2360  0.1577  0.1431
 6945SOL    HW132297   1.141   1.333  10.283  0.1921  0.0662 -1.8696
 6945SOL    HW232298   1.007   1.363  10.341  1.1605 -1.8208  1.9261
 6946SOL     OW32299   0.632   3.541   3.120 -0.9972  0.2202  0.7506
 6946SOL    HW132300   0.681   3.608   3.167 -0.6376  0.2358  0.3536
 6946SOL    HW232301   0.595   3.509   3.202  1.0607  1.0748  2.0181
 6947SOL     OW32302   2.778   1.520  16.997  0.3213  0.6134  0.1045
 6947SOL    HW132303   2.732   1.436  16.998 -2.3782  2.0934 -0.4791
 6947SOL    HW232304   2.829   1.512  17.078  2.3321  0.5133 -1.1636
 6948SOL     OW32305   3.683   3.325  13.507 -0.5344  0.0044  0.5531
 6948SOL    HW132306   3.699   3.243  13.554 -0.6963 -0.4040 -0.1181
 6948SOL    HW232307   3.771   3.359  13.489 -1.4867  1.2592 -1.6358
 6949SOL     OW32308   1.730   3.555   7.456 -0.3766 -0.5093 -0.0302
 6949SOL    HW132309   1.815   3.536   7.417  0.3791  1.0741  0.8170
 6949SOL    HW232310   1.691   3.600   7.381 -0.8484 -0.0229  0.5102
 6950SOL     OW32311   4.702   1.569   1.515 -0.0551  0.2352 -0.2369
 6950SOL    HW132312   0.066   1.549   1.555 -0.2966 -2.1215 -0.8513
 6950SOL    HW232313   4.655   1.602   1.591  2.8085 -0.9831  2.0630
 6951SOL     OW32314   0.683   2.027  12.274 -0.1622  0.5185 -0.4116
 6951SOL    HW132315   0.760   2.078  12.245  0.8715  0.5745  2.4022
 6951SOL    HW232316   0.665   1.978  12.194  2.1060 -0.7339 -0.1454
 6952SOL     OW32317   0.410   1.551  16.939  0.0249 -0.3101  0.0101
 6952SOL    HW132318   0.361   1.589  17.012 -0.5595 -0.2546 -0.4095
 6952SOL    HW232319   0.496   1.577  16.971 -0.8250 -0.6529  2.5749
 6953SOL     OW32320   4.061   2.784   1.729 -0.7884  0.1353  0.4423
 6953SOL    HW132321   4.034   2.875   1.723  0.5270  0.4236 -1.0799
 6953SOL    HW232322   4.003   2.746   1.662  0.0697 -1.7400  0.7706
 6954SOL     OW32323   3.644   4.129   3.353 -0.5971 -0.0312 -0.0303
 6954SOL    HW132324   3.725   4.128   3.404  0.5384 -0.8749 -1.8623
 6954SOL    HW232325   3.673   4.157   3.267  1.5045 -0.7650  0.4446
 6955SOL     OW32326   1.113   2.012  15.828  0.2042  0.2860 -0.7098
 6955SOL    HW132327   1.022   1.983  15.820  0.5004 -0.9282  0.2553
 6955SOL    HW232328   1.142   2.019  15.737 -2.2924  0.8491 -1.4613
 6956SOL     OW32329   3.921   4.487  13.287  0.3012 -0.3863 -0.1945
 6956SOL    HW132330   3.841   4.435  13.289 -0.9369  1.5473  0.5888
 6956SOL    HW232331   3.971   4.459  13.210  2.4745  1.9600  0.3232
 6957SOL     OW32332   2.210   1.286  16.963 -0.6652 -0.0924  0.2452
 6957SOL    HW132333   2.205   1.269  16.869 -2.2528  1.4850  0.0391
 6957SOL    HW232334   2.143   1.231  17.005  0.5716 -1.7540  0.0426
 6958SOL     OW32335   2.743   1.307  12.611 -0.0148  0.3700  0.0001
 6958SOL    HW132336   2.715   1.233  12.557 -1.1016  2.1527 -1.8540
 6958SOL    HW232337   2.743   1.272  12.700 -1.1597  1.6260  0.4960
 6959SOL     OW32338   3.852   4.451  16.756 -0.9290  0.4728  0.0849
 6959SOL    HW132339   3.909   4.457  16.679  0.7058  0.6920  1.2999
 6959SOL    HW232340   3.842   4.543  16.781  0.4853 -0.2808  3.4727
 6960SOL     OW32341   3.371   1.898  13.310 -0.3686  0.0581  0.0542
 6960SOL    HW132342   3.413   1.841  13.374 -0.0681 -1.2394 -1.3077
 6960SOL    HW232343   3.326   1.835  13.254 -1.4061  1.8693 -1.1696
 6961SOL     OW32344   2.250   2.093  11.939  0.4994 -0.2172 -0.6445
 6961SOL    HW132345   2.284   2.157  12.001 -2.2043  1.1330 -0.5497
 6961SOL    HW232346   2.243   2.149  11.862 -1.8516  2.0572  1.2358
 6962SOL     OW32347   3.406   1.313  14.756 -0.1866  0.4364 -0.6531
 6962SOL    HW132348   3.463   1.361  14.816  1.4582 -2.4162  0.0809
 6962SOL    HW232349   3.342   1.274  14.815  0.9695 -1.5156 -0.6800
 6963SOL     OW32350   0.443   3.733  15.373 -0.4756  0.0117 -0.2522
 6963SOL    HW132351   0.367   3.778  15.409 -0.3711  0.6040 -0.7735
 6963SOL    HW232352   0.419   3.716  15.282 -1.1176 -0.7834  0.0701
 6964SOL     OW32353   2.038   1.869   2.509 -0.3038 -0.3682  0.5184
 6964SOL    HW132354   2.020   1.876   2.415 -0.2054 -1.5518  0.4112
 6964SOL    HW232355   2.126   1.904   2.497 -0.5540 -0.3098 -1.2646
 6965SOL     OW32356   4.643   2.567   8.548  0.3681  0.4363  0.0645
 6965SOL    HW132357   4.662   2.628   8.619  0.7547 -1.6404  1.7452
 6965SOL    HW232358   0.006   2.541   8.512 -0.2573  1.2544 -1.9594
 6966SOL     OW32359   0.145   0.545   3.330  0.0601 -0.5509  0.2492
 6966SOL    HW132360   0.142   0.450   3.313 -1.7776 -0.8162  2.1280
 6966SOL    HW232361   0.214   0.549   3.397 -0.2480 -3.0262  0.7258
 6967SOL     OW32362   3.501   4.201   8.404  0.6481  0.5731  0.4816
 6967SOL    HW132363   3.592   4.227   8.389  0.6400 -0.2077 -0.9623
 6967SOL    HW232364   3.455   4.260   8.344 -1.9137 -1.5783  0.3182
 6968SOL     OW32365   0.370   0.418   9.642  0.1966 -0.2609 -0.2698
 6968SOL    HW132366   0.286   0.457   9.670 -0.4363 -2.3947  0.8490
 6968SOL    HW232367   0.402   0.407   9.732 -0.5181  0.3306  0.0634
 6969SOL     OW32368   4.237   0.175   7.005  0.5615 -0.0075 -0.0562
 6969SOL    HW132369   4.331   0.182   7.021  0.3155 -1.3962  1.9898
 6969SOL    HW232370   4.207   0.251   7.054  1.5306  0.9849 -1.0022
 6970SOL     OW32371   1.830   3.470   0.445  0.0703  0.7273 -0.0095
 6970SOL    HW132372   1.789   3.551   0.415  0.9889  1.7380  1.4749
 6970SOL    HW232373   1.810   3.472   0.539 -0.2033 -0.5830 -0.0463
 6971SOL     OW32374   4.044   2.754   8.849 -0.2405  0.0578 -0.0069
 6971SOL    HW132375   4.101   2.783   8.920  0.4957  0.8669 -0.9180
 6971SOL    HW232376   3.988   2.683   8.879  1.6902 -1.3943  0.2076
 6972SOL     OW32377   2.545   1.210   9.118  0.6396 -0.5084  0.1535
 6972SOL    HW132378   2.466   1.169   9.153  2.0132 -3.3449 -0.1365
 6972SOL    HW232379   2.563   1.146   9.050 -0.6084 -0.2472 -0.4259
 6973SOL     OW32380   0.713   1.118   5.849 -0.8359 -0.3816  0.8491
 6973SOL    HW132381   0.801   1.079   5.845  0.4058  2.5734 -0.8095
 6973SOL    HW232382   0.675   1.090   5.766  0.1074  0.1857  0.2278
 6974SOL     OW32383   1.222   0.749   4.102 -0.2008 -0.2691 -0.0938
 6974SOL    HW132384   1.232   0.778   4.193  2.0074 -0.8633 -0.1382
 6974SOL    HW232385   1.204   0.658   4.122 -2.4816  0.0638 -0.6838
 6975SOL     OW32386   2.980   3.410   5.298  0.2262 -0.4458  0.4507
 6975SOL    HW132387   2.929   3.478   5.342 -1.9201 -1.0718 -1.1078
 6975SOL    HW232388   3.046   3.395   5.367  0.1069 -1.4712  0.3418
 6976SOL     OW32389   2.653   2.959   7.314  0.0066  0.5966  0.0912
 6976SOL    HW132390   2.700   2.902   7.375  1.5312  1.2562 -0.4688
 6976SOL    HW232391   2.612   2.893   7.259 -0.0218  0.4678  0.2662
 6977SOL     OW32392   3.701   2.237   2.100  0.0112 -0.7783  0.1820
 6977SOL    HW132393   3.642   2.162   2.089 -0.6777 -0.1950 -0.1263
 6977SOL    HW232394   3.663   2.309   2.050 -1.1895 -2.3277 -1.1361
 6978SOL     OW32395   2.511   4.273   0.899 -0.5782  0.1954 -0.3552
 6978SOL    HW132396   2.462   4.210   0.952  0.6293  0.9434  1.6530
 6978SOL    HW232397   2.492   4.355   0.944 -0.1486 -0.5407  1.1683
 6979SOL     OW32398   0.239   1.910   3.297  0.3014 -0.0178 -0.0254
 6979SOL    HW132399   0.294   1.838   3.268 -0.9282  0.2984 -3.0768
 6979SOL    HW232400   0.153   1.870   3.281  0.0039 -0.1789  1.9253
 6980SOL     OW32401   2.576   2.587   6.353  0.3762  0.0764 -0.6192
 6980SOL    HW132402   2.652   2.588   6.295  2.9545  1.0059  2.8084
 6980SOL    HW232403   2.566   2.673   6.393  1.2757 -0.9520  1.8133
 6981SOL     OW32404   3.791   2.888   9.463 -0.2713  0.1433 -0.5047
 6981SOL    HW132405   3.876   2.920   9.495 -0.3005  1.9555 -2.2134
 6981SOL    HW232406   3.732   2.932   9.525  0.2761  0.5789 -0.2875
 6982SOL     OW32407   4.219   2.546   8.096 -0.0717  0.3199  0.0564
 6982SOL    HW132408   4.227   2.588   8.181 -1.1450 -1.0535  0.8279
 6982SOL    HW232409   4.312   2.532   8.077 -0.2038 -1.1039  0.4609
 6983SOL     OW32410   2.145   2.819   0.459  0.1307  0.0726  0.3501
 6983SOL    HW132411   2.130   2.767   0.380  0.5932  0.8765 -0.2663
 6983SOL    HW232412   2.124   2.908   0.429 -0.5995  0.7029  2.6545
 6984SOL     OW32413   0.133   1.622  17.369 -0.7431  0.3083  0.7103
 6984SOL    HW132414   0.048   1.632  17.411 -1.3470 -0.4398 -0.3158
 6984SOL    HW232415   0.179   1.598  17.449 -1.3698 -2.0348  0.3797
 6985SOL     OW32416   2.785   0.178   3.368 -0.2228  0.0333  0.4281
 6985SOL    HW132417   2.803   0.265   3.406 -1.0547  0.8992 -1.2042
 6985SOL    HW232418   2.709   0.148   3.417  1.5326 -3.5065  0.9880
 6986SOL     OW32419   1.355   1.426   3.460  0.1522 -0.9033 -0.1129
 6986SOL    HW132420   1.302   1.499   3.492 -1.3052 -1.3468 -1.5170
 6986SOL    HW232421   1.346   1.351   3.519  1.8107 -1.8808 -1.1139
 6987SOL     OW32422   4.214   0.564   6.967 -0.5738  0.1861  0.6145
 6987SOL    HW132423   4.153   0.507   7.014 -0.7621 -2.3574 -2.7036
 6987SOL    HW232424   4.232   0.626   7.037 -0.1652  1.0592 -0.2592
 6988SOL     OW32425   3.473   1.746   7.252  0.3849  0.0992 -0.7856
 6988SOL    HW132426   3.481   1.670   7.310 -2.9211  0.3577  0.0171
 6988SOL    HW232427   3.498   1.823   7.304  0.5309  0.4509 -1.3751
 6989SOL     OW32428   1.345   4.103  10.957 -0.3262  0.5593 -0.3586
 6989SOL    HW132429   1.333   4.028  11.016  0.0289  0.7514 -0.0435
 6989SOL    HW232430   1.342   4.062  10.871 -2.9438  0.8711 -0.4221
 6990SOL     OW32431   1.254   3.473   8.838  0.3952 -0.2518  0.2248
 6990SOL    HW132432   1.262   3.470   8.933 -3.6994 -2.4833  0.5184
 6990SOL    HW232433   1.202   3.553   8.825  2.1844  0.9187  0.3490
 6991SOL     OW32434   1.685   1.968   6.998 -0.3090  0.5633 -0.2009
 6991SOL    HW132435   1.611   1.923   7.039  0.7071 -0.7847  0.1328
 6991SOL    HW232436   1.701   1.900   6.933 -0.4973 -0.1222  0.4773
 6992SOL     OW32437   2.274   0.140   0.256  0.4491 -0.0327 -0.6125
 6992SOL    HW132438   2.331   0.074   0.218 -2.1334 -2.5745 -0.1049
 6992SOL    HW232439   2.193   0.136   0.205 -1.7143  0.2938  2.7754
 6993SOL     OW32440   4.287   0.374   1.295  0.0137  0.2777  0.0583
 6993SOL    HW132441   4.277   0.426   1.215 -0.0867  0.9066  0.4851
 6993SOL    HW232442   4.225   0.302   1.285  1.3699 -0.7716 -0.8311
 6994SOL     OW32443   2.862   1.004  16.922 -1.0057  0.0463  0.4786
 6994SOL    HW132444   2.816   1.088  16.916 -0.2703  0.2956 -1.5968
 6994SOL    HW232445   2.928   1.021  16.854  0.8643 -0.4717  2.1788
 6995SOL     OW32446   0.744   3.422  16.527  0.1798 -0.2165  0.0553
 6995SOL    HW132447   0.695   3.340  16.541 -0.9135  0.5265  0.5489
 6995SOL    HW232448   0.668   3.479  16.515 -1.3061 -1.9430  1.1692
 6996SOL     OW32449   3.820   0.866  17.485 -0.4017  0.5028 -0.1464
 6996SOL    HW132450   3.814   0.776  17.456  1.9932  0.4624 -0.5172
 6996SOL    HW232451   3.740   0.899  17.444 -0.1258 -1.2624 -2.0601
 6997SOL     OW32452   2.033   4.665  11.376  0.1670 -0.4078 -0.4421
 6997SOL    HW132453   2.123   4.632  11.375 -0.0440 -0.9740 -0.9126
 6997SOL    HW232454   2.027   0.013  11.310 -1.1948 -0.8679 -0.8079
 6998SOL     OW32455   3.619   3.924   8.319 -0.0022  0.2455 -0.1245
 6998SOL    HW132456   3.579   4.010   8.319 -0.3084  0.0936  1.4399
 6998SOL    HW232457   3.699   3.939   8.369 -0.3617  2.1945 -0.1438
 6999SOL     OW32458   4.259   1.288  11.194  0.2841 -0.0651  0.1230
 6999SOL    HW132459   4.210   1.370  11.199 -0.7193 -0.7449  1.4170
 6999SOL    HW232460   4.214   1.239  11.263 -1.0549 -0.2884 -0.9120
 7000SOL     OW32461   1.810   2.890   6.691  0.1909  0.5955  0.2567
 7000SOL    HW132462   1.730   2.901   6.640  0.5357 -0.2711 -0.4841
 7000SOL    HW232463   1.813   2.964   6.751 -0.3381 -0.8039  2.0152
 7001SOL     OW32464   3.634   0.269   2.706  0.1195  0.1055  0.0950
 7001SOL    HW132465   3.712   0.262   2.651  1.1400 -0.6136  1.6566
 7001SOL    HW232466   3.599   0.184   2.679  0.1842 -0.0960  0.6506
 7002SOL     OW32467   1.612   2.360   5.411  0.6110 -0.2977  0.0224
 7002SOL    HW132468   1.551   2.302   5.457  1.3693  0.5103  2.0307
 7002SOL    HW232469   1.663   2.293   5.365  0.4264  0.4079 -1.2081
 7003SOL     OW32470   1.892   3.388  10.401  0.2428 -0.0237 -0.5339
 7003SOL    HW132471   1.958   3.346  10.455 -0.9320  0.3841  1.2014
 7003SOL    HW232472   1.873   3.448  10.473 -0.0701 -0.1425 -0.5175
 7004SOL     OW32473   2.331   4.207   6.519 -0.5214  0.1989 -0.4912
 7004SOL    HW132474   2.390   4.132   6.507 -0.1162  0.0926  2.2640
 7004SOL    HW232475   2.375   4.251   6.591 -0.4208 -1.1942  0.2997
 7005SOL     OW32476   3.150   0.749   2.427  0.3222 -0.6772  0.7458
 7005SOL    HW132477   3.214   0.710   2.486  1.8825 -0.8943 -1.0734
 7005SOL    HW232478   3.106   0.810   2.486 -0.4285  0.0079 -0.4992
 7006SOL     OW32479   0.572   1.829   3.501  0.2896  0.4401 -0.4326
 7006SOL    HW132480   0.622   1.846   3.421 -2.4177 -0.0375 -2.2174
 7006SOL    HW232481   0.517   1.754   3.475 -1.4313  1.7581 -0.5747
 7007SOL     OW32482   3.514   3.392  16.851 -0.4340 -0.1373 -0.4512
 7007SOL    HW132483   3.516   3.419  16.759  1.0394  1.5848  0.0834
 7007SOL    HW232484   3.525   3.479  16.889  0.5354 -0.1700 -0.6454
 7008SOL     OW32485   0.156   2.322  15.069 -0.4091 -0.0345 -0.2077
 7008SOL    HW132486   0.244   2.287  15.058  0.2605  1.4903  0.2464
 7008SOL    HW232487   0.107   2.270  15.005  0.1496 -1.6184  0.6387
 7009SOL     OW32488   4.036   1.211   6.594 -0.1833  1.4184  0.1436
 7009SOL    HW132489   3.966   1.252   6.645 -0.8294  2.7558 -1.8045
 7009SOL    HW232490   4.118   1.228   6.639  0.1507  0.0980  0.0275
 7010SOL     OW32491   3.082   4.699   0.329 -0.1294  0.3095 -0.4386
 7010SOL    HW132492   3.010   4.715   0.267  1.6656  2.0474 -2.1085
 7010SOL    HW232493   3.054   4.615   0.365  0.9748  0.8206  1.5631
 7011SOL     OW32494   3.173   4.452   5.740  0.0002 -0.2997  0.5813
 7011SOL    HW132495   3.177   4.510   5.664  0.1255  1.5851  1.9902
 7011SOL    HW232496   3.182   4.367   5.699 -0.4629 -0.2617  0.4075
 7012SOL     OW32497   2.093   0.795  14.888  0.2675 -0.2093 -0.3324
 7012SOL    HW132498   2.089   0.766  14.979  0.9997 -0.4738 -0.3826
 7012SOL    HW232499   2.180   0.836  14.881 -0.9263  2.2346 -0.9231
 7013SOL     OW32500   4.438   2.816   8.951 -0.7555  0.3948 -0.1579
 7013SOL    HW132501   4.407   2.791   8.864  0.1923 -0.6873 -0.1879
 7013SOL    HW232502   4.401   2.903   8.964 -0.0173  0.2834  2.5233
 7014SOL     OW32503   2.982   3.385   3.033 -0.0288 -0.3708 -0.0065
 7014SOL    HW132504   2.970   3.344   2.947  3.0330 -0.9928 -0.1395
 7014SOL    HW232505   2.897   3.371   3.075 -0.5407 -0.0990 -0.9369
 7015SOL     OW32506   1.548   4.142   7.376 -0.2512 -0.8977  0.2164
 7015SOL    HW132507   1.581   4.054   7.358  0.3924 -0.8589  1.1877
 7015SOL    HW232508   1.467   4.123   7.424 -0.2822 -0.6479  0.2665
 7016SOL     OW32509   3.161   3.739   2.911 -1.1369  0.5867 -0.3387
 7016SOL    HW132510   3.241   3.765   2.957 -2.3076  0.1719  1.8962
 7016SOL    HW232511   3.183   3.731   2.818 -2.8859 -0.7014 -0.6361
 7017SOL     OW32512   3.188   2.870  13.650 -0.4087  0.7020  0.4306
 7017SOL    HW132513   3.099   2.847  13.627 -0.6897  1.6253  0.5833
 7017SOL    HW232514   3.247   2.799  13.626  1.8809  2.2599  1.3761
 7018SOL     OW32515   4.357   2.800   3.130  0.1505 -0.3431 -0.1555
 7018SOL    HW132516   4.352   2.773   3.038 -0.0113 -2.7440  0.5476
 7018SOL    HW232517   4.403   2.883   3.121  0.7595 -0.4952  1.4536
 7019SOL     OW32518   1.658   1.375   4.756  0.4232  0.1373 -0.1771
 7019SOL    HW132519   1.738   1.330   4.780 -0.3791 -1.9173 -1.3233
 7019SOL    HW232520   1.634   1.400   4.845  0.0075 -0.2548 -0.1761
 7020SOL     OW32521   0.030   3.542   6.322 -0.5136 -0.6858 -0.2412
 7020SOL    HW132522   4.701   3.511   6.398 -1.0612  0.4188 -0.1552
 7020SOL    HW232523   4.706   3.618   6.286  0.6159 -0.0154 -0.2046
 7021SOL     OW32524   4.623   4.443   0.813 -0.2483 -0.0977  0.3033
 7021SOL    HW132525   4.624   4.351   0.842  0.0156  0.1246  1.0006
 7021SOL    HW232526   4.533   4.461   0.787 -0.4250 -1.9386 -0.3411
 7022SOL     OW32527   4.634   1.360   6.726 -0.4077  0.0129  0.4315
 7022SOL    HW132528   4.555   1.306   6.714 -2.3602  2.4010  2.5224
 7022SOL    HW232529   4.695   1.310   6.672  0.3232 -0.6005  1.8433
 7023SOL     OW32530   4.241   3.531   1.406  0.4305 -0.1763  0.3889
 7023SOL    HW132531   4.150   3.558   1.419  0.2161 -1.5805  1.7849
 7023SOL    HW232532   4.232   3.479   1.326 -1.1135  1.1406 -0.2825
 7024SOL     OW32533   2.675   4.556  12.296 -0.3864 -0.5178 -0.3899
 7024SOL    HW132534   2.652   4.648  12.310 -1.2000 -0.7226 -0.3659
 7024SOL    HW232535   2.751   4.557  12.354  0.8869 -1.0478 -2.0338
 7025SOL     OW32536   0.013   2.300   7.812 -0.0360 -0.0070 -0.3320
 7025SOL    HW132537   0.057   2.301   7.897 -0.8638 -0.1273  0.0970
 7025SOL    HW232538   0.078   2.330   7.749  0.8442 -0.9075  0.1569
 7026SOL     OW32539   3.558   3.005   4.812  0.1847  0.3357 -0.4232
 7026SOL    HW132540   3.615   3.079   4.790  0.9638 -0.1557 -0.0453
 7026SOL    HW232541   3.511   3.005   4.729  1.7137 -0.0952 -1.2964
 7027SOL     OW32542   1.299   2.472  16.334  0.2960 -0.1492 -0.0623
 7027SOL    HW132543   1.381   2.467  16.383 -1.5489 -0.0433  3.0358
 7027SOL    HW232544   1.319   2.542  16.273  0.4157 -0.4404 -0.3534
 7028SOL     OW32545   3.479   0.312  17.444  0.4080  0.0221 -0.1011
 7028SOL    HW132546   3.478   0.402  17.476  1.6916  0.1474 -0.4090
 7028SOL    HW232547   3.470   0.260  17.524  3.4295  1.5198  1.2324
 7029SOL     OW32548   4.462   0.036  10.285 -0.1812  0.7025  0.1189
 7029SOL    HW132549   4.482   4.676  10.239  1.7743  0.9335  0.5439
 7029SOL    HW232550   4.546   0.048  10.331  1.3009 -1.1812 -2.1124
 7030SOL     OW32551   3.999   2.832   7.052  0.9035 -0.4517 -0.0659
 7030SOL    HW132552   4.091   2.805   7.048  1.6220  1.9464  0.0793
 7030SOL    HW232553   3.997   2.899   7.120  0.7296  1.7068 -2.2115
 7031SOL     OW32554   3.538   1.328   7.780  0.2142  0.6098  0.4196
 7031SOL    HW132555   3.483   1.250   7.784 -1.4183  1.8954  3.1993
 7031SOL    HW232556   3.525   1.359   7.870 -1.1052  1.1554  0.0355
 7032SOL     OW32557   2.804   3.471   4.649  0.2898  0.3033 -0.2280
 7032SOL    HW132558   2.881   3.432   4.690 -0.8749 -1.3233  0.4485
 7032SOL    HW232559   2.844   3.552   4.617  1.5057 -0.7139 -1.3094
 7033SOL     OW32560   4.197   0.621  12.114  0.0844  0.1213 -0.3487
 7033SOL    HW132561   4.258   0.599  12.184  0.0261 -0.9045 -0.6075
 7033SOL    HW232562   4.241   0.644  12.032  1.0596  0.8713  0.4000
 7034SOL     OW32563   1.311   2.142   5.096  0.5544  0.3031 -0.0410
 7034SOL    HW132564   1.380   2.076   5.097  0.5661  0.3293  1.0285
 7034SOL    HW232565   1.317   2.177   5.185  1.9840  0.5950 -0.2509
 7035SOL     OW32566   3.272   3.378  15.799  0.3724  0.0126 -0.2544
 7035SOL    HW132567   3.360   3.340  15.792  0.5135  0.3556 -0.3025
 7035SOL    HW232568   3.237   3.358  15.713  1.6936  1.2938 -1.0890
 7036SOL     OW32569   0.402   2.971   6.451  0.2697  0.0165 -0.0787
 7036SOL    HW132570   0.326   2.913   6.452  1.6587 -1.8035  0.7630
 7036SOL    HW232571   0.478   2.914   6.443 -0.3987 -0.9437  0.4067
 7037SOL     OW32572   2.189   1.522  17.085 -0.6368  0.1571  0.2461
 7037SOL    HW132573   2.233   1.440  17.065 -0.3567 -0.6211  4.0715
 7037SOL    HW232574   2.123   1.524  17.016  0.9183 -0.2256 -1.2569
 7038SOL     OW32575   0.859   3.891   4.230  0.2441  0.0126  0.2391
 7038SOL    HW132576   0.829   3.905   4.320  0.4896  0.7425  0.2064
 7038SOL    HW232577   0.817   3.971   4.199 -1.7794 -0.3197  2.0874
 7039SOL     OW32578   1.128   2.589  12.408  0.4334  0.3589 -1.1099
 7039SOL    HW132579   1.163   2.553  12.326  1.9362 -1.9084  0.5465
 7039SOL    HW232580   1.100   2.508  12.450  1.6998 -0.5173 -1.9638
 7040SOL     OW32581   3.019   4.032   3.785  0.1481  0.3000 -0.5036
 7040SOL    HW132582   3.090   4.091   3.761  1.0274 -0.0929  1.0901
 7040SOL    HW232583   2.999   4.007   3.695  1.9756 -1.6490 -0.3673
 7041SOL     OW32584   3.461   3.801   9.959  0.1636 -0.3607 -0.0455
 7041SOL    HW132585   3.500   3.759   9.882  1.5513  0.8517 -0.0096
 7041SOL    HW232586   3.520   3.761  10.024 -0.2259  0.0321  0.5550
 7042SOL     OW32587   4.329   2.871  15.597  0.1204  0.2154 -0.1010
 7042SOL    HW132588   4.306   2.959  15.626  0.2123  0.0167  0.5603
 7042SOL    HW232589   4.414   2.885  15.555 -0.9526  0.9065 -2.0536
 7043SOL     OW32590   3.196   1.341  16.819  0.1479  0.2100  0.1119
 7043SOL    HW132591   3.236   1.295  16.893  1.7199 -0.6736 -1.2755
 7043SOL    HW232592   3.110   1.299  16.814  0.1316  0.4929 -1.8286
 7044SOL     OW32593   4.693   4.383   3.872 -0.3025  0.0240 -0.0492
 7044SOL    HW132594   4.685   4.288   3.860 -3.2863  0.1831  0.7143
 7044SOL    HW232595   4.676   4.385   3.966 -1.8951 -0.5925 -0.3321
 7045SOL     OW32596   1.353   1.655   1.250 -0.6262  0.7156  0.3653
 7045SOL    HW132597   1.378   1.565   1.231 -0.1402  0.8501  0.3519
 7045SOL    HW232598   1.320   1.681   1.164  1.9134 -0.6451 -1.0086
 7046SOL     OW32599   1.187   1.626   9.383 -0.2971 -0.7485 -0.3110
 7046SOL    HW132600   1.254   1.660   9.324  0.4348 -0.2300  0.8325
 7046SOL    HW232601   1.220   1.649   9.470 -0.8878  1.1349 -0.5884
 7047SOL     OW32602   3.510   2.670   3.362 -0.5464 -0.1808 -0.0647
 7047SOL    HW132603   3.477   2.581   3.362  1.0201 -0.7590  1.3055
 7047SOL    HW232604   3.451   2.712   3.425 -2.1157 -0.9935 -0.9967
 7048SOL     OW32605   3.435   1.615  15.340 -0.2304  0.0858  0.1360
 7048SOL    HW132606   3.401   1.549  15.280  0.4596  0.7279 -0.9595
 7048SOL    HW232607   3.361   1.610  15.400  0.1838  0.0578  0.6480
 7049SOL     OW32608   3.373   3.749   7.740 -0.2324 -0.2080  0.6070
 7049SOL    HW132609   3.314   3.790   7.805  0.4733  1.2225  0.3532
 7049SOL    HW232610   3.357   3.657   7.760 -1.1090 -0.3698 -0.8586
 7050SOL     OW32611   4.129   3.605  13.333 -0.2921  0.0465  0.0533
 7050SOL    HW132612   4.077   3.529  13.307  2.0037 -1.4674 -0.1477
 7050SOL    HW232613   4.118   3.606  13.428  0.7028 -0.7217  0.1812
 7051SOL     OW32614   1.783   4.659   5.171 -0.2762  0.1699 -0.3275
 7051SOL    HW132615   1.847   4.604   5.216  0.9566  1.2062 -0.8312
 7051SOL    HW232616   1.763   4.616   5.088 -1.7790 -1.0173  0.6595
 7052SOL     OW32617   2.416   0.521   0.594  0.7046 -0.3733  0.5971
 7052SOL    HW132618   2.339   0.505   0.649  1.9789 -1.7671  1.9694
 7052SOL    HW232619   2.437   0.607   0.630 -0.4736 -0.0573  0.5466
 7053SOL     OW32620   1.699   0.066  11.161 -0.4313 -0.0006  0.2643
 7053SOL    HW132621   1.794   0.072  11.165 -0.5309  0.5434  1.7364
 7053SOL    HW232622   1.679   0.146  11.209  0.2207  1.5979 -2.1318
 7054SOL     OW32623   0.924   1.568  10.148  0.2262 -0.2658  0.0770
 7054SOL    HW132624   0.976   1.489  10.164 -0.9642 -1.5127 -2.1093
 7054SOL    HW232625   0.912   1.603  10.236  1.1718  1.9934 -0.7041
 7055SOL     OW32626   2.007   3.003  10.018 -0.1737  0.2648 -0.5978
 7055SOL    HW132627   1.920   3.031  10.048  0.0645 -1.4103  1.6157
 7055SOL    HW232628   1.992   2.919   9.974  1.0852 -0.4382  0.3219
 7056SOL     OW32629   4.158   3.894   6.006  0.3144  0.0793 -0.1292
 7056SOL    HW132630   4.083   3.892   5.947 -0.2786 -4.8101  0.8139
 7056SOL    HW232631   4.120   3.885   6.094  0.3119  0.4281 -0.0928
 7057SOL     OW32632   3.245   0.070   4.710 -0.1572 -0.1575  0.0629
 7057SOL    HW132633   3.336   0.073   4.682  0.3495 -1.2598  1.5910
 7057SOL    HW232634   3.244   0.144   4.770  2.2298  2.4744 -3.1424
 7058SOL     OW32635   2.274   0.279  11.304 -0.2326  0.0616 -0.4581
 7058SOL    HW132636   2.302   0.371  11.303  2.5645 -0.7960  1.3753
 7058SOL    HW232637   2.183   0.292  11.331 -0.2121 -0.8548  0.0437
 7059SOL     OW32638   0.852   1.070   5.620 -0.0849  0.7077 -0.2120
 7059SOL    HW132639   0.808   1.109   5.545 -1.5961 -1.7807 -0.6111
 7059SOL    HW232640   0.942   1.104   5.618  0.4672 -0.9376 -3.2484
 7060SOL     OW32641   2.718   3.980  17.111 -0.6168  0.5162  0.4455
 7060SOL    HW132642   2.665   3.903  17.088 -0.5013  0.2815  0.9609
 7060SOL    HW232643   2.715   3.973  17.207 -0.5043  2.8056  0.6135
 7061SOL     OW32644   4.253   0.184   4.951  0.2648 -0.6807 -0.2800
 7061SOL    HW132645   4.307   0.134   4.891  1.4490 -0.0068  0.2329
 7061SOL    HW232646   4.174   0.169   4.899  0.8333  0.3035 -1.4455
 7062SOL     OW32647   1.111   0.656   5.661 -0.0921 -0.1057 -0.3809
 7062SOL    HW132648   1.100   0.733   5.717  0.3495 -0.1973 -0.1674
 7062SOL    HW232649   1.206   0.660   5.649  0.3819 -1.3999  2.8545
 7063SOL     OW32650   2.810   3.695   4.160 -0.1910  0.3906  0.2259
 7063SOL    HW132651   2.831   3.777   4.205  2.8998 -0.4499  0.3104
 7063SOL    HW232652   2.717   3.712   4.176 -0.6861 -0.1097 -2.1935
 7064SOL     OW32653   0.936   0.014   5.790 -0.3361  0.0554 -0.0343
 7064SOL    HW132654   0.869   4.702   5.850 -1.1044 -1.3774 -1.6844
 7064SOL    HW232655   0.888   0.047   5.714  0.9664 -0.4289 -1.0781
 7065SOL     OW32656   1.432   0.013  10.221 -0.1677 -0.0403  0.4787
 7065SOL    HW132657   1.527   0.021  10.215 -0.1230 -0.9432 -0.0269
 7065SOL    HW232658   1.417   4.709  10.312  1.3105  0.6898  0.9257
 7066SOL     OW32659   1.946   3.849   5.090 -0.3785  0.0185 -0.5403
 7066SOL    HW132660   1.869   3.859   5.034 -1.3673  1.8735  1.1126
 7066SOL    HW232661   1.942   3.759   5.121  1.3372  0.1051 -0.0692
 7067SOL     OW32662   2.613   3.265   4.602 -0.8059 -0.0939  0.0966
 7067SOL    HW132663   2.609   3.273   4.507 -0.9077 -0.0445  0.1053
 7067SOL    HW232664   2.659   3.346   4.624 -0.1247 -0.5579  0.4214
 7068SOL     OW32665   4.202   2.785  10.754 -0.4766  0.3910 -0.1552
 7068SOL    HW132666   4.112   2.803  10.727 -0.6867  0.3802  0.5466
 7068SOL    HW232667   4.233   2.723  10.688 -0.7903 -0.4835  0.5297
 7069SOL     OW32668   1.685   4.609   2.151 -0.1227  0.0607 -0.4066
 7069SOL    HW132669   1.730   4.671   2.208 -1.3380 -0.3750  0.9955
 7069SOL    HW232670   1.758   4.589   2.092 -0.2811 -1.9858  0.0920
 7070SOL     OW32671   1.677   1.203   7.274 -0.0406 -0.2847  0.1976
 7070SOL    HW132672   1.636   1.156   7.347  1.3147 -1.3142  0.3053
 7070SOL    HW232673   1.709   1.121   7.235 -0.5899 -0.1610 -0.5013
 7071SOL     OW32674   0.007   0.866   4.066 -0.2801 -0.0157 -0.4304
 7071SOL    HW132675   4.673   0.813   4.008 -1.6546 -0.3766  1.2134
 7071SOL    HW232676   0.036   0.803   4.131  0.9320 -0.7062 -1.6260
 7072SOL     OW32677   0.116   2.442  15.786  0.3586  0.1609  0.3425
 7072SOL    HW132678   0.084   2.373  15.843 -0.0567  0.0128 -0.0662
 7072SOL    HW232679   0.038   2.497  15.789 -1.4380 -2.2692 -1.6625
 7073SOL     OW32680   3.958   2.726   3.283 -0.2857  0.5514  0.3382
 7073SOL    HW132681   4.010   2.804   3.262  1.9241 -1.0656 -0.1864
 7073SOL    HW232682   3.879   2.745   3.232 -0.6372 -1.1187  0.2875
 7074SOL     OW32683   3.438   1.766   5.488  0.3289  0.2286  0.4708
 7074SOL    HW132684   3.442   1.860   5.507  0.4904  0.4994 -0.9222
 7074SOL    HW232685   3.362   1.762   5.429  1.1901 -2.6151 -0.4565
 7075SOL     OW32686   1.212   0.015   3.198  0.2694 -0.4543 -0.1265
 7075SOL    HW132687   1.280   4.677   3.229 -0.1420 -0.6159  0.4597
 7075SOL    HW232688   1.138   4.682   3.173  1.2178 -0.7598 -2.3063
 7076SOL     OW32689   0.737   3.682   7.223  0.1511  0.4025 -0.5956
 7076SOL    HW132690   0.654   3.689   7.271  1.3513  1.1130  1.3753
 7076SOL    HW232691   0.721   3.615   7.157  2.3072 -1.6947  0.9947
 7077SOL     OW32692   4.155   3.011   7.454  0.3382  0.2979  0.2957
 7077SOL    HW132693   4.185   2.935   7.503 -2.7560 -1.4184 -0.5160
 7077SOL    HW232694   4.126   3.071   7.523  0.8058  0.3410  0.4591
 7078SOL     OW32695   2.069   1.378   3.618 -0.0081 -0.3048 -0.5753
 7078SOL    HW132696   2.018   1.434   3.560  0.0406 -2.1297 -2.3796
 7078SOL    HW232697   2.152   1.368   3.571  1.4697  1.5556  1.6330
 7079SOL     OW32698   1.089   1.136   9.805  0.1816  0.5105 -0.3710
 7079SOL    HW132699   1.079   1.221   9.763  1.0277  0.7082 -0.1694
 7079SOL    HW232700   1.010   1.139   9.860 -0.2790 -0.9048 -0.9596
 7080SOL     OW32701   1.852   4.331   6.678 -0.5119  0.1548 -0.3016
 7080SOL    HW132702   1.866   4.251   6.729 -0.0191  0.6841  0.3888
 7080SOL    HW232703   1.812   4.290   6.601  1.9780 -2.7700 -0.0404
 7081SOL     OW32704   4.193   3.743   9.011  0.4075 -0.7021  0.1313
 7081SOL    HW132705   4.153   3.718   8.928 -0.0321 -0.5815  0.3077
 7081SOL    HW232706   4.130   3.806   9.045  0.3284 -1.2635  1.0244
 7082SOL     OW32707   3.352   0.524   2.098 -0.2062 -0.2060 -0.5017
 7082SOL    HW132708   3.408   0.502   2.173 -0.0517 -0.4188 -0.6807
 7082SOL    HW232709   3.401   0.482   2.027  0.2924 -1.2330  0.4411
 7083SOL     OW32710   0.713   1.842   3.256 -0.0233  0.2015 -0.4844
 7083SOL    HW132711   0.796   1.799   3.239  2.8436  4.9381  1.6716
 7083SOL    HW232712   0.672   1.818   3.173  0.8863 -1.9289 -0.3052
 7084SOL     OW32713   1.019   1.907   9.866  0.0013  0.2623  0.5804
 7084SOL    HW132714   0.990   1.936   9.953 -2.8150  2.1500 -0.9771
 7084SOL    HW232715   1.107   1.871   9.878  1.4304  3.7959  0.8805
 7085SOL     OW32716   2.613   2.106  12.198  1.0905  0.0271  0.8069
 7085SOL    HW132717   2.576   2.175  12.254  0.8497  1.6590 -1.3570
 7085SOL    HW232718   2.559   2.030  12.220 -0.4953  0.7956 -0.3820
 7086SOL     OW32719   0.710   2.456   4.397 -0.2158  0.3511 -0.5479
 7086SOL    HW132720   0.629   2.412   4.372  0.6930 -1.9188  0.5748
 7086SOL    HW232721   0.727   2.428   4.487 -0.6939  0.7217 -0.3428
 7087SOL     OW32722   2.524   3.487   7.974  0.3645 -0.3408  0.7328
 7087SOL    HW132723   2.580   3.487   7.896 -0.1509  1.6820  0.3562
 7087SOL    HW232724   2.472   3.410   7.953 -1.4938  0.9731  0.4469
 7088SOL     OW32725   2.828   1.103  13.413  0.1059  0.0309  0.0398
 7088SOL    HW132726   2.885   1.054  13.473  1.9934  2.6774  0.3923
 7088SOL    HW232727   2.749   1.111  13.467 -0.7916 -1.3978 -1.0736
 7089SOL     OW32728   3.194   4.200   7.003 -0.0433  0.2533 -0.2218
 7089SOL    HW132729   3.274   4.244   6.974 -0.3364 -0.0191 -1.4303
 7089SOL    HW232730   3.181   4.236   7.090  1.8717 -0.0776  0.2171
 7090SOL     OW32731   4.658   1.504   4.621  0.2556 -0.6824 -0.4590
 7090SOL    HW132732   4.617   1.558   4.689  0.8661 -1.4078  0.4840
 7090SOL    HW232733   4.666   1.565   4.547 -1.3505 -0.9378 -0.8506
 7091SOL     OW32734   3.693   2.676   4.510  0.1011  0.5844 -0.5667
 7091SOL    HW132735   3.723   2.599   4.461  1.1713  1.4263 -1.2345
 7091SOL    HW232736   3.742   2.741   4.460 -0.5042  3.1169  2.1433
 7092SOL     OW32737   3.098   2.340   6.355  0.0744  0.2683 -0.6293
 7092SOL    HW132738   3.174   2.362   6.300 -0.4662  0.9801 -1.1019
 7092SOL    HW232739   3.030   2.402   6.328 -0.7711 -0.8579 -1.0531
 7093SOL     OW32740   0.525   1.226   4.814  0.7030 -0.0360  0.1456
 7093SOL    HW132741   0.512   1.248   4.906 -0.6193 -0.1543 -0.0170
 7093SOL    HW232742   0.433   1.228   4.790  1.2448 -0.9506 -2.0495
 7094SOL     OW32743   2.500   4.634   6.565 -0.9938  0.0834 -0.5471
 7094SOL    HW132744   2.486   4.619   6.471 -0.2513  0.3584 -0.7037
 7094SOL    HW232745   2.581   4.586   6.580 -1.4735 -0.7304 -0.5525
 7095SOL     OW32746   0.656   4.512   0.228  0.0000 -0.0298  0.7402
 7095SOL    HW132747   0.693   4.554   0.306  1.9783  0.2827 -0.3557
 7095SOL    HW232748   0.602   4.457   0.285 -1.7235  1.9056  0.9510
 7096SOL     OW32749   0.598   1.565   6.695 -0.0051 -0.1828  0.3791
 7096SOL    HW132750   0.562   1.606   6.617  1.2418 -0.1542 -0.1822
 7096SOL    HW232751   0.644   1.491   6.656 -1.8380 -1.3587  0.4757
 7097SOL     OW32752   4.509   0.169   7.044  0.2680  0.0492 -0.1011
 7097SOL    HW132753   4.591   0.122   7.031  0.3013  0.7354 -2.4281
 7097SOL    HW232754   4.548   0.257   7.045 -1.8624  0.9894  0.5235
 7098SOL     OW32755   1.419   3.033   8.251 -0.2442  0.2449  0.5681
 7098SOL    HW132756   1.331   2.996   8.255  0.2527 -0.8971  0.8688
 7098SOL    HW232757   1.437   2.977   8.326  2.8916  0.0499 -0.3475
 7099SOL     OW32758   0.039   1.354   9.140 -0.2830  0.1226 -0.0878
 7099SOL    HW132759   0.058   1.318   9.053  1.4026  0.1755  0.2687
 7099SOL    HW232760   4.682   1.406   9.122  1.2615  3.4278  2.7998
 7100SOL     OW32761   2.382   4.670   0.454 -0.6324 -0.2171  0.4458
 7100SOL    HW132762   2.318   4.678   0.383 -0.2197  1.8568  0.3069
 7100SOL    HW232763   2.458   4.633   0.409 -0.3076 -0.0668  0.8747
 7101SOL     OW32764   2.433   2.358   4.372  0.1903  0.6102 -0.4000
 7101SOL    HW132765   2.529   2.357   4.376  0.1092 -1.7931  1.0118
 7101SOL    HW232766   2.423   2.416   4.297 -2.8028  4.1901  2.8021
 7102SOL     OW32767   3.080   4.170   5.278 -0.4746 -0.1553 -0.3599
 7102SOL    HW132768   3.126   4.251   5.299  0.6474 -0.9487  0.2758
 7102SOL    HW232769   3.108   4.147   5.189  2.3339  1.4165  0.1261
 7103SOL     OW32770   1.139   4.709   4.649  0.1655 -0.3700 -0.6980
 7103SOL    HW132771   1.120   4.684   4.739  0.3523  3.1194  0.2958
 7103SOL    HW232772   1.101   0.076   4.658  0.2250 -0.7457  3.0677
 7104SOL     OW32773   0.004   4.423  12.597  0.2329 -0.0527 -0.1331
 7104SOL    HW132774   0.051   4.413  12.514 -2.2127 -1.7375 -1.2960
 7104SOL    HW232775   0.049   4.499  12.633 -1.1420  1.2509 -1.1572
 7105SOL     OW32776   4.380   4.227   6.538  0.4430  0.5911 -0.2956
 7105SOL    HW132777   4.374   4.294   6.606 -1.5627 -1.3005  1.3792
 7105SOL    HW232778   4.308   4.169   6.563  0.2375  0.7225 -0.5801
 7106SOL     OW32779   0.619   0.381   4.397  0.1170 -0.3003  0.3679
 7106SOL    HW132780   0.583   0.442   4.460 -0.6432 -1.3162  0.9139
 7106SOL    HW232781   0.541   0.340   4.358  0.6444 -1.3185  0.3719
 7107SOL     OW32782   1.217   0.973  15.433 -0.4159  0.3497 -0.3999
 7107SOL    HW132783   1.283   0.931  15.489  0.5433  1.1747 -0.9092
 7107SOL    HW232784   1.140   0.923  15.461 -0.1626 -0.0655 -0.4424
 7108SOL     OW32785   2.238   0.923   8.336 -0.1492 -0.7659  0.0884
 7108SOL    HW132786   2.318   0.873   8.323  0.5718  0.1285  1.0858
 7108SOL    HW232787   2.281   1.005   8.361 -0.7835 -0.2427 -0.5450
 7109SOL     OW32788   2.953   2.817  13.566 -0.5518 -0.4080 -0.3264
 7109SOL    HW132789   2.911   2.731  13.563  1.3977 -1.3698  0.0407
 7109SOL    HW232790   2.965   2.842  13.475 -0.0298  0.4535 -0.0155
 7110SOL     OW32791   0.843   0.986   4.197  0.0589 -0.1222 -0.0004
 7110SOL    HW132792   0.767   1.044   4.211  0.7179  1.2964 -2.3706
 7110SOL    HW232793   0.910   1.027   4.252  0.0036  1.2258 -0.9273
 7111SOL     OW32794   1.967   2.305   9.232  0.2389  0.0513  0.2476
 7111SOL    HW132795   2.052   2.265   9.248  1.2594  1.8868 -0.6937
 7111SOL    HW232796   1.909   2.244   9.278 -1.2157  0.1879 -1.4021
 7112SOL     OW32797   2.646   0.949   4.367 -0.2221 -0.2025 -0.4469
 7112SOL    HW132798   2.739   0.938   4.388 -1.0321 -1.2036  2.6816
 7112SOL    HW232799   2.650   1.040   4.337 -0.4986  0.6155  1.9240
 7113SOL     OW32800   1.334   3.720   0.828  0.6348  0.0863 -0.2843
 7113SOL    HW132801   1.380   3.638   0.808 -1.0207 -1.5897  2.7516
 7113SOL    HW232802   1.287   3.727   0.746  0.0529 -2.4168 -0.1890
 7114SOL     OW32803   4.458   2.263  12.723 -0.0134 -0.4572 -0.7512
 7114SOL    HW132804   4.502   2.185  12.759  0.5629 -0.2093 -0.9174
 7114SOL    HW232805   4.527   2.287  12.661  0.6859 -1.0933 -0.2317
 7115SOL     OW32806   0.656   0.979   3.618 -0.4306 -0.0846 -0.2682
 7115SOL    HW132807   0.678   0.927   3.695 -0.1571  0.4968  0.0474
 7115SOL    HW232808   0.599   0.917   3.573 -1.6490 -0.0471  1.2497
 7116SOL     OW32809   4.398   3.352   4.988  0.1961  0.6418  0.0753
 7116SOL    HW132810   4.339   3.279   5.010  0.1954  0.5407 -0.2715
 7116SOL    HW232811   4.479   3.302   4.993 -0.4302 -0.5451 -1.7983
 7117SOL     OW32812   2.068   4.471   9.030  0.3635  0.1196 -0.2254
 7117SOL    HW132813   2.044   4.470   8.937  0.6189  0.0180 -0.2892
 7117SOL    HW232814   2.054   4.378   9.050 -1.3216 -0.2853 -3.2361
 7118SOL     OW32815   1.934   2.846   6.157  0.3834 -0.3049 -0.0484
 7118SOL    HW132816   1.919   2.753   6.175 -0.3471 -0.3160 -0.7314
 7118SOL    HW232817   1.884   2.859   6.077  0.4322  1.7915  0.2608
 7119SOL     OW32818   4.706   1.950  11.484 -0.0748  0.3824  0.3422
 7119SOL    HW132819   0.062   1.907  11.522  0.0961  0.4894  0.1102
 7119SOL    HW232820   4.683   1.882  11.420  0.3863 -0.0254  0.6128
 7120SOL     OW32821   2.644   2.792  12.752 -0.4622  0.4403 -0.0078
 7120SOL    HW132822   2.604   2.707  12.772  0.1452  0.4886  1.3990
 7120SOL    HW232823   2.668   2.775  12.661  1.7964 -0.1954  0.7139
 7121SOL     OW32824   2.596   0.764   1.913  0.7279 -0.1329 -0.2739
 7121SOL    HW132825   2.555   0.730   1.834  0.6652 -1.8710  0.5162
 7121SOL    HW232826   2.571   0.695   1.974 -1.2501  0.0785 -0.8446
 7122SOL     OW32827   2.618   1.831   9.946  0.0468 -0.1009 -0.5249
 7122SOL    HW132828   2.573   1.765   9.892 -1.1069  0.7522 -0.5910
 7122SOL    HW232829   2.696   1.863   9.900  0.6921 -0.8660  0.0227
 7123SOL     OW32830   1.570   4.199   5.550  0.2387 -0.2074 -0.0793
 7123SOL    HW132831   1.630   4.180   5.478  0.2412  0.5731 -0.2778
 7123SOL    HW232832   1.592   4.132   5.615 -3.0736 -1.4756 -0.2659
 7124SOL     OW32833   4.720   0.306   8.073  0.4497  0.4520  0.0865
 7124SOL    HW132834   0.029   0.382   8.023 -0.8106  0.1281 -1.1600
 7124SOL    HW232835   0.005   0.234   8.011  2.0299  0.4195  0.2644
 7125SOL     OW32836   1.174   1.685   3.304 -0.4409 -0.4363 -0.4563
 7125SOL    HW132837   1.193   1.696   3.397  1.3157 -0.3604 -0.8295
 7125SOL    HW232838   1.175   1.776   3.277 -0.1966 -0.2576  0.1378
 7126SOL     OW32839   2.119   4.317   7.879  0.9058  0.2086 -0.2172
 7126SOL    HW132840   2.211   4.336   7.859  1.2238  2.3220  3.2547
 7126SOL    HW232841   2.126   4.307   7.974  1.4571 -0.4182 -0.3192
 7127SOL     OW32842   2.488   1.734   4.113  0.2035 -0.1055 -0.1850
 7127SOL    HW132843   2.528   1.649   4.097  1.2011  0.0541  1.3916
 7127SOL    HW232844   2.487   1.731   4.209 -0.6975 -1.9816 -0.2612
 7128SOL     OW32845   0.610   0.507   2.427 -0.3995  0.0141 -0.1791
 7128SOL    HW132846   0.696   0.484   2.392 -0.2648  1.1882 -0.5971
 7128SOL    HW232847   0.631   0.600   2.438 -2.4146  0.3364  0.9270
 7129SOL     OW32848   3.360   1.441   8.517 -0.3381 -0.0756  0.6023
 7129SOL    HW132849   3.425   1.444   8.447 -3.2723  0.7144 -2.0776
 7129SOL    HW232850   3.329   1.350   8.522  1.4864 -0.6166  1.9440
 7130SOL     OW32851   3.608   2.525   8.674 -0.5549  0.8316  0.1398
 7130SOL    HW132852   3.595   2.437   8.639  1.0179  0.6101  0.0975
 7130SOL    HW232853   3.524   2.535   8.719 -1.9027  0.5495 -2.3594
 7131SOL     OW32854   0.274   4.129   4.986 -0.4206  0.2884 -0.0362
 7131SOL    HW132855   0.243   4.182   5.060  0.3587  0.8241 -0.0943
 7131SOL    HW232856   0.223   4.048   4.984  1.3251 -0.8149  0.2836
 7132SOL     OW32857   4.634   1.629   8.148 -0.1749 -0.2387  1.3093
 7132SOL    HW132858   4.691   1.687   8.199 -1.2302  2.2614 -0.4051
 7132SOL    HW232859   4.601   1.700   8.094 -0.8681  0.0395  2.0943
 7133SOL     OW32860   0.663   1.406   8.823 -0.3169 -1.1171  0.0177
 7133SOL    HW132861   0.635   1.314   8.819  0.1338 -1.3256  1.4123
 7133SOL    HW232862   0.681   1.422   8.916  0.3101  1.8078 -0.6166
 7134SOL     OW32863   4.652   1.537  14.733 -0.2792 -0.0888 -0.1552
 7134SOL    HW132864   4.616   1.625  14.726 -0.5316 -0.2560 -0.9217
 7134SOL    HW232865   4.634   1.523  14.827 -2.7884  1.9769 -0.3210
 7135SOL     OW32866   1.090   2.111  12.405  0.1967 -0.1576 -0.1634
 7135SOL    HW132867   1.035   2.035  12.424 -2.0153  2.0539  2.2074
 7135SOL    HW232868   1.102   2.116  12.310 -1.7459 -2.4183 -0.5338
 7136SOL     OW32869   2.699   4.248  14.661 -0.1224 -0.4943 -0.1926
 7136SOL    HW132870   2.605   4.233  14.657 -0.3951  1.1406  0.5485
 7136SOL    HW232871   2.718   4.213  14.748  2.7715  1.2583 -0.1042
 7137SOL     OW32872   2.344   3.900   5.999 -0.2508  0.0307  0.5505
 7137SOL    HW132873   2.366   3.982   6.042  1.5596 -0.4238  0.4902
 7137SOL    HW232874   2.340   3.843   6.076 -0.7969 -1.2511 -0.4067
 7138SOL     OW32875   1.854   1.645   1.629 -0.7592 -0.5069  0.1509
 7138SOL    HW132876   1.890   1.629   1.541  0.4274  2.4177  0.0753
 7138SOL    HW232877   1.834   1.737   1.608 -1.0480 -0.8027 -0.8515
 7139SOL     OW32878   1.077   4.708   8.228  0.4273  0.0389  0.3735
 7139SOL    HW132879   1.048   4.641   8.167  0.6533 -1.0655  1.4862
 7139SOL    HW232880   1.002   0.044   8.211  0.8611  1.2992  2.5730
 7140SOL     OW32881   0.595   1.107   3.085  0.1950 -0.2070 -0.2009
 7140SOL    HW132882   0.526   1.105   3.151  2.0136 -0.7821  1.6771
 7140SOL    HW232883   0.629   1.019   3.101  4.3901  1.2375 -1.1596
 7141SOL     OW32884   0.558   1.266   7.943 -0.2443  0.5100 -0.4844
 7141SOL    HW132885   0.581   1.212   8.018 -0.2691  1.8758  0.5189
 7141SOL    HW232886   0.593   1.211   7.873  1.0053  2.9125 -1.7474
 7142SOL     OW32887   3.725   3.929   1.906  0.2862  0.2036 -0.2814
 7142SOL    HW132888   3.708   3.873   1.830  0.0859 -0.4564  0.2575
 7142SOL    HW232889   3.817   3.905   1.916  0.5541  1.8524  1.2437
 7143SOL     OW32890   2.270   0.091   2.835 -0.0642  0.0501 -0.6192
 7143SOL    HW132891   2.180   0.119   2.817 -0.2278  0.3613  0.6624
 7143SOL    HW232892   2.309   0.094   2.748 -1.4996 -2.6732 -1.3693
 7144SOL     OW32893   2.388   4.219   4.525 -0.6334 -0.3124 -0.0880
 7144SOL    HW132894   2.421   4.306   4.504 -0.0921 -0.4069  0.3688
 7144SOL    HW232895   2.327   4.244   4.594 -1.2057  1.1609 -1.1545
 7145SOL     OW32896   1.744   2.776  10.289  0.6923  0.4780 -0.1647
 7145SOL    HW132897   1.836   2.782  10.266  0.7816  0.1954  0.1168
 7145SOL    HW232898   1.723   2.866  10.314 -1.8106 -0.5076  1.3289
 7146SOL     OW32899   3.116   4.107   9.776 -0.1328 -0.9629 -0.3784
 7146SOL    HW132900   3.024   4.083   9.783  0.1250 -1.1138  2.4932
 7146SOL    HW232901   3.131   4.142   9.863  0.4282  0.4743 -1.0551
 7147SOL     OW32902   1.981   0.184  11.239  0.0169  0.2225  0.5820
 7147SOL    HW132903   1.998   0.240  11.315  1.0611  1.8520 -0.8573
 7147SOL    HW232904   2.040   0.213  11.169 -2.6676 -0.0725 -1.8118
 7148SOL     OW32905   2.862   4.010   8.524  0.3578  0.1410  0.3045
 7148SOL    HW132906   2.929   4.057   8.474 -0.3787 -1.0650 -1.8007
 7148SOL    HW232907   2.910   3.934   8.558 -1.1635 -1.0913 -0.2892
 7149SOL     OW32908   3.428   4.337  14.704  0.7256  0.7763  0.3938
 7149SOL    HW132909   3.361   4.309  14.768  1.0933  1.8551  1.2566
 7149SOL    HW232910   3.462   4.407  14.760  1.7824 -0.4686  1.3199
 7150SOL     OW32911   4.171   2.385   4.619  0.2542 -0.3170 -0.3735
 7150SOL    HW132912   4.164   2.367   4.712  0.2867  1.5684 -0.0066
 7150SOL    HW232913   4.106   2.330   4.576  0.0767  0.3396 -0.9485
 7151SOL     OW32914   2.973   2.589   6.665 -0.8759 -0.6793 -0.5419
 7151SOL    HW132915   3.001   2.509   6.621 -0.3724 -0.9797  0.3252
 7151SOL    HW232916   2.948   2.558   6.752 -1.9056  0.8965 -0.2744
 7152SOL     OW32917   3.403   0.038   2.337 -0.6838  0.2758 -0.4474
 7152SOL    HW132918   3.316   0.066   2.307 -0.3040 -0.5498 -2.3495
 7152SOL    HW232919   3.425   4.689   2.275  0.3497 -1.4137  1.8302
 7153SOL     OW32920   1.484   2.451   6.195 -0.4971 -0.5208 -0.2027
 7153SOL    HW132921   1.555   2.433   6.257  0.9238  1.2325 -1.3194
 7153SOL    HW232922   1.478   2.545   6.179 -1.0069 -0.4592  0.3626
 7154SOL     OW32923   1.255   1.257  15.466 -0.1060 -0.1794  0.1687
 7154SOL    HW132924   1.340   1.236  15.504  0.5325  0.1434 -1.1084
 7154SOL    HW232925   1.231   1.164  15.462 -1.2671  0.0142  2.3634
 7155SOL     OW32926   0.039   1.920   4.068  0.2489  0.2695 -0.1221
 7155SOL    HW132927   4.711   1.843   4.093  0.8666  0.3950  1.4762
 7155SOL    HW232928   0.032   1.915   3.973 -1.9309 -1.0518  0.1160
 7156SOL     OW32929   3.032   0.054   3.521 -0.2925  0.2060 -0.3609
 7156SOL    HW132930   3.012   0.106   3.443  0.3394  0.3182 -0.4485
 7156SOL    HW232931   2.976   0.098   3.584  0.6418 -0.3820  0.8906
 7157SOL     OW32932   1.268   0.925   0.337 -0.1790  0.3207 -0.1013
 7157SOL    HW132933   1.351   0.886   0.309 -0.6366  0.3950 -1.5780
 7157SOL    HW232934   1.303   1.009   0.367  0.3432  0.5999 -1.4780
 7158SOL     OW32935   2.841   3.278   2.232 -0.0572  0.6319 -0.2667
 7158SOL    HW132936   2.930   3.300   2.259 -0.0960  2.1056 -1.3608
 7158SOL    HW232937   2.815   3.358   2.188  2.7152  1.7169  0.0926
 7159SOL     OW32938   1.613   1.099  12.151  0.1336  0.2604  0.2493
 7159SOL    HW132939   1.699   1.142  12.149  0.2296 -0.0180 -1.2403
 7159SOL    HW232940   1.586   1.108  12.243  2.1260  2.2741  0.6662
 7160SOL     OW32941   3.560   0.758   0.808 -0.3390 -0.1830 -0.3816
 7160SOL    HW132942   3.541   0.766   0.715 -0.5689  0.9077 -0.2404
 7160SOL    HW232943   3.655   0.767   0.799 -0.3427 -1.3387 -1.5596
 7161SOL     OW32944   1.999   4.158   6.181 -0.7379  0.0587  0.0337
 7161SOL    HW132945   1.964   4.221   6.119 -0.0465  2.2302  1.8449
 7161SOL    HW232946   1.927   4.099   6.201  0.3134 -1.2377  0.0161
 7162SOL     OW32947   0.685   0.626   6.146  0.2009  0.8461 -0.2369
 7162SOL    HW132948   0.743   0.603   6.074  1.8304  0.9311  1.0614
 7162SOL    HW232949   0.630   0.692   6.103 -0.4492  0.3768 -0.1226
 7163SOL     OW32950   3.491   2.124   7.176  0.2424  0.0258  0.0405
 7163SOL    HW132951   3.428   2.193   7.198  0.0761 -0.6954  1.8151
 7163SOL    HW232952   3.426   2.056   7.160 -1.0609  1.4879 -0.8042
 7164SOL     OW32953   0.281   3.251   0.151 -0.2137  0.3640 -0.1347
 7164SOL    HW132954   0.358   3.308   0.149 -1.4868  2.0686 -0.6795
 7164SOL    HW232955   0.235   3.268   0.069 -0.6004 -0.6381 -0.1292
 7165SOL     OW32956   3.573   1.058   2.966 -0.1557  0.3918  0.1842
 7165SOL    HW132957   3.564   1.127   2.901  1.5106 -0.1777 -0.6545
 7165SOL    HW232958   3.637   1.001   2.923 -1.0711  0.6940 -1.6004
 7166SOL     OW32959   3.328   3.750   2.411 -0.6717 -0.8495 -0.1591
 7166SOL    HW132960   3.353   3.709   2.328  2.1470 -0.0587  0.2879
 7166SOL    HW232961   3.255   3.698   2.443 -1.4205 -0.6865 -1.6100
 7167SOL     OW32962   3.696   3.482   0.583  0.1665  0.1415 -0.1727
 7167SOL    HW132963   3.667   3.550   0.644 -1.0520 -0.9246  0.4285
 7167SOL    HW232964   3.790   3.505   0.580  0.3601 -0.5124  0.7672
 7168SOL     OW32965   0.668   0.650  17.480 -0.2585  0.3687  0.1722
 7168SOL    HW132966   0.760   0.666  17.460 -0.6333  2.1300 -0.1411
 7168SOL    HW232967   0.680   0.613  17.568  0.3097  0.0506 -0.0361
 7169SOL     OW32968   3.405   4.106  12.570  0.1899 -0.2908  0.0413
 7169SOL    HW132969   3.436   4.044  12.505  0.4711  0.2709 -0.3559
 7169SOL    HW232970   3.413   4.047  12.645  3.0780  1.1629  0.8786
 7170SOL     OW32971   1.153   2.091   8.481  0.0198 -0.2637 -0.3838
 7170SOL    HW132972   1.203   2.042   8.546 -1.3199  0.9750  1.5741
 7170SOL    HW232973   1.107   2.018   8.441 -1.5991 -0.1254  1.2524
 7171SOL     OW32974   4.608   0.046   1.283  0.1364 -0.3782 -0.1579
 7171SOL    HW132975   4.646   4.700   1.340 -0.8732 -0.1002  0.8349
 7171SOL    HW232976   4.553   0.088   1.349  0.6845 -0.0975  0.1137
 7172SOL     OW32977   1.391   2.850   1.820 -0.6549 -0.5632 -0.3472
 7172SOL    HW132978   1.310   2.853   1.768 -0.4289  1.2878 -0.6226
 7172SOL    HW232979   1.450   2.794   1.769 -1.0558 -2.4913  1.2998
 7173SOL     OW32980   4.416   0.027   4.791 -0.2167  0.4656 -0.0696
 7173SOL    HW132981   4.476   0.062   4.856 -0.9423 -1.1671  1.4821
 7173SOL    HW232982   4.452   4.662   4.768  0.2606  0.5797  0.2773
 7174SOL     OW32983   1.926   2.616   5.363  0.2461  0.5383  0.6958
 7174SOL    HW132984   1.832   2.617   5.345  0.3527 -0.9434  0.0408
 7174SOL    HW232985   1.963   2.553   5.301 -2.6205 -0.7187  0.2589
 7175SOL     OW32986   3.389   2.512   3.073  0.2823  0.1135 -0.2262
 7175SOL    HW132987   3.377   2.558   3.156  0.2731  0.2280 -0.2898
 7175SOL    HW232988   3.302   2.474   3.057 -1.5459  3.4020  1.7421
 7176SOL     OW32989   0.864   1.729   6.714 -0.2719  0.2718  0.3189
 7176SOL    HW132990   0.891   1.638   6.725 -1.8464 -0.3776 -1.0334
 7176SOL    HW232991   0.779   1.728   6.759 -0.8935 -3.1584 -0.8968
 7177SOL     OW32992   2.550   3.319   5.548  0.5856  0.4224  0.0687
 7177SOL    HW132993   2.496   3.390   5.512 -0.5397  0.2568  1.4430
 7177SOL    HW232994   2.607   3.371   5.605  0.6390  1.1775 -0.6739
 7178SOL     OW32995   4.593   1.237   4.994 -0.0837 -0.0921  0.3627
 7178SOL    HW132996   4.555   1.325   4.998 -1.3399 -0.6276  0.2342
 7178SOL    HW232997   4.628   1.239   4.905 -0.6042 -0.6756  0.1468
 7179SOL     OW32998   1.985   1.668   7.390 -0.1044  0.4710  0.0791
 7179SOL    HW132999   1.956   1.732   7.326  1.8663  0.5442 -0.7308
 7179SOL    HW233000   2.000   1.597   7.327 -0.9955  0.2063  0.1676
 7180SOL     OW33001   3.283   2.532   3.795  0.4295 -0.0986 -0.0397
 7180SOL    HW133002   3.223   2.531   3.869  2.3217 -0.3550  1.5009
 7180SOL    HW233003   3.340   2.603   3.825 -0.2045  0.3382  0.1161
 7181SOL     OW33004   1.698   3.344   2.778 -0.1294 -0.1328  0.3438
 7181SOL    HW133005   1.783   3.355   2.734 -0.7095  4.2214  0.2642
 7181SOL    HW233006   1.703   3.249   2.788  1.7823  0.1098  1.9252
 7182SOL     OW33007   4.440   0.055   0.150 -0.0887  0.1867  0.4899
 7182SOL    HW133008   4.430   0.150   0.151 -0.6730  0.1175  0.7866
 7182SOL    HW233009   4.459   0.029   0.240  1.3863  0.8751  0.3796
 7183SOL     OW33010   3.831   0.641   1.930 -0.5976 -0.1335 -0.4540
 7183SOL    HW133011   3.746   0.673   1.958 -0.2909  0.9349 -0.7673
 7183SOL    HW233012   3.814   0.547   1.940 -0.4596 -0.2966 -1.6797
 7184SOL     OW33013   4.668   0.083   7.904  0.1115 -0.2262  0.4755
 7184SOL    HW133014   0.019   0.029   7.935 -0.5987 -1.2240  0.4210
 7184SOL    HW233015   4.682   0.089   7.809  0.1118  0.4951  0.5196
 7185SOL     OW33016   4.469   4.451   9.516 -0.0029 -0.2398  0.0979
 7185SOL    HW133017   4.445   4.457   9.609 -0.3921 -4.2674  0.2813
 7185SOL    HW233018   4.379   4.465   9.489  0.3209 -0.4376 -1.0713
 7186SOL     OW33019   2.525   0.101  17.001  0.0352  0.1147 -0.1944
 7186SOL    HW133020   2.567   0.183  17.027  0.1755 -0.6479  1.9420
 7186SOL    HW233021   2.599   0.052  16.966  0.1296 -0.0418  0.2295
 7187SOL     OW33022   3.940   4.340   3.602  0.2661  0.0865  0.0561
 7187SOL    HW133023   3.989   4.317   3.681 -1.2710 -1.1446  0.6389
 7187SOL    HW233024   3.966   4.432   3.592  2.8086 -0.7147 -0.6913
 7188SOL     OW33025   4.378   3.921  16.532  0.5654  0.1642 -0.1981
 7188SOL    HW133026   4.373   3.976  16.454  0.9502  0.0394 -0.3072
 7188SOL    HW233027   4.290   3.882  16.533  0.6710 -0.0840 -2.1044
 7189SOL     OW33028   3.464   0.214  11.667  0.3075  0.1163 -0.4718
 7189SOL    HW133029   3.452   0.139  11.725  0.1999  0.0652 -0.5609
 7189SOL    HW233030   3.551   0.240  11.697  1.0988 -1.3560 -1.4904
 7190SOL     OW33031   4.166   4.443   3.005  0.1317  0.6772  0.4380
 7190SOL    HW133032   4.115   4.406   2.933  0.2369 -0.6671  1.0422
 7190SOL    HW233033   4.255   4.428   2.973 -0.7761 -0.9208 -1.3422
 7191SOL     OW33034   3.184   4.461  14.331 -0.2726  0.7321 -0.2546
 7191SOL    HW133035   3.145   4.378  14.303  0.7590  0.0348  0.3549
 7191SOL    HW233036   3.273   4.425  14.329  0.0127  1.4198 -0.1931
 7192SOL     OW33037   4.717   2.497  16.612  0.1372 -0.1278 -0.3465
 7192SOL    HW133038   4.650   2.458  16.554  0.3376  0.0071 -0.6691
 7192SOL    HW233039   4.674   2.498  16.698  0.1212  0.8145 -0.3633
 7193SOL     OW33040   4.418   3.253   2.756 -0.0459  0.3540  0.5323
 7193SOL    HW133041   4.488   3.310   2.726  0.2808  0.1821  0.9653
 7193SOL    HW233042   4.356   3.246   2.683 -0.0153  3.7620  0.2076
 7194SOL     OW33043   1.595   2.257   3.903 -0.6974 -0.0627 -0.2625
 7194SOL    HW133044   1.508   2.265   3.943 -1.0285 -2.4692 -0.5462
 7194SOL    HW233045   1.636   2.334   3.943 -0.5420 -0.4351  0.3058
 7195SOL     OW33046   0.507   3.622  16.054  0.6310  0.0288  0.0612
 7195SOL    HW133047   0.458   3.547  16.086 -1.0456  1.5578  1.0911
 7195SOL    HW233048   0.441   3.662  15.997  0.1316 -1.6578 -0.5289
 7196SOL     OW33049   0.468   3.705   3.468  0.0167  0.1274  0.3709
 7196SOL    HW133050   0.406   3.765   3.511 -0.6033  0.1682 -0.5809
 7196SOL    HW233051   0.481   3.742   3.381  1.8674 -0.1027  0.5483
 7197SOL     OW33052   1.216   0.667   0.320  0.0078 -0.5062 -0.0931
 7197SOL    HW133053   1.230   0.756   0.353  0.2720  0.0584 -1.7099
 7197SOL    HW233054   1.145   0.651   0.382  0.9657 -0.4570  1.0192
 7198SOL     OW33055   4.137   3.469  10.044 -0.3046  0.0192 -0.4764
 7198SOL    HW133056   4.157   3.415  10.121 -1.6347  1.6179  0.9912
 7198SOL    HW233057   4.156   3.556  10.081  1.2840 -0.9535  0.9933
 7199SOL     OW33058   1.967   0.959   1.211 -0.0808  0.1496 -0.2882
 7199SOL    HW133059   2.004   0.878   1.176 -2.5279 -1.0572 -0.0611
 7199SOL    HW233060   1.934   1.009   1.135  0.6624  2.6561  1.0379
 7200SOL     OW33061   0.699   2.401   5.436  0.3457  0.0723 -0.9775
 7200SOL    HW133062   0.656   2.416   5.351 -1.1611  0.8156 -0.0881
 7200SOL    HW233063   0.633   2.440   5.493 -0.0084  1.4114 -2.2817
 7201SOL     OW33064   3.883   4.260   0.380 -0.1524 -0.6501  0.1001
 7201SOL    HW133065   3.858   4.229   0.293  2.0194 -0.0305 -0.7297
 7201SOL    HW233066   3.797   4.280   0.417 -0.1190 -2.5539  1.2151
 7202SOL     OW33067   4.232   2.069  15.719 -0.3525  0.2325 -0.0766
 7202SOL    HW133068   4.197   1.988  15.681  1.5635 -0.4576 -0.3941
 7202SOL    HW233069   4.151   2.094  15.762  0.0300  3.9274 -1.4771
 7203SOL     OW33070   2.881   3.391   6.665  0.0884  0.5423  0.5681
 7203SOL    HW133071   2.940   3.316   6.662  0.1740  0.6392 -0.1047
 7203SOL    HW233072   2.838   3.409   6.582  2.1508  1.8678 -0.2175
 7204SOL     OW33073   0.973   2.615   5.574 -0.0898 -0.1964  0.5302
 7204SOL    HW133074   0.975   2.537   5.519 -0.2572 -0.7278  1.2668
 7204SOL    HW233075   1.065   2.622   5.602  0.2877 -2.9925  0.0636
 7205SOL     OW33076   0.334   3.702  15.790 -0.7936  0.1421  0.2313
 7205SOL    HW133077   0.306   3.663  15.706  0.1406 -0.2057  0.0736
 7205SOL    HW233078   0.372   3.787  15.769 -2.6130  0.7807 -0.4981
 7206SOL     OW33079   3.868   2.628   6.658  0.2299 -0.2042 -0.1509
 7206SOL    HW133080   3.922   2.697   6.696 -0.6235  0.1231  0.4739
 7206SOL    HW233081   3.829   2.609   6.744 -0.0516  1.0958  0.0031
 7207SOL     OW33082   0.380   4.104   8.981 -0.4852 -0.0682  0.0337
 7207SOL    HW133083   0.359   4.088   8.889 -0.1003  0.1152 -0.0888
 7207SOL    HW233084   0.296   4.132   9.017 -1.1885  2.0860 -3.2521
 7208SOL     OW33085   4.615   0.794   1.946 -0.4027  0.3323 -1.1815
 7208SOL    HW133086   4.691   0.795   1.887 -0.2990  0.2635 -1.0493
 7208SOL    HW233087   4.657   0.751   2.021 -0.0946  0.1402 -1.4622
 7209SOL     OW33088   1.216   3.294   2.003 -0.1914 -0.7442 -0.0189
 7209SOL    HW133089   1.191   3.203   1.985  0.0605 -0.6285 -0.9675
 7209SOL    HW233090   1.312   3.299   1.999 -0.4642  2.6257 -1.4803
 7210SOL     OW33091   2.484   3.301  16.921  0.1300 -0.2411  0.3312
 7210SOL    HW133092   2.475   3.374  16.859  1.3309  0.0361  0.4882
 7210SOL    HW233093   2.397   3.260  16.911 -0.7002  1.0885  2.1140
 7211SOL     OW33094   0.347   2.907  12.044  0.0329 -0.2457  0.7272
 7211SOL    HW133095   0.390   2.970  11.985 -1.8951 -0.6875 -1.1745
 7211SOL    HW233096   0.259   2.945  12.050 -0.0837 -0.3838 -0.0285
 7212SOL     OW33097   0.140   0.556   6.688 -0.3417  0.0087  0.1773
 7212SOL    HW133098   0.199   0.569   6.614 -1.5864  0.2129 -0.7666
 7212SOL    HW233099   0.205   0.572   6.757  1.0907 -1.6022 -0.8004
 7213SOL     OW33100   1.150   1.105   2.469  0.3041 -0.5479  0.5859
 7213SOL    HW133101   1.112   1.070   2.550 -3.1542 -2.0880 -1.7242
 7213SOL    HW233102   1.140   1.040   2.400  1.6489  0.3757 -0.4745
 7214SOL     OW33103   4.618   2.488  13.637  0.1292  0.0396  0.3393
 7214SOL    HW133104   4.698   2.451  13.674  0.0464 -1.5915 -1.1215
 7214SOL    HW233105   4.629   2.577  13.670  1.8884 -0.0215 -0.0661
 7215SOL     OW33106   3.973   0.178   8.156  0.0513  0.3672 -0.0317
 7215SOL    HW133107   4.042   0.239   8.182  0.6965 -0.0490 -0.7715
 7215SOL    HW233108   3.999   0.097   8.200 -0.4602  0.9851  1.4059
 7216SOL     OW33109   1.418   2.029  14.406  0.0100  0.5728  0.2005
 7216SOL    HW133110   1.415   1.984  14.321  1.4484  1.0932 -0.1255
 7216SOL    HW233111   1.513   2.026  14.409  0.0044  1.0582  0.8981
 7217SOL     OW33112   3.180   4.673   9.170  0.3208  0.0410  0.0942
 7217SOL    HW133113   3.107   4.612   9.161  0.4691 -0.2805  1.1005
 7217SOL    HW233114   3.153   0.020   9.107 -2.1715  0.0464  1.1670
 7218SOL     OW33115   2.191   3.863   5.267 -0.4310  0.5426  0.5860
 7218SOL    HW133116   2.117   3.886   5.324  0.4673  1.9357  1.2007
 7218SOL    HW233117   2.142   3.808   5.206  2.0741 -0.9308 -0.0761
 7219SOL     OW33118   0.328   2.201  11.753 -0.1251  0.8943 -0.0891
 7219SOL    HW133119   0.338   2.160  11.667  0.6681  0.4465  0.2175
 7219SOL    HW233120   0.367   2.143  11.819  0.4356  1.9620  0.5075
 7220SOL     OW33121   2.161   0.459  15.640 -0.6326  0.0111 -0.0756
 7220SOL    HW133122   2.151   0.402  15.564 -0.3975 -1.7697  1.2311
 7220SOL    HW233123   2.101   0.532  15.622  0.9513  1.7622  1.5827
 7221SOL     OW33124   3.374   4.067   4.256  0.3079 -0.4889 -0.0198
 7221SOL    HW133125   3.373   3.972   4.246 -0.1090 -0.6936  1.9243
 7221SOL    HW233126   3.399   4.093   4.167  0.6213  0.1374  0.2462
 7222SOL     OW33127   1.248   2.006  14.619 -0.4521  0.2681  0.5323
 7222SOL    HW133128   1.309   2.023  14.691 -0.8771  2.3832  0.3871
 7222SOL    HW233129   1.294   2.046  14.546 -1.3263 -1.3019 -0.8719
 7223SOL     OW33130   3.401   2.523   5.614  0.6134  0.2089 -0.0221
 7223SOL    HW133131   3.440   2.450   5.566 -2.0373 -2.1769  1.4526
 7223SOL    HW233132   3.464   2.561   5.675  0.4004  0.0009  0.3313
 7224SOL     OW33133   0.279   1.591   6.985  0.3684 -0.3817  0.6494
 7224SOL    HW133134   0.217   1.645   6.936 -0.3327 -1.6862  0.0755
 7224SOL    HW233135   0.287   1.642   7.065  1.9832  1.5852 -0.7730
 7225SOL     OW33136   2.130   2.396  11.349  0.0136  0.1070 -0.0923
 7225SOL    HW133137   2.143   2.464  11.415  1.1682 -1.5055  1.3755
 7225SOL    HW233138   2.082   2.445  11.283 -0.1171  0.4047  0.2237
 7226SOL     OW33139   3.517   1.029  14.415  0.3719 -0.0324 -0.7414
 7226SOL    HW133140   3.503   1.058  14.325  0.2540  0.3787 -0.5905
 7226SOL    HW233141   3.472   0.945  14.416  0.6314 -0.1486  2.5385
 7227SOL     OW33142   2.978   1.943   1.916 -0.0332  0.4904 -0.2984
 7227SOL    HW133143   3.049   1.896   1.959  0.3893  2.7222  1.4745
 7227SOL    HW233144   2.959   1.892   1.837  1.1202  1.8396 -1.4445
 7228SOL     OW33145   4.367   4.072   6.014 -0.1431 -0.3113 -0.8457
 7228SOL    HW133146   4.374   4.138   6.083 -1.4526  2.2333 -3.1562
 7228SOL    HW233147   4.275   4.048   6.025  0.5444 -1.9602  1.1400
 7229SOL     OW33148   3.974   4.044   8.094  0.1160 -0.1366  0.3099
 7229SOL    HW133149   4.062   4.049   8.056  0.2253 -3.9067  0.0672
 7229SOL    HW233150   3.929   3.978   8.041  0.6685 -0.8209  0.6894
 7230SOL     OW33151   2.518   2.500   5.886  0.4210 -0.3617 -0.0632
 7230SOL    HW133152   2.423   2.503   5.873  0.3422 -0.2805  0.5524
 7230SOL    HW233153   2.527   2.407   5.864  1.8740  0.0958 -1.3546
 7231SOL     OW33154   0.440   2.648   2.736 -0.4480 -0.3210  0.5256
 7231SOL    HW133155   0.494   2.710   2.688 -2.0494 -1.4561 -2.7697
 7231SOL    HW233156   0.509   2.605   2.787 -1.3321 -2.2172  0.1262
 7232SOL     OW33157   0.399   3.546   4.873  0.6217  0.1384 -0.1459
 7232SOL    HW133158   0.423   3.534   4.781 -0.5593 -2.1451 -0.1441
 7232SOL    HW233159   0.384   3.454   4.891 -1.7825 -0.0488 -3.2559
 7233SOL     OW33160   0.749   0.009  15.467 -0.8613  0.0469  0.1943
 7233SOL    HW133161   0.707   4.663  15.414 -2.1236  0.4447  0.6993
 7233SOL    HW233162   0.833   4.688  15.487  0.1470  0.5385 -2.9224
 7234SOL     OW33163   1.519   3.104   7.262  0.1762  0.3368 -0.3297
 7234SOL    HW133164   1.595   3.156   7.288 -1.3646  1.2280  2.3901
 7234SOL    HW233165   1.443   3.156   7.286  0.6449 -0.2697  2.4372
 7235SOL     OW33166   3.531   4.492   5.369 -0.2200 -0.2817 -0.7842
 7235SOL    HW133167   3.563   4.407   5.400  0.4719  1.0716  2.2201
 7235SOL    HW233168   3.556   4.563   5.427 -2.0633 -1.0925  1.0016
 7236SOL     OW33169   4.210   2.856   5.522  0.1224 -0.3565 -0.0016
 7236SOL    HW133170   4.290   2.807   5.503  0.7558  1.0565 -1.0548
 7236SOL    HW233171   4.144   2.788   5.528 -0.0213 -0.1755  0.4456
 7237SOL     OW33172   2.770   2.210  12.506 -0.5780 -0.1699 -0.0922
 7237SOL    HW133173   2.758   2.260  12.425 -0.0079  0.6034  0.2962
 7237SOL    HW233174   2.822   2.268  12.562 -0.4651 -1.3912  1.0511
 7238SOL     OW33175   2.924   3.959   7.961 -0.6670 -0.1412 -0.1517
 7238SOL    HW133176   2.979   3.926   7.889 -1.5606 -0.4398 -0.6885
 7238SOL    HW233177   2.986   4.013   8.011  0.8306 -1.5125 -0.4980
 7239SOL     OW33178   0.370   3.953   4.590  0.1533  0.4219  0.2231
 7239SOL    HW133179   0.410   3.960   4.677 -0.7631 -0.6617  0.7407
 7239SOL    HW233180   0.371   4.040   4.550  0.7702  0.8862  1.2423
 7240SOL     OW33181   3.821   2.892   8.767 -1.0614 -0.4727 -0.5791
 7240SOL    HW133182   3.912   2.862   8.775 -0.7124  0.7778  0.1725
 7240SOL    HW233183   3.805   2.908   8.860  1.1839 -1.0455 -0.0893
 7241SOL     OW33184   3.225   3.392   3.810  0.2628  0.0942  0.1549
 7241SOL    HW133185   3.142   3.425   3.846 -0.4954 -1.7145  0.0673
 7241SOL    HW233186   3.244   3.338   3.886  3.4851  0.1938 -0.5787
 7242SOL     OW33187   0.627   0.371   8.044 -0.2315 -0.3337 -0.1501
 7242SOL    HW133188   0.570   0.402   7.974  2.1340  1.0780 -1.4820
 7242SOL    HW233189   0.622   0.442   8.108 -1.3135  0.4441 -1.1113
 7243SOL     OW33190   1.782   2.944   3.135  0.4708 -0.4032 -1.1154
 7243SOL    HW133191   1.866   2.946   3.181  0.6773 -0.1415 -1.5031
 7243SOL    HW233192   1.760   3.036   3.120 -0.9907 -0.4533  0.6963
 7244SOL     OW33193   3.619   1.274   9.191  0.5017  0.3536  0.0756
 7244SOL    HW133194   3.711   1.280   9.165  0.2266 -1.5447 -1.3808
 7244SOL    HW233195   3.588   1.359   9.223 -0.4992  0.0647 -0.1275
 7245SOL     OW33196   1.196   0.713   4.379 -0.1947 -0.0650  0.1751
 7245SOL    HW133197   1.116   0.670   4.409  0.4342 -0.9028  0.6650
 7245SOL    HW233198   1.169   0.804   4.391  1.1373  0.4165 -0.4453
 7246SOL     OW33199   3.663   0.618   5.683  0.1632 -0.0077 -0.1142
 7246SOL    HW133200   3.668   0.714   5.690 -1.7856  0.1576 -1.0199
 7246SOL    HW233201   3.622   0.600   5.768 -1.9702 -0.1817 -1.1793
 7247SOL     OW33202   0.252   4.477   2.059 -0.7177  0.4387 -0.0997
 7247SOL    HW133203   0.191   4.420   2.012 -1.4056  1.9333 -0.9916
 7247SOL    HW233204   0.280   4.405   2.116  0.7178 -0.4107 -1.8854
 7248SOL     OW33205   1.347   1.210  15.864  0.0919 -0.8884 -0.4846
 7248SOL    HW133206   1.252   1.210  15.856 -0.0355  1.0465  0.9142
 7248SOL    HW233207   1.368   1.219  15.771 -2.2991 -0.9892 -1.0328
 7249SOL     OW33208   4.076   4.204   4.794 -0.1104 -0.2466  0.0143
 7249SOL    HW133209   3.983   4.203   4.818 -0.0260  0.1108  0.3527
 7249SOL    HW233210   4.076   4.154   4.712  0.6376  0.8595 -0.6627
 7250SOL     OW33211   4.680   1.260   7.840  0.0820  0.5362  0.6528
 7250SOL    HW133212   4.590   1.259   7.809  0.9533 -0.6864 -1.8622
 7250SOL    HW233213   4.698   1.354   7.838  2.9086  0.0502  2.4033
 7251SOL     OW33214   3.749   2.381   6.511  0.4699 -0.2631  0.3130
 7251SOL    HW133215   3.686   2.334   6.566 -0.3835 -1.3748 -1.6519
 7251SOL    HW233216   3.783   2.454   6.563  0.3131 -0.2273  0.3641
 7252SOL     OW33217   1.776   1.237   7.686 -0.7211 -0.0571  0.7921
 7252SOL    HW133218   1.866   1.251   7.655 -0.3497 -0.2720  1.7882
 7252SOL    HW233219   1.753   1.325   7.712 -1.6273 -0.0539 -0.0275
 7253SOL     OW33220   4.568   4.015   7.911  0.3055 -0.3506  0.0586
 7253SOL    HW133221   4.528   3.937   7.874 -0.4096 -1.0700  2.3083
 7253SOL    HW233222   4.591   4.058   7.829 -2.3457  2.3145  0.7160
 7254SOL     OW33223   3.605   1.888   0.397  0.0082 -0.2814  0.5731
 7254SOL    HW133224   3.572   1.919   0.481 -1.0738  0.3591 -0.0815
 7254SOL    HW233225   3.525   1.849   0.360  0.9410 -1.3960 -0.2953
 7255SOL     OW33226   4.624   4.024   7.160  0.9211  0.0525 -0.1448
 7255SOL    HW133227   4.713   4.002   7.135  0.4385 -2.1455  0.0424
 7255SOL    HW233228   4.641   4.114   7.187  0.8952  0.3493 -1.1209
 7256SOL     OW33229   0.600   2.340   0.746 -0.1114  0.0765 -0.6320
 7256SOL    HW133230   0.573   2.413   0.691  0.3169 -0.0873 -1.0644
 7256SOL    HW233231   0.546   2.355   0.823 -0.2072 -1.0728 -0.4733
 7257SOL     OW33232   0.776   1.406   9.381  0.2427  0.3801  0.3534
 7257SOL    HW133233   0.709   1.376   9.441 -1.7250  0.3067 -1.8915
 7257SOL    HW233234   0.821   1.473   9.432  1.3666  0.7969 -1.1731
 7258SOL     OW33235   0.797   1.517   7.870  0.2726  0.0402 -0.0835
 7258SOL    HW133236   0.789   1.612   7.859  0.1214  0.0617  0.2207
 7258SOL    HW233237   0.758   1.503   7.956  0.9607 -1.7122 -0.0648
 7259SOL     OW33238   1.930   3.421   8.217 -0.0421 -0.3393 -0.1829
 7259SOL    HW133239   1.967   3.468   8.293 -0.4738  0.4028 -0.4312
 7259SOL    HW233240   1.879   3.353   8.260  0.6847 -0.0498  1.1407
 7260SOL     OW33241   4.573   0.846   9.328 -0.0148 -0.2489 -0.7105
 7260SOL    HW133242   4.626   0.925   9.322  2.5804 -1.9449  0.0987
 7260SOL    HW233243   4.503   0.875   9.270  1.5679 -0.1314 -2.5360
 7261SOL     OW33244   0.657   0.261   7.202 -0.2405 -0.6923 -0.2833
 7261SOL    HW133245   0.740   0.234   7.164 -0.1805  0.3297 -0.8864
 7261SOL    HW233246   0.690   0.318   7.272 -0.5611  0.8879 -1.4212
 7262SOL     OW33247   3.139   4.202  14.254 -0.1725  0.0686 -0.2211
 7262SOL    HW133248   3.061   4.146  14.249  0.1360 -0.6015  2.8669
 7262SOL    HW233249   3.196   4.157  14.192  0.9188 -0.0457  0.8876
 7263SOL     OW33250   4.015   2.558   6.438 -0.0433  0.3688  0.3842
 7263SOL    HW133251   3.961   2.587   6.511  0.0461 -1.5978  1.2299
 7263SOL    HW233252   4.100   2.546   6.480  0.5694  0.0019 -0.9353
 7264SOL     OW33253   2.036   4.473   1.394  0.4330  0.0650 -0.3113
 7264SOL    HW133254   1.967   4.438   1.450 -0.1936  2.6470  0.5063
 7264SOL    HW233255   1.992   4.460   1.309 -3.0274 -0.1458  1.5045
 7265SOL     OW33256   2.128   2.166   0.169  0.0318 -0.1590 -0.0335
 7265SOL    HW133257   2.096   2.124   0.249  0.6573  1.0864  0.8787
 7265SOL    HW233258   2.093   2.255   0.169 -0.1718 -0.2320 -1.3061
 7266SOL     OW33259   4.182   2.926  14.395 -1.0134  0.0246  0.7759
 7266SOL    HW133260   4.110   2.958  14.341  0.3779  0.2451 -0.9267
 7266SOL    HW233261   4.261   2.945  14.345 -0.7728 -0.9839  0.7828
 7267SOL     OW33262   0.877   3.776   5.603 -0.1506  0.1272  0.7584
 7267SOL    HW133263   0.951   3.789   5.662 -1.0759  2.9626  1.2905
 7267SOL    HW233264   0.854   3.684   5.609  0.9848 -0.1597  0.7006
 7268SOL     OW33265   2.646   2.334   4.130 -0.3877  0.2081  0.3721
 7268SOL    HW133266   2.591   2.259   4.107  0.3770 -0.6984  1.4820
 7268SOL    HW233267   2.599   2.415   4.108 -0.5147  0.9019  3.1420
 7269SOL     OW33268   3.770   0.768  14.652 -0.1348  0.4692  0.0019
 7269SOL    HW133269   3.702   0.790  14.715  0.5706  0.6292  0.7078
 7269SOL    HW233270   3.722   0.739  14.575  1.6057 -2.2406 -0.0902
 7270SOL     OW33271   2.585   0.951   6.547  0.2678 -0.3473 -0.1879
 7270SOL    HW133272   2.629   0.979   6.466  0.2122 -1.2181 -0.5215
 7270SOL    HW233273   2.650   0.980   6.611  1.6061 -0.4867 -1.4789
 7271SOL     OW33274   1.503   1.323   1.518  0.5005 -0.2749 -0.2728
 7271SOL    HW133275   1.537   1.338   1.430 -0.3527  0.6918 -0.4306
 7271SOL    HW233276   1.440   1.392   1.537  2.7114  1.1338  1.9187
 7272SOL     OW33277   3.724   3.610   7.030  1.0352  0.4712  0.0757
 7272SOL    HW133278   3.767   3.597   7.114 -0.4284  1.2890  0.9377
 7272SOL    HW233279   3.725   3.526   6.985  0.8773  0.8268 -0.6050
 7273SOL     OW33280   4.591   3.917   5.557 -0.6980 -0.2767  0.2127
 7273SOL    HW133281   4.500   3.929   5.581 -0.8014 -0.2889 -0.1702
 7273SOL    HW233282   4.636   3.958   5.631 -2.4761  1.8270  0.1104
 7274SOL     OW33283   4.571   2.802  10.581 -0.0787  0.6099 -0.3186
 7274SOL    HW133284   4.633   2.749  10.632  0.5789  1.9922  0.3396
 7274SOL    HW233285   4.609   2.802  10.493  0.7620 -0.2577  0.0430
 7275SOL     OW33286   2.178   2.534   3.322  0.0350 -0.1272 -0.1097
 7275SOL    HW133287   2.231   2.504   3.248 -0.0928  0.7798 -0.5756
 7275SOL    HW233288   2.231   2.590   3.379  2.6530 -2.4461 -0.3009
 7276SOL     OW33289   4.527   3.654   3.730 -0.4599  0.1344 -0.3277
 7276SOL    HW133290   4.458   3.718   3.746 -1.0566 -0.3595 -0.9696
 7276SOL    HW233291   4.536   3.644   3.636  0.2494  2.1353 -0.4639
 7277SOL     OW33292   1.675   2.469   5.034  0.1344 -0.5273 -0.0483
 7277SOL    HW133293   1.600   2.468   4.975  1.2032 -0.3348 -1.4177
 7277SOL    HW233294   1.745   2.470   4.968 -0.7349 -2.0113 -0.9873
 7278SOL     OW33295   3.201   1.766  13.826 -0.1006 -0.0109  0.6429
 7278SOL    HW133296   3.130   1.736  13.770 -1.1627  2.5466  0.6241
 7278SOL    HW233297   3.235   1.683  13.860  1.3557  0.2900 -0.0733
 7279SOL     OW33298   4.574   0.988   8.153  0.2295 -0.5444 -0.0162
 7279SOL    HW133299   4.479   0.977   8.146  0.2864  0.1383 -1.8832
 7279SOL    HW233300   4.580   1.057   8.219 -2.0302 -0.3134 -0.0335
 7280SOL     OW33301   0.297   2.231   4.162  0.0051 -0.4582 -0.1330
 7280SOL    HW133302   0.302   2.152   4.216  0.6486 -1.3908 -1.5488
 7280SOL    HW233303   0.363   2.286   4.206 -1.9596  2.0455 -0.3097
 7281SOL     OW33304   4.394   2.495   0.239  0.1949  0.3128  0.6834
 7281SOL    HW133305   4.304   2.473   0.215  0.2812  0.2401  0.4175
 7281SOL    HW233306   4.389   2.590   0.245 -0.2452  0.5575 -3.6160
 7282SOL     OW33307   0.323   1.979   4.040  0.0177  0.5843  0.3766
 7282SOL    HW133308   0.282   2.064   4.028 -0.5110  0.1810 -0.7022
 7282SOL    HW233309   0.266   1.937   4.105 -0.1149 -0.9256 -0.7138
 7283SOL     OW33310   3.284   2.729  13.394 -0.0508  0.0024  0.0808
 7283SOL    HW133311   3.225   2.801  13.368 -0.3650 -1.4411 -3.2178
 7283SOL    HW233312   3.341   2.722  13.317 -0.8513 -0.5294 -0.4720
 7284SOL     OW33313   1.317   3.395   2.724  0.4964  0.3437  0.1670
 7284SOL    HW133314   1.238   3.401   2.779  2.1396  1.7272  2.3884
 7284SOL    HW233315   1.307   3.480   2.681  1.5981  0.1562 -0.4509
 7285SOL     OW33316   4.576   3.515  16.186  0.5913  0.3200  0.0719
 7285SOL    HW133317   4.517   3.575  16.139 -1.5933 -0.7908  1.4196
 7285SOL    HW233318   4.519   3.484  16.257  0.9873  2.7858  1.4677
 7286SOL     OW33319   4.264   4.006   4.842  0.4420  0.3707 -0.2840
 7286SOL    HW133320   4.206   4.080   4.861 -1.2274 -0.2302 -2.9759
 7286SOL    HW233321   4.336   4.040   4.894 -1.1388  2.7211  0.3606
 7287SOL     OW33322   0.745   4.094   4.083 -0.6203 -0.1101 -0.2920
 7287SOL    HW133323   0.808   4.110   4.013 -0.8902  0.1322 -0.4790
 7287SOL    HW233324   0.661   4.106   4.039 -0.1871  2.8898 -0.3202
 7288SOL     OW33325   1.944   4.547   5.453  0.0351 -0.4087  0.1271
 7288SOL    HW133326   1.972   4.456   5.446  0.4709 -0.3044  0.4448
 7288SOL    HW233327   1.873   4.540   5.516  1.0500 -0.4941  1.2746
 7289SOL     OW33328   1.538   1.519  15.777  0.3718 -0.3049 -0.3132
 7289SOL    HW133329   1.603   1.570  15.825 -0.1970  0.1680 -0.0461
 7289SOL    HW233330   1.561   1.532  15.685  1.4267  2.8222  0.3860
 7290SOL     OW33331   4.534   2.512  10.843  0.0866 -0.1891 -0.0970
 7290SOL    HW133332   4.501   2.591  10.886  1.6918  1.0909 -1.2217
 7290SOL    HW233333   4.452   2.465  10.825 -1.1726  2.1505 -0.4979
 7291SOL     OW33334   4.716   1.881   2.880  1.0597  0.2966 -0.1560
 7291SOL    HW133335   4.628   1.885   2.841  1.1249  2.7354 -0.0474
 7291SOL    HW233336   0.037   1.949   2.827 -1.3061  1.1159 -0.9880
 7292SOL     OW33337   0.567   1.711   6.465  0.0752 -0.3049 -0.0976
 7292SOL    HW133338   0.529   1.755   6.390 -1.6833 -1.4728  0.0912
 7292SOL    HW233339   0.652   1.676   6.437  0.4382  2.5101 -2.4248
 7293SOL     OW33340   4.395   1.739   5.284 -0.1902 -0.4478  0.3106
 7293SOL    HW133341   4.302   1.759   5.287 -0.1753 -0.2135 -0.6060
 7293SOL    HW233342   4.413   1.719   5.192 -1.7045  0.3068 -0.1407
 7294SOL     OW33343   3.382   4.023   9.745  0.1497 -0.5318  0.4710
 7294SOL    HW133344   3.410   3.953   9.803 -1.6691 -0.5817  1.2920
 7294SOL    HW233345   3.287   4.014   9.748  0.0595  1.1875  2.6704
 7295SOL     OW33346   0.216   4.628   1.795  0.8059 -0.2628 -0.3133
 7295SOL    HW133347   0.193   4.653   1.884 -0.7401 -2.8762  0.0173
 7295SOL    HW233348   0.273   4.551   1.801 -1.7832 -2.2949 -1.5171
 7296SOL     OW33349   1.072   1.896  12.803 -0.1722 -0.1699 -0.1362
 7296SOL    HW133350   1.106   1.903  12.713  0.0649  1.1247  0.0541
 7296SOL    HW233351   1.146   1.929  12.853 -2.0560  0.1587  2.4599
 7297SOL     OW33352   1.145   2.508   8.522 -0.1105 -0.5322  0.1184
 7297SOL    HW133353   1.055   2.511   8.488  0.2288 -0.8837 -0.8209
 7297SOL    HW233354   1.141   2.575   8.590  1.0827  1.2132 -1.5284
 7298SOL     OW33355   1.557   2.756   1.341 -0.0132  0.7671 -0.2380
 7298SOL    HW133356   1.491   2.813   1.380  0.0057  0.0917  0.7918
 7298SOL    HW233357   1.597   2.817   1.279  0.9052  0.1474 -0.2542
 7299SOL     OW33358   4.504   1.274   1.706  0.8844  1.2995  0.3785
 7299SOL    HW133359   4.493   1.181   1.726  3.5118  0.5894 -1.3475
 7299SOL    HW233360   4.576   1.274   1.642  1.1438  0.3343  0.6693
 7300SOL     OW33361   1.941   3.237   2.295  0.4950  0.1052 -0.1155
 7300SOL    HW133362   1.861   3.211   2.340 -0.4996 -1.1814 -2.6717
 7300SOL    HW233363   1.923   3.212   2.205  1.5838 -0.6925 -0.1144
 7301SOL     OW33364   0.843   0.832  12.775  1.1734  0.4238  0.0655
 7301SOL    HW133365   0.787   0.877  12.838 -0.7718 -2.3810  0.3685
 7301SOL    HW233366   0.789   0.822  12.696 -1.0695  2.9383  1.3064
 7302SOL     OW33367   3.071   4.229   7.247  0.1644 -0.3641  0.3329
 7302SOL    HW133368   2.998   4.287   7.269 -0.8264 -0.5873 -2.3945
 7302SOL    HW233369   3.092   4.196   7.334 -0.8823  1.7298  1.3819
 7303SOL     OW33370   4.340   0.033   9.998 -0.6309  0.3481  0.9488
 7303SOL    HW133371   4.258   0.034  10.046 -2.5945  1.7561 -2.4492
 7303SOL    HW233372   4.359   4.660  10.004  2.0363  0.7934 -0.1655
 7304SOL     OW33373   1.323   3.247   5.548  0.1922  0.0497 -0.4517
 7304SOL    HW133374   1.240   3.217   5.510 -0.3408 -1.8379  2.2205
 7304SOL    HW233375   1.372   3.165   5.542 -1.2130 -0.8612  0.3973
 7305SOL     OW33376   2.135   1.346   8.923  0.2963 -0.2764  0.5504
 7305SOL    HW133377   2.042   1.369   8.916  0.5448  0.8701  0.9935
 7305SOL    HW233378   2.132   1.250   8.926  0.2725 -0.2574  1.1359
 7306SOL     OW33379   2.957   4.619  14.344  0.3184  0.5979  0.1910
 7306SOL    HW133380   2.998   4.700  14.313  1.1750  0.0876  0.0094
 7306SOL    HW233381   3.037   4.567  14.345  0.9024  1.4957  0.4645
 7307SOL     OW33382   3.793   1.609  14.438  0.1800  0.3689  0.0729
 7307SOL    HW133383   3.804   1.665  14.361  3.8525  2.2566  1.9634
 7307SOL    HW233384   3.770   1.530  14.390 -1.3353  0.9124 -0.1069
 7308SOL     OW33385   0.475   2.260   8.139 -0.2240  0.1136 -0.1509
 7308SOL    HW133386   0.515   2.208   8.209  0.4507  0.0733 -0.5551
 7308SOL    HW233387   0.449   2.339   8.185  2.4875  0.1141  1.4030
 7309SOL     OW33388   2.302   1.981   4.300 -0.2126  0.4422  0.9023
 7309SOL    HW133389   2.246   1.960   4.226  0.5554  0.1926  0.3824
 7309SOL    HW233390   2.302   1.895   4.343  0.3734 -0.7128 -1.4092
 7310SOL     OW33391   2.636   0.953   5.949  0.2624  0.0208  0.2544
 7310SOL    HW133392   2.669   0.863   5.957  0.8227  0.1896 -0.1396
 7310SOL    HW233393   2.682   0.997   6.021 -2.3402 -0.6241  2.3111
 7311SOL     OW33394   3.028   3.136   3.693 -0.3226 -0.3012 -0.2919
 7311SOL    HW133395   3.102   3.114   3.749  0.8290 -0.5198 -1.9312
 7311SOL    HW233396   2.988   3.212   3.736 -0.7676 -0.1132 -1.0290
 7312SOL     OW33397   2.236   2.952  15.795 -0.1695  0.6385 -0.0041
 7312SOL    HW133398   2.269   2.986  15.877  2.1587 -0.8999 -0.3147
 7312SOL    HW233399   2.255   2.861  15.817 -0.3903  0.4789 -0.4797
 7313SOL     OW33400   4.704   3.933   0.638  0.4812 -0.1530 -0.0029
 7313SOL    HW133401   0.026   4.019   0.636 -0.4005  0.3033  0.2575
 7313SOL    HW233402   0.013   3.889   0.717  0.3458 -0.9464 -0.4021
 7314SOL     OW33403   2.769   2.314   0.428  0.3020  0.1127 -0.1778
 7314SOL    HW133404   2.788   2.309   0.335 -1.7117  0.7426 -0.6185
 7314SOL    HW233405   2.853   2.346   0.463  0.8267  2.3685 -3.4886
 7315SOL     OW33406   3.530   1.020   3.236  0.6497 -0.0760 -0.2393
 7315SOL    HW133407   3.503   1.110   3.251 -1.8316 -1.0395  1.1274
 7315SOL    HW233408   3.554   1.025   3.144 -0.2187  0.7685 -0.4110
 7316SOL     OW33409   2.544   2.051  17.285 -0.6927 -0.1855  0.0702
 7316SOL    HW133410   2.458   2.078  17.252 -0.8812 -0.5848  0.2428
 7316SOL    HW233411   2.599   2.065  17.208 -1.9879  0.4677 -0.7524
 7317SOL     OW33412   3.803   3.575   2.531 -0.2030 -0.4357 -0.0856
 7317SOL    HW133413   3.750   3.655   2.529  1.2768  0.5276 -0.8081
 7317SOL    HW233414   3.800   3.556   2.437 -0.4927 -1.6531  0.1753
 7318SOL     OW33415   2.655   3.851   3.624 -0.7297  0.0691 -0.6150
 7318SOL    HW133416   2.574   3.883   3.585  0.6360  0.1189 -3.3573
 7318SOL    HW233417   2.698   3.929   3.659 -1.6483 -1.0658  3.0358
 7319SOL     OW33418   0.935   0.076   6.380  1.0027 -0.4979 -0.4273
 7319SOL    HW133419   0.982   0.024   6.445  2.7354  1.6111  0.0127
 7319SOL    HW233420   0.986   0.057   6.301  0.2907  0.9075 -1.2322
 7320SOL     OW33421   1.696   4.213   4.931  0.0762  0.2497 -0.1338
 7320SOL    HW133422   1.667   4.198   5.021 -1.2126  0.8265 -0.4636
 7320SOL    HW233423   1.632   4.167   4.878 -0.9015  1.3178  0.1348
 7321SOL     OW33424   4.516   1.470  10.584 -0.2131 -0.2218  0.2078
 7321SOL    HW133425   4.582   1.406  10.560 -1.4346 -1.3080 -0.2467
 7321SOL    HW233426   4.575   1.534  10.624  1.7633 -0.9147 -1.6322
 7322SOL     OW33427   3.857   1.738   5.683 -0.1413  0.3096 -0.4812
 7322SOL    HW133428   3.818   1.779   5.606  0.5710  1.5300 -0.1955
 7322SOL    HW233429   3.861   1.649   5.647  2.8588 -0.1970  1.0845
 7323SOL     OW33430   0.613   3.454   4.191  0.2090 -0.0709  0.4266
 7323SOL    HW133431   0.603   3.548   4.180 -1.5152 -0.2531  0.4418
 7323SOL    HW233432   0.524   3.426   4.168  0.0233 -0.3467  1.4807
 7324SOL     OW33433   3.486   0.106  12.151  0.0872 -0.0432  0.2453
 7324SOL    HW133434   3.502   0.011  12.156 -1.8955 -0.4273 -0.8934
 7324SOL    HW233435   3.394   0.100  12.174 -1.0943 -0.3582 -4.5911
 7325SOL     OW33436   1.014   3.550   1.396  0.2289  0.6141  0.3454
 7325SOL    HW133437   1.094   3.502   1.376  0.4858  1.9287 -1.7804
 7325SOL    HW233438   1.028   3.634   1.351 -1.0149  3.1933  4.6870
 7326SOL     OW33439   2.881   2.709  14.843 -0.7378 -0.0415 -0.0143
 7326SOL    HW133440   2.891   2.803  14.861  1.9104 -0.4994  0.9058
 7326SOL    HW233441   2.840   2.717  14.757 -2.4462  0.7188  0.8730
 7327SOL     OW33442   3.313   2.114   7.428  0.0265 -0.3932  0.1127
 7327SOL    HW133443   3.373   2.129   7.501 -0.8423 -1.3370  1.0235
 7327SOL    HW233444   3.275   2.201   7.434 -2.4381 -1.4245 -0.7059
 7328SOL     OW33445   3.343   1.337  13.709 -0.0074  0.3587 -0.4050
 7328SOL    HW133446   3.389   1.352  13.627 -0.8488 -1.6076 -1.2486
 7328SOL    HW233447   3.260   1.300  13.678 -0.0546  0.5939 -0.5587
 7329SOL     OW33448   1.293   3.551  12.879 -0.0234  0.0704 -0.1900
 7329SOL    HW133449   1.366   3.575  12.822  0.7927  0.1837  0.9175
 7329SOL    HW233450   1.297   3.605  12.958  2.0557  1.0093 -0.9339
 7330SOL     OW33451   0.002   0.367   5.325 -0.4482  0.0606 -0.2945
 7330SOL    HW133452   4.717   0.369   5.420  1.0283  3.0933 -0.2397
 7330SOL    HW233453   4.697   0.277   5.307  1.7015 -0.8175  0.9698
 7331SOL     OW33454   4.427   2.439   9.273 -0.1379  1.0190 -0.2389
 7331SOL    HW133455   4.508   2.439   9.323 -1.1186 -1.5358  1.3287
 7331SOL    HW233456   4.408   2.533   9.275 -2.4960  0.5121  0.8715
 7332SOL     OW33457   0.644   1.437  10.398 -0.2012 -0.3702  0.3349
 7332SOL    HW133458   0.642   1.354  10.445 -1.0389 -0.1161  0.7709
 7332SOL    HW233459   0.726   1.479  10.422 -0.1672 -0.5098  0.4619
 7333SOL     OW33460   3.185   1.498  12.426 -0.3475 -0.2755 -0.0310
 7333SOL    HW133461   3.206   1.579  12.379  0.3533 -0.2698  0.3042
 7333SOL    HW233462   3.089   1.491  12.426 -0.3344 -0.6775 -2.1305
 7334SOL     OW33463   4.321   3.873   3.844  0.3958  0.3300 -0.2278
 7334SOL    HW133464   4.236   3.828   3.847 -0.4012  1.8906  0.2366
 7334SOL    HW233465   4.332   3.924   3.764  0.4053 -0.1075 -0.5058
 7335SOL     OW33466   3.630   2.746   6.933 -0.8602  0.2109  0.4348
 7335SOL    HW133467   3.667   2.658   6.926 -1.7346 -0.1524  0.3311
 7335SOL    HW233468   3.645   2.788   6.848  0.3191 -0.5071  0.2955
 7336SOL     OW33469   4.100   4.347   2.728 -0.1992 -0.4554 -0.0966
 7336SOL    HW133470   4.051   4.417   2.685  0.5915 -0.0718 -0.3922
 7336SOL    HW233471   4.088   4.276   2.666 -1.3403 -0.4380  0.1071
 7337SOL     OW33472   3.841   1.607   1.217  0.4198 -0.1053 -0.2762
 7337SOL    HW133473   3.794   1.682   1.179  2.3544  0.5858 -1.3142
 7337SOL    HW233474   3.773   1.539   1.220  0.4460  0.0095  2.6826
 7338SOL     OW33475   4.093   4.238   0.565 -0.3958 -0.0417 -0.3712
 7338SOL    HW133476   4.029   4.244   0.494  0.6495  1.2670 -1.1967
 7338SOL    HW233477   4.126   4.328   0.565  1.2868 -0.6629 -2.3008
 7339SOL     OW33478   3.386   2.297   1.785 -0.2066 -0.1603 -0.2330
 7339SOL    HW133479   3.362   2.364   1.849  0.5243 -0.9519  0.8900
 7339SOL    HW233480   3.406   2.230   1.851 -1.3813 -2.8852 -2.6527
 7340SOL     OW33481   1.045   2.258   7.157 -0.1274  0.3129 -0.3960
 7340SOL    HW133482   1.035   2.207   7.077  2.2640 -1.4334  0.4114
 7340SOL    HW233483   1.084   2.341   7.127  1.0846 -0.3056 -0.5357
 7341SOL     OW33484   3.795   2.556  10.288  0.1014  0.1449 -0.2318
 7341SOL    HW133485   3.719   2.612  10.305 -0.3066 -0.9870  1.6478
 7341SOL    HW233486   3.865   2.621  10.287  0.6414 -0.4333  2.2376
 7342SOL     OW33487   2.607   1.792   7.521  0.3043  0.2142  0.2519
 7342SOL    HW133488   2.615   1.860   7.455  1.4537  0.4637  0.6306
 7342SOL    HW233489   2.695   1.785   7.559 -0.2225 -0.6269  1.3254
 7343SOL     OW33490   2.663   4.629   8.001 -0.0176 -0.8719 -0.2353
 7343SOL    HW133491   2.590   4.692   8.003  1.8063  1.2180  1.0976
 7343SOL    HW233492   2.619   4.552   8.036 -1.6202 -0.7866 -2.0519
 7344SOL     OW33493   1.965   1.743   2.733  0.5621  0.3920  0.0904
 7344SOL    HW133494   1.969   1.801   2.657  2.2600 -1.5656 -1.3033
 7344SOL    HW233495   1.874   1.715   2.721  1.0591 -0.8254 -0.7530
 7345SOL     OW33496   2.547   1.139   5.554 -0.6276  0.0675 -0.1508
 7345SOL    HW133497   2.619   1.172   5.609 -1.8892 -0.0943  1.6187
 7345SOL    HW233498   2.476   1.196   5.584 -0.6034 -0.7239  1.3899
 7346SOL     OW33499   3.335   2.163  15.242  0.3215 -0.0039 -0.3176
 7346SOL    HW133500   3.243   2.138  15.239  0.6838 -1.6911  1.9931
 7346SOL    HW233501   3.348   2.171  15.337  0.3823 -0.8183 -0.2577
 7347SOL     OW33502   0.950   0.354   6.152  0.2542 -0.7053  0.0479
 7347SOL    HW133503   0.950   0.389   6.062 -2.0142  2.2102  1.1885
 7347SOL    HW233504   1.042   0.336   6.171  0.4742 -0.1037 -0.4132
 7348SOL     OW33505   0.971   4.579   4.268  0.4678  0.3160  0.1267
 7348SOL    HW133506   0.929   4.664   4.255  2.3756  1.2196 -0.0561
 7348SOL    HW233507   1.063   4.593   4.245  0.4186 -0.7230 -0.7316
 7349SOL     OW33508   2.517   2.655   6.721 -0.6252 -0.5623  0.0362
 7349SOL    HW133509   2.433   2.632   6.681 -0.6390  2.2568 -1.5113
 7349SOL    HW233510   2.538   2.739   6.680 -0.9671 -0.6426 -0.3003
 7350SOL     OW33511   1.905   1.274  10.634 -0.0376 -0.3041 -0.3973
 7350SOL    HW133512   1.915   1.257  10.728  0.1151 -0.4329 -0.4358
 7350SOL    HW233513   1.812   1.295  10.627  0.3316  1.2024 -0.7770
 7351SOL     OW33514   3.362   0.747   0.330  0.1451  0.2409  0.7119
 7351SOL    HW133515   3.331   0.656   0.327  0.7293  0.0540  0.5374
 7351SOL    HW233516   3.282   0.800   0.331  0.2849  0.4634 -0.0609
 7352SOL     OW33517   2.144   2.049   5.621 -0.3465 -0.3514 -0.2125
 7352SOL    HW133518   2.144   1.984   5.691  0.1055  1.4457  1.4545
 7352SOL    HW233519   2.171   2.130   5.665 -1.5408 -0.5136  0.8078
 7353SOL     OW33520   0.834   3.373   7.349  0.3520 -0.5351  0.5721
 7353SOL    HW133521   0.877   3.456   7.332 -0.5093 -1.0222 -3.8453
 7353SOL    HW233522   0.842   3.338   7.261  0.3196  0.0280  0.3473
 7354SOL     OW33523   4.387   3.360   8.907 -0.1184 -0.1689  0.1042
 7354SOL    HW133524   4.363   3.348   8.999 -0.5262 -0.6982 -0.0663
 7354SOL    HW233525   4.375   3.453   8.890 -0.5321 -0.2662 -0.1533
 7355SOL     OW33526   0.883   2.372   5.131  0.1579  0.1247 -0.5740
 7355SOL    HW133527   0.893   2.277   5.131 -1.6851 -0.0571 -0.4883
 7355SOL    HW233528   0.907   2.385   5.039  1.7919  1.6696  0.0512
 7356SOL     OW33529   2.450   3.935  16.698  0.0804 -0.0270 -0.0396
 7356SOL    HW133530   2.442   4.022  16.658  2.2175  0.5985  0.8852
 7356SOL    HW233531   2.399   3.939  16.778 -0.9106 -0.8393 -0.6310
 7357SOL     OW33532   1.863   2.369  16.329  0.0277 -0.1683 -0.3288
 7357SOL    HW133533   1.871   2.410  16.414 -1.5754 -1.6087  0.5173
 7357SOL    HW233534   1.952   2.334  16.328 -0.1435 -0.6004 -0.8410
 7358SOL     OW33535   3.943   0.457   6.401  0.3007 -0.6267 -0.1660
 7358SOL    HW133536   3.915   0.547   6.417  0.8159 -0.4353 -0.3526
 7358SOL    HW233537   3.993   0.451   6.482 -1.5747  0.9312  1.0894
 7359SOL     OW33538   2.253   4.682   2.262  0.7866  0.2273  0.1234
 7359SOL    HW133539   2.250   4.587   2.278 -2.4148  0.0629 -1.3364
 7359SOL    HW233540   2.282   4.680   2.171  1.8269 -0.2345  0.4680
 7360SOL     OW33541   3.024   1.202   8.762 -0.2914 -0.3112  0.1917
 7360SOL    HW133542   3.065   1.125   8.724 -1.4634 -0.5654 -0.5679
 7360SOL    HW233543   2.963   1.159   8.822  0.9259 -1.7684  0.3891
 7361SOL     OW33544   4.506   0.329   4.705 -0.0276  0.6339  0.3807
 7361SOL    HW133545   4.412   0.337   4.687 -0.1728 -2.3915 -0.1008
 7361SOL    HW233546   4.530   0.347   4.614 -0.8352 -1.1195 -0.1702
 7362SOL     OW33547   1.084   0.504   6.604 -0.0806  0.2235  0.2251
 7362SOL    HW133548   1.070   0.585   6.556  0.5245  0.4351  0.4033
 7362SOL    HW233549   1.034   0.518   6.684 -0.3302  2.4800 -0.3343
 7363SOL     OW33550   1.118   3.442   5.043 -0.3846  0.2188  0.5131
 7363SOL    HW133551   1.102   3.530   5.079  0.7930 -0.1836  1.9899
 7363SOL    HW233552   1.199   3.462   4.995 -0.1566  1.5658  1.4518
 7364SOL     OW33553   2.491   4.466   2.791  0.3519  0.5266 -0.3201
 7364SOL    HW133554   2.498   4.386   2.844 -0.9943  1.2875  0.9952
 7364SOL    HW233555   2.457   4.526   2.857 -3.1058 -3.9568  1.9804
 7365SOL     OW33556   1.448   0.376   5.690  0.2448  0.0424 -0.1542
 7365SOL    HW133557   1.372   0.407   5.739  0.5924 -0.3575  0.6380
 7365SOL    HW233558   1.405   0.317   5.627 -1.4978  0.0573  1.0089
 7366SOL     OW33559   2.178   0.774  16.598  0.3697  0.3311  0.0551
 7366SOL    HW133560   2.090   0.803  16.575  0.4516  0.5271 -0.0107
 7366SOL    HW233561   2.170   0.684  16.566  0.6130  0.6311 -0.8525
 7367SOL     OW33562   1.112   0.474  16.128 -0.4847 -0.0192 -0.3699
 7367SOL    HW133563   1.204   0.469  16.153  0.8770  0.5253 -5.2946
 7367SOL    HW233564   1.075   0.535  16.192 -0.8580 -0.4565 -0.1691
 7368SOL     OW33565   3.597   3.381   0.351 -0.0732 -0.3362  0.3307
 7368SOL    HW133566   3.646   3.422   0.422  0.6360  1.6051 -1.2835
 7368SOL    HW233567   3.649   3.301   0.346  0.6573  0.0179  2.2808
 7369SOL     OW33568   3.802   1.331  11.979 -0.7302 -0.2120 -0.4465
 7369SOL    HW133569   3.891   1.300  11.962 -0.5698 -0.1065  0.2101
 7369SOL    HW233570   3.799   1.414  11.932 -0.9366  0.2432  0.3684
 7370SOL     OW33571   3.101   1.433   9.746  0.3762 -0.2768 -0.8905
 7370SOL    HW133572   3.076   1.399   9.832 -0.3676 -0.1977 -1.0758
 7370SOL    HW233573   3.195   1.420   9.753  0.6038  0.4665 -2.4693
 7371SOL     OW33574   1.055   3.023   6.258 -0.1175  0.1943 -0.4820
 7371SOL    HW133575   1.037   2.990   6.170  2.7404  1.3856 -1.5082
 7371SOL    HW233576   1.148   3.045   6.261 -0.2486  0.6905 -0.1315
 7372SOL     OW33577   2.951   1.393  16.541  0.3435  0.8712  0.3192
 7372SOL    HW133578   3.029   1.338  16.547 -0.9210 -0.6470  2.8353
 7372SOL    HW233579   2.952   1.448  16.619 -0.0598  0.3704  0.6796
 7373SOL     OW33580   4.390   2.830   7.228  0.0093  0.0023  0.0873
 7373SOL    HW133581   4.334   2.886   7.282 -1.7127  0.2593 -1.9450
 7373SOL    HW233582   4.417   2.762   7.290  0.1321 -0.8660 -0.9204
 7374SOL     OW33583   0.911   1.329   4.903  0.1039 -0.0522  0.1306
 7374SOL    HW133584   0.928   1.423   4.902  0.5389 -0.1081  2.4384
 7374SOL    HW233585   0.884   1.302   4.815 -1.4589 -2.1265  1.2415
 7375SOL     OW33586   2.042   2.699   2.045 -0.5021  0.3666  0.2738
 7375SOL    HW133587   2.096   2.680   1.968 -2.9542  0.9305 -1.5987
 7375SOL    HW233588   2.026   2.793   2.043 -1.7180  0.1600  0.2501
 7376SOL     OW33589   0.773   4.058  10.673 -0.4261 -0.0275 -0.3188
 7376SOL    HW133590   0.826   4.080  10.596 -2.5803  0.6344 -1.5885
 7376SOL    HW233591   0.773   3.963  10.658  0.3543  0.3607 -2.8414
 7377SOL     OW33592   3.591   4.152   6.243 -0.2508 -0.6294 -0.0061
 7377SOL    HW133593   3.556   4.240   6.232  1.7657 -0.0208 -1.6608
 7377SOL    HW233594   3.681   4.169   6.215 -0.2967 -0.2786  0.0658
 7378SOL     OW33595   1.618   0.849  12.330  0.1581 -0.3162  0.5443
 7378SOL    HW133596   1.704   0.862  12.371 -0.1609  0.2379  1.0319
 7378SOL    HW233597   1.614   0.917  12.263 -0.2325  0.7313  1.6336
 7379SOL     OW33598   2.053   4.507   8.110  0.3590  0.0099  0.1939
 7379SOL    HW133599   1.959   4.514   8.096  0.4984  1.6091  0.0571
 7379SOL    HW233600   2.072   4.414   8.127 -1.0113 -0.2377  0.3789
 7380SOL     OW33601   0.905   0.032   8.922  0.0435  0.8150  0.0646
 7380SOL    HW133602   0.905   0.032   8.826 -2.4381  0.4672  0.0651
 7380SOL    HW233603   0.999   0.022   8.936  0.4507  3.3406 -0.8001
 7381SOL     OW33604   2.061   1.675   0.414 -0.7565  0.0014 -0.2917
 7381SOL    HW133605   1.992   1.703   0.474  0.6169  1.1989  0.7226
 7381SOL    HW233606   2.132   1.736   0.433 -0.2479 -0.7861  0.3607
 7382SOL     OW33607   4.155   4.467   8.417 -0.2617  0.8457 -0.2740
 7382SOL    HW133608   4.225   4.431   8.471  0.3678  0.3131 -1.4384
 7382SOL    HW233609   4.110   4.386   8.391  0.0188  0.4819  0.3918
 7383SOL     OW33610   0.287   2.225   5.884  0.1220  0.8268 -0.3386
 7383SOL    HW133611   0.272   2.186   5.798 -0.5016  0.0588  0.1230
 7383SOL    HW233612   0.268   2.315   5.860 -2.0796  0.5282  0.3449
 7384SOL     OW33613   0.376   2.675  17.161 -0.5761 -0.0666  0.0066
 7384SOL    HW133614   0.350   2.766  17.176 -1.3828 -0.1697 -0.7524
 7384SOL    HW233615   0.288   2.639  17.155 -0.9843  1.2038 -1.4545
 7385SOL     OW33616   2.643   2.912  11.509 -0.3931 -0.8105  0.2571
 7385SOL    HW133617   2.562   2.905  11.459 -0.5840 -0.0153  0.4534
 7385SOL    HW233618   2.697   2.844  11.468 -2.8640 -2.8513  0.4189
 7386SOL     OW33619   1.624   3.350   7.777 -0.1240  0.0924  0.4742
 7386SOL    HW133620   1.679   3.397   7.839  1.0911 -1.4693  0.5894
 7386SOL    HW233621   1.687   3.286   7.742 -0.9494 -0.2622 -0.3665
 7387SOL     OW33622   1.141   3.122   5.929 -0.4267  0.7690  0.3194
 7387SOL    HW133623   1.157   3.216   5.943 -0.9672  1.2360 -2.1065
 7387SOL    HW233624   1.140   3.107   5.834  2.0950 -1.9643  0.7064
 7388SOL     OW33625   3.846   2.386  13.160 -0.0392 -0.5535  0.0321
 7388SOL    HW133626   3.834   2.315  13.223  0.1600  0.8040  1.6307
 7388SOL    HW233627   3.758   2.423  13.167  0.4192  0.0248  2.9538
 7389SOL     OW33628   2.963   4.021   5.777 -0.1308 -0.2302 -0.1488
 7389SOL    HW133629   3.043   4.072   5.760 -0.1788  0.5550  2.0024
 7389SOL    HW233630   2.944   4.031   5.870 -0.0720 -1.7073  0.0220
 7390SOL     OW33631   2.141   1.239   4.768  0.6223 -0.0200  0.0131
 7390SOL    HW133632   2.069   1.267   4.712  0.2182 -1.4468 -0.1953
 7390SOL    HW233633   2.141   1.283   4.853 -2.0242 -1.5383  0.8223
 7391SOL     OW33634   1.705   1.985   3.485  0.0273 -0.3163  0.1258
 7391SOL    HW133635   1.610   1.975   3.484  0.2146 -2.0828  0.1856
 7391SOL    HW233636   1.708   2.059   3.546  0.5644  0.2086 -0.5307
 7392SOL     OW33637   3.918   3.734  11.838 -0.5241  0.1818  0.2927
 7392SOL    HW133638   3.904   3.640  11.823 -0.1455  0.2683 -0.6378
 7392SOL    HW233639   3.828   3.767  11.831 -0.9752 -0.5350  2.8221
 7393SOL     OW33640   3.151   2.155  11.395 -0.2233 -0.6972  0.5300
 7393SOL    HW133641   3.123   2.131  11.307  1.1700  0.5716 -0.2629
 7393SOL    HW233642   3.070   2.156  11.446 -0.0171  1.1825  0.8275
 7394SOL     OW33643   1.835   4.322   3.178  0.8384  0.0457 -0.3154
 7394SOL    HW133644   1.865   4.394   3.123  0.7402  1.2216  1.1555
 7394SOL    HW233645   1.898   4.253   3.160  1.1044  0.6025 -1.4817
 7395SOL     OW33646   0.604   4.190   1.499  0.3379 -0.1073  0.3222
 7395SOL    HW133647   0.519   4.145   1.493  1.6115 -2.1830 -2.1710
 7395SOL    HW233648   0.615   4.188   1.594 -0.4926 -0.0529  0.4221
 7396SOL     OW33649   2.356   2.535   5.208  0.2042 -0.2190 -0.7789
 7396SOL    HW133650   2.315   2.452   5.184  1.0063 -1.2597  1.4664
 7396SOL    HW233651   2.290   2.595   5.173 -0.0401  1.1887  2.1049
 7397SOL     OW33652   1.814   3.462   3.824 -0.5236 -0.0354  0.3833
 7397SOL    HW133653   1.786   3.551   3.800  0.9645  0.5275  0.7765
 7397SOL    HW233654   1.730   3.421   3.847 -0.5880  0.2253  0.6200
 7398SOL     OW33655   3.293   4.193  17.131  0.0104  0.3742  0.3600
 7398SOL    HW133656   3.214   4.148  17.100 -0.0618  0.8137 -0.0865
 7398SOL    HW233657   3.360   4.142  17.087  0.9817  2.0873 -0.1208
 7399SOL     OW33658   1.861   2.354   8.348 -0.1528  0.2372  0.0989
 7399SOL    HW133659   1.832   2.434   8.391 -4.0009  0.0756 -2.1683
 7399SOL    HW233660   1.780   2.319   8.310 -0.2891  0.8778 -0.1891
 7400SOL     OW33661   2.236   2.571   3.942  0.5067 -0.4204  0.3907
 7400SOL    HW133662   2.156   2.547   3.895  0.7061  1.4163 -0.9040
 7400SOL    HW233663   2.234   2.507   4.013  1.6002 -0.3947  0.4407
 7401SOL     OW33664   0.733   4.058   4.764 -0.0229 -0.2528 -0.3959
 7401SOL    HW133665   0.786   3.998   4.817  1.5112 -0.4114 -2.1372
 7401SOL    HW233666   0.648   4.016   4.776 -1.0106  1.1341 -2.6210
 7402SOL     OW33667   0.654   3.007  11.281 -0.0815 -0.1650  0.1986
 7402SOL    HW133668   0.736   3.051  11.305  0.1116  1.3827 -3.2645
 7402SOL    HW233669   0.619   2.985  11.367  0.7669  1.0397  0.8456
 7403SOL     OW33670   3.417   4.451  16.052 -0.3502  0.0925  1.1280
 7403SOL    HW133671   3.462   4.381  16.099  1.1384 -1.1198 -2.0941
 7403SOL    HW233672   3.421   4.517  16.121 -0.0625  0.4740  0.7390
 7404SOL     OW33673   2.717   4.456   1.085 -0.4172 -0.2055  0.2497
 7404SOL    HW133674   2.777   4.382   1.097 -0.8733 -0.5635  0.3296
 7404SOL    HW233675   2.642   4.422   1.037 -0.8371 -1.3208  1.6917
 7405SOL     OW33676   4.372   2.788  14.564  0.2783  0.5373 -0.2100
 7405SOL    HW133677   4.308   2.820  14.500  2.2861 -1.1419 -3.0628
 7405SOL    HW233678   4.446   2.761  14.509 -0.2349 -0.3634 -0.4561
 7406SOL     OW33679   4.656   2.961  14.550  0.2997  0.1323 -0.6549
 7406SOL    HW133680   4.631   2.894  14.487 -1.5474  1.3926 -1.2501
 7406SOL    HW233681   4.633   2.916  14.632 -0.2158  2.1308  0.3122
 7407SOL     OW33682   4.034   2.283   7.288 -0.0177  0.9360  0.6273
 7407SOL    HW133683   3.972   2.210   7.281 -0.4994  1.4779 -0.7795
 7407SOL    HW233684   4.042   2.307   7.196  1.0909 -0.7536  0.2717
 7408SOL     OW33685   0.708   1.206   5.451  0.0839 -0.2053 -0.4535
 7408SOL    HW133686   0.615   1.187   5.465 -0.2546  1.5228 -0.3267
 7408SOL    HW233687   0.720   1.298   5.473 -0.5940  0.3409 -2.3231
 7409SOL     OW33688   2.561   3.274   6.735 -0.3405  0.0599  0.3034
 7409SOL    HW133689   2.504   3.316   6.670 -0.0022  1.5691  0.9773
 7409SOL    HW233690   2.502   3.224   6.792 -2.6226  0.8105 -1.3707
 7410SOL     OW33691   0.429   0.277   6.482 -0.0548  0.6128 -0.8615
 7410SOL    HW133692   0.450   0.307   6.571  1.4461  0.0369 -1.0306
 7410SOL    HW233693   0.336   0.255   6.494 -0.2760  0.7548 -2.3205
 7411SOL     OW33694   4.101   0.750   3.319  0.1400 -0.6381  0.4364
 7411SOL    HW133695   4.014   0.715   3.336  0.1112 -0.7668  0.0397
 7411SOL    HW233696   4.107   0.707   3.233  0.7830 -0.6475  0.4817
 7412SOL     OW33697   1.635   3.346  12.519 -0.1238  0.0460  0.3149
 7412SOL    HW133698   1.700   3.318  12.453  0.0470 -1.2932  1.0642
 7412SOL    HW233699   1.556   3.311  12.477  0.3658 -0.0379 -0.5566
 7413SOL     OW33700   4.303   0.611  17.154  0.0692 -0.5441  0.0521
 7413SOL    HW133701   4.307   0.606  17.058  0.6270  0.8357 -0.0085
 7413SOL    HW233702   4.396   0.625  17.173  0.3763 -1.7291 -0.6001
 7414SOL     OW33703   2.617   3.604  17.357  0.0263  0.1291  0.7657
 7414SOL    HW133704   2.606   3.692  17.321  0.9817 -0.2264 -0.4232
 7414SOL    HW233705   2.577   3.614  17.443  1.6408  4.8589  0.9461
 7415SOL     OW33706   0.080   1.921   5.569  0.0641  0.0625  0.9772
 7415SOL    HW133707   0.030   1.842   5.550 -1.2935  1.1898 -0.1320
 7415SOL    HW233708   0.067   1.928   5.664  0.5674  0.8446  0.9930
 7416SOL     OW33709   2.752   1.485  12.259  0.4637 -0.6922  0.1503
 7416SOL    HW133710   2.828   1.470  12.203 -1.8231 -1.5083 -2.7089
 7416SOL    HW233711   2.798   1.483  12.343 -0.5065  2.2903  0.7702
 7417SOL     OW33712   0.569   0.902   0.431  0.2393 -0.3161  0.3535
 7417SOL    HW133713   0.616   0.982   0.407 -1.7129  1.2546  1.7637
 7417SOL    HW233714   0.491   0.934   0.475 -1.3178  0.8667 -3.2891
 7418SOL     OW33715   0.598   3.757   4.957  0.1150  0.3145  0.2909
 7418SOL    HW133716   0.512   3.741   4.996 -1.0071  1.0973 -1.9112
 7418SOL    HW233717   0.572   3.737   4.867 -0.1299 -0.7799  0.6025
 7419SOL     OW33718   1.476   0.256  11.261  0.0478  0.3088  0.5028
 7419SOL    HW133719   1.389   0.271  11.298  0.0398  0.3102  0.4837
 7419SOL    HW233720   1.455   0.207  11.181  1.1229 -0.9838  1.0163
 7420SOL     OW33721   2.506   2.217  16.973 -0.3977  0.2558 -0.0325
 7420SOL    HW133722   2.503   2.308  17.003  1.2930 -0.2624  1.7213
 7420SOL    HW233723   2.592   2.196  17.010  0.3857 -0.6255 -2.3674
 7421SOL     OW33724   1.106   2.135   2.241 -0.1166  0.4618 -0.2797
 7421SOL    HW133725   1.141   2.123   2.329  1.5923  1.1644 -0.8600
 7421SOL    HW233726   1.142   2.057   2.198 -1.7910  0.4606 -1.7010
 7422SOL     OW33727   0.339   2.443   8.315 -0.4064 -0.5428  0.2651
 7422SOL    HW133728   0.277   2.373   8.294  0.4390 -1.4443  0.7969
 7422SOL    HW233729   0.287   2.502   8.369 -1.3137 -1.9640  0.9537
 7423SOL     OW33730   4.337   1.859  12.800 -0.1213  0.3029 -0.3222
 7423SOL    HW133731   4.257   1.911  12.806 -1.7321 -2.4207  2.1302
 7423SOL    HW233732   4.403   1.927  12.791  0.3808 -0.4820 -2.5587
 7424SOL     OW33733   2.517   2.408   8.537 -0.0683 -0.2921  0.3775
 7424SOL    HW133734   2.460   2.371   8.605 -2.1553 -1.7497 -2.1455
 7424SOL    HW233735   2.597   2.428   8.586  0.9012 -1.2959 -0.8187
 7425SOL     OW33736   1.677   3.435  12.112  0.4304  1.0529 -0.5957
 7425SOL    HW133737   1.770   3.440  12.136  0.5103 -2.6691 -0.1040
 7425SOL    HW233738   1.638   3.508  12.159  1.9989  0.7934  1.0915
 7426SOL     OW33739   3.068   3.220   1.882 -0.2705 -0.3629  0.1176
 7426SOL    HW133740   2.986   3.177   1.856  0.1211 -0.7858 -0.3959
 7426SOL    HW233741   3.070   3.272   1.802 -0.9304 -0.3120  0.1290
 7427SOL     OW33742   4.202   4.336   2.389  0.2335  0.0584  0.5951
 7427SOL    HW133743   4.277   4.292   2.349 -0.6284 -1.0363  0.1713
 7427SOL    HW233744   4.226   4.426   2.366 -1.7989  0.5676  0.3933
 7428SOL     OW33745   3.249   3.809   7.456  0.1240  0.4479  0.8278
 7428SOL    HW133746   3.306   3.857   7.397  0.9967  0.4976  1.7165
 7428SOL    HW233747   3.273   3.721   7.428  1.1898  1.9306 -2.8116
 7429SOL     OW33748   1.410   3.909   5.971  0.0031 -0.5664  0.0807
 7429SOL    HW133749   1.385   3.886   6.060  1.8503 -1.0535  0.4783
 7429SOL    HW233750   1.379   3.831   5.924 -0.6437 -0.7804  0.8696
 7430SOL     OW33751   1.195   0.737   6.977  0.2932 -0.0345  0.3886
 7430SOL    HW133752   1.171   0.644   6.982 -1.3678  0.3730 -0.0957
 7430SOL    HW233753   1.139   0.760   6.903  0.7030 -1.7434 -0.4756
 7431SOL     OW33754   1.466   4.700  13.081  0.5386 -0.2556 -0.0399
 7431SOL    HW133755   1.466   0.059  13.029 -0.6683  1.1141  2.0849
 7431SOL    HW233756   1.562   4.700  13.085  0.4583  0.4100  1.8159
 7432SOL     OW33757   3.447   1.433  16.786  0.1105 -0.6825 -0.0961
 7432SOL    HW133758   3.437   1.461  16.694 -3.2406 -0.7065  0.2624
 7432SOL    HW233759   3.361   1.393  16.801 -1.1751  1.5854 -1.3566
 7433SOL     OW33760   3.103   4.163   2.637  0.2349  0.5928  0.6372
 7433SOL    HW133761   3.129   4.077   2.670  1.5584  0.4822 -0.6500
 7433SOL    HW233762   3.155   4.175   2.557 -1.9519  1.1460 -0.6843
 7434SOL     OW33763   2.974   3.784   5.668 -0.1447 -0.6454 -0.2212
 7434SOL    HW133764   2.965   3.862   5.723  0.5415  0.2017 -1.3283
 7434SOL    HW233765   2.888   3.788   5.627  0.1936  3.7374 -0.4840
 7435SOL     OW33766   0.464   2.765   3.538  0.4413  0.6447 -0.6206
 7435SOL    HW133767   0.479   2.807   3.623  1.1642  0.8236 -0.8365
 7435SOL    HW233768   0.410   2.688   3.553 -0.1399  1.3144  0.7237
 7436SOL     OW33769   4.077   2.912   2.959  0.4923  0.2259 -0.1775
 7436SOL    HW133770   4.012   2.916   2.889  0.1843  0.0217  0.1015
 7436SOL    HW233771   4.138   2.979   2.927  0.2891  0.6760  0.3747
 7437SOL     OW33772   0.773   3.803   5.329 -0.3723 -0.0751  0.1259
 7437SOL    HW133773   0.829   3.787   5.405  1.3960 -1.5117 -1.4577
 7437SOL    HW233774   0.754   3.718   5.288  1.8401 -0.7560  0.4813
 7438SOL     OW33775   0.470   1.589   1.229 -0.4517 -0.4839  0.1473
 7438SOL    HW133776   0.552   1.639   1.236  0.5894 -2.1133 -0.2867
 7438SOL    HW233777   0.504   1.500   1.229 -2.6247 -1.3121 -1.5255
 7439SOL     OW33778   1.541   0.556   1.977  0.1458  0.5569  0.0262
 7439SOL    HW133779   1.474   0.488   1.967 -0.1710  0.7884  0.5570
 7439SOL    HW233780   1.493   0.634   2.006 -0.0968  0.8724 -1.1769
 7440SOL     OW33781   4.227   4.031   3.589 -0.2312  0.6270  0.4275
 7440SOL    HW133782   4.228   3.991   3.502 -0.4678 -0.1865  0.8046
 7440SOL    HW233783   4.243   4.125   3.580  0.5766  0.4930  0.4541
 7441SOL     OW33784   4.663   4.035   4.626  0.3047 -0.5766 -0.1499
 7441SOL    HW133785   4.665   4.105   4.692 -1.0610  1.8994 -2.7221
 7441SOL    HW233786   0.004   3.969   4.655  0.7895  0.3227  0.8316
 7442SOL     OW33787   2.734   4.512   2.292  0.0234 -0.0960 -0.1646
 7442SOL    HW133788   2.719   4.553   2.377 -1.4371  0.1273 -0.5309
 7442SOL    HW233789   2.692   4.576   2.235  1.4640  0.9193 -0.0675
 7443SOL     OW33790   1.030   4.578   9.395 -0.4890 -0.5410  0.2693
 7443SOL    HW133791   1.064   4.661   9.430  2.5136 -1.4672 -0.4657
 7443SOL    HW233792   0.959   4.611   9.340  1.7191  3.5528 -0.1542
 7444SOL     OW33793   1.513   2.424  12.905 -0.0866  0.0570  0.4971
 7444SOL    HW133794   1.454   2.410  12.979  0.8503 -0.0796  1.2180
 7444SOL    HW233795   1.597   2.425  12.949 -0.4315 -1.0106  1.1853
 7445SOL     OW33796   4.443   1.624   2.799  0.0339  0.1670 -0.5674
 7445SOL    HW133797   4.362   1.576   2.780  0.1160 -0.7022  1.2356
 7445SOL    HW233798   4.413   1.699   2.850 -0.7945 -0.4888 -0.0800
 7446SOL     OW33799   2.308   4.421   2.369  0.0647  0.3698 -0.1362
 7446SOL    HW133800   2.382   4.431   2.429  0.1547  1.3163 -0.3962
 7446SOL    HW233801   2.272   4.337   2.397 -0.3371  0.9367  1.0631
 7447SOL     OW33802   2.087   2.133   7.985 -0.1247  0.3704 -0.4105
 7447SOL    HW133803   2.098   2.221   7.948 -2.5160  0.3947 -1.0665
 7447SOL    HW233804   1.992   2.118   7.991 -0.3035 -0.0231 -4.4224
 7448SOL     OW33805   4.545   0.935   8.481 -0.2282  0.0869 -0.1418
 7448SOL    HW133806   4.507   1.016   8.446 -0.2697 -0.4212 -1.2850
 7448SOL    HW233807   4.516   0.867   8.420  0.8918  0.8460 -1.5314
 7449SOL     OW33808   4.060   3.261   3.204 -0.0819 -0.2032 -0.5483
 7449SOL    HW133809   4.021   3.245   3.118 -2.5009  0.8463  0.3628
 7449SOL    HW233810   3.986   3.298   3.251  2.1540  1.1874  1.8207
 7450SOL     OW33811   2.026   2.693  17.247 -0.1436  0.5729 -0.6412
 7450SOL    HW133812   1.998   2.612  17.289  0.7497 -0.0414 -1.2195
 7450SOL    HW233813   2.051   2.733  17.330 -2.0959  1.3258 -0.4203
 7451SOL     OW33814   1.196   1.748   4.441  0.0631 -0.0970 -0.6800
 7451SOL    HW133815   1.215   1.795   4.360 -0.4078  0.2455 -0.5935
 7451SOL    HW233816   1.175   1.830   4.487 -1.2037 -0.2144 -1.0301
 7452SOL     OW33817   0.589   1.211   2.496 -0.8667  0.2814 -0.1230
 7452SOL    HW133818   0.632   1.192   2.413  0.2981 -3.1207  1.2605
 7452SOL    HW233819   0.495   1.209   2.476 -1.1387  0.0604  1.1810
 7453SOL     OW33820   1.073   2.144   1.714 -0.4013  0.2929 -0.1621
 7453SOL    HW133821   1.085   2.193   1.632  0.0624 -0.2284 -0.4039
 7453SOL    HW233822   1.156   2.152   1.759 -1.9165 -1.5586  2.9432
 7454SOL     OW33823   1.481   1.817   1.888  0.0899  0.5498 -0.0227
 7454SOL    HW133824   1.435   1.836   1.806  0.3512 -0.7790 -0.4789
 7454SOL    HW233825   1.574   1.821   1.865  0.2664 -1.8059  0.2559
 7455SOL     OW33826   2.298   4.542  12.153  0.1649 -0.4688  0.1312
 7455SOL    HW133827   2.342   4.458  12.140  0.6157  0.0204 -1.5128
 7455SOL    HW233828   2.299   4.545  12.249  0.8722 -0.3682  0.1160
 7456SOL     OW33829   0.806   3.118  15.496 -0.2549 -0.2396 -0.4893
 7456SOL    HW133830   0.788   3.210  15.476  1.0834  0.1111 -0.0882
 7456SOL    HW233831   0.856   3.097  15.418  0.3379 -1.0620  0.1106
 7457SOL     OW33832   2.705   3.103   0.882 -0.1340 -0.3054 -0.1871
 7457SOL    HW133833   2.618   3.139   0.899  1.0821  2.2059  0.6473
 7457SOL    HW233834   2.685   3.010   0.879 -1.0554  0.0162 -3.4987
 7458SOL     OW33835   4.317   4.430   8.667 -0.4554 -0.3966 -0.1136
 7458SOL    HW133836   4.396   4.484   8.659 -0.2630 -0.8997 -1.6021
 7458SOL    HW233837   4.343   4.337   8.666 -1.6756 -0.7475  0.9181
 7459SOL     OW33838   3.739   3.466  10.735  0.2479 -0.0214 -0.1126
 7459SOL    HW133839   3.760   3.374  10.752 -1.4298 -0.0229  1.8170
 7459SOL    HW233840   3.727   3.510  10.819  1.8282  2.0592 -0.9380
 7460SOL     OW33841   0.122   1.045   8.571 -0.1298 -0.5988 -0.2692
 7460SOL    HW133842   0.109   1.136   8.596  0.3894 -0.2761 -1.1581
 7460SOL    HW233843   0.038   1.013   8.536  0.4359  0.9126 -3.0713
 7461SOL     OW33844   1.919   3.445  12.236 -0.0026 -0.4666  0.0399
 7461SOL    HW133845   1.958   3.486  12.313  0.1950 -0.0804 -0.2683
 7461SOL    HW233846   1.999   3.415  12.194 -0.6145 -1.0908 -0.6994
 7462SOL     OW33847   4.398   2.267   3.367 -0.5408  0.1896  0.0114
 7462SOL    HW133848   4.469   2.321   3.330 -0.1961 -0.4712 -0.2976
 7462SOL    HW233849   4.377   2.233   3.280 -1.1661 -1.5563  0.8507
 7463SOL     OW33850   0.939   1.246   9.063  0.1367  0.4200  0.8094
 7463SOL    HW133851   0.912   1.338   9.065 -2.2659 -0.2063 -2.8852
 7463SOL    HW233852   0.996   1.247   9.139  0.2516  1.5482  0.7164
 7464SOL     OW33853   0.584   1.921   9.272 -0.0950 -0.4771 -0.1432
 7464SOL    HW133854   0.617   1.988   9.331  0.0272  0.6954 -1.5419
 7464SOL    HW233855   0.615   1.950   9.187 -0.5680 -1.7370 -0.7466
 7465SOL     OW33856   0.738   2.888   7.029  0.0503 -0.3663  0.4521
 7465SOL    HW133857   0.694   2.824   6.974 -0.6017 -0.7838  1.4594
 7465SOL    HW233858   0.681   2.894   7.105 -0.0934  2.5258  0.1396
 7466SOL     OW33859   2.281   4.226  11.836  0.1852 -0.1512  0.1691
 7466SOL    HW133860   2.324   4.297  11.883  1.2329 -0.6447 -0.0159
 7466SOL    HW233861   2.332   4.216  11.755 -1.0182 -1.7171 -0.3969
 7467SOL     OW33862   2.431   2.421   0.967 -0.5066 -0.4590 -0.2957
 7467SOL    HW133863   2.372   2.412   1.043  0.9181  0.0068  0.8708
 7467SOL    HW233864   2.370   2.458   0.903  1.1049  0.7426 -1.1282
 7468SOL     OW33865   3.223   2.104   6.480 -0.7252 -0.1793 -0.0839
 7468SOL    HW133866   3.244   2.145   6.564 -0.0099  0.2778 -0.4898
 7468SOL    HW233867   3.195   2.177   6.424  1.8542 -0.4248 -1.6811
 7469SOL     OW33868   4.120   1.647   1.221 -0.3442 -0.1833  0.1215
 7469SOL    HW133869   4.030   1.615   1.229  0.1037 -1.1787  1.1164
 7469SOL    HW233870   4.126   1.711   1.292 -1.7624 -1.0639  1.0138
 7470SOL     OW33871   0.518   0.864   2.858  0.3226  0.1303 -0.3087
 7470SOL    HW133872   0.611   0.864   2.835  0.1974 -2.3815 -0.7333
 7470SOL    HW233873   0.488   0.932   2.798  0.5169  0.2654 -0.2524
 7471SOL     OW33874   3.759   0.569   0.592  0.7727  0.5576  0.2663
 7471SOL    HW133875   3.703   0.510   0.541  0.4430  2.3529 -1.4825
 7471SOL    HW233876   3.733   0.652   0.551  0.4001  0.6767  0.7410
 7472SOL     OW33877   0.478   4.676  16.060 -0.0863 -0.1710  0.3396
 7472SOL    HW133878   0.538   4.643  15.993 -2.0362 -1.4484 -0.7819
 7472SOL    HW233879   0.424   0.020  16.014  1.3989 -0.7045 -2.1335
 7473SOL     OW33880   0.721   1.347   4.140  0.1046 -0.1710 -0.3602
 7473SOL    HW133881   0.765   1.288   4.079 -0.0201 -1.1017  0.4509
 7473SOL    HW233882   0.797   1.364   4.195 -0.7322  0.0610  0.7407
 7474SOL     OW33883   1.300   0.437  17.256  0.1161  0.1228 -0.3276
 7474SOL    HW133884   1.231   0.436  17.322  0.8326  0.8611  0.4381
 7474SOL    HW233885   1.350   0.515  17.278 -1.4429  0.8632  0.5972
 7475SOL     OW33886   2.455   2.357   0.369 -0.1707 -0.2033 -0.5385
 7475SOL    HW133887   2.520   2.423   0.347 -1.1708  0.5362 -1.2860
 7475SOL    HW233888   2.461   2.365   0.465 -0.6053 -1.0152 -0.4438
 7476SOL     OW33889   0.699   3.313   2.466 -0.2651  0.1475 -0.4585
 7476SOL    HW133890   0.779   3.260   2.466 -1.0590 -1.0420 -0.7112
 7476SOL    HW233891   0.733   3.392   2.509  0.9948 -1.0532  0.7464
 7477SOL     OW33892   2.921   1.457  12.477  0.1872  0.4755 -0.6819
 7477SOL    HW133893   2.938   1.529  12.538 -2.0368  0.5134 -0.0876
 7477SOL    HW233894   2.875   1.393  12.532  0.1442  0.0024 -1.2634
 7478SOL     OW33895   4.065   0.688  14.149 -0.1343  0.7183 -0.2626
 7478SOL    HW133896   4.044   0.596  14.132  1.2583 -0.3776  3.8049
 7478SOL    HW233897   4.091   0.711  14.060  3.0855  0.4370  0.6016
 7479SOL     OW33898   3.266   1.500  16.578  0.7965 -0.0712 -0.1679
 7479SOL    HW133899   3.204   1.490  16.650  0.7142  3.0216  0.1794
 7479SOL    HW233900   3.250   1.419  16.529  3.2204  0.3346 -1.6380
 7480SOL     OW33901   3.598   3.008   8.143 -0.2464 -0.0422  0.7273
 7480SOL    HW133902   3.660   2.937   8.125 -0.3853 -0.1103  0.5217
 7480SOL    HW233903   3.519   2.971   8.184 -0.1502 -0.8807  0.1524
 7481SOL     OW33904   2.503   4.088   5.488 -0.3455  0.4712  0.4935
 7481SOL    HW133905   2.439   4.089   5.558  1.0478 -0.6248  1.7875
 7481SOL    HW233906   2.554   4.162   5.521 -0.2612  0.0659  1.2771
 7482SOL     OW33907   4.612   4.692   0.979 -0.3038 -0.3247  0.1991
 7482SOL    HW133908   4.690   4.637   0.983  1.5280  2.1178 -2.0163
 7482SOL    HW233909   4.618   4.719   0.887  0.9001  2.3716  1.0853
 7483SOL     OW33910   1.233   2.274   8.759  0.2931  0.1836  0.2741
 7483SOL    HW133911   1.304   2.213   8.738 -0.2040  0.8312 -3.1912
 7483SOL    HW233912   1.245   2.285   8.854  0.4103  0.4390  0.2319
 7484SOL     OW33913   0.082   1.063   1.974 -1.2041  0.4242 -0.2172
 7484SOL    HW133914   4.709   1.076   1.978 -1.2855 -0.6866  1.5539
 7484SOL    HW233915   0.083   1.006   1.897 -1.7394 -0.7242  0.6142
 7485SOL     OW33916   1.903   4.531   2.528 -0.3953  0.6790  0.0193
 7485SOL    HW133917   1.820   4.486   2.511  0.6612 -1.3689  0.2085
 7485SOL    HW233918   1.957   4.464   2.570  1.1890  1.4191 -0.8425
 7486SOL     OW33919   0.612   3.317   6.378  0.4062  0.5218  0.0680
 7486SOL    HW133920   0.591   3.286   6.290 -0.8302 -0.8697  0.8450
 7486SOL    HW233921   0.535   3.289   6.426 -0.5106 -2.3005 -3.0511
 7487SOL     OW33922   0.198   0.715   4.903  0.4239  0.5941 -0.0088
 7487SOL    HW133923   0.260   0.673   4.962  0.9112  1.8348  0.3482
 7487SOL    HW233924   0.141   0.753   4.970  1.7818  2.7499 -0.0675
 7488SOL     OW33925   0.582   1.607   4.810 -0.0633  0.1529  0.1482
 7488SOL    HW133926   0.542   1.628   4.726 -0.0807 -0.5998 -0.0271
 7488SOL    HW233927   0.607   1.515   4.804 -0.0902  0.2745 -1.8060
 7489SOL     OW33928   0.805   2.660   3.738  0.1021 -0.0815  0.4006
 7489SOL    HW133929   0.793   2.751   3.763  1.6148  0.9336 -2.5549
 7489SOL    HW233930   0.868   2.670   3.667 -0.3672 -1.9088 -0.2827
 7490SOL     OW33931   3.811   0.967   3.739  0.2596  0.8122 -0.2912
 7490SOL    HW133932   3.732   0.935   3.782  1.8702 -0.8362  1.4706
 7490SOL    HW233933   3.784   0.981   3.649  1.0535 -1.1079 -0.8206
 7491SOL     OW33934   2.914   3.060   5.322  0.3829 -0.1801  0.3847
 7491SOL    HW133935   2.826   3.095   5.333 -1.1364 -2.7905 -3.3197
 7491SOL    HW233936   2.962   3.092   5.398 -0.2642 -0.3382  0.8506
 7492SOL     OW33937   4.157   3.208   2.235 -0.4016 -0.0916  0.1875
 7492SOL    HW133938   4.103   3.232   2.311  0.5905 -2.9090  1.7622
 7492SOL    HW233939   4.203   3.134   2.275  0.7692  1.0591  0.9768
 7493SOL     OW33940   0.317   3.846   2.494  0.2247  0.2886  0.4218
 7493SOL    HW133941   0.257   3.883   2.559  0.9187 -0.4298  1.4732
 7493SOL    HW233942   0.376   3.798   2.552 -0.2158  1.6208  1.9399
 7494SOL     OW33943   2.000   4.309   2.257 -0.1899  0.3926 -0.0281
 7494SOL    HW133944   2.049   4.276   2.332  1.1076  1.7368 -0.2804
 7494SOL    HW233945   1.910   4.276   2.254  0.1213 -0.5463  0.9586
 7495SOL     OW33946   3.740   2.630   9.284  0.1790  0.1543 -0.1821
 7495SOL    HW133947   3.745   2.697   9.353 -2.1926  0.5257 -0.3665
 7495SOL    HW233948   3.779   2.675   9.209 -1.0496 -1.8759 -2.0389
 7496SOL     OW33949   1.166   1.079   3.077  0.5442  0.1501 -0.3343
 7496SOL    HW133950   1.206   1.068   2.991  0.2403 -0.7190 -0.3706
 7496SOL    HW233951   1.101   1.009   3.073  0.5145  0.1664 -0.1694
 7497SOL     OW33952   1.597   0.171  11.491 -0.2977 -0.0975 -0.1064
 7497SOL    HW133953   1.559   0.185  11.404  0.4604  0.8780 -0.2704
 7497SOL    HW233954   1.534   0.105  11.522 -1.0154  1.1837  1.1603
 7498SOL     OW33955   3.948   3.107  10.505 -0.3254 -0.2865 -0.3226
 7498SOL    HW133956   3.913   3.066  10.584  1.5423 -1.7673 -0.2590
 7498SOL    HW233957   3.879   3.084  10.443  0.5925 -2.0861 -0.6871
 7499SOL     OW33958   1.193   2.560   2.259  0.2068 -0.0566 -0.0257
 7499SOL    HW133959   1.151   2.643   2.239 -1.8577 -0.5103  2.4180
 7499SOL    HW233960   1.210   2.589   2.348  1.5462 -0.7372 -0.0633
 7500SOL     OW33961   4.239   4.585   9.506 -0.1797 -0.0508  0.7615
 7500SOL    HW133962   4.222   4.677   9.486 -2.0326 -1.2023 -2.7993
 7500SOL    HW233963   4.184   4.542   9.441  0.2312 -0.4056  0.6448
 7501SOL     OW33964   2.749   3.660   5.250 -0.6952  0.1014 -0.3396
 7501SOL    HW133965   2.778   3.696   5.166 -0.5447 -2.4846 -1.4037
 7501SOL    HW233966   2.698   3.731   5.289 -0.4412 -0.9587  1.9149
 7502SOL     OW33967   1.292   0.488   9.069  0.7513 -0.5790  0.2973
 7502SOL    HW133968   1.301   0.498   9.164 -3.6578  3.0237  0.3551
 7502SOL    HW233969   1.370   0.528   9.032 -1.1805 -0.3446 -3.4495
 7503SOL     OW33970   3.918   0.731   7.767  0.5987  0.3004 -0.1066
 7503SOL    HW133971   3.938   0.774   7.850  0.1525  1.9693 -0.8624
 7503SOL    HW233972   3.973   0.652   7.770 -0.8808 -0.7966 -2.1665
 7504SOL     OW33973   2.173   4.563   2.876 -0.1249  0.1574 -0.2453
 7504SOL    HW133974   2.202   4.654   2.887  0.5451 -0.1886  0.7928
 7504SOL    HW233975   2.173   4.554   2.780 -1.5028 -1.2636 -0.1047
 7505SOL     OW33976   4.587   1.052  12.369  0.0061 -0.4996 -0.6082
 7505SOL    HW133977   4.629   1.023  12.450 -2.7685 -0.8875  0.7088
 7505SOL    HW233978   4.663   1.067  12.313 -1.1093 -2.2407 -2.6038
 7506SOL     OW33979   4.499   1.661  12.893  0.5514 -0.2119 -0.4218
 7506SOL    HW133980   4.435   1.648  12.964  1.1199  1.7435  0.4398
 7506SOL    HW233981   4.435   1.713  12.845  0.5611  1.0918  0.9619
 7507SOL     OW33982   3.244   2.462   6.619 -0.0641 -0.0266  0.2380
 7507SOL    HW133983   3.209   2.537   6.668 -0.8869  0.1541 -0.6019
 7507SOL    HW233984   3.256   2.509   6.536 -0.9518  1.0071  0.6864
 7508SOL     OW33985   2.437   4.039  13.989  0.1833 -0.0852  0.3893
 7508SOL    HW133986   2.467   4.094  14.061  0.8010 -0.1568  0.1866
 7508SOL    HW233987   2.514   4.044  13.932  0.3368  1.6299  0.7581
 7509SOL     OW33988   1.397   1.429   0.295 -0.0590 -0.3084 -0.4143
 7509SOL    HW133989   1.475   1.433   0.350 -1.0173 -3.0293  1.1604
 7509SOL    HW233990   1.352   1.509   0.320  0.8014  0.0769 -0.1003
 7510SOL     OW33991   0.295   4.599   5.025 -0.6386 -0.7151 -0.7334
 7510SOL    HW133992   0.277   4.659   5.098  0.6476 -0.7500 -0.3822
 7510SOL    HW233993   0.221   4.540   5.040 -0.6912 -0.0954  1.4529
 7511SOL     OW33994   4.452   3.680   2.783 -0.0170  0.2789  0.0701
 7511SOL    HW133995   4.519   3.687   2.715 -1.7237 -2.5490 -1.8770
 7511SOL    HW233996   4.455   3.772   2.810  3.2535  0.7406 -1.9143
 7512SOL     OW33997   2.073   3.541  12.434 -0.2479 -0.1708 -0.2611
 7512SOL    HW133998   2.164   3.568  12.423 -0.3979 -0.0398 -1.1717
 7512SOL    HW233999   2.081   3.494  12.517  0.6217  0.2172 -0.1242
 7513SOL     OW34000   2.228   2.764  12.609  0.3234 -0.2670  0.4048
 7513SOL    HW134001   2.149   2.788  12.657  0.7401  0.9279  0.4948
 7513SOL    HW234002   2.283   2.838  12.632  0.4526 -0.7164  1.5619
 7514SOL     OW34003   0.652   4.059   7.197  0.5444  0.2452  0.1441
 7514SOL    HW134004   0.721   4.053   7.132 -1.2637  0.5796 -1.8144
 7514SOL    HW234005   0.581   4.099   7.146 -0.3811 -0.3264  0.9768
 7515SOL     OW34006   1.749   2.558   8.945 -0.0771  0.6978 -0.3871
 7515SOL    HW134007   1.842   2.579   8.953  0.2403  0.2740 -2.7941
 7515SOL    HW234008   1.760   2.467   8.917 -0.9814 -0.0480  1.6925
 7516SOL     OW34009   0.858   3.780  10.610 -0.4011  0.1164 -0.1584
 7516SOL    HW134010   0.937   3.740  10.647 -0.6692 -0.5561 -0.3259
 7516SOL    HW234011   0.787   3.730  10.649  0.5758 -0.8171  0.4433
 7517SOL     OW34012   1.120   4.196  10.725 -0.1282 -0.5333  0.1243
 7517SOL    HW134013   1.066   4.167  10.651 -1.0611  2.0748 -0.1962
 7517SOL    HW234014   1.186   4.127  10.734 -0.4657 -0.9744 -0.7644
 7518SOL     OW34015   0.487   2.557  14.137 -0.0968  0.0024  0.2169
 7518SOL    HW134016   0.515   2.483  14.192 -3.8201 -1.2940  0.3439
 7518SOL    HW234017   0.453   2.495  14.072  0.2430  1.3163 -1.2102
 7519SOL     OW34018   4.276   1.119   3.223  0.0795  0.2927  0.8600
 7519SOL    HW134019   4.330   1.069   3.162 -3.7050 -2.0554 -0.5603
 7519SOL    HW234020   4.340   1.167   3.275  0.9025 -0.1632  0.2699
 7520SOL     OW34021   4.212   3.532   3.840 -0.3172  0.2294  0.0793
 7520SOL    HW134022   4.230   3.505   3.750 -4.0562  0.3471 -0.7358
 7520SOL    HW234023   4.145   3.601   3.835  0.4218  0.7911 -1.8505
 7521SOL     OW34024   3.403   2.163  11.468 -1.0087 -0.5810  0.4133
 7521SOL    HW134025   3.401   2.202  11.555 -0.7350  1.7435 -0.6082
 7521SOL    HW234026   3.309   2.153  11.453 -0.6897  0.0088 -2.0973
 7522SOL     OW34027   1.311   1.378  10.346 -0.1338 -0.0377  0.3283
 7522SOL    HW134028   1.328   1.284  10.344  1.3385  0.2221  0.2323
 7522SOL    HW234029   1.363   1.409  10.420  1.1128  2.5071 -1.5563
 7523SOL     OW34030   0.165   3.792  15.209 -0.0765  0.4418  0.4409
 7523SOL    HW134031   0.138   3.842  15.132 -1.1372  0.7593  1.0228
 7523SOL    HW234032   0.243   3.747  15.175 -0.7996  0.0595 -0.6938
 7524SOL     OW34033   0.046   3.578   3.460  0.7696 -0.7236  0.5602
 7524SOL    HW134034   0.087   3.534   3.534 -0.3419 -1.7792  0.5382
 7524SOL    HW234035   0.038   3.498   3.408  0.4960  0.3767 -1.1167
 7525SOL     OW34036   4.579   2.053   5.276  0.3828  0.7286  0.5858
 7525SOL    HW134037   4.572   2.022   5.185  0.9690 -2.1655  1.5147
 7525SOL    HW234038   4.637   1.986   5.311 -0.3181 -0.8526 -1.2541
 7526SOL     OW34039   4.561   3.085   3.756 -0.2533  0.4063  0.2319
 7526SOL    HW134040   4.551   3.160   3.698 -0.9104  0.7238  0.7637
 7526SOL    HW234041   4.492   3.097   3.821  0.0099  0.3809  0.5166
 7527SOL     OW34042   2.554   4.115   4.860  0.3504  0.2141  0.2698
 7527SOL    HW134043   2.616   4.180   4.825  1.1344 -1.0609 -0.7151
 7527SOL    HW234044   2.479   4.174   4.854  0.7680  0.7018 -0.3165
 7528SOL     OW34045   1.536   2.324   6.644  0.0960 -0.2151 -0.3757
 7528SOL    HW134046   1.546   2.419   6.638  0.7615 -0.1764  1.2415
 7528SOL    HW234047   1.554   2.320   6.738 -0.5631  2.3865 -0.1351
 7529SOL     OW34048   2.323   0.918   1.258 -0.5497  0.2645  0.2829
 7529SOL    HW134049   2.304   0.998   1.209  1.3320  0.5595  0.0484
 7529SOL    HW234050   2.373   0.954   1.331  1.1536 -1.1961 -0.1664
 7530SOL     OW34051   2.186   0.970   6.697  0.2554  0.6447  0.0812
 7530SOL    HW134052   2.267   0.921   6.712  0.4204  1.1402  0.7928
 7530SOL    HW234053   2.211   1.056   6.731  1.5302  0.5274 -0.5362
 7531SOL     OW34054   3.399   2.920   8.556  0.1113 -0.5752  0.3290
 7531SOL    HW134055   3.480   2.950   8.597  0.6428 -0.5860 -0.7234
 7531SOL    HW234056   3.419   2.891   8.467  0.7995 -1.1926  0.6893
 7532SOL     OW34057   0.726   2.673   5.575  0.1896  0.1593 -0.0476
 7532SOL    HW134058   0.803   2.618   5.589 -0.2857 -1.2843 -3.2606
 7532SOL    HW234059   0.764   2.731   5.509 -1.0989 -0.2256 -1.1192
 7533SOL     OW34060   3.704   3.462  12.811  0.1073 -0.5108 -0.4127
 7533SOL    HW134061   3.685   3.535  12.752 -2.8669  0.4236  1.6577
 7533SOL    HW234062   3.699   3.497  12.900  2.0311 -1.9585  0.2480
 7534SOL     OW34063   4.465   3.804  17.302  0.5800 -0.0748 -0.1527
 7534SOL    HW134064   4.445   3.897  17.301 -0.9897 -0.4049 -0.6723
 7534SOL    HW234065   4.544   3.787  17.251 -0.7649  0.2019 -2.3280
 7535SOL     OW34066   3.985   0.450  10.305  0.1367  0.5468  0.1515
 7535SOL    HW134067   3.934   0.375  10.337  0.6883  0.9715  1.9849
 7535SOL    HW234068   4.062   0.440  10.361  1.1927  2.6416 -0.9242
 7536SOL     OW34069   2.288   1.837   0.111  0.6701 -0.4031 -0.5860
 7536SOL    HW134070   2.196   1.847   0.137  0.5656 -0.2392 -1.0048
 7536SOL    HW234071   2.299   1.744   0.127 -1.7761 -0.6284 -0.1029
 7537SOL     OW34072   2.721   3.218   5.354  0.5543  0.1917  0.3724
 7537SOL    HW134073   2.662   3.236   5.427 -1.4778  1.5211 -1.6059
 7537SOL    HW234074   2.770   3.299   5.347 -0.0763  0.7156  2.0658
 7538SOL     OW34075   1.503   2.405   7.550  0.1244 -0.3254 -0.3534
 7538SOL    HW134076   1.460   2.324   7.577 -0.5997 -1.1068 -3.7613
 7538SOL    HW234077   1.595   2.382   7.557  0.5399  0.9967 -1.3963
 7539SOL     OW34078   4.627   0.937   4.650 -0.1332 -0.3456  0.1223
 7539SOL    HW134079   4.592   0.894   4.728 -0.6367  0.0664  0.1215
 7539SOL    HW234080   4.660   1.019   4.687 -0.2397 -0.1896 -0.1338
 7540SOL     OW34081   0.851   3.627   9.248  0.3836  0.1482 -0.7146
 7540SOL    HW134082   0.924   3.659   9.195  2.2870  0.0056  1.8343
 7540SOL    HW234083   0.822   3.714   9.274  2.4479  1.2334 -2.0849
 7541SOL     OW34084   0.989   0.504  14.826  0.8167  0.0315  0.3701
 7541SOL    HW134085   1.056   0.572  14.823 -1.2176  1.9350 -2.0511
 7541SOL    HW234086   0.948   0.527  14.742  1.7381 -2.9614 -0.8978
 7542SOL     OW34087   2.487   3.545   4.476  0.5428 -0.4767 -0.0165
 7542SOL    HW134088   2.572   3.556   4.519  0.1316 -1.5715  1.0625
 7542SOL    HW234089   2.506   3.472   4.419 -0.1892 -1.1223  0.5626
 7543SOL     OW34090   0.455   0.855  14.639 -0.4530  0.7754  0.1475
 7543SOL    HW134091   0.547   0.835  14.654 -1.4597 -2.6954  1.6895
 7543SOL    HW234092   0.425   0.876  14.728 -0.7267  0.6057  0.0943
 7544SOL     OW34093   3.143   4.577  11.946  0.6336  0.7092 -0.6732
 7544SOL    HW134094   3.172   4.593  11.856 -0.6008 -1.6836 -1.4933
 7544SOL    HW234095   3.072   4.640  11.958 -2.8133 -3.1813 -0.5695
 7545SOL     OW34096   3.953   2.783  10.648  0.5164  0.7531  0.6289
 7545SOL    HW134097   3.955   2.798  10.554 -0.0253 -2.0376  0.1536
 7545SOL    HW234098   3.953   2.687  10.648 -0.8003  0.7429  2.0949
 7546SOL     OW34099   3.748   3.135   2.514 -0.3355 -0.2651 -0.9851
 7546SOL    HW134100   3.711   3.216   2.550  0.2661  0.1029 -1.1870
 7546SOL    HW234101   3.709   3.071   2.574 -1.3602  0.6031 -0.7198
 7547SOL     OW34102   3.965   4.696   3.422  0.0866 -0.0176 -0.0492
 7547SOL    HW134103   4.005   4.620   3.465  1.1780 -0.3594 -1.6684
 7547SOL    HW234104   4.036   0.039   3.434 -1.3214  1.7536 -1.1440
 7548SOL     OW34105   3.981   1.996   6.045 -0.0534  0.0566  0.1918
 7548SOL    HW134106   4.037   2.067   6.015 -0.5214  0.3246 -0.0602
 7548SOL    HW234107   3.920   1.973   5.975 -0.1103  1.3834 -0.2029
 7549SOL     OW34108   2.285   1.089   1.889  0.3559 -0.0130 -0.2714
 7549SOL    HW134109   2.348   1.068   1.821 -0.0703 -1.2924 -0.2835
 7549SOL    HW234110   2.256   1.000   1.912 -1.9672  1.2488  1.7013
 7550SOL     OW34111   2.586   2.305   5.192  1.1357 -0.8051  0.4352
 7550SOL    HW134112   2.670   2.337   5.160  0.4488  1.0289  0.4221
 7550SOL    HW234113   2.529   2.381   5.181  1.1366 -1.3061 -3.1651
 7551SOL     OW34114   4.589   0.587   3.253  0.1103  0.5825  0.2489
 7551SOL    HW134115   4.619   0.676   3.235  1.9421 -0.3559 -1.3255
 7551SOL    HW234116   4.673   0.549   3.274  0.8894  2.3317  0.3141
 7552SOL     OW34117   0.932   0.027  16.861  0.1292  0.0617  0.7597
 7552SOL    HW134118   0.931   4.715  16.771  1.4270 -3.0678  1.9184
 7552SOL    HW234119   0.913   4.671  16.913  0.8977  0.0520  1.0153
 7553SOL     OW34120   0.970   0.636  11.644 -0.1656 -0.9406  0.0084
 7553SOL    HW134121   1.048   0.599  11.685  0.2061  1.4819  1.5048
 7553SOL    HW234122   0.911   0.630  11.719  0.8870 -0.0660  0.9036
 7554SOL     OW34123   3.142   2.204   8.828  0.1938 -0.2554  0.0482
 7554SOL    HW134124   3.184   2.161   8.754  1.2676 -0.2725  0.6738
 7554SOL    HW234125   3.196   2.175   8.902 -1.5697 -0.6855  1.1891
 7555SOL     OW34126   4.704   4.237   5.718 -0.4007  0.0810 -0.2967
 7555SOL    HW134127   4.613   4.246   5.692  0.1224  1.5732 -1.6112
 7555SOL    HW234128   4.697   4.172   5.789  1.9908  1.0122  0.8149
 7556SOL     OW34129   0.813   0.324  15.437 -0.3982  0.8510 -0.0333
 7556SOL    HW134130   0.830   0.362  15.523 -1.2436  2.8118 -0.7332
 7556SOL    HW234131   0.830   0.230  15.447  0.9404  1.2010  0.9446
 7557SOL     OW34132   2.529   2.657  11.065 -0.5136 -0.4764 -0.0018
 7557SOL    HW134133   2.511   2.733  11.009  1.5350  0.7041  0.9229
 7557SOL    HW234134   2.623   2.648  11.046 -0.3584 -1.6170  1.3333
 7558SOL     OW34135   2.949   3.460   4.132 -0.0333  0.2447 -0.1321
 7558SOL    HW134136   2.899   3.542   4.132 -2.0271 -0.9766  2.1339
 7558SOL    HW234137   2.903   3.399   4.189 -1.0005  0.7836 -0.3268
 7559SOL     OW34138   4.248   3.853  13.792 -0.2538 -0.1353  0.2883
 7559SOL    HW134139   4.154   3.865  13.781  0.0208 -0.6028 -2.6312
 7559SOL    HW234140   4.269   3.931  13.741 -0.4642 -1.7684 -2.2853
 7560SOL     OW34141   4.645   3.425   2.692 -0.7443 -0.1797 -0.9207
 7560SOL    HW134142   4.694   3.440   2.772  0.9689  1.2322 -2.2205
 7560SOL    HW234143   4.642   3.517   2.663 -0.8963 -0.5102 -1.9750
 7561SOL     OW34144   0.230   4.486   4.181 -0.6436 -0.1306  0.0530
 7561SOL    HW134145   0.209   4.470   4.272 -0.1616 -0.6512  0.0723
 7561SOL    HW234146   0.238   4.396   4.148 -0.1267 -0.9996  2.6104
 7562SOL     OW34147   2.033   2.256   4.045  0.5498  0.2539  0.1776
 7562SOL    HW134148   2.115   2.234   4.002  1.6691  2.4436  1.1927
 7562SOL    HW234149   2.013   2.334   3.992  1.6326  1.2121  1.1855
 7563SOL     OW34150   2.826   4.602   0.834  0.6551 -0.1948  0.3640
 7563SOL    HW134151   2.754   4.603   0.897  0.0720  4.6728 -0.3474
 7563SOL    HW234152   2.784   4.624   0.751  3.1723  1.8207 -0.3825
 7564SOL     OW34153   0.254   0.004  16.839  0.1643 -0.4741 -0.3699
 7564SOL    HW134154   0.322   0.023  16.774  1.1569  0.3907  0.9038
 7564SOL    HW234155   0.296   0.036  16.919  0.2834  1.0641 -1.0447
 7565SOL     OW34156   0.372   0.209  13.702  0.2313 -0.3936  0.0950
 7565SOL    HW134157   0.316   0.226  13.778 -1.2107 -2.7171 -0.4419
 7565SOL    HW234158   0.388   0.299  13.675  0.1544 -0.7631 -1.1892
 7566SOL     OW34159   3.130   0.801   8.285 -0.0698  0.1779 -0.6039
 7566SOL    HW134160   3.125   0.730   8.350  0.5818 -0.3705 -1.1487
 7566SOL    HW234161   3.044   0.795   8.243  0.3238  0.2968 -1.4159
 7567SOL     OW34162   2.954   1.057   7.705 -0.3057 -0.4890 -0.2292
 7567SOL    HW134163   2.962   0.990   7.773 -1.0816 -0.7390 -0.3736
 7567SOL    HW234164   2.944   1.135   7.758  0.7805 -0.7495  0.3549
 7568SOL     OW34165   4.421   0.268   3.714  0.0120  0.9348  0.5385
 7568SOL    HW134166   4.445   0.187   3.670  0.4821  1.0685  0.5567
 7568SOL    HW234167   4.490   0.327   3.684  0.2345  1.5728  2.2606
 7569SOL     OW34168   4.619   3.299  17.480 -0.2687  0.5176  0.2856
 7569SOL    HW134169   4.562   3.373  17.500 -2.7526 -0.8463 -1.6153
 7569SOL    HW234170   4.611   3.288  17.385 -0.9216  2.7748  0.0857
 7570SOL     OW34171   2.491   2.962   3.177 -0.2980 -0.4106  0.6685
 7570SOL    HW134172   2.576   2.918   3.167  1.0029  1.8767  1.6326
 7570SOL    HW234173   2.455   2.925   3.258 -0.8012 -1.1153  0.1196
 7571SOL     OW34174   0.991   3.366  16.258 -0.2396 -0.3847  0.5583
 7571SOL    HW134175   0.939   3.429  16.307 -1.4948 -2.0784  1.3939
 7571SOL    HW234176   0.991   3.408  16.172  1.2694  1.1306  1.2797
 7572SOL     OW34177   4.120   4.137   2.055 -0.6854  0.0804 -0.1297
 7572SOL    HW134178   4.082   4.214   2.096 -2.6058 -0.1423 -1.4871
 7572SOL    HW234179   4.056   4.070   2.079 -1.4160  0.2468 -1.6164
 7573SOL     OW34180   0.209   2.508  12.089  0.3674  0.6482  0.6295
 7573SOL    HW134181   0.124   2.553  12.086  0.1699  0.1476 -1.1006
 7573SOL    HW234182   0.181   2.461  12.011 -0.2889  0.6191  0.8803
 7574SOL     OW34183   3.308   1.947   6.277  0.3580 -0.0350 -0.1280
 7574SOL    HW134184   3.312   2.022   6.337  0.3653 -1.5620  1.7866
 7574SOL    HW234185   3.400   1.923   6.272  0.3750  0.1388 -0.6850
 7575SOL     OW34186   1.394   0.764   8.495  0.2046 -0.2350 -0.3386
 7575SOL    HW134187   1.480   0.740   8.463 -0.6040  0.4822 -3.0177
 7575SOL    HW234188   1.419   0.795   8.583  0.3976 -2.0921  0.2563
 7576SOL     OW34189   2.785   1.433  16.330 -0.4479  0.1522  0.1654
 7576SOL    HW134190   2.844   1.417  16.403  1.3113  0.3353 -1.2346
 7576SOL    HW234191   2.845   1.488  16.281  0.3365  0.1841  1.1624
 7577SOL     OW34192   0.638   1.042   9.514 -0.3011 -0.4023  0.5601
 7577SOL    HW134193   0.655   0.998   9.598 -2.6293  0.3216  1.4150
 7577SOL    HW234194   0.724   1.054   9.472 -0.8682  1.1672 -0.1474
 7578SOL     OW34195   0.658   3.037   4.035  0.6804  0.0582 -0.5917
 7578SOL    HW134196   0.629   2.948   4.013 -0.3489  0.5553 -1.2009
 7578SOL    HW234197   0.690   3.023   4.124 -1.9410 -1.7310  0.0735
 7579SOL     OW34198   3.897   4.058  16.106  0.3838  0.1395  0.0171
 7579SOL    HW134199   3.819   4.091  16.061  0.6142  0.2420 -0.3067
 7579SOL    HW234200   3.953   4.135  16.117  0.9875 -0.4067  0.7385
 7580SOL     OW34201   0.821   3.690   8.498 -0.3456 -0.0293 -0.0629
 7580SOL    HW134202   0.880   3.764   8.513 -2.1996  1.1190  1.5901
 7580SOL    HW234203   0.873   3.622   8.540 -0.2498  0.0465 -0.0602
 7581SOL     OW34204   2.051   1.291   1.902 -0.1370  0.2585 -0.0160
 7581SOL    HW134205   1.967   1.250   1.879  0.3781  0.0737 -1.5404
 7581SOL    HW234206   2.110   1.216   1.895 -0.0816  0.4225 -1.2772
 7582SOL     OW34207   2.042   2.088  11.229 -0.4226 -0.5184 -0.0327
 7582SOL    HW134208   2.059   2.033  11.305 -0.1145  0.4806  0.6194
 7582SOL    HW234209   1.950   2.108  11.249 -1.1175  0.5938 -4.3781
 7583SOL     OW34210   0.364   0.256   5.827 -0.5196  0.0832  0.3320
 7583SOL    HW134211   0.447   0.251   5.779 -0.4380 -0.9107  0.5587
 7583SOL    HW234212   0.410   0.234   5.908  0.6883 -0.8922 -0.6064
 7584SOL     OW34213   2.682   2.962   7.008  0.3213  0.0745 -0.6008
 7584SOL    HW134214   2.748   2.982   7.075 -0.6246  1.1827  0.0094
 7584SOL    HW234215   2.712   2.881   6.969 -0.7438  0.2452 -1.7521
 7585SOL     OW34216   1.237   3.828  14.741 -0.1404 -0.1520 -0.6273
 7585SOL    HW134217   1.228   3.915  14.781  0.7026  0.5667 -2.0086
 7585SOL    HW234218   1.332   3.830  14.747 -0.2068  1.2881 -0.1109
 7586SOL     OW34219   0.785   0.081   1.128  0.3022  0.2570 -0.2416
 7586SOL    HW134220   0.737   0.125   1.057  2.7219  0.2049 -1.9176
 7586SOL    HW234221   0.756   4.712   1.117  0.7004  0.1638 -0.5395
 7587SOL     OW34222   2.606   0.591  15.508  0.3802 -0.5745 -0.4642
 7587SOL    HW134223   2.602   0.579  15.413 -1.6268 -0.7068 -0.3696
 7587SOL    HW234224   2.599   0.685  15.521  0.1378 -0.5559 -0.7156
 7588SOL     OW34225   0.384   1.807   5.403 -0.0723 -0.5270  0.0460
 7588SOL    HW134226   0.386   1.757   5.484 -1.9656 -0.2593  0.2661
 7588SOL    HW234227   0.352   1.742   5.341  1.6558 -1.1037 -0.2222
 7589SOL     OW34228   3.520   3.743  15.070 -0.1310  0.2314 -0.2885
 7589SOL    HW134229   3.566   3.724  15.152 -1.1502  1.6465  0.5925
 7589SOL    HW234230   3.590   3.783  15.018 -0.3698  1.7419  0.5468
 7590SOL     OW34231   0.508   2.253   1.248  0.6005  0.1051 -0.5113
 7590SOL    HW134232   0.595   2.281   1.220  0.5637  0.2601 -0.4695
 7590SOL    HW234233   0.522   2.159   1.238 -0.4102 -0.3362  2.1154
 7591SOL     OW34234   2.676   4.575   7.187  0.2226  0.4166 -0.1814
 7591SOL    HW134235   2.742   4.511   7.212 -1.8299 -1.4725  0.3733
 7591SOL    HW234236   2.723   4.658   7.175  1.2827 -0.4812 -2.2399
 7592SOL     OW34237   1.734   0.013   4.693 -0.2307 -0.0295 -0.0803
 7592SOL    HW134238   1.646   0.039   4.721 -0.4048  2.2141 -2.6882
 7592SOL    HW234239   1.728   4.717   4.599 -0.0796  0.7224 -0.2343
 7593SOL     OW34240   0.373   3.363   1.423 -0.6568  0.0545  0.0592
 7593SOL    HW134241   0.455   3.403   1.394 -1.4261  0.4843 -1.5588
 7593SOL    HW234242   0.388   3.271   1.443  0.5433 -0.2408 -2.2125
 7594SOL     OW34243   2.849   0.000  16.163  0.2350  0.7972 -0.6737
 7594SOL    HW134244   2.854   0.058  16.087 -0.0630 -0.1378 -1.3970
 7594SOL    HW234245   2.891   4.644  16.125 -3.4262 -1.1842 -0.7139
 7595SOL     OW34246   1.399   4.141   5.845 -0.2673 -0.3643  0.2102
 7595SOL    HW134247   1.419   4.052   5.874 -1.5185 -0.7399 -0.0626
 7595SOL    HW234248   1.342   4.164   5.918  0.2642 -0.5571  0.6865
 7596SOL     OW34249   3.369   0.954  17.075  0.2468 -0.5742  0.1295
 7596SOL    HW134250   3.305   0.897  17.031  1.0949 -0.0077 -1.8325
 7596SOL    HW234251   3.450   0.921  17.038  1.7265  3.1526  0.0234
 7597SOL     OW34252   4.392   1.830   3.603  0.3094 -0.4820  0.0450
 7597SOL    HW134253   4.423   1.870   3.684 -0.8481  0.1898  0.1470
 7597SOL    HW234254   4.391   1.736   3.625 -0.7398  0.2965  3.2845
 7598SOL     OW34255   4.662   0.681   6.430 -0.1308 -0.1566 -0.0329
 7598SOL    HW134256   0.013   0.741   6.412  2.2660 -2.7220  0.9117
 7598SOL    HW234257   4.671   0.666   6.524 -0.0152  0.0858 -0.0055
 7599SOL     OW34258   3.833   2.344   8.958 -1.0048  0.0400  0.2517
 7599SOL    HW134259   3.869   2.260   8.988 -0.0762  0.5514  0.5648
 7599SOL    HW234260   3.747   2.341   8.999 -0.7284  0.7039  0.8686
 7600SOL     OW34261   4.580   0.740   4.465  0.1439 -0.7296 -0.3724
 7600SOL    HW134262   4.592   0.821   4.514  0.0933 -1.0986  0.2425
 7600SOL    HW234263   4.486   0.723   4.463  0.4818 -2.6964  0.5249
 7601SOL     OW34264   0.891   0.819   7.682  0.3681  0.4353 -0.1489
 7601SOL    HW134265   0.806   0.810   7.640  1.3577 -0.2232 -1.9864
 7601SOL    HW234266   0.874   0.822   7.777 -1.0505  0.3821 -0.4093
 7602SOL     OW34267   4.231   3.903   3.370  0.0417 -0.1329  0.2384
 7602SOL    HW134268   4.309   3.848   3.377 -0.8425 -1.5022 -0.7927
 7602SOL    HW234269   4.192   3.871   3.289  1.4488  0.7879 -0.7950
 7603SOL     OW34270   0.043   2.834  15.254  0.4733 -0.4129 -0.1650
 7603SOL    HW134271   4.695   2.771  15.233 -0.1273  0.1098  0.2465
 7603SOL    HW234272   0.108   2.810  15.188 -0.3302 -2.1971 -0.3147
 7604SOL     OW34273   4.269   1.969   1.772  0.4485 -0.6278 -0.0440
 7604SOL    HW134274   4.219   1.981   1.691  0.5959 -2.2860 -0.3823
 7604SOL    HW234275   4.201   1.932   1.829  1.4197  1.1321  2.2334
 7605SOL     OW34276   4.379   0.503   3.378  0.1350  0.2418 -0.3986
 7605SOL    HW134277   4.457   0.520   3.325  2.1452 -0.3572  2.4298
 7605SOL    HW234278   4.383   0.408   3.388  1.8653  0.2531 -1.0326
 7606SOL     OW34279   4.058   3.466  17.213 -0.0278 -0.2781  0.3419
 7606SOL    HW134280   4.114   3.410  17.267 -0.5499 -0.3459  0.8114
 7606SOL    HW234281   4.125   3.510  17.161 -0.8696 -0.1846 -0.6596
 7607SOL     OW34282   4.620   1.291  15.224 -0.2718  0.3315 -0.3790
 7607SOL    HW134283   4.690   1.342  15.266 -0.5305  1.0155 -0.7704
 7607SOL    HW234284   4.547   1.353  15.237 -1.0547 -1.0878  2.0604
 7608SOL     OW34285   1.676   4.448   4.658 -0.4839 -0.4489  0.3711
 7608SOL    HW134286   1.720   4.529   4.683  1.2133 -1.5635  0.9099
 7608SOL    HW234287   1.745   4.382   4.657 -0.4512 -0.4207  1.6092
 7609SOL     OW34288   2.807   0.583  16.649  0.3776  0.3946 -0.8845
 7609SOL    HW134289   2.802   0.496  16.609  0.0829 -0.4649  1.0546
 7609SOL    HW234290   2.714   0.591  16.668  0.8736 -1.2884  2.1539
 7610SOL     OW34291   1.049   1.418  16.508 -0.2072 -0.6034 -0.0942
 7610SOL    HW134292   1.124   1.381  16.461  1.0657  1.3662  0.3745
 7610SOL    HW234293   0.980   1.355  16.487 -0.8379 -0.0223  0.2550
 7611SOL     OW34294   0.506   4.041   2.068  0.1279 -0.5955 -0.2152
 7611SOL    HW134295   0.445   3.973   2.039 -1.1827 -0.0424  1.2326
 7611SOL    HW234296   0.588   3.996   2.085  0.6562  0.2597 -0.5228
 7612SOL     OW34297   1.743   4.035   6.256  0.5397 -0.3990  0.4469
 7612SOL    HW134298   1.696   4.057   6.176  1.3090  2.3171  0.7324
 7612SOL    HW234299   1.722   3.942   6.252  2.6306 -0.8795  0.5600
 7613SOL     OW34300   2.501   0.183   6.406  0.0706  0.1410 -0.6449
 7613SOL    HW134301   2.429   0.245   6.414 -1.5170 -1.2612 -4.2106
 7613SOL    HW234302   2.489   0.128   6.484 -1.3223 -2.0518 -2.4171
 7614SOL     OW34303   2.251   2.782  11.679 -0.2766  0.1228  0.2444
 7614SOL    HW134304   2.240   2.755  11.770  1.5725  1.0368  0.7398
 7614SOL    HW234305   2.160   2.796  11.654 -1.0775 -1.3904  2.3716
 7615SOL     OW34306   3.641   1.985   2.850 -0.2689 -0.1700  0.5896
 7615SOL    HW134307   3.676   1.933   2.922 -2.4309 -1.0860  0.9588
 7615SOL    HW234308   3.554   1.946   2.853 -0.8998  1.0926 -1.2846
 7616SOL     OW34309   2.064   3.119   8.508 -0.6743  0.4861  0.0089
 7616SOL    HW134310   1.999   3.186   8.488 -3.1585 -2.1948 -1.0455
 7616SOL    HW234311   2.034   3.050   8.448 -1.8186 -1.7456  3.1548
 7617SOL     OW34312   4.143   2.975  15.981 -0.0611  0.6184  0.2303
 7617SOL    HW134313   4.092   2.902  16.017 -0.1966  0.6149  0.0330
 7617SOL    HW234314   4.204   2.989  16.054 -0.8572 -1.4177  1.2952
 7618SOL     OW34315   1.355   1.320   6.670  0.2854  0.0769  0.1538
 7618SOL    HW134316   1.293   1.324   6.742 -0.4570 -1.6910 -0.3950
 7618SOL    HW234317   1.356   1.229   6.638  0.5418 -0.2968  1.2347
 7619SOL     OW34318   0.860   4.514  13.786 -0.3394  0.2675  0.1670
 7619SOL    HW134319   0.894   4.563  13.861  1.4368 -1.9578  0.8092
 7619SOL    HW234320   0.815   4.576  13.729  0.4116 -0.9367 -1.7438
 7620SOL     OW34321   1.049   0.963   8.013 -0.7821  0.2223  0.6513
 7620SOL    HW134322   0.986   0.900   8.048 -1.6971 -0.1644 -1.6386
 7620SOL    HW234323   1.000   0.998   7.938 -1.3327 -0.1201  0.8506
 7621SOL     OW34324   1.724   2.416   2.061  0.1813  0.5351  0.3513
 7621SOL    HW134325   1.632   2.425   2.086 -0.2173 -3.9065  0.4495
 7621SOL    HW234326   1.735   2.322   2.075 -0.5090  0.4976  0.6230
 7622SOL     OW34327   0.996   3.803   0.005 -0.1654  0.3373 -0.1083
 7622SOL    HW134328   0.960   3.828   0.091 -0.8561 -0.7278 -0.0950
 7622SOL    HW234329   0.991   3.882  17.638  1.5212 -0.8619 -1.9847
 7623SOL     OW34330   4.100   3.998   2.765 -0.6456 -0.0278 -0.4046
 7623SOL    HW134331   4.195   3.992   2.777 -0.4844 -0.4527 -1.9805
 7623SOL    HW234332   4.089   4.061   2.694 -1.9571 -0.5029 -0.6217
 7624SOL     OW34333   1.422   4.133  10.611 -0.0162 -0.2487  0.3674
 7624SOL    HW134334   1.415   4.052  10.562  2.7289  0.7589 -1.7139
 7624SOL    HW234335   1.516   4.122  10.624 -0.0956  0.4655  1.5956
 7625SOL     OW34336   3.025   4.483   0.457 -0.3892  0.1235  1.1488
 7625SOL    HW134337   3.095   4.457   0.518  1.6477 -0.5659 -1.4825
 7625SOL    HW234338   2.975   4.402   0.449 -1.4146  0.4896  3.9046
 7626SOL     OW34339   4.043   2.434   7.032  0.3081 -0.7706  0.1938
 7626SOL    HW134340   4.086   2.488   6.966 -1.4023  0.2322 -0.1027
 7626SOL    HW234341   4.032   2.352   6.984 -1.0815 -0.4625 -0.0108
 7627SOL     OW34342   0.322   0.308  10.936 -0.2497  0.5260  0.0473
 7627SOL    HW134343   0.254   0.317  10.869  1.3261 -1.9013 -1.8867
 7627SOL    HW234344   0.367   0.387  10.904  1.2994 -0.1550  0.5403
 7628SOL     OW34345   0.671   3.187   1.224 -0.1962  0.2391 -0.0143
 7628SOL    HW134346   0.649   3.109   1.276  0.4622  1.1799  1.7044
 7628SOL    HW234347   0.634   3.255   1.280 -0.4231 -0.8283  1.1257
 7629SOL     OW34348   0.605   3.509   8.847 -0.1230 -0.0895 -0.1061
 7629SOL    HW134349   0.641   3.549   8.768  0.0503  1.4891  0.7557
 7629SOL    HW234350   0.576   3.579   8.906  0.0365 -0.0156 -0.1161
 7630SOL     OW34351   3.825   2.857   6.466 -0.4762  0.3679 -0.1520
 7630SOL    HW134352   3.917   2.876   6.446 -0.7101 -0.0119 -1.5919
 7630SOL    HW234353   3.834   2.765   6.490 -0.4388 -0.9888 -5.2986
 7631SOL     OW34354   3.655   2.921   8.991  0.4423 -0.3805 -0.1343
 7631SOL    HW134355   3.587   2.974   9.032  2.6759  1.7612  0.8202
 7631SOL    HW234356   3.720   2.932   9.060  1.7556  2.0987 -1.7562
 7632SOL     OW34357   4.029   2.512   2.313 -0.5915  0.1478  0.2257
 7632SOL    HW134358   3.954   2.452   2.309  0.0331 -0.6800  0.9878
 7632SOL    HW234359   4.001   2.582   2.255  1.8789  1.4636  0.6468
 7633SOL     OW34360   2.787   4.058  14.253  0.4621  0.0697 -0.0271
 7633SOL    HW134361   2.797   3.964  14.242 -1.4850  0.2042 -2.8759
 7633SOL    HW234362   2.817   4.074  14.343 -1.2499 -1.2807  0.7626
 7634SOL     OW34363   0.112   3.497  15.188  0.0753  0.3038 -0.0938
 7634SOL    HW134364   0.116   3.588  15.217  0.6573  0.3701 -0.3882
 7634SOL    HW234365   0.190   3.482  15.135 -0.4285 -0.9657 -0.4898
 7635SOL     OW34366   3.827   3.454  11.855  0.2505 -0.2143 -1.1379
 7635SOL    HW134367   3.864   3.367  11.849  2.3264  0.6053 -0.2410
 7635SOL    HW234368   3.747   3.437  11.906  0.4516  0.8030 -0.4777
 7636SOL     OW34369   2.738   0.220   4.026 -0.5735 -0.3622  0.0396
 7636SOL    HW134370   2.725   0.273   4.106  0.2078  0.7283 -0.5471
 7636SOL    HW234371   2.829   0.245   4.007 -0.6645 -0.7509 -0.8781
 7637SOL     OW34372   1.549   0.644   6.913 -0.5586 -0.1577  0.3116
 7637SOL    HW134373   1.645   0.651   6.915 -0.5426 -0.1804 -0.3487
 7637SOL    HW234374   1.527   0.610   6.999 -0.5307  0.6168  0.6292
 7638SOL     OW34375   1.427   3.735   5.405 -0.2643 -0.8077 -0.6706
 7638SOL    HW134376   1.505   3.752   5.353  0.6885 -0.5197  0.8398
 7638SOL    HW234377   1.444   3.647   5.438  2.1867 -0.9468 -2.3390
 7639SOL     OW34378   1.404   0.814   9.624 -0.3320 -0.2730 -0.2797
 7639SOL    HW134379   1.491   0.852   9.610 -0.1155 -0.2630  1.0974
 7639SOL    HW234380   1.399   0.850   9.713  1.8090  1.2359 -0.7531
 7640SOL     OW34381   3.987   0.040   5.203 -0.3134 -0.0037 -0.0584
 7640SOL    HW134382   3.949   4.699   5.265 -3.0732 -0.0035 -1.7541
 7640SOL    HW234383   4.081   0.026   5.218 -0.2972  1.6634  1.4743
 7641SOL     OW34384   0.089   3.175  17.624 -0.5051  0.2092  0.0451
 7641SOL    HW134385   0.019   3.225  17.581  0.7656  0.9025 -1.2227
 7641SOL    HW234386   0.039   3.144   0.012 -1.2594  0.4697 -0.3479
 7642SOL     OW34387   2.897   2.494   7.561 -0.1629 -0.1568  0.3983
 7642SOL    HW134388   2.867   2.565   7.617  0.8238  1.1415 -0.7095
 7642SOL    HW234389   2.817   2.474   7.513 -1.0870  3.5244  0.4641
 7643SOL     OW34390   0.779   1.762   3.660 -0.0740 -0.3805  0.0209
 7643SOL    HW134391   0.734   1.682   3.633 -1.9247  0.7482 -0.2198
 7643SOL    HW234392   0.727   1.834   3.626  2.1705  0.9794 -0.5824
 7644SOL     OW34393   1.564   3.858   7.587  0.2621 -0.0090 -0.4204
 7644SOL    HW134394   1.601   3.873   7.501  0.2713 -0.5056 -0.5041
 7644SOL    HW234395   1.615   3.792   7.635 -1.0442 -0.1122  0.8394
 7645SOL     OW34396   2.645   1.855  10.632  0.7682  0.4385 -0.6050
 7645SOL    HW134397   2.604   1.857  10.719 -0.2034  2.1389 -1.1100
 7645SOL    HW234398   2.735   1.832  10.655  0.8459 -0.1437 -1.4896
 7646SOL     OW34399   3.564   0.572  12.058  0.5162  0.0445  0.4555
 7646SOL    HW134400   3.617   0.492  12.052  1.4316  0.7130 -0.2720
 7646SOL    HW234401   3.560   0.579  11.963  1.6740 -1.8578  0.2505
 7647SOL     OW34402   0.201   2.308  12.901  0.0011  0.1283  0.1657
 7647SOL    HW134403   0.243   2.223  12.910  1.0883  0.4673 -1.8122
 7647SOL    HW234404   0.171   2.310  12.810 -2.9353  0.4456  1.1226
 7648SOL     OW34405   2.766   2.496  14.651 -0.5520  0.2281  0.1519
 7648SOL    HW134406   2.796   2.405  14.654  2.4031  1.1501 -1.0716
 7648SOL    HW234407   2.687   2.492  14.704 -1.1546 -0.2330 -0.7776
 7649SOL     OW34408   1.972   1.001   8.243  1.0506  0.2721  0.3476
 7649SOL    HW134409   1.940   0.919   8.204  2.3587 -0.4495  0.7862
 7649SOL    HW234410   2.043   0.968   8.298  1.3394  2.3252  1.1865
 7650SOL     OW34411   2.116   0.096  12.237  0.3771  0.0880  0.0231
 7650SOL    HW134412   2.024   0.073  12.250 -0.2333  1.0849 -2.5774
 7650SOL    HW234413   2.143   0.153  12.309 -0.9252 -0.0344  0.6209
 7651SOL     OW34414   1.958   0.250   8.096  0.4933 -1.2010 -0.1062
 7651SOL    HW134415   2.003   0.205   8.026 -1.0377 -2.8002 -0.0690
 7651SOL    HW234416   2.013   0.220   8.168 -1.8293 -2.0573  1.3201
 7652SOL     OW34417   1.994   0.326   7.555 -0.1854  0.0501 -0.2041
 7652SOL    HW134418   2.089   0.337   7.552 -0.2043 -0.2493 -2.0830
 7652SOL    HW234419   1.968   0.406   7.602  1.6180  0.2666  0.4236
 7653SOL     OW34420   1.115   2.554   3.263 -0.5550 -0.0466  0.8348
 7653SOL    HW134421   1.040   2.513   3.307 -2.0314  1.3750 -0.3588
 7653SOL    HW234422   1.074   2.632   3.225  0.3284 -0.4965 -1.0520
 7654SOL     OW34423   2.999   0.125   7.727  0.2131  0.1831 -0.2344
 7654SOL    HW134424   2.958   0.209   7.749 -2.1508 -1.4119  1.4886
 7654SOL    HW234425   3.036   0.089   7.807  0.2037 -0.5798 -0.5773
 7655SOL     OW34426   2.814   3.918   6.818  0.2448  0.3461  0.5303
 7655SOL    HW134427   2.770   4.000   6.798 -0.1934  0.4101  1.8119
 7655SOL    HW234428   2.898   3.929   6.772 -0.5873  1.7407 -0.6524
 7656SOL     OW34429   1.661   4.380   2.578  0.5491 -0.5612 -0.2178
 7656SOL    HW134430   1.675   4.299   2.627  0.4417 -0.2473  0.3340
 7656SOL    HW234431   1.588   4.357   2.521  0.4405  1.4226 -0.8817
 7657SOL     OW34432   3.615   2.976   2.733 -0.1646 -0.4470 -0.6205
 7657SOL    HW134433   3.540   3.019   2.773  0.9296  0.8864 -0.0128
 7657SOL    HW234434   3.574   2.923   2.663 -1.5045  1.0744 -0.9816
 7658SOL     OW34435   0.699   4.714  16.619  0.0515 -0.6195  0.0559
 7658SOL    HW134436   0.707   0.019  16.711 -2.5272 -0.9149  0.3768
 7658SOL    HW234437   0.758   4.639  16.619 -1.1581 -1.5631 -0.6809
 7659SOL     OW34438   0.360   0.363   6.211 -0.1004 -0.5271  0.1110
 7659SOL    HW134439   0.435   0.320   6.170 -0.1849  0.2761 -0.8751
 7659SOL    HW234440   0.382   0.357   6.304 -0.2683  2.2015  0.3286
 7660SOL     OW34441   0.976   2.395   5.801  0.2860  0.0524  0.8026
 7660SOL    HW134442   1.022   2.445   5.733 -1.2972 -1.6969 -1.5401
 7660SOL    HW234443   1.040   2.347   5.854  2.1124  1.0271 -0.4906
 7661SOL     OW34444   4.251   3.602  16.378  0.1419 -0.2897  0.2301
 7661SOL    HW134445   4.177   3.612  16.318  1.0235  0.1318 -0.7835
 7661SOL    HW234446   4.216   3.631  16.463  0.4071 -0.6862  0.4731
 7662SOL     OW34447   0.119   2.372   8.515 -0.1013 -0.2862 -0.1206
 7662SOL    HW134448   0.168   2.297   8.482  1.4474  0.7279 -0.1295
 7662SOL    HW234449   0.136   2.374   8.609  3.3926  2.3790 -0.8307
 7663SOL     OW34450   3.668   1.759   2.124  0.1321  0.6685  1.0082
 7663SOL    HW134451   3.747   1.771   2.072  0.0591  0.9188  0.9552
 7663SOL    HW234452   3.591   1.775   2.069 -0.1964 -1.3712  0.8820
 7664SOL     OW34453   0.907   1.769  14.759 -1.0905 -0.0878 -0.1062
 7664SOL    HW134454   0.900   1.677  14.786  2.1226  0.0226  1.1338
 7664SOL    HW234455   1.001   1.786  14.767 -1.2451  0.5581  0.3252
 7665SOL     OW34456   3.792   3.600  14.674  0.0101  0.0794 -0.2257
 7665SOL    HW134457   3.839   3.674  14.711 -1.2927 -0.1671  1.9195
 7665SOL    HW234458   3.809   3.538  14.745  1.0592  1.6205  0.8714
 7666SOL     OW34459   3.423   3.712   0.015 -1.0975  0.0479 -0.1959
 7666SOL    HW134460   3.431   3.792  17.650  2.7341 -0.0918  0.1996
 7666SOL    HW234461   3.354   3.718   0.081 -1.9552 -1.7621 -0.9153
 7667SOL     OW34462   3.228   2.572   3.286 -0.4314 -0.0228  0.7340
 7667SOL    HW134463   3.231   2.588   3.380  0.0633 -1.2770  0.9248
 7667SOL    HW234464   3.185   2.489   3.265 -2.9725  0.9978  1.9227
 7668SOL     OW34465   0.544   4.681  11.728 -0.3128  0.6232 -0.5419
 7668SOL    HW134466   0.557   0.027  11.796 -0.7406  1.1406 -0.9632
 7668SOL    HW234467   0.579   4.606  11.775  1.0089  0.4570 -1.8155
 7669SOL     OW34468   0.254   1.632   4.037  0.1682  0.0959 -0.8311
 7669SOL    HW134469   0.273   1.538   4.034 -1.8651 -0.3506  0.2697
 7669SOL    HW234470   0.266   1.650   3.944  0.8904  0.0197 -0.7531
 7670SOL     OW34471   1.966   4.576   3.839 -0.3266 -0.4529  0.1012
 7670SOL    HW134472   1.922   4.653   3.876 -0.1414  0.2915 -1.2381
 7670SOL    HW234473   1.993   4.612   3.754 -0.0225 -0.5716  0.1450
 7671SOL     OW34474   4.366   4.084  16.278 -0.4958 -0.3962 -0.0860
 7671SOL    HW134475   4.327   4.091  16.191  0.4193 -1.2563 -0.5667
 7671SOL    HW234476   4.445   4.036  16.251 -0.7191 -1.2659  0.7977
 7672SOL     OW34477   1.186   0.859  11.612  0.4103 -0.0104 -0.1380
 7672SOL    HW134478   1.149   0.915  11.680  0.0302 -0.1492 -0.2299
 7672SOL    HW234479   1.137   0.885  11.534  0.1571  1.4278  0.4980
 7673SOL     OW34480   3.743   2.137   5.682 -0.5017 -0.5717  0.0496
 7673SOL    HW134481   3.736   2.063   5.744  0.4529  0.1432  1.0171
 7673SOL    HW234482   3.738   2.213   5.740 -0.2503 -0.3303 -0.2528
 7674SOL     OW34483   1.608   2.256   2.328 -0.0021  0.1029 -0.4222
 7674SOL    HW134484   1.595   2.328   2.390  0.4833 -1.5225  1.5936
 7674SOL    HW234485   1.548   2.287   2.261 -1.7160  0.2724  1.1965
 7675SOL     OW34486   4.337   3.279  15.117 -0.9254  0.2300  0.3125
 7675SOL    HW134487   4.419   3.328  15.130 -0.4846 -0.6708  0.9144
 7675SOL    HW234488   4.362   3.190  15.091  1.4455  1.3299 -1.2659
 7676SOL     OW34489   0.328   4.094   7.636  0.5844 -0.4368 -0.1182
 7676SOL    HW134490   0.395   4.034   7.668  2.4802  2.2166  0.9038
 7676SOL    HW234491   0.358   4.109   7.546 -2.0772  3.7572 -0.3225
 7677SOL     OW34492   2.053   3.195   7.101  0.6874  0.0556  0.2700
 7677SOL    HW134493   2.088   3.166   7.017 -0.2175  1.5232 -0.6220
 7677SOL    HW234494   1.992   3.123   7.116  1.8069 -0.8037  0.7418
 7678SOL     OW34495   0.587   0.795  11.539 -0.0332  0.1119 -1.1192
 7678SOL    HW134496   0.602   0.882  11.576  0.4366 -0.4818  0.0960
 7678SOL    HW234497   0.670   0.771  11.499 -0.5662  0.1364 -2.2298
 7679SOL     OW34498   4.206   3.825  12.511  0.1996  0.5969  0.2316
 7679SOL    HW134499   4.209   3.916  12.542  1.7810  0.5729  0.1479
 7679SOL    HW234500   4.280   3.824  12.449  0.6632  1.0206  0.7720
 7680SOL     OW34501   2.231   3.548   7.352 -0.3367  0.0656  0.0325
 7680SOL    HW134502   2.150   3.510   7.318 -0.3590  0.6496 -0.5756
 7680SOL    HW234503   2.285   3.517   7.280 -2.3767 -3.7461  0.1372
 7681SOL     OW34504   3.304   3.446   1.421 -0.3600  0.2244  0.1444
 7681SOL    HW134505   3.242   3.373   1.428 -0.0402  0.0762  1.3792
 7681SOL    HW234506   3.240   3.508   1.387 -2.8766 -2.3810  0.1205
 7682SOL     OW34507   4.467   3.755   9.626 -0.0528  0.3941  0.6314
 7682SOL    HW134508   4.458   3.846   9.598  0.1700  0.3154  0.2929
 7682SOL    HW234509   4.404   3.753   9.697 -0.6410 -1.4086  0.0472
 7683SOL     OW34510   4.353   4.173  11.972  0.3452  0.2736  0.1197
 7683SOL    HW134511   4.381   4.257  11.935  1.4830  0.3401  1.1313
 7683SOL    HW234512   4.430   4.122  11.948  0.3773  0.8287 -0.9523
 7684SOL     OW34513   1.262   1.144   7.207  0.0041 -0.7778 -0.3700
 7684SOL    HW134514   1.205   1.160   7.282 -0.9963  0.6137 -1.4336
 7684SOL    HW234515   1.183   1.132   7.154  0.1308 -1.5676 -0.3818
 7685SOL     OW34516   1.623   4.059   7.759 -0.7555 -0.1896 -0.0845
 7685SOL    HW134517   1.713   4.034   7.739 -1.3894 -0.7343 -2.3201
 7685SOL    HW234518   1.583   4.006   7.689  0.8278 -0.3889 -0.8345
 7686SOL     OW34519   0.121   0.384   6.070  0.1499 -0.3607  0.4671
 7686SOL    HW134520   0.049   0.353   6.126 -0.4320  0.0191 -0.0660
 7686SOL    HW234521   0.196   0.370   6.127  1.3155 -0.5392 -1.1182
 7687SOL     OW34522   3.988   1.849   2.755  0.1929  0.4545  0.3330
 7687SOL    HW134523   3.983   1.756   2.778  0.2904  1.1279  3.0197
 7687SOL    HW234524   4.067   1.849   2.700 -1.1272  1.8992 -1.5853
 7688SOL     OW34525   1.776   1.917   9.502 -0.4941 -0.2724  0.0828
 7688SOL    HW134526   1.852   1.945   9.553 -1.2670 -0.4763  1.3473
 7688SOL    HW234527   1.700   1.953   9.547 -0.5386 -0.4949  0.1835
 7689SOL     OW34528   1.979   2.266   2.544  0.0925  0.1369 -0.6113
 7689SOL    HW134529   1.993   2.337   2.482  2.6199 -0.6620 -0.9364
 7689SOL    HW234530   1.939   2.308   2.621 -0.6415 -2.1848  0.2900
 7690SOL     OW34531   0.195   1.558   5.593  0.8343 -0.4888 -0.0316
 7690SOL    HW134532   0.142   1.598   5.661 -1.1784 -0.4525 -1.6174
 7690SOL    HW234533   0.142   1.481   5.572 -1.5038  0.6216  1.8407
 7691SOL     OW34534   1.668   3.403   5.767  0.1626  0.7170 -0.0552
 7691SOL    HW134535   1.735   3.450   5.717 -0.0272  2.6034  1.4701
 7691SOL    HW234536   1.710   3.368   5.845  0.9369  0.1270 -0.7343
 7692SOL     OW34537   0.197   4.521  16.656 -0.2071 -0.6906 -0.1459
 7692SOL    HW134538   0.244   4.482  16.582 -1.2103 -0.0195 -1.1315
 7692SOL    HW234539   0.258   4.594  16.658  0.2170 -1.0546  0.2472
 7693SOL     OW34540   4.073   3.885   8.298 -0.2141  0.1038  0.6781
 7693SOL    HW134541   4.001   3.821   8.294 -2.3036  2.3218  2.4478
 7693SOL    HW234542   4.033   3.966   8.267  1.1210 -0.1405 -1.6683
 7694SOL     OW34543   1.817   1.817   0.502  0.6172 -0.0466  0.4311
 7694SOL    HW134544   1.752   1.823   0.572  1.2803  1.1732  0.9555
 7694SOL    HW234545   1.773   1.839   0.420  2.7282  0.2290 -0.6357
 7695SOL     OW34546   4.666   0.358  10.355 -0.4972 -0.3360 -0.1676
 7695SOL    HW134547   4.681   0.342  10.262 -1.2720 -1.7519 -0.0510
 7695SOL    HW234548   0.016   0.313  10.401 -2.1245 -1.5889  1.0805
 7696SOL     OW34549   3.887   2.862  16.599  0.3074  0.5543  0.0560
 7696SOL    HW134550   3.968   2.891  16.642 -0.3673 -0.0665  1.7539
 7696SOL    HW234551   3.858   2.803  16.669  1.3687  0.4282  0.3948
 7697SOL     OW34552   2.403   2.235   0.629 -0.3400 -0.6246  0.1891
 7697SOL    HW134553   2.394   2.204   0.719  0.4398 -0.4787  0.3123
 7697SOL    HW234554   2.461   2.168   0.593  2.2706  1.9976 -0.4904
 7698SOL     OW34555   4.459   0.346  11.178 -0.0013 -0.5080 -0.2800
 7698SOL    HW134556   4.506   0.377  11.257 -0.4724  1.8810 -0.9302
 7698SOL    HW234557   4.530   0.335  11.115  0.9398  0.4692  0.5778
 7699SOL     OW34558   2.275   0.497  10.171  0.1103  0.1521 -0.3527
 7699SOL    HW134559   2.329   0.520  10.247 -2.1273 -1.1162  1.6318
 7699SOL    HW234560   2.313   0.415  10.141  1.3621  0.8056 -0.5765
 7700SOL     OW34561   2.711   3.030   4.376  0.2326  0.2656  0.3039
 7700SOL    HW134562   2.722   2.936   4.359 -1.7368  0.0107  0.3951
 7700SOL    HW234563   2.616   3.018   4.389  0.0870  0.5101 -0.5182
 7701SOL     OW34564   2.717   3.542   0.533  0.2450 -0.5973  0.1169
 7701SOL    HW134565   2.677   3.549   0.620  0.2433 -1.6642  0.1989
 7701SOL    HW234566   2.764   3.459   0.541  0.7763 -0.0905  2.5244
 7702SOL     OW34567   2.068   2.349  11.046  0.0345  0.3852  0.2656
 7702SOL    HW134568   2.071   2.280  10.980 -0.1672  0.2687  0.3804
 7702SOL    HW234569   1.989   2.395  11.019 -0.9927 -2.0232 -0.8623
 7703SOL     OW34570   0.926   1.787  13.699 -0.0819  0.6163 -0.2184
 7703SOL    HW134571   0.835   1.779  13.728  0.1433  1.6209  0.7472
 7703SOL    HW234572   0.954   1.695  13.698 -0.9616  0.3597 -1.1022
 7704SOL     OW34573   0.470   3.409   4.580  0.6300  0.1947 -0.6959
 7704SOL    HW134574   0.551   3.402   4.531  0.4359  0.6991 -1.0904
 7704SOL    HW234575   0.474   3.347   4.653 -0.3471  2.4880  1.3289
 7705SOL     OW34576   2.132   1.027  15.218  0.1677 -0.5958  0.0507
 7705SOL    HW134577   2.152   1.040  15.311  1.3551 -1.2465 -0.1095
 7705SOL    HW234578   2.188   1.085  15.166 -0.1371  0.6241  1.0700
 7706SOL     OW34579   2.244   1.482  16.035 -0.5832  0.4430 -0.1055
 7706SOL    HW134580   2.183   1.532  15.981 -0.1644  2.2841  1.1235
 7706SOL    HW234581   2.281   1.417  15.976  0.1044  1.1276 -0.4249
 7707SOL     OW34582   4.223   1.383  12.893  0.2145  0.1212 -0.0437
 7707SOL    HW134583   4.185   1.361  12.808  0.2201 -0.9320  0.2249
 7707SOL    HW234584   4.238   1.477  12.878 -3.0749  0.8421  1.0549
 7708SOL     OW34585   3.839   4.145  17.454  0.2138 -0.0003  0.3596
 7708SOL    HW134586   3.915   4.143  17.512 -0.6675 -2.1614  1.4218
 7708SOL    HW234587   3.798   4.064  17.485  0.3288 -0.3657 -0.4397
 7709SOL     OW34588   1.891   1.446   8.024 -0.2322  0.0080  0.1643
 7709SOL    HW134589   1.801   1.421   8.005 -0.6657 -1.0651  3.6505
 7709SOL    HW234590   1.877   1.539   8.042  1.3553  0.1207  0.8011
 7710SOL     OW34591   1.727   3.346   6.238  0.5278  0.1039 -0.6524
 7710SOL    HW134592   1.787   3.391   6.177  1.3535 -1.0263 -0.6669
 7710SOL    HW234593   1.783   3.346   6.315 -2.0062 -1.8361  1.1525
 7711SOL     OW34594   2.704   4.718   1.406 -0.3234  0.1488 -0.2530
 7711SOL    HW134595   2.752   4.635   1.412  0.1791  0.3946 -0.8841
 7711SOL    HW234596   2.633   4.698   1.467  1.0375  0.5611  1.4677
 7712SOL     OW34597   1.494   3.780   2.790 -0.2305  0.0838 -0.0274
 7712SOL    HW134598   1.558   3.852   2.791  0.0462 -0.1707  0.5320
 7712SOL    HW234599   1.422   3.828   2.830 -1.0715 -1.4013  0.2377
 7713SOL     OW34600   3.605   3.816   5.021 -0.3177 -0.5520  0.3076
 7713SOL    HW134601   3.646   3.774   5.097 -1.7025 -1.2597  0.6654
 7713SOL    HW234602   3.568   3.893   5.065  0.4026 -1.5945  2.7533
 7714SOL     OW34603   0.579   2.617  15.054  0.1722 -0.5485 -0.1373
 7714SOL    HW134604   0.592   2.710  15.035 -0.1633 -0.2995  0.8466
 7714SOL    HW234605   0.497   2.589  15.013 -1.2358 -0.3293  2.5454
 7715SOL     OW34606   1.507   1.904   4.781 -0.4489 -0.7455 -0.1030
 7715SOL    HW134607   1.543   1.958   4.711 -1.0573 -0.1354  0.0517
 7715SOL    HW234608   1.489   1.826   4.728 -0.7702  0.1385 -1.3021
 7716SOL     OW34609   2.664   0.336   6.671 -0.0685  0.3154 -0.7101
 7716SOL    HW134610   2.599   0.406   6.656  0.4798  0.8368 -0.6595
 7716SOL    HW234611   2.601   0.266   6.688 -0.3897  0.7625 -0.0307
 7717SOL     OW34612   4.177   1.632   4.977 -0.4440 -0.2358 -0.5954
 7717SOL    HW134613   4.243   1.652   4.911  1.3988 -2.1042  0.6945
 7717SOL    HW234614   4.103   1.608   4.923 -2.0623  1.4857  0.8379
 7718SOL     OW34615   0.744   3.166   8.582 -0.0725  0.0288  0.4666
 7718SOL    HW134616   0.659   3.141   8.619 -0.3712  0.6245  0.2001
 7718SOL    HW234617   0.749   3.109   8.505  1.0689  2.6235 -1.3793
 7719SOL     OW34618   2.211   0.961   4.178 -0.3243  0.2032 -0.2133
 7719SOL    HW134619   2.130   0.959   4.126  0.2407  0.3752 -1.1051
 7719SOL    HW234620   2.268   1.010   4.118  1.2609  0.2783  1.3578
 7720SOL     OW34621   2.753   3.315   8.482  0.3534  0.6713  0.1564
 7720SOL    HW134622   2.692   3.298   8.410  1.0386  0.4580 -0.3620
 7720SOL    HW234623   2.731   3.245   8.544 -3.9610  2.8994  1.2098
 7721SOL     OW34624   1.616   2.568   5.849 -0.2153 -0.0931 -0.0957
 7721SOL    HW134625   1.645   2.551   5.760 -1.0278  0.7902 -0.5315
 7721SOL    HW234626   1.677   2.636   5.878 -0.2144 -0.2731  0.3317
 7722SOL     OW34627   0.564   2.329   5.771  0.1434  0.2973 -0.1980
 7722SOL    HW134628   0.608   2.246   5.753 -3.5532 -1.3787 -1.4611
 7722SOL    HW234629   0.493   2.295   5.824  0.8557 -0.1243  0.4872
 7723SOL     OW34630   4.677   4.253   4.798 -0.0352 -0.3752 -0.4847
 7723SOL    HW134631   4.641   4.340   4.813  0.5395 -0.0920 -0.7705
 7723SOL    HW234632   0.040   4.271   4.841  0.1732  0.6393 -1.3166
 7724SOL     OW34633   2.609   4.168   7.523 -0.0412 -0.2574  0.2325
 7724SOL    HW134634   2.542   4.211   7.471  0.7341 -0.2389 -0.7404
 7724SOL    HW234635   2.572   4.181   7.611  4.4425  0.9150  1.9579
 7725SOL     OW34636   1.637   0.953  10.341  0.1500  0.2793 -0.0261
 7725SOL    HW134637   1.671   0.867  10.367 -0.1989 -0.3704 -1.7115
 7725SOL    HW234638   1.631   0.998  10.425  0.0065  0.7574 -0.2934
 7726SOL     OW34639   1.783   4.464   1.497 -0.5228  0.6164 -0.2480
 7726SOL    HW134640   1.699   4.419   1.493  1.1825 -2.4595 -1.0841
 7726SOL    HW234641   1.758   4.557   1.500 -1.5695  0.3110  0.4971
 7727SOL     OW34642   3.565   4.142   1.970  0.0180  0.6589  0.5426
 7727SOL    HW134643   3.608   4.062   1.941 -1.2187  0.8067 -1.6823
 7727SOL    HW234644   3.634   4.208   1.973  1.6090 -0.8500 -2.4219
 7728SOL     OW34645   1.705   0.101   7.817  0.0159 -0.0916 -0.2481
 7728SOL    HW134646   1.790   0.062   7.798 -0.4498 -0.4515 -1.5618
 7728SOL    HW234647   1.692   0.142   7.732  0.9368 -0.4797 -0.5804
 7729SOL     OW34648   3.994   0.569   8.239  0.2755 -0.0919  0.6327
 7729SOL    HW134649   3.930   0.540   8.304  0.8182 -0.8197  0.8362
 7729SOL    HW234650   4.076   0.561   8.287  0.9974  2.1742 -0.1958
 7730SOL     OW34651   0.338   0.297   5.518  0.1667  0.4681  0.1278
 7730SOL    HW134652   0.293   0.362   5.573 -1.0729 -1.5042  1.4445
 7730SOL    HW234653   0.324   0.211   5.558  1.3559  0.5759  0.8049
 7731SOL     OW34654   3.944   0.615  12.507 -0.3092  0.2296  0.1074
 7731SOL    HW134655   4.030   0.649  12.532  0.3238 -0.0340 -1.7734
 7731SOL    HW234656   3.967   0.562  12.431 -0.0812  1.0502 -0.3865
 7732SOL     OW34657   3.722   3.239   5.145 -0.2428  0.6505 -0.3297
 7732SOL    HW134658   3.668   3.166   5.114 -0.8693  0.8461  0.2856
 7732SOL    HW234659   3.801   3.193   5.119  0.1481  0.8469  0.5100
 7733SOL     OW34660   4.375   3.264   8.475 -0.0817  0.0637 -0.5487
 7733SOL    HW134661   4.386   3.222   8.560  1.8940  1.6866 -0.0152
 7733SOL    HW234662   4.466   3.277   8.450  0.0528  0.6502  0.2628
 7734SOL     OW34663   1.774   1.155   5.020 -0.6367  0.0949 -0.1642
 7734SOL    HW134664   1.837   1.107   4.967  0.5347 -0.4068  1.6782
 7734SOL    HW234665   1.778   1.113   5.106 -0.0132 -0.1151 -0.2962
 7735SOL     OW34666   2.207   0.432  11.657 -0.3956  1.0377  0.5405
 7735SOL    HW134667   2.294   0.471  11.649 -0.1179  0.1934 -0.5578
 7735SOL    HW234668   2.170   0.509  11.700  0.1995  0.0006  2.9137
 7736SOL     OW34669   3.818   1.957   2.290 -0.4132  0.1108 -0.3113
 7736SOL    HW134670   3.772   2.040   2.282 -3.1782 -1.4557 -0.5992
 7736SOL    HW234671   3.764   1.891   2.247 -1.4448  0.2828  0.7544
 7737SOL     OW34672   1.644   3.787  15.957  0.3605  0.0571  0.1920
 7737SOL    HW134673   1.599   3.863  15.995 -0.7141 -0.4428 -0.0696
 7737SOL    HW234674   1.636   3.808  15.863  1.3627  0.0806  0.1163
 7738SOL     OW34675   3.704   0.807   8.192  0.9141  0.0787 -0.5891
 7738SOL    HW134676   3.633   0.744   8.179 -1.1450  1.6940  2.8379
 7738SOL    HW234677   3.708   0.819   8.287 -1.3078 -0.2351 -0.4632
 7739SOL     OW34678   0.003   0.249   8.587 -0.1056  0.2171  0.1605
 7739SOL    HW134679   4.649   0.250   8.647 -0.7089 -1.6527 -0.5634
 7739SOL    HW234680   0.051   0.324   8.622  1.6812 -0.5020 -0.7455
 7740SOL     OW34681   2.886   3.340   1.600 -0.0211  0.0673 -0.4801
 7740SOL    HW134682   2.804   3.349   1.648  0.5239  3.3173 -0.1284
 7740SOL    HW234683   2.915   3.432   1.600  3.0548 -0.8938  0.9583
 7741SOL     OW34684   3.257   2.728  11.863  0.3514 -0.1266 -0.4539
 7741SOL    HW134685   3.337   2.679  11.877 -0.0520 -0.9003 -0.8768
 7741SOL    HW234686   3.254   2.785  11.940 -0.4530 -1.4078  0.4639
 7742SOL     OW34687   4.684   3.242   4.787 -0.8974 -0.4396 -0.0006
 7742SOL    HW134688   4.610   3.218   4.731 -0.5584  0.7722 -0.9615
 7742SOL    HW234689   4.653   3.227   4.876  1.3899 -2.5070  0.4386
 7743SOL     OW34690   4.032   3.130   1.497 -0.4478 -0.6045  0.4604
 7743SOL    HW134691   4.005   3.136   1.589  0.1561  1.9295  0.4646
 7743SOL    HW234692   4.019   3.218   1.463  0.6813 -0.3468  0.6786
 7744SOL     OW34693   0.922   1.304  15.493  0.2283 -0.2132  0.4341
 7744SOL    HW134694   1.003   1.276  15.451  0.0332 -1.7687  1.1033
 7744SOL    HW234695   0.926   1.242  15.566  2.0095 -0.9808 -0.3404
 7745SOL     OW34696   3.443   4.407   4.602  0.0096  0.5431 -0.3420
 7745SOL    HW134697   3.352   4.428   4.582 -0.5308  0.1325  1.7137
 7745SOL    HW234698   3.490   4.456   4.535 -1.6734  0.7061 -1.4106
 7746SOL     OW34699   1.793   0.980  10.797 -0.2283 -0.6291 -0.1230
 7746SOL    HW134700   1.756   1.029  10.723 -0.8177  0.0314  0.6096
 7746SOL    HW234701   1.830   1.050  10.851 -1.6946 -0.2725  0.4285
 7747SOL     OW34702   3.845   2.945  12.763 -0.1205 -0.2525 -0.6132
 7747SOL    HW134703   3.854   2.897  12.846  0.6424 -0.4006 -0.7806
 7747SOL    HW234704   3.782   3.014  12.784  0.4038 -0.1794  0.7291
 7748SOL     OW34705   2.967   1.756   7.252  0.2047 -0.0159  0.5265
 7748SOL    HW134706   3.022   1.679   7.237  0.4255  0.0140  1.1853
 7748SOL    HW234707   3.032   1.819   7.283 -0.7525  1.3536 -0.1855
 7749SOL     OW34708   4.105   4.612   9.826  0.2823 -0.2369  0.5374
 7749SOL    HW134709   4.151   4.666   9.761 -0.8032  1.9160  1.5717
 7749SOL    HW234710   4.075   4.679   9.888  0.0413 -0.3520  0.5465
 7750SOL     OW34711   3.674   3.358  11.615  0.1148  0.1513 -0.3303
 7750SOL    HW134712   3.763   3.364  11.581  0.0695 -2.7741 -0.9325
 7750SOL    HW234713   3.693   3.402  11.698 -1.3854  0.0901  0.0393
 7751SOL     OW34714   2.466   3.769  16.973  0.1651  0.0960 -0.5091
 7751SOL    HW134715   2.384   3.793  17.017 -0.1986 -0.8264 -0.6847
 7751SOL    HW234716   2.448   3.761  16.879 -1.8057 -0.7026 -0.0644
 7752SOL     OW34717   2.957   0.179   6.275 -0.0989 -0.0721 -0.8499
 7752SOL    HW134718   2.884   0.128   6.241 -0.3628 -1.8660  2.4323
 7752SOL    HW234719   2.920   0.198   6.361  1.9921  1.5689 -0.3065
 7753SOL     OW34720   1.185   1.082   7.696 -0.2001  0.3549 -0.1106
 7753SOL    HW134721   1.205   1.043   7.781 -0.8586  0.0920 -0.0758
 7753SOL    HW234722   1.247   1.031   7.643  2.2348  3.4041 -0.2091
 7754SOL     OW34723   1.611   2.205   3.647 -0.0432 -0.4790  0.0179
 7754SOL    HW134724   1.521   2.228   3.623  0.4754  0.0749 -1.3692
 7754SOL    HW234725   1.616   2.216   3.742  1.6145 -0.9415 -0.0139
 7755SOL     OW34726   3.414   4.338  14.414 -0.0744  0.2138 -0.1921
 7755SOL    HW134727   3.413   4.252  14.371  1.1116  0.8701 -1.5553
 7755SOL    HW234728   3.420   4.319  14.507  2.0453  0.0040 -0.3730
 7756SOL     OW34729   0.224   3.121   2.427 -0.7807 -0.8482 -0.0992
 7756SOL    HW134730   0.298   3.173   2.397  0.1427 -1.6637  0.7794
 7756SOL    HW234731   0.170   3.192   2.463  1.0505 -0.5449  2.0534
 7757SOL     OW34732   3.406   3.986   3.225 -0.0315 -0.3499 -0.3023
 7757SOL    HW134733   3.457   4.043   3.283 -1.4680 -0.3958  1.0190
 7757SOL    HW234734   3.342   3.948   3.285 -2.9182  2.1647 -1.7979
 7758SOL     OW34735   3.882   1.216   9.187  0.4123 -0.5421 -0.7962
 7758SOL    HW134736   3.965   1.170   9.172  0.2398 -0.8494 -0.8166
 7758SOL    HW234737   3.895   1.253   9.275 -1.2301 -0.4395 -0.6057
 7759SOL     OW34738   2.797   2.326   3.202  0.1472  0.6888 -0.4527
 7759SOL    HW134739   2.768   2.287   3.284 -0.9578 -1.5088 -1.8868
 7759SOL    HW234740   2.816   2.414   3.234 -0.2168  1.5747 -2.6916
 7760SOL     OW34741   3.127   3.960  10.149 -0.2536  0.0108  0.0390
 7760SOL    HW134742   3.040   3.970  10.111 -1.0335  0.5070  1.9910
 7760SOL    HW234743   3.133   4.036  10.206  0.7313 -1.0636  1.3808
 7761SOL     OW34744   4.466   1.575   5.631 -0.0100  0.3434 -0.0676
 7761SOL    HW134745   4.434   1.611   5.549 -2.5510  0.9267  1.1814
 7761SOL    HW234746   4.552   1.617   5.629  0.0518  0.2481  0.4894
 7762SOL     OW34747   3.315   3.225   0.860  0.2975  0.2693 -0.8122
 7762SOL    HW134748   3.328   3.131   0.851  0.2652  0.2307 -0.4524
 7762SOL    HW234749   3.376   3.260   0.796  0.8224  1.5460  0.3998
 7763SOL     OW34750   1.537   3.276   8.321 -0.1229  0.7458  0.0370
 7763SOL    HW134751   1.491   3.359   8.334  2.3456  2.1951 -0.6064
 7763SOL    HW234752   1.468   3.215   8.295  0.6970 -0.4921  0.7650
 7764SOL     OW34753   0.017   1.461   9.887 -0.2694 -0.1952 -0.0340
 7764SOL    HW134754   0.054   1.387   9.838  3.0977  1.9263 -0.7227
 7764SOL    HW234755   4.656   1.479   9.843 -0.2340  0.0728  0.0094
 7765SOL     OW34756   2.171   1.428  16.272  0.7727  0.0439  0.2097
 7765SOL    HW134757   2.201   1.506  16.318  0.2726  0.4850 -0.2207
 7765SOL    HW234758   2.205   1.439  16.184 -0.8642 -0.4586 -0.4824
 7766SOL     OW34759   4.448   1.237   9.283  0.2268  0.0841  0.3117
 7766SOL    HW134760   4.402   1.236   9.367  0.5734  1.8932  0.5322
 7766SOL    HW234761   4.440   1.328   9.254  2.9215  0.0412 -0.6352
 7767SOL     OW34762   1.204   4.535  13.564  0.1123  0.3851  0.0263
 7767SOL    HW134763   1.156   4.455  13.585 -0.0910  0.6802  0.6880
 7767SOL    HW234764   1.293   4.499  13.569  1.0086  2.5323 -0.8357
 7768SOL     OW34765   3.563   4.575   5.124  0.4570 -0.6320  0.3526
 7768SOL    HW134766   3.540   4.537   5.209 -1.4025  0.6787  0.4088
 7768SOL    HW234767   3.479   4.587   5.080 -0.5386  0.2182  2.4903
 7769SOL     OW34768   0.917   2.031   4.096 -0.3691  0.0059  0.6466
 7769SOL    HW134769   0.838   2.054   4.047  0.8407 -1.4599 -2.0021
 7769SOL    HW234770   0.969   1.974   4.038 -1.4901 -0.3092 -0.0428
 7770SOL     OW34771   0.009   1.504   3.791  0.2829  0.2372 -0.1770
 7770SOL    HW134772   4.678   1.485   3.712 -0.4150 -2.7453  1.0033
 7770SOL    HW234773   0.082   1.547   3.746  2.4574 -1.6501  1.5498
 7771SOL     OW34774   0.297   4.582   6.276  0.1404 -0.3157  0.1444
 7771SOL    HW134775   0.219   4.585   6.332 -0.7824 -0.6473 -1.1323
 7771SOL    HW234776   0.309   4.487   6.271 -4.0425 -0.8171 -0.4182
 7772SOL     OW34777   4.089   4.323  13.595  0.4165  0.4750 -0.5097
 7772SOL    HW134778   4.012   4.371  13.626 -0.7077 -1.9072  0.3493
 7772SOL    HW234779   4.165   4.381  13.586  0.5882  0.1340 -1.2432
 7773SOL     OW34780   4.328   4.000   9.366  0.0899 -0.2366  0.1288
 7773SOL    HW134781   4.406   3.981   9.313  0.5110  0.8963  0.3403
 7773SOL    HW234782   4.372   4.005   9.450 -0.2995 -1.6203  0.4163
 7774SOL     OW34783   3.222   3.481   4.579 -0.2032  0.2213  0.5904
 7774SOL    HW134784   3.178   3.435   4.650  0.8902 -0.2098  0.9823
 7774SOL    HW234785   3.158   3.538   4.537 -0.1677  0.1732  0.4706
 7775SOL     OW34786   2.221   0.438  16.288 -0.0702 -0.2868  0.1735
 7775SOL    HW134787   2.284   0.405  16.224  1.6962  1.4617  0.9839
 7775SOL    HW234788   2.130   0.417  16.266 -0.6973  1.8260  0.7067
 7776SOL     OW34789   4.620   2.331   7.360 -0.5614  0.4585  0.1115
 7776SOL    HW134790   4.655   2.290   7.439 -1.4421 -1.6327 -0.5709
 7776SOL    HW234791   4.582   2.255   7.315 -1.6250  0.8083  0.4166
 7777SOL     OW34792   4.707   1.544   7.782  0.2578 -0.4852  0.3749
 7777SOL    HW134793   0.048   1.585   7.842  0.3703  2.7688 -2.0089
 7777SOL    HW234794   4.640   1.612   7.783 -1.5904 -2.2664 -1.2233
 7778SOL     OW34795   1.729   1.872   1.538  0.4703 -0.6856  0.6214
 7778SOL    HW134796   1.710   1.913   1.623 -0.5243 -1.6648  0.8791
 7778SOL    HW234797   1.661   1.804   1.531 -0.4062  0.1669  0.8078
 7779SOL     OW34798   3.592   2.641   5.814  0.2794  0.7664  0.2383
 7779SOL    HW134799   3.675   2.663   5.854  0.1676 -0.7056  1.2693
 7779SOL    HW234800   3.561   2.729   5.791 -0.0980  1.0191  1.7345
 7780SOL     OW34801   4.559   2.601  15.750  0.0950  0.2602 -0.1514
 7780SOL    HW134802   4.568   2.570  15.660  0.0030 -1.1931  0.3344
 7780SOL    HW234803   4.629   2.667  15.750 -0.7712  1.1867 -5.1219
 7781SOL     OW34804   2.954   1.767   8.734 -0.2249 -0.0997 -0.0076
 7781SOL    HW134805   3.006   1.836   8.774 -0.8056 -0.2631  1.0372
 7781SOL    HW234806   2.945   1.718   8.816 -1.7886 -0.3361 -0.3258
 7782SOL     OW34807   2.681   2.384   1.293 -0.2082  0.5711 -0.6159
 7782SOL    HW134808   2.717   2.299   1.318 -0.9395  0.0729 -1.2619
 7782SOL    HW234809   2.763   2.431   1.277 -0.1162  0.6388  0.0505
 7783SOL     OW34810   4.043   2.837   6.682  0.0243  0.2749 -0.1986
 7783SOL    HW134811   4.131   2.872   6.670  0.0301  0.0574 -0.7555
 7783SOL    HW234812   4.021   2.876   6.767  0.5959 -0.1926  0.1678
 7784SOL     OW34813   4.072   0.342   6.637 -0.3498  0.3581 -0.0961
 7784SOL    HW134814   4.080   0.258   6.592 -2.1590 -0.1744  0.5627
 7784SOL    HW234815   4.164   0.357   6.659 -0.4294  1.2470 -0.3572
 7785SOL     OW34816   1.503   3.029   4.199 -0.7876  0.1421  0.0424
 7785SOL    HW134817   1.449   3.093   4.152 -1.0452 -2.0411 -2.6095
 7785SOL    HW234818   1.438   2.993   4.259  1.7085 -1.0761  2.0155
 7786SOL     OW34819   2.858   0.675   6.063 -0.5549 -0.2205  0.0423
 7786SOL    HW134820   2.949   0.692   6.039 -0.4338  1.3549  1.6518
 7786SOL    HW234821   2.856   0.585   6.096  1.1554 -0.1940  0.2133
 7787SOL     OW34822   1.337   2.386   3.960  0.3435  0.0246  0.0207
 7787SOL    HW134823   1.306   2.460   3.909  0.8485  1.0341  1.1670
 7787SOL    HW234824   1.299   2.423   4.041  2.4921  0.3878  0.8610
 7788SOL     OW34825   1.546   4.238  11.034  0.7947 -0.2001  0.2250
 7788SOL    HW134826   1.465   4.195  11.008 -1.0978  1.8482  2.8180
 7788SOL    HW234827   1.588   4.161  11.073  4.4447  1.2526 -0.7850
 7789SOL     OW34828   2.057   3.894   3.114 -1.0712 -0.3159 -0.1360
 7789SOL    HW134829   2.089   3.804   3.114  0.2801  0.1759 -0.2709
 7789SOL    HW234830   2.109   3.928   3.187  0.9997 -2.5560 -0.5839
 7790SOL     OW34831   4.210   2.636   2.567 -0.6363 -0.6371 -0.6445
 7790SOL    HW134832   4.272   2.708   2.582 -2.6438  0.8545  0.4430
 7790SOL    HW234833   4.139   2.679   2.520  0.2775  0.5772 -0.9057
 7791SOL     OW34834   0.931   0.436  10.001  0.2815 -0.5287 -0.4809
 7791SOL    HW134835   0.881   0.508  10.039  1.4402 -0.4133  0.8246
 7791SOL    HW234836   0.951   0.481   9.920  2.4468  0.6265  0.7032
 7792SOL     OW34837   3.587   1.406   3.763 -0.2531 -0.2232  0.6385
 7792SOL    HW134838   3.560   1.328   3.811  0.3430 -0.2390  0.9544
 7792SOL    HW234839   3.540   1.387   3.682  1.2149  0.9542 -0.4893
 7793SOL     OW34840   0.875   3.075   7.953 -0.3607  0.1139 -0.5360
 7793SOL    HW134841   0.865   3.170   7.961  1.0763  0.2102  0.2221
 7793SOL    HW234842   0.950   3.079   7.894 -0.6605 -0.1678 -0.9349
 7794SOL     OW34843   1.271   1.071   2.796 -0.0976  0.1533  0.5843
 7794SOL    HW134844   1.227   1.155   2.786 -1.3697 -0.7394 -1.3564
 7794SOL    HW234845   1.199   1.017   2.762 -0.5968  0.0488  1.8171
 7795SOL     OW34846   2.774   3.024   2.201 -0.1761 -0.5106 -0.2468
 7795SOL    HW134847   2.784   2.970   2.123  0.2467  1.4976 -1.5740
 7795SOL    HW234848   2.797   3.114   2.176  1.3445 -1.1527 -1.1404
 7796SOL     OW34849   1.921   1.490   1.065 -0.1753 -0.2757 -0.1030
 7796SOL    HW134850   1.985   1.461   1.000 -2.2601 -3.4429 -0.7197
 7796SOL    HW234851   1.960   1.445   1.140  1.1290 -0.7335 -1.0519
 7797SOL     OW34852   2.336   2.675  12.355 -0.1336 -0.1315  0.6629
 7797SOL    HW134853   2.379   2.596  12.386 -1.2523 -1.1697 -0.4328
 7797SOL    HW234854   2.318   2.719  12.438  2.1323  0.4629  0.8237
 7798SOL     OW34855   2.527   3.091   2.735  0.3206  0.6333 -0.0631
 7798SOL    HW134856   2.577   3.030   2.681 -1.2137 -0.6371 -0.0432
 7798SOL    HW234857   2.549   3.173   2.692 -0.1107  0.3744 -0.7613
 7799SOL     OW34858   2.141   0.064  12.520  0.0968 -0.4881  0.4467
 7799SOL    HW134859   2.140   0.029  12.609  0.8431  0.3148  0.7572
 7799SOL    HW234860   2.066   0.027  12.473 -0.5818  1.4935 -0.0075
 7800SOL     OW34861   0.222   4.528  13.562 -0.4705  0.6203 -0.0815
 7800SOL    HW134862   0.289   4.471  13.524  0.0186  0.0280  1.6749
 7800SOL    HW234863   0.145   4.472  13.575  0.3343 -0.1937  1.0850
 7801SOL     OW34864   1.023   0.142   9.405  0.1376  0.2812  0.3420
 7801SOL    HW134865   1.073   0.173   9.329  1.2601  1.4089  1.5469
 7801SOL    HW234866   1.064   0.208   9.460 -2.0317  2.9187 -1.1830
 7802SOL     OW34867   0.164   4.047  16.548 -0.1472  0.1737 -0.1106
 7802SOL    HW134868   0.257   4.055  16.526  0.2094  0.2290  1.4475
 7802SOL    HW234869   0.151   4.060  16.641 -0.7083  0.3787 -0.2177
 7803SOL     OW34870   2.898   0.606  16.352  0.1370 -0.2293  0.1834
 7803SOL    HW134871   2.982   0.598  16.308  0.5437 -0.6316  1.0399
 7803SOL    HW234872   2.875   0.513  16.354  1.6817 -0.5806  1.7653
 7804SOL     OW34873   1.242   2.568   1.051  0.0664 -0.3486 -0.1441
 7804SOL    HW134874   1.188   2.607   0.982  1.3673  1.4435 -0.1501
 7804SOL    HW234875   1.198   2.620   1.118  0.7574 -0.5892  0.5017
 7805SOL     OW34876   3.243   2.427   9.547  0.1734  0.1122 -0.4225
 7805SOL    HW134877   3.223   2.392   9.634  0.7824 -0.3294 -0.4624
 7805SOL    HW234878   3.224   2.521   9.553  0.5369  0.1651 -0.1342
 7806SOL     OW34879   0.574   2.177  13.690 -0.1694  0.0319 -0.2666
 7806SOL    HW134880   0.562   2.261  13.644  0.3992  1.5169  2.2897
 7806SOL    HW234881   0.638   2.143  13.627 -0.0914  1.0256 -0.7382
 7807SOL     OW34882   3.441   3.208   3.355  1.1607 -0.9941 -0.1394
 7807SOL    HW134883   3.386   3.148   3.406  1.0668  0.4965  1.5188
 7807SOL    HW234884   3.416   3.181   3.267  1.9223  0.2572 -0.7337
 7808SOL     OW34885   2.473   2.590   2.058 -0.0208 -0.2137  0.5989
 7808SOL    HW134886   2.548   2.638   2.023 -0.3611 -1.4574 -1.7981
 7808SOL    HW234887   2.442   2.659   2.118  0.9409  0.7233  0.0246
 7809SOL     OW34888   1.604   0.476  11.775  0.7421 -0.0362 -0.0269
 7809SOL    HW134889   1.600   0.533  11.852 -0.9457 -0.2426  0.0293
 7809SOL    HW234890   1.695   0.447  11.784  0.6544 -0.3500 -0.1743
 7810SOL     OW34891   2.237   3.299   6.772 -0.3691  0.0375 -0.2024
 7810SOL    HW134892   2.199   3.220   6.811 -0.3939 -0.8216 -1.9742
 7810SOL    HW234893   2.252   3.265   6.684 -0.7639  2.7835 -1.3000
 7811SOL     OW34894   2.029   3.651   3.448 -0.5277 -0.0273  0.1360
 7811SOL    HW134895   2.092   3.700   3.501  0.1582  0.1047 -0.7896
 7811SOL    HW234896   2.085   3.615   3.378 -1.0981 -0.0450 -0.3120
 7812SOL     OW34897   1.888   3.587   5.165  0.3375  0.6129 -0.4388
 7812SOL    HW134898   1.973   3.548   5.142 -0.3902 -1.0442 -0.2945
 7812SOL    HW234899   1.826   3.528   5.124 -1.2942  2.1717 -0.1990
 7813SOL     OW34900   1.999   2.009   9.659 -0.0780 -0.6229  0.6119
 7813SOL    HW134901   2.028   2.085   9.710 -0.5646 -1.3747  1.9978
 7813SOL    HW234902   1.991   1.948   9.732  1.8520  0.1329  1.4399
 7814SOL     OW34903   1.404   4.190   3.556 -0.4168 -0.5477  0.1910
 7814SOL    HW134904   1.357   4.124   3.606 -0.0929 -1.3478 -0.5504
 7814SOL    HW234905   1.493   4.159   3.574  0.9412  2.2463 -1.8024
 7815SOL     OW34906   0.879   4.659  14.392 -0.1173  0.6575 -0.0805
 7815SOL    HW134907   0.836   4.718  14.331 -0.5404 -1.0082 -1.4015
 7815SOL    HW234908   0.814   4.648  14.462  1.5904  2.6138  1.8143
 7816SOL     OW34909   0.993   3.073   4.435  0.3094  0.1752  0.1187
 7816SOL    HW134910   0.930   3.087   4.363  1.4889  1.4723 -0.6825
 7816SOL    HW234911   0.939   3.024   4.496  0.9641  0.7402  1.1428
 7817SOL     OW34912   2.331   4.313   2.118  0.0845 -0.1945 -0.1167
 7817SOL    HW134913   2.423   4.321   2.143 -0.8368  0.2889  3.2405
 7817SOL    HW234914   2.304   4.343   2.205  0.5311 -1.8386  0.5959
 7818SOL     OW34915   2.198   3.245  16.838 -0.4727 -0.1877 -0.0859
 7818SOL    HW134916   2.116   3.211  16.874 -1.3520 -1.5943 -3.3589
 7818SOL    HW234917   2.199   3.333  16.877 -2.5775  0.2628 -1.0396
 7819SOL     OW34918   3.282   4.087   6.340 -0.5849 -0.5126 -0.2145
 7819SOL    HW134919   3.323   4.162   6.296 -2.5717 -0.1310 -1.4035
 7819SOL    HW234920   3.251   4.133   6.419  1.6903  0.3670  0.1883
 7820SOL     OW34921   2.026   2.667   4.837  0.1870  0.6395  0.3218
 7820SOL    HW134922   2.062   2.657   4.748 -2.3375  0.0367 -0.6417
 7820SOL    HW234923   1.955   2.603   4.841  1.7040 -1.0150  0.7631
 7821SOL     OW34924   2.341   4.248   1.806 -0.3941 -0.1815 -0.5792
 7821SOL    HW134925   2.317   4.164   1.769 -1.9035 -0.0702  0.1430
 7821SOL    HW234926   2.373   4.233   1.895 -0.1804  2.4707 -0.1855
 7822SOL     OW34927   4.286   3.552  12.389  0.5353  0.5623 -0.1376
 7822SOL    HW134928   4.362   3.606  12.366  0.3696  0.7377 -0.2679
 7822SOL    HW234929   4.231   3.616  12.433 -0.6315 -0.0854 -0.6682
 7823SOL     OW34930   0.570   3.078   5.083 -0.7902  0.4122 -0.4233
 7823SOL    HW134931   0.600   3.008   5.026  1.7097  0.3765  0.9462
 7823SOL    HW234932   0.647   3.116   5.124  0.3373 -1.4004 -0.8765
 7824SOL     OW34933   3.553   1.197   5.432  0.5907  0.1245  0.2817
 7824SOL    HW134934   3.546   1.282   5.389 -1.1706 -0.1600  0.0097
 7824SOL    HW234935   3.468   1.203   5.475  0.6914  2.1569  0.1871
 7825SOL     OW34936   3.367   0.851  15.306  0.1431 -0.2128  0.1454
 7825SOL    HW134937   3.293   0.842  15.367  1.7269  2.1636  2.4058
 7825SOL    HW234938   3.443   0.864  15.362  0.1479 -3.0721  0.7751
 7826SOL     OW34939   3.017   3.624   6.702 -0.1567  0.0016  0.2251
 7826SOL    HW134940   3.016   3.669   6.618 -2.4315  0.2513  0.3848
 7826SOL    HW234941   2.968   3.543   6.686  0.1027 -0.2773  0.8180
 7827SOL     OW34942   0.261   1.993   4.437 -0.4412  0.0866  0.2587
 7827SOL    HW134943   0.336   1.936   4.452 -1.0275 -0.7325  0.0478
 7827SOL    HW234944   0.200   1.955   4.501 -0.2281 -0.2639  0.2486
 7828SOL     OW34945   3.051   1.608  10.992  0.1066  0.1398 -0.6014
 7828SOL    HW134946   2.967   1.562  10.981 -1.2022  1.5348  3.5066
 7828SOL    HW234947   3.109   1.549  11.040  0.4333  2.1894  1.5584
 7829SOL     OW34948   3.552   4.470   3.342 -0.3946  0.0504 -0.3685
 7829SOL    HW134949   3.637   4.446   3.305 -0.2828 -1.2684  0.7266
 7829SOL    HW234950   3.498   4.465   3.263  0.7984 -2.0601 -1.0375
 7830SOL     OW34951   1.556   4.661  10.989  0.2238 -0.1838 -0.1650
 7830SOL    HW134952   1.476   4.714  10.993  0.4191  0.1586 -0.8050
 7830SOL    HW234953   1.615   4.694  11.058 -1.7083  0.2845  1.2727
 7831SOL     OW34954   3.587   0.457  10.355  0.5836  0.3040  0.2422
 7831SOL    HW134955   3.507   0.413  10.325  1.4707 -1.4436  0.4107
 7831SOL    HW234956   3.562   0.507  10.432  0.8600  0.6694  0.0933
 7832SOL     OW34957   1.038   0.343   4.570  0.5287  0.2389  0.0027
 7832SOL    HW134958   1.027   0.408   4.639  1.5533 -1.4240  1.7542
 7832SOL    HW234959   0.976   0.365   4.501  0.4143  2.3112  0.7974
 7833SOL     OW34960   1.912   0.956   2.361  0.0704  0.0351 -0.6340
 7833SOL    HW134961   1.880   1.016   2.293 -1.5557  0.9895  0.9871
 7833SOL    HW234962   1.936   0.883   2.304  1.2521  1.4657 -1.9646
 7834SOL     OW34963   4.401   0.286   8.506 -0.2332  0.6469 -0.3166
 7834SOL    HW134964   4.451   0.313   8.583  0.2658 -0.3385 -0.2823
 7834SOL    HW234965   4.402   0.191   8.523 -1.8213  0.7913  0.5563
 7835SOL     OW34966   4.081   1.835   5.328  0.6113 -0.0920  0.0057
 7835SOL    HW134967   4.099   1.752   5.372  1.3291 -0.2151 -0.5135
 7835SOL    HW234968   3.991   1.829   5.295  0.7645 -1.8333 -0.1091
 7836SOL     OW34969   1.034   4.183   2.388  0.1739  0.9313  0.1206
 7836SOL    HW134970   1.016   4.090   2.398 -0.7476  1.2405  1.1979
 7836SOL    HW234971   0.960   4.213   2.335 -0.1868  1.6813  1.0716
 7837SOL     OW34972   1.578   2.146  13.976 -0.0078 -0.2785  0.3758
 7837SOL    HW134973   1.533   2.071  14.015  1.8705 -1.0654  0.9836
 7837SOL    HW234974   1.600   2.193  14.057 -0.6564  1.2752 -0.3351
 7838SOL     OW34975   4.666   0.434   5.856 -0.3110  0.2832 -0.6827
 7838SOL    HW134976   0.016   0.431   5.919 -0.6920  1.7279 -0.1906
 7838SOL    HW234977   4.594   0.463   5.912  0.1054 -0.7650  0.4051
 7839SOL     OW34978   1.692   0.299   6.748  0.0694  0.5451 -0.0989
 7839SOL    HW134979   1.747   0.221   6.752 -0.6701  0.0684  0.7648
 7839SOL    HW234980   1.620   0.276   6.690  1.3782 -1.6451 -0.8304
 7840SOL     OW34981   3.489   4.391   5.775  0.1834 -0.3211 -0.0062
 7840SOL    HW134982   3.394   4.393   5.766 -0.0445 -0.6345  2.4087
 7840SOL    HW234983   3.516   4.334   5.702  1.9428  0.8503 -0.2616
 7841SOL     OW34984   2.651   2.558   8.296  0.1968 -0.0621  0.1545
 7841SOL    HW134985   2.687   2.516   8.374  1.4028  0.2947 -0.2130
 7841SOL    HW234986   2.559   2.539   8.315  0.3590 -0.7167  0.2854
 7842SOL     OW34987   0.541   1.361   3.312 -0.1471 -0.0464  0.7881
 7842SOL    HW134988   0.530   1.288   3.373 -0.9914 -1.0949 -0.6130
 7842SOL    HW234989   0.461   1.413   3.318  0.1748  0.4105  1.1809
 7843SOL     OW34990   3.097   1.068  17.301 -0.1419 -0.1155 -0.1274
 7843SOL    HW134991   3.126   1.122  17.374  0.0560  0.5385 -0.6925
 7843SOL    HW234992   3.146   0.986  17.312 -1.2005 -0.7681 -0.3034
 7844SOL     OW34993   0.819   4.265   7.738  0.0644 -0.4756  0.1780
 7844SOL    HW134994   0.798   4.185   7.690  1.6597 -0.1974 -0.9948
 7844SOL    HW234995   0.793   4.249   7.829 -0.9077  0.7827  0.1340
 7845SOL     OW34996   2.657   3.016  14.987 -0.2878  0.2027  0.3918
 7845SOL    HW134997   2.751   3.026  14.971 -0.2749 -0.8677 -0.2613
 7845SOL    HW234998   2.657   3.014  15.083  0.2244  2.4939  0.4266
 7846SOL     OW34999   4.649   4.717   4.192 -0.5128  0.4071  0.7548
 7846SOL    HW135000   4.701   0.049   4.131  0.9672 -1.0661  0.7042
 7846SOL    HW235001   4.657   4.635   4.143  0.0979 -0.1296  1.7612
 7847SOL     OW35002   3.812   2.395  10.087  0.1946  0.3789  0.6533
 7847SOL    HW135003   3.857   2.467  10.041 -1.1421 -0.1346 -1.4537
 7847SOL    HW235004   3.793   2.451  10.162 -3.2167  2.0284 -1.4229
 7848SOL     OW35005   0.103   2.009  11.796  0.8272 -0.4217 -0.0148
 7848SOL    HW135006   0.068   1.931  11.752 -1.7056  0.2186  0.8559
 7848SOL    HW235007   0.139   1.977  11.879 -2.5972 -2.1320  0.8227
 7849SOL     OW35008   0.891   4.276   4.709 -0.2100  0.0681  0.8168
 7849SOL    HW135009   0.878   4.181   4.707  0.5885 -0.0435  0.6399
 7849SOL    HW235010   0.920   4.304   4.622  0.8907  1.2663  1.5693
 7850SOL     OW35011   4.459   1.787  15.276  0.7611 -0.6154  0.3596
 7850SOL    HW135012   4.545   1.801  15.236  0.4788 -1.7029 -0.6358
 7850SOL    HW235013   4.431   1.878  15.280  1.5542 -0.3183 -0.6647
 7851SOL     OW35014   2.442   2.084   2.606  0.4601 -0.0710  0.6626
 7851SOL    HW135015   2.367   2.122   2.560  1.2096  0.3151 -0.2394
 7851SOL    HW235016   2.495   2.157   2.640  1.7570 -0.2121 -1.0341
 7852SOL     OW35017   3.919   3.981  15.057 -0.2794 -0.3508 -0.8764
 7852SOL    HW135018   3.906   4.070  15.027 -2.8343 -0.7679 -0.9606
 7852SOL    HW235019   3.963   3.987  15.142  0.1867  1.9139 -1.2770
 7853SOL     OW35020   2.512   1.705   5.312  0.7225 -0.4679 -0.0413
 7853SOL    HW135021   2.432   1.757   5.319 -0.0246 -1.6770  0.1814
 7853SOL    HW235022   2.567   1.783   5.322 -0.8880  0.5338  0.9658
 7854SOL     OW35023   4.651   1.004   7.897 -0.4569 -0.4113 -0.2701
 7854SOL    HW135024   4.674   1.093   7.868  2.0389 -1.6926 -2.2383
 7854SOL    HW235025   4.629   1.017   7.989 -0.6610  1.9462 -0.6474
 7855SOL     OW35026   1.468   0.319   2.856 -0.0559  0.1863 -0.1272
 7855SOL    HW135027   1.443   0.248   2.916  0.5219  0.5017  0.4787
 7855SOL    HW235028   1.397   0.303   2.793  0.0771  1.1134 -0.5138
 7856SOL     OW35029   4.202   1.920   4.533 -0.1000 -0.1737 -0.3272
 7856SOL    HW135030   4.161   1.955   4.612  0.7695 -0.0928  0.0918
 7856SOL    HW235031   4.211   1.825   4.544 -1.1104 -0.4837 -2.1387
 7857SOL     OW35032   3.175   4.208   0.747 -0.4540  0.0364 -0.2802
 7857SOL    HW135033   3.143   4.296   0.726  0.1091  0.5276  0.9558
 7857SOL    HW235034   3.136   4.204   0.834 -0.0433  2.6500  0.0128
 7858SOL     OW35035   3.437   0.979   0.031 -0.0516  0.1096  0.3788
 7858SOL    HW135036   3.478   1.057   0.066  1.0535 -0.8282  1.1804
 7858SOL    HW235037   3.349   1.006   0.005 -0.0050  0.4900  0.6245
 7859SOL     OW35038   0.927   3.503   6.146 -0.1304  0.2427  0.9984
 7859SOL    HW135039   0.916   3.549   6.063  2.8727  0.8004  0.9124
 7859SOL    HW235040   0.858   3.553   6.189 -0.6842  0.7161 -0.4239
 7860SOL     OW35041   1.883   1.363   2.511  0.4019  0.3182  0.3937
 7860SOL    HW135042   1.969   1.346   2.471  0.1200 -0.3812  0.0793
 7860SOL    HW235043   1.889   1.442   2.564 -1.8019 -0.0342  1.1277
 7861SOL     OW35044   1.011   1.886   9.408 -0.4364  0.7189 -0.3630
 7861SOL    HW135045   0.951   1.864   9.479  1.1817  1.5063  1.2487
 7861SOL    HW235046   1.093   1.843   9.429 -0.9440  0.4141  1.0242
 7862SOL     OW35047   0.778   1.781   7.924 -0.1246 -0.6185 -0.1368
 7862SOL    HW135048   0.840   1.849   7.898  2.6073 -2.2738  1.9718
 7862SOL    HW235049   0.749   1.818   8.008 -1.3624 -1.6333 -0.1119
 7863SOL     OW35050   3.760   3.193   3.962  0.0389 -0.5723  0.5317
 7863SOL    HW135051   3.678   3.176   3.916  0.5503  0.7890 -0.8802
 7863SOL    HW235052   3.728   3.161   4.046 -2.2611 -3.4302 -1.4443
 7864SOL     OW35053   4.304   4.179   6.265 -0.0016  0.1434  0.0672
 7864SOL    HW135054   4.288   4.086   6.279 -1.7994  0.8792  2.9378
 7864SOL    HW235055   4.345   4.214   6.343 -0.4656 -4.5702  2.4284
 7865SOL     OW35056   3.990   3.433   2.660 -0.1568  0.5227  0.4512
 7865SOL    HW135057   4.069   3.484   2.674 -0.0120  0.4891 -0.2810
 7865SOL    HW235058   3.921   3.493   2.633  0.3785  0.5681 -0.7720
 7866SOL     OW35059   2.033   4.223   3.860  0.2759  0.9622 -0.5072
 7866SOL    HW135060   2.063   4.173   3.783  1.8094 -0.4366  0.9906
 7866SOL    HW235061   1.986   4.163   3.917 -2.4438  0.5608 -3.1988
 7867SOL     OW35062   3.757   0.381   3.889 -0.0060 -0.2198  0.6801
 7867SOL    HW135063   3.753   0.353   3.797  0.4287 -0.1449  0.6380
 7867SOL    HW235064   3.841   0.344   3.918  1.1666  1.4348 -0.5537
 7868SOL     OW35065   0.226   3.106   4.703  0.4347  0.3276 -0.0323
 7868SOL    HW135066   0.146   3.150   4.732 -1.4982 -3.1282 -0.0083
 7868SOL    HW235067   0.207   3.111   4.610  0.5494 -1.1274 -0.1379
 7869SOL     OW35068   4.516   4.610   8.605 -0.1717 -0.0414 -0.1766
 7869SOL    HW135069   4.582   4.614   8.536  0.2872  0.8406  0.3222
 7869SOL    HW235070   4.571   4.656   8.668 -2.0994 -0.5064  1.8412
 7870SOL     OW35071   3.433   0.506   7.789  0.1469  0.1089 -0.1653
 7870SOL    HW135072   3.487   0.505   7.710  1.7705  1.8755  0.9231
 7870SOL    HW235073   3.495   0.490   7.861  1.8689  3.3103 -0.9706
 7871SOL     OW35074   0.387   2.375   6.838  0.2465  0.1078 -0.2626
 7871SOL    HW135075   0.466   2.335   6.804  1.1366  0.1768  1.7212
 7871SOL    HW235076   0.421   2.461   6.865 -0.1011 -0.4032  1.8313
 7872SOL     OW35077   3.987   3.522   0.630  0.0582  0.2154 -0.1600
 7872SOL    HW135078   3.986   3.513   0.725 -1.8804  1.9365 -0.0129
 7872SOL    HW235079   4.043   3.600   0.630  0.7323 -0.2649 -1.1548
 7873SOL     OW35080   4.621   3.477   7.056  0.0925  0.0193 -0.3740
 7873SOL    HW135081   4.653   3.388   7.044 -1.8761 -0.3595 -2.6539
 7873SOL    HW235082   4.541   3.458   7.104 -0.6344  0.9175 -1.2202
 7874SOL     OW35083   0.016   0.632   9.272 -0.6855 -0.6934 -0.0873
 7874SOL    HW135084   4.675   0.703   9.282 -0.6328 -0.5770 -0.5982
 7874SOL    HW235085   0.097   0.664   9.312 -0.9352 -1.5326  1.1006
 7875SOL     OW35086   1.832   2.118   1.195  0.6367 -0.4715  1.0288
 7875SOL    HW135087   1.904   2.103   1.255  1.5928  0.8510  0.2063
 7875SOL    HW235088   1.762   2.055   1.213 -0.7324  0.8508  0.3619
 7876SOL     OW35089   2.210   4.189   2.482  0.1270 -0.1092  0.4520
 7876SOL    HW135090   2.142   4.135   2.441 -0.7114  1.2378  0.0440
 7876SOL    HW235091   2.270   4.116   2.493  1.0941  0.7360  0.7944
 7877SOL     OW35092   0.360   4.190   5.582 -0.0948  0.3496  0.2308
 7877SOL    HW135093   0.427   4.126   5.560 -0.3984 -0.7262  2.4678
 7877SOL    HW235094   0.361   4.184   5.677 -0.7750  0.8981  0.2807
 7878SOL     OW35095   0.477   1.830   4.368  0.2891 -0.0703  0.3476
 7878SOL    HW135096   0.488   1.735   4.372  0.7463 -0.0816 -1.1569
 7878SOL    HW235097   0.542   1.854   4.302 -0.8391 -0.7894 -1.0502
 7879SOL     OW35098   3.914   1.316   9.453 -0.2293  0.6586 -0.1592
 7879SOL    HW135099   3.888   1.237   9.501 -0.4564  1.0209  0.3193
 7879SOL    HW235100   3.917   1.382   9.522 -0.7581  0.8554 -0.3286
 7880SOL     OW35101   2.345   2.212   9.615  0.2212 -0.1916 -0.2801
 7880SOL    HW135102   2.315   2.168   9.695 -2.0370  0.3845 -0.8152
 7880SOL    HW235103   2.340   2.301   9.651 -0.6099 -0.3981  0.1220
 7881SOL     OW35104   3.992   3.844  10.741 -0.1819  0.2280 -0.6329
 7881SOL    HW135105   4.059   3.845  10.810 -0.8912 -1.8054  0.0941
 7881SOL    HW235106   4.022   3.786  10.671  3.7719 -0.7312  1.8635
 7882SOL     OW35107   0.110   1.900   6.455  0.3931 -0.7340 -0.0872
 7882SOL    HW135108   0.099   1.971   6.392  1.7643 -1.1112 -0.7656
 7882SOL    HW235109   0.117   1.824   6.398  2.8340  0.7237 -1.7373
 7883SOL     OW35110   0.527   0.002  13.946  0.1469 -0.6031 -0.3973
 7883SOL    HW135111   0.460   0.030  13.883 -0.8017 -0.9299  0.4492
 7883SOL    HW235112   0.585   0.077  13.944 -0.7676  0.1188  0.1524
 7884SOL     OW35113   2.598   3.537   4.907  0.1827  0.1024  0.1080
 7884SOL    HW135114   2.686   3.534   4.869 -1.1776  0.4380 -3.0462
 7884SOL    HW235115   2.566   3.624   4.880  0.8384 -0.1369 -1.4400
 7885SOL     OW35116   1.670   0.401  16.408  0.1402  0.0992 -0.2476
 7885SOL    HW135117   1.684   0.324  16.352  1.0264 -0.4489  0.7417
 7885SOL    HW235118   1.651   0.472  16.347  0.9130  1.7117  1.4243
 7886SOL     OW35119   1.930   1.642   6.135 -0.3625 -0.1627 -0.3884
 7886SOL    HW135120   1.903   1.587   6.062 -1.1422 -1.4268  0.8350
 7886SOL    HW235121   1.942   1.570   6.198  0.9861  1.1554  0.8772
 7887SOL     OW35122   0.945   1.642   1.903  0.4116  0.0905  1.0280
 7887SOL    HW135123   0.908   1.555   1.918 -1.0387  0.7202  1.1169
 7887SOL    HW235124   0.862   1.689   1.902 -0.9294 -2.3024  1.0815
 7888SOL     OW35125   4.576   3.707  12.896  0.5475 -0.7112 -0.0285
 7888SOL    HW135126   4.659   3.673  12.929  1.2029  1.1937  0.2836
 7888SOL    HW235127   4.541   3.630  12.851 -2.0272  0.8687 -0.7234
 7889SOL     OW35128   3.321   1.691   4.669 -0.5782 -0.0977 -0.2003
 7889SOL    HW135129   3.264   1.651   4.604 -0.8835  2.6320 -1.6119
 7889SOL    HW235130   3.302   1.634   4.744 -1.1942 -1.7276 -1.6121
 7890SOL     OW35131   2.090   1.560   3.830 -0.1360  0.1958  0.5930
 7890SOL    HW135132   2.167   1.533   3.879  0.7293  0.0137 -0.8759
 7890SOL    HW235133   2.072   1.485   3.773  1.4935 -1.4298  2.2420
 7891SOL     OW35134   3.102   0.088  11.718 -0.0877 -0.7228 -0.2840
 7891SOL    HW135135   3.035   0.020  11.707  0.4249 -1.1665 -0.6930
 7891SOL    HW235136   3.109   0.085  11.814  1.3210  1.5319 -0.3151
 7892SOL     OW35137   3.351   0.336  14.642 -0.3199 -0.1899 -0.3722
 7892SOL    HW135138   3.428   0.385  14.672 -1.5546  1.1841  0.5529
 7892SOL    HW235139   3.367   0.245  14.665 -0.3197 -0.3703 -1.0916
 7893SOL     OW35140   4.645   0.562  12.867 -0.8788 -0.5462  0.0717
 7893SOL    HW135141   4.657   0.474  12.902  0.1572 -0.4737 -0.0988
 7893SOL    HW235142   4.571   0.601  12.913 -1.6422 -1.4012 -0.4160
 7894SOL     OW35143   0.045   1.572  16.873  0.0653 -0.1252 -0.1407
 7894SOL    HW135144   4.703   1.643  16.887 -0.6289 -0.7006 -0.3214
 7894SOL    HW235145   0.089   1.578  16.957 -0.2417  0.8954 -0.0569
 7895SOL     OW35146   3.319   4.056   8.257 -1.0392 -0.7802  0.5324
 7895SOL    HW135147   3.361   4.098   8.333  2.0100 -2.1658 -0.3628
 7895SOL    HW235148   3.389   4.069   8.193 -1.9148 -1.0113 -0.4693
 7896SOL     OW35149   1.445   4.151   4.229 -0.0875  0.2107 -0.7016
 7896SOL    HW135150   1.513   4.182   4.169 -0.4504 -0.9108 -1.6925
 7896SOL    HW235151   1.373   4.213   4.216 -0.5601 -0.4149 -1.0367
 7897SOL     OW35152   3.154   4.153   0.479  0.2701  0.3720 -0.0746
 7897SOL    HW135153   3.137   4.063   0.452 -1.9687  1.1630 -1.3171
 7897SOL    HW235154   3.165   4.142   0.573  0.9359  1.3767 -0.0335
 7898SOL     OW35155   0.737   2.064   6.201 -0.3621 -0.3315  0.0971
 7898SOL    HW135156   0.680   2.114   6.260  0.6112 -0.0156  0.7735
 7898SOL    HW235157   0.721   2.100   6.114  0.2939  2.0783  0.9498
 7899SOL     OW35158   3.975   3.590   1.443 -0.0674  0.4269 -0.1281
 7899SOL    HW135159   3.936   3.602   1.356 -0.8044 -0.9652  0.0281
 7899SOL    HW235160   3.932   3.509   1.468  1.7864 -0.8464 -1.0320
 7900SOL     OW35161   3.641   1.238   6.584 -0.0444 -0.1610  0.1508
 7900SOL    HW135162   3.655   1.161   6.528  1.3959  0.3007 -0.1392
 7900SOL    HW235163   3.579   1.201   6.647  1.4513  0.7444  2.1452
 7901SOL     OW35164   1.764   3.741   5.805 -0.3397 -0.6480  0.4709
 7901SOL    HW135165   1.820   3.669   5.776  0.1141  0.0498 -0.4228
 7901SOL    HW235166   1.730   3.705   5.887  1.1808 -0.2832  1.2703
 7902SOL     OW35167   2.857   1.640  11.307  0.2285 -0.2435  0.2314
 7902SOL    HW135168   2.927   1.678  11.361  0.0936 -0.8233  0.8222
 7902SOL    HW235169   2.847   1.702  11.235  1.7002 -1.6877 -1.1991
 7903SOL     OW35170   3.888   2.170   8.270 -1.5707 -0.1387  0.4462
 7903SOL    HW135171   3.831   2.222   8.214 -0.2422  1.1006  0.2361
 7903SOL    HW235172   3.960   2.232   8.278 -3.3995  2.2315 -1.6559
 7904SOL     OW35173   4.500   3.018   6.503  0.8451 -0.3141  0.0864
 7904SOL    HW135174   4.453   3.046   6.581 -0.6732 -0.7601 -0.6733
 7904SOL    HW235175   4.502   3.102   6.455  0.7689  0.0802  0.7723
 7905SOL     OW35176   1.695   1.544   1.819 -0.4387  0.2554  0.1397
 7905SOL    HW135177   1.747   1.599   1.761  2.5541 -2.3748  0.3483
 7905SOL    HW235178   1.737   1.562   1.903 -0.1898  2.8295 -0.5626
 7906SOL     OW35179   4.486   1.020   0.706  0.1924 -0.3936  0.8591
 7906SOL    HW135180   4.503   0.971   0.786  0.6299  0.5644  1.3482
 7906SOL    HW235181   4.564   1.074   0.697  1.4441 -2.3864 -0.2764
 7907SOL     OW35182   2.625   1.608   0.627  0.0461 -0.0530 -0.6326
 7907SOL    HW135183   2.624   1.650   0.713  1.2861 -0.4330 -0.4320
 7907SOL    HW235184   2.544   1.558   0.626  0.1163 -0.1628 -1.4246
 7908SOL     OW35185   0.684   2.619   1.961 -0.1976 -0.0242  0.5307
 7908SOL    HW135186   0.772   2.642   1.990 -0.5655 -0.6764  2.1819
 7908SOL    HW235187   0.673   2.652   1.872  0.4190 -1.1451  0.0322
 7909SOL     OW35188   3.642   0.830   4.031  0.1241 -0.5848  0.2214
 7909SOL    HW135189   3.729   0.867   4.021  0.2684 -0.8263  0.5886
 7909SOL    HW235190   3.647   0.737   4.052 -2.5106 -0.6853  0.4219
 7910SOL     OW35191   3.719   4.568   5.757  0.5640 -0.1265  0.8157
 7910SOL    HW135192   3.631   4.530   5.760 -0.0198  1.1751  0.6886
 7910SOL    HW235193   3.714   4.608   5.671 -1.9559  1.1998  1.5591
 7911SOL     OW35194   0.996   1.963   3.025 -0.3156 -0.4340 -0.0113
 7911SOL    HW135195   0.996   1.875   3.061  1.4818  0.1031  1.3134
 7911SOL    HW235196   1.073   1.953   2.969 -0.0535 -0.8746  0.4348
 7912SOL     OW35197   3.837   3.360   5.622  0.7604 -0.4485  0.2320
 7912SOL    HW135198   3.901   3.405   5.677  0.8041  0.6581 -0.7109
 7912SOL    HW235199   3.877   3.277   5.598  2.0546  0.6952 -1.6016
 7913SOL     OW35200   3.952   2.044  14.771  0.0463 -0.5278 -0.0138
 7913SOL    HW135201   4.008   2.033  14.694 -0.1888  0.5682 -0.3362
 7913SOL    HW235202   3.876   1.989  14.753 -1.0827  0.6372  1.2899
 7914SOL     OW35203   3.015   3.109   4.993 -0.4016 -0.3592  0.6896
 7914SOL    HW135204   3.104   3.076   4.977 -1.1540 -1.3919 -1.3486
 7914SOL    HW235205   2.969   3.026   5.008  0.5909 -1.1013 -0.3639
 7915SOL     OW35206   2.685   0.262  13.333 -0.0315 -0.4403  0.1501
 7915SOL    HW135207   2.732   0.274  13.415  1.6558 -0.4208 -0.8196
 7915SOL    HW235208   2.733   0.186  13.299 -0.7735 -0.6566 -0.4368
 7916SOL     OW35209   0.875   0.827   4.753 -0.3764 -0.3417  0.2415
 7916SOL    HW135210   0.889   0.808   4.846  0.4908  1.5558  0.4886
 7916SOL    HW235211   0.789   0.870   4.757  0.1467  0.8384 -1.4830
 7917SOL     OW35212   4.229   4.530   8.055  0.7995  0.0205 -0.4868
 7917SOL    HW135213   4.274   4.600   8.008 -0.6827  1.6778  0.5234
 7917SOL    HW235214   4.298   4.465   8.065 -0.1755 -0.9710 -0.0794
 7918SOL     OW35215   3.103   2.015   9.863  0.0537 -0.3163 -0.4007
 7918SOL    HW135216   3.177   1.978   9.815  1.7291  1.8986  0.4659
 7918SOL    HW235217   3.140   2.000   9.950 -0.2091  0.4244 -0.1620
 7919SOL     OW35218   0.042   2.088   7.497 -0.2092 -0.0599 -0.6160
 7919SOL    HW135219   0.136   2.107   7.487 -0.7905  2.8022 -0.6381
 7919SOL    HW235220   0.049   2.032   7.574  0.1989 -0.5037 -0.9749
 7920SOL     OW35221   2.805   1.623   3.398 -0.2816  0.3196  0.0644
 7920SOL    HW135222   2.885   1.616   3.450 -0.5755 -0.6636  0.3987
 7920SOL    HW235223   2.793   1.534   3.363 -1.2601 -0.9448  3.5716
 7921SOL     OW35224   4.550   4.110   7.666 -0.4960  0.3706  0.1386
 7921SOL    HW135225   4.632   4.159   7.668 -0.0315 -0.4247  0.7757
 7921SOL    HW235226   4.521   4.129   7.577  0.2147 -1.4376 -0.4775
 7922SOL     OW35227   0.279   0.949  15.451  0.8228  0.0573  0.1781
 7922SOL    HW135228   0.215   0.998  15.398  2.5090  1.9181 -0.1210
 7922SOL    HW235229   0.260   0.856  15.439 -0.0804  0.2968 -0.3182
 7923SOL     OW35230   2.675   3.838  15.604 -0.0744  0.0165  0.1150
 7923SOL    HW135231   2.686   3.805  15.693  2.3978 -0.0777 -0.2387
 7923SOL    HW235232   2.618   3.914  15.618 -0.1168  0.0652 -0.3245
 7924SOL     OW35233   1.427   2.146   8.370 -0.0238  0.2315 -0.2132
 7924SOL    HW135234   1.410   2.175   8.459  2.1653 -0.8426  0.5664
 7924SOL    HW235235   1.345   2.107   8.341 -0.0516 -1.0078  1.5389
 7925SOL     OW35236   3.060   4.394  11.252 -0.0700  0.1440  0.0268
 7925SOL    HW135237   3.041   4.411  11.344 -1.5071 -2.6470  0.2415
 7925SOL    HW235238   3.042   4.302  11.235 -0.2054  0.0928  0.4573
 7926SOL     OW35239   1.836   0.804   5.752 -0.0702  0.0092 -0.3010
 7926SOL    HW135240   1.801   0.719   5.725 -0.8329 -0.0723  0.9311
 7926SOL    HW235241   1.895   0.774   5.821 -0.1365  2.3904  0.7760
 7927SOL     OW35242   4.646   2.943   0.280  0.3811  0.2981  0.0901
 7927SOL    HW135243   4.676   3.030   0.304  1.9868 -0.6370  1.3980
 7927SOL    HW235244   4.642   2.957   0.185 -0.7808  1.8118  0.3597
 7928SOL     OW35245   3.231   4.109  14.764  0.1340 -0.4071  0.5271
 7928SOL    HW135246   3.146   4.089  14.802  0.7345 -0.0812  2.0303
 7928SOL    HW235247   3.219   4.087  14.671 -1.6970  0.8646  0.4539
 7929SOL     OW35248   4.503   1.097  10.343  0.3141 -0.2104  0.0786
 7929SOL    HW135249   4.564   1.025  10.363 -0.0777 -1.0531 -1.7151
 7929SOL    HW235250   4.423   1.075  10.390  0.8086  0.8331  1.3770
 7930SOL     OW35251   2.748   1.099   6.154 -0.0879 -0.4954 -0.2156
 7930SOL    HW135252   2.675   1.081   6.213  0.2239 -0.6719  0.1177
 7930SOL    HW235253   2.812   1.134   6.215  1.0917  1.1594 -2.3874
 7931SOL     OW35254   2.769   3.223   4.177 -0.3227  0.7065  0.8675
 7931SOL    HW135255   2.735   3.205   4.089  2.7528  1.6523 -0.5222
 7931SOL    HW235256   2.757   3.139   4.222 -0.9889 -0.3777 -1.3108
 7932SOL     OW35257   1.579   1.735   9.782 -0.2662  0.3021  0.6848
 7932SOL    HW135258   1.578   1.701   9.871  2.3542  1.4064  1.1381
 7932SOL    HW235259   1.496   1.782   9.773 -0.2287  0.6986  2.3212
 7933SOL     OW35260   1.442   2.444   4.849  0.1964 -0.2798  0.1334
 7933SOL    HW135261   1.369   2.406   4.897  0.2079  2.0401  1.9668
 7933SOL    HW235262   1.421   2.538   4.854  1.1134 -0.1470  1.4837
 7934SOL     OW35263   1.085   1.456   8.500 -0.0917  0.4285 -0.1638
 7934SOL    HW135264   1.173   1.492   8.486 -1.2141  3.1430 -0.2488
 7934SOL    HW235265   1.109   1.364   8.511  1.4036  0.8144 -0.0720
 7935SOL     OW35266   0.753   0.030   3.970 -0.0050 -0.1583 -0.1262
 7935SOL    HW135267   0.712   4.670   3.939 -0.2720  0.8112 -2.2682
 7935SOL    HW235268   0.807   0.039   3.892  0.1775 -1.6913 -0.1827
 7936SOL     OW35269   0.579   2.070   3.345 -0.1017  0.3367 -0.0967
 7936SOL    HW135270   0.603   1.989   3.299  1.4775 -0.6387  2.4164
 7936SOL    HW235271   0.632   2.138   3.303  0.8555  0.5237  1.3730
 7937SOL     OW35272   3.376   1.276   3.914 -0.2122 -0.2358 -0.1483
 7937SOL    HW135273   3.293   1.243   3.880  1.2934 -1.9444 -2.1933
 7937SOL    HW235274   3.346   1.359   3.951  0.8996  0.1524 -0.1172
 7938SOL     OW35275   1.374   0.926   4.581  0.3161 -0.3349  0.3031
 7938SOL    HW135276   1.303   0.928   4.517  0.6943 -3.2523 -0.2448
 7938SOL    HW235277   1.445   0.956   4.525  1.1592 -1.0785  0.9621
 7939SOL     OW35278   3.960   4.390  10.334 -0.4892  0.5453 -0.0147
 7939SOL    HW135279   4.007   4.460  10.379 -1.3062  1.0255  0.0967
 7939SOL    HW235280   3.950   4.431  10.248 -0.5017  1.3028  0.3456
 7940SOL     OW35281   1.207   3.906   0.986  0.2591 -0.0298 -0.1701
 7940SOL    HW135282   1.177   3.851   1.058  0.1660 -0.6122 -0.6531
 7940SOL    HW235283   1.259   3.844   0.935  1.2872 -0.4612  1.3998
 7941SOL     OW35284   1.453   4.423   5.659  0.8153  0.5069 -0.3766
 7941SOL    HW135285   1.504   4.366   5.602  0.0575  0.6435 -1.1952
 7941SOL    HW235286   1.489   4.390   5.741 -3.2371  2.6116  2.3130
 7942SOL     OW35287   4.061   0.838   7.165  0.6324  0.3441  0.0368
 7942SOL    HW135288   4.052   0.910   7.103 -0.3420 -0.5307 -0.8269
 7942SOL    HW235289   3.999   0.773   7.131  2.1291 -0.3676 -1.3147
 7943SOL     OW35290   3.667   1.674   3.820  0.2788  0.0445  0.4005
 7943SOL    HW135291   3.629   1.587   3.815  0.4902 -0.0724  0.7878
 7943SOL    HW235292   3.623   1.712   3.744 -1.9603 -1.9594  0.6766
 7944SOL     OW35293   2.054   2.643  16.401  0.8823 -0.0077 -0.7204
 7944SOL    HW135294   2.112   2.704  16.447 -0.2310 -0.5622  1.4212
 7944SOL    HW235295   2.025   2.580  16.466  2.0121  0.0163 -0.1761
 7945SOL     OW35296   1.128   0.491   7.368 -0.4044 -0.2870 -0.1809
 7945SOL    HW135297   1.157   0.559   7.308 -0.4842  0.1104  0.2322
 7945SOL    HW235298   1.107   0.548   7.441 -2.3107 -2.3866  0.9036
 7946SOL     OW35299   1.581   2.246   4.706  0.1230 -0.1881  0.1915
 7946SOL    HW135300   1.546   2.325   4.747 -0.8000 -0.1139 -0.7336
 7946SOL    HW235301   1.502   2.215   4.661 -0.5961  2.5080 -0.4073
 7947SOL     OW35302   4.250   0.307  11.400  0.3474 -0.2857 -0.2181
 7947SOL    HW135303   4.290   0.323  11.485  0.5195  2.1473 -0.7802
 7947SOL    HW235304   4.326   0.308  11.342  0.0335 -0.0852 -0.6236
 7948SOL     OW35305   0.224   2.202   2.375  0.2907  0.2091 -0.0320
 7948SOL    HW135306   0.278   2.173   2.302  1.2158 -0.7963  1.0564
 7948SOL    HW235307   0.224   2.126   2.434  0.7981 -0.9157 -1.4755
 7949SOL     OW35308   4.583   3.753   6.237  0.4578 -0.2760  0.1018
 7949SOL    HW135309   4.516   3.734   6.172  1.5469 -0.5614 -0.9423
 7949SOL    HW235310   4.569   3.847   6.223 -0.6380  0.0067  3.0246
 7950SOL     OW35311   3.577   1.214   7.384 -0.5688  0.4583  0.6489
 7950SOL    HW135312   3.552   1.245   7.297  3.0178 -2.2782 -1.3412
 7950SOL    HW235313   3.647   1.157   7.352 -0.6226  0.7059  0.0843
 7951SOL     OW35314   1.667   1.499   2.228 -0.5555  1.0409 -0.0612
 7951SOL    HW135315   1.594   1.542   2.184 -2.0106 -1.5506 -0.1851
 7951SOL    HW235316   1.744   1.506   2.171 -0.2114  0.2133  0.3079
 7952SOL     OW35317   3.816   1.050   6.441 -0.0505 -0.1877  0.3109
 7952SOL    HW135318   3.809   1.069   6.348  2.9521  1.5625  0.4406
 7952SOL    HW235319   3.910   1.033   6.444 -0.2601 -1.1118  1.3605
 7953SOL     OW35320   3.639   4.012   5.366  0.4067  0.4966 -0.3623
 7953SOL    HW135321   3.577   4.020   5.293 -1.1975  1.1247  1.0693
 7953SOL    HW235322   3.622   3.921   5.389  1.5825  0.8506  1.9145
 7954SOL     OW35323   4.112   0.804   1.688  0.1038  0.2067  0.0985
 7954SOL    HW135324   4.018   0.818   1.701 -0.1086 -0.9859 -0.1187
 7954SOL    HW235325   4.148   0.890   1.711  0.8499 -0.1398  0.1974
 7955SOL     OW35326   2.074   1.950   5.952  0.0603  0.0430  0.2452
 7955SOL    HW135327   2.067   1.924   6.044  0.7097 -0.0101  0.2818
 7955SOL    HW235328   1.981   1.947   5.932  0.4136 -2.4276 -1.0509
 7956SOL     OW35329   2.032   1.389   0.113  0.0882  0.0238 -0.4162
 7956SOL    HW135330   2.028   1.295   0.095 -1.2090  0.0733 -0.3912
 7956SOL    HW235331   2.122   1.415   0.096 -0.8956  3.9797  0.2948
 7957SOL     OW35332   2.053   3.108   1.005  0.1519  0.3324 -0.6280
 7957SOL    HW135333   2.095   3.046   0.946  1.2514  2.0526 -1.6564
 7957SOL    HW235334   2.134   3.139   1.047  1.0969 -2.4723 -0.4027
 7958SOL     OW35335   4.284   1.162   7.999 -0.0288  0.4842  1.1303
 7958SOL    HW135336   4.199   1.196   7.972  0.5581  1.8192  0.9655
 7958SOL    HW235337   4.350   1.201   7.942  2.2007 -4.1093  0.4861
 7959SOL     OW35338   3.384   4.389   1.658  0.0114  0.1086  0.6872
 7959SOL    HW135339   3.464   4.442   1.649  1.7954 -2.6383  0.3583
 7959SOL    HW235340   3.372   4.360   1.568 -0.8448 -3.1397  1.8575
 7960SOL     OW35341   0.643   3.675  15.041 -0.6568 -0.3351  0.6223
 7960SOL    HW135342   0.716   3.673  15.103  1.3597  1.0542 -1.6928
 7960SOL    HW235343   0.656   3.766  15.013  1.1541 -0.7160  0.2499
 7961SOL     OW35344   0.125   2.862   1.880  0.3715  0.3286 -0.1362
 7961SOL    HW135345   0.097   2.946   1.843  0.7956  0.6841  0.3432
 7961SOL    HW235346   0.043   2.827   1.913  0.2010  1.2572  0.4292
 7962SOL     OW35347   3.983   0.107   7.559  0.2829 -0.5657 -0.0291
 7962SOL    HW135348   3.910   0.048   7.539 -0.4207 -0.2665  1.6789
 7962SOL    HW235349   3.984   0.097   7.654 -1.4395  3.8910  0.4626
 7963SOL     OW35350   1.687   3.117   9.853  0.0660 -0.6584 -0.2352
 7963SOL    HW135351   1.672   3.033   9.810  0.8108  0.0612 -1.8794
 7963SOL    HW235352   1.775   3.134   9.821  0.7400 -0.9992  1.4145
 7964SOL     OW35353   1.131   3.421   3.461  0.3381  0.0059 -0.1965
 7964SOL    HW135354   1.096   3.401   3.374  0.8344  0.2220 -0.4430
 7964SOL    HW235355   1.130   3.332   3.497 -1.5270 -0.7112 -2.0044
 7965SOL     OW35356   0.552   1.713  12.224 -0.4616 -0.3914  0.1392
 7965SOL    HW135357   0.572   1.621  12.208 -2.8013 -0.7619 -0.7421
 7965SOL    HW235358   0.601   1.755  12.153  0.2062 -3.2126 -1.0634
 7966SOL     OW35359   3.207   4.321   0.258  0.4924  0.4271 -0.3539
 7966SOL    HW135360   3.241   4.390   0.315  2.1827 -0.7483  0.0668
 7966SOL    HW235361   3.174   4.255   0.320  0.1828 -0.0214 -1.0029
 7967SOL     OW35362   3.623   3.688  10.147 -0.9441  0.2909  0.1770
 7967SOL    HW135363   3.669   3.769  10.129 -0.8652 -0.1046 -1.3538
 7967SOL    HW235364   3.628   3.683  10.243  1.0870 -0.3156  0.0225
 7968SOL     OW35365   2.250   2.148   4.977 -0.0597  0.2331 -0.2154
 7968SOL    HW135366   2.187   2.081   5.004  1.5251 -0.7958  0.8703
 7968SOL    HW235367   2.206   2.185   4.899 -1.2230  0.5305  0.5744
 7969SOL     OW35368   4.525   1.643   8.458  0.7000 -0.4066 -0.1529
 7969SOL    HW135369   4.440   1.669   8.421  1.3754 -0.1557 -1.5127
 7969SOL    HW235370   4.591   1.711   8.447  1.2292 -0.9802 -0.4454
 7970SOL     OW35371   1.214   1.675  13.597  0.3458  0.3643  0.0454
 7970SOL    HW135372   1.208   1.756  13.646 -1.0439  0.6531 -0.5889
 7970SOL    HW235373   1.123   1.645  13.602  0.0757  1.2333  0.3361
 7971SOL     OW35374   0.603   1.772   8.283  0.0632  0.5884 -0.0193
 7971SOL    HW135375   0.671   1.840   8.287  0.5439  0.1794 -1.3943
 7971SOL    HW235376   0.656   1.695   8.263 -0.4051  0.5816 -1.2318
 7972SOL     OW35377   4.006   0.911   5.165 -0.3643  0.4632 -0.1361
 7972SOL    HW135378   4.003   0.853   5.241  0.2565  0.7765  0.1280
 7972SOL    HW235379   4.054   0.986   5.202 -1.6971  1.0653  0.3837
 7973SOL     OW35380   0.394   1.881  13.873 -0.6397  0.0539 -0.3558
 7973SOL    HW135381   0.407   1.788  13.893 -1.9302  0.0717  0.5382
 7973SOL    HW235382   0.346   1.887  13.791 -1.1670 -1.4866 -0.1644
 7974SOL     OW35383   3.140   0.404  10.786  0.4619  0.0579 -0.3249
 7974SOL    HW135384   3.144   0.453  10.869 -0.3935 -1.3744  0.5566
 7974SOL    HW235385   3.124   0.475  10.724  1.6907  0.9305  0.3374
 7975SOL     OW35386   3.644   4.300  17.355  0.1191  0.7288  0.1169
 7975SOL    HW135387   3.702   4.242  17.404 -0.3211  0.0544 -0.1672
 7975SOL    HW235388   3.671   4.288  17.264  1.8509 -1.7617  0.9627
 7976SOL     OW35389   2.815   1.580   3.061 -0.6246 -0.1563 -0.4817
 7976SOL    HW135390   2.757   1.505   3.045 -0.3595 -0.8039  1.6434
 7976SOL    HW235391   2.745   1.637   3.093 -0.9678  0.3144 -2.0436
 7977SOL     OW35392   1.299   2.261   6.881 -0.1133  0.5703 -0.2457
 7977SOL    HW135393   1.268   2.336   6.932  1.6174  2.1943 -1.5691
 7977SOL    HW235394   1.241   2.267   6.804 -0.1864  0.2853 -0.2140
 7978SOL     OW35395   2.234   3.897   8.097  0.4765 -0.2745  0.9397
 7978SOL    HW135396   2.216   3.814   8.142 -1.0129 -0.1989  0.4713
 7978SOL    HW235397   2.323   3.901   8.134  0.1617 -1.6550  1.8597
 7979SOL     OW35398   0.685   4.650   8.647  0.1143 -0.1986  0.3629
 7979SOL    HW135399   0.597   4.646   8.609  0.3434  1.9695 -0.3939
 7979SOL    HW235400   0.663   4.591   8.719  0.0086  0.8676  1.1968
 7980SOL     OW35401   3.713   4.208   3.885  0.3955  0.1117 -0.0514
 7980SOL    HW135402   3.768   4.282   3.910 -0.7031  0.1984  2.0454
 7980SOL    HW235403   3.770   4.167   3.819 -0.9975 -1.2890 -0.3872
 7981SOL     OW35404   2.543   1.464   4.080  0.0613 -0.0528  0.3782
 7981SOL    HW135405   2.585   1.403   4.139 -0.5740 -1.0483 -0.2052
 7981SOL    HW235406   2.455   1.430   4.096 -0.2826  0.6495  0.0078
 7982SOL     OW35407   1.982   2.115   2.847 -0.3302 -0.1042 -0.0312
 7982SOL    HW135408   1.979   2.054   2.921 -0.5686 -0.1604 -0.0859
 7982SOL    HW235409   1.983   2.042   2.785 -0.4579 -0.1007 -0.0388
 7983SOL     OW35410   1.227   3.396   8.580 -0.0480 -0.0603 -0.5159
 7983SOL    HW135411   1.244   3.443   8.662  0.5449 -3.7241  1.4390
 7983SOL    HW235412   1.227   3.308   8.617  0.5405  0.3411  0.4522
 7984SOL     OW35413   1.572   3.384  14.192 -0.5303  0.2578 -0.0924
 7984SOL    HW135414   1.600   3.297  14.162  1.1577  0.7123  0.1335
 7984SOL    HW235415   1.507   3.409  14.127  0.8435  0.7298 -1.2869
 7985SOL     OW35416   1.343   3.786   3.148  0.2594 -0.3035  0.2591
 7985SOL    HW135417   1.301   3.724   3.208 -0.6113 -1.4550 -1.5286
 7985SOL    HW235418   1.315   3.872   3.178  0.1722  0.1070 -0.9841
 7986SOL     OW35419   1.996   0.566   6.163  0.2675  0.1135 -0.2581
 7986SOL    HW135420   1.918   0.531   6.205 -0.2725  0.5791 -0.8756
 7986SOL    HW235421   1.954   0.618   6.094 -0.0923  0.7241  0.4270
 7987SOL     OW35422   1.144   1.118   3.375 -0.3990  0.5391  0.2485
 7987SOL    HW135423   1.195   1.127   3.456 -1.0857 -2.2341  0.9806
 7987SOL    HW235424   1.101   1.203   3.360 -0.0832  0.5350 -0.6927
 7988SOL     OW35425   2.529   1.894   5.845 -0.4140 -0.4980  0.2443
 7988SOL    HW135426   2.618   1.876   5.876 -0.6125  0.3035  1.3092
 7988SOL    HW235427   2.528   1.845   5.764 -2.3042  0.5307 -0.3567
 7989SOL     OW35428   2.823   2.240  14.565  0.4764 -0.5298  0.4891
 7989SOL    HW135429   2.779   2.183  14.501 -1.6319 -0.0325  1.5272
 7989SOL    HW235430   2.908   2.195  14.574  0.6823 -0.1345  0.5162
 7990SOL     OW35431   3.563   1.465   1.550 -0.2532 -0.7223 -0.3162
 7990SOL    HW135432   3.606   1.384   1.577  0.6010 -0.1988 -0.1015
 7990SOL    HW235433   3.481   1.451   1.596 -1.0754  1.2692 -1.2119
 7991SOL     OW35434   4.147   0.117   2.585  0.0568  0.1076  0.0396
 7991SOL    HW135435   4.208   0.069   2.640 -0.2386  0.3295  0.5579
 7991SOL    HW235436   4.203   0.188   2.552  0.2684  0.1983  0.6020
 7992SOL     OW35437   1.391   3.810   5.060 -0.1988  0.0697  0.6962
 7992SOL    HW135438   1.368   3.900   5.086  1.7230  1.3788 -2.0578
 7992SOL    HW235439   1.431   3.783   5.143 -2.4977 -1.0636  1.4401
 7993SOL     OW35440   2.235   3.148   5.491  0.4632  0.0362 -0.5976
 7993SOL    HW135441   2.155   3.109   5.526  1.2787 -3.0023 -2.0989
 7993SOL    HW235442   2.235   3.240   5.517  2.8142  0.2829 -1.4931
 7994SOL     OW35443   4.518   4.329  15.702  0.3343  0.0811  0.2675
 7994SOL    HW135444   4.528   4.413  15.658 -0.5069  0.7020  1.2922
 7994SOL    HW235445   4.432   4.296  15.675 -0.2993  1.4663  0.5802
 7995SOL     OW35446   2.134   0.875   7.557  0.3924 -0.2180  0.3536
 7995SOL    HW135447   2.206   0.934   7.575  2.0281 -1.9279 -0.5652
 7995SOL    HW235448   2.132   0.816   7.633  3.0926 -2.8079 -1.5976
 7996SOL     OW35449   3.202   0.327   4.195 -0.0331  0.0908  0.2348
 7996SOL    HW135450   3.257   0.253   4.221 -0.4232  0.3101  1.6641
 7996SOL    HW235451   3.118   0.284   4.180  1.1527 -2.5971  1.2630
 7997SOL     OW35452   1.838   3.281   8.431 -0.5210 -0.3848 -0.8087
 7997SOL    HW135453   1.846   3.332   8.512 -5.1514 -0.3609 -0.3585
 7997SOL    HW235454   1.743   3.273   8.429 -0.5854 -0.3522  1.7322
 7998SOL     OW35455   2.870   0.930   3.028  0.1873  0.4880  0.5964
 7998SOL    HW135456   2.800   0.874   2.993  0.3324  1.2512 -0.9170
 7998SOL    HW235457   2.817   1.009   3.022  0.9486  0.9489  0.0406
 7999SOL     OW35458   3.874   0.019   2.075  0.5796 -0.3373 -0.5203
 7999SOL    HW135459   3.846   0.058   2.158  0.6254  3.1257 -2.1377
 7999SOL    HW235460   3.795   0.046   2.029  0.0245 -1.6714 -0.3409
 8000SOL     OW35461   2.375   0.017   4.057  0.2646  0.5806 -0.0829
 8000SOL    HW135462   2.308   0.011   3.989  2.4930  0.0052 -2.2056
 8000SOL    HW235463   2.453   0.007   4.003  0.1385 -1.1804  0.0428
 8001SOL     OW35464   2.763   1.774  11.110 -1.0864 -0.2414  0.3537
 8001SOL    HW135465   2.734   1.865  11.116 -0.9717 -0.2679  1.3167
 8001SOL    HW235466   2.689   1.737  11.061 -1.6665  1.6258 -0.1942
 8002SOL     OW35467   1.315   4.397   7.840  0.2613 -0.0431 -0.2874
 8002SOL    HW135468   1.399   4.423   7.802  1.6372 -0.9422  2.1234
 8002SOL    HW235469   1.327   4.302   7.835 -1.9482 -0.4300  1.7178
 8003SOL     OW35470   1.201   0.050   3.896 -0.0056  0.0887  0.3039
 8003SOL    HW135471   1.181   0.110   3.969 -2.1755  0.5785 -0.6839
 8003SOL    HW235472   1.292   0.064   3.870  0.2078 -0.4726  0.7412
 8004SOL     OW35473   2.836   2.164   7.964 -0.4563  0.4049  0.0230
 8004SOL    HW135474   2.753   2.211   7.962 -0.5300  0.3230  0.9864
 8004SOL    HW235475   2.859   2.177   7.872 -0.3191 -0.5541 -0.0847
 8005SOL     OW35476   0.599   3.718   5.972  0.1468  0.0893 -0.0945
 8005SOL    HW135477   0.553   3.684   6.049 -1.1447  1.2039 -0.3928
 8005SOL    HW235478   0.556   3.665   5.906  1.8372 -2.7485  1.0482
 8006SOL     OW35479   1.565   1.064   1.526 -0.4670  0.3049  0.4709
 8006SOL    HW135480   1.472   1.049   1.508 -0.9006  1.4939  1.7016
 8006SOL    HW235481   1.556   1.158   1.545  0.6165  0.7457 -1.2090
 8007SOL     OW35482   4.607   4.053   6.475 -0.4856  0.0856 -0.0443
 8007SOL    HW135483   4.547   4.120   6.508  2.6081  1.9488  1.8039
 8007SOL    HW235484   4.679   4.111   6.450  0.5071 -0.0663  2.4558
 8008SOL     OW35485   2.039   0.007   3.594 -0.0429  0.0420  0.1175
 8008SOL    HW135486   2.056   0.011   3.500  1.6343 -0.4495  0.4014
 8008SOL    HW235487   1.965   0.067   3.592  0.0845  0.2335  1.4585
 8009SOL     OW35488   0.626   2.494   4.819  0.1904  0.1628  0.2908
 8009SOL    HW135489   0.555   2.477   4.757  0.0266  1.6318  0.0579
 8009SOL    HW235490   0.678   2.428   4.775 -1.2531 -1.3891  0.9150
 8010SOL     OW35491   4.389   1.987   7.018 -0.3630  0.0322 -0.7504
 8010SOL    HW135492   4.353   1.930   6.951 -2.0288 -0.0021  0.1655
 8010SOL    HW235493   4.416   1.928   7.088  0.7097  0.1390 -1.0845
 8011SOL     OW35494   0.626   0.056  16.906  0.1976 -0.6920 -0.2566
 8011SOL    HW135495   0.557   0.108  16.950  1.3183  0.1575  0.4961
 8011SOL    HW235496   0.588   4.694  16.933 -0.4049 -0.3174  0.0756
 8012SOL     OW35497   1.532   1.934   9.302  0.2536  0.2691  0.1652
 8012SOL    HW135498   1.540   1.933   9.397 -1.1737 -0.4609  0.2732
 8012SOL    HW235499   1.601   1.996   9.280 -0.0825 -0.1905 -2.1903
 8013SOL     OW35500   0.882   0.598   9.494 -0.3085 -0.6872  0.2220
 8013SOL    HW135501   0.893   0.558   9.408 -0.4352  0.1265 -0.1695
 8013SOL    HW235502   0.968   0.641   9.493  0.0412 -1.3861  0.0987
 8014SOL     OW35503   2.445   0.835  17.246  0.3758  0.0454 -0.4968
 8014SOL    HW135504   2.539   0.849  17.246 -0.0567  3.0314 -0.1522
 8014SOL    HW235505   2.418   0.892  17.174 -2.5551 -0.7240 -0.0063
 8015SOL     OW35506   1.016   3.987  17.472  0.0681  0.4844  0.6345
 8015SOL    HW135507   0.928   4.025  17.466  0.2113  0.7044 -0.1150
 8015SOL    HW235508   1.058   4.056  17.523  2.9942 -1.8446  1.4013
 8016SOL     OW35509   0.941   1.922   1.992  0.3176  0.3033 -0.0123
 8016SOL    HW135510   1.036   1.909   2.000  0.2050 -0.8851 -0.6773
 8016SOL    HW235511   0.922   1.931   2.085 -1.5811  0.0681 -0.3896
 8017SOL     OW35512   3.025   3.672   6.394 -0.1038 -0.0623 -0.3394
 8017SOL    HW135513   3.089   3.617   6.349 -0.0389 -1.5266  1.5283
 8017SOL    HW235514   3.091   3.724   6.440 -1.6217 -1.6107  3.6111
 8018SOL     OW35515   2.399   4.363  13.945  0.1761  0.2331 -1.2497
 8018SOL    HW135516   2.339   4.410  13.887 -1.7726 -0.7241  0.0013
 8018SOL    HW235517   2.421   4.432  14.007  0.3060 -1.2486  0.3527
 8019SOL     OW35518   3.684   0.016   7.324  0.6243 -0.0927  0.3522
 8019SOL    HW135519   3.693   4.648   7.358  0.6126  0.6358  2.2832
 8019SOL    HW235520   3.655   0.067   7.399 -1.3608 -1.2374  0.3574
 8020SOL     OW35521   3.636   3.494   5.759  0.6137  0.1802  0.3828
 8020SOL    HW135522   3.694   3.429   5.718  0.5647  1.5473 -1.8808
 8020SOL    HW235523   3.597   3.454   5.836  1.5843 -2.7248 -0.5892
 8021SOL     OW35524   3.067   0.354   4.438  0.1376 -0.1547  0.0640
 8021SOL    HW135525   3.130   0.403   4.489  0.8972 -1.3497  0.2638
 8021SOL    HW235526   3.124   0.336   4.363 -1.0452 -0.1210 -0.8616
 8022SOL     OW35527   3.465   4.191   0.848 -0.0489 -0.0613 -0.1749
 8022SOL    HW135528   3.376   4.216   0.823  0.1082  1.1072  0.4727
 8022SOL    HW235529   3.440   4.122   0.910  0.3907  0.1688  0.2478
 8023SOL     OW35530   1.581   4.245  17.045 -0.6453  0.1244 -0.0868
 8023SOL    HW135531   1.672   4.222  17.030 -0.5431  1.1360 -1.0114
 8023SOL    HW235532   1.550   4.161  17.013  1.5202 -1.5320  2.2019
 8024SOL     OW35533   3.371   0.835   3.753  0.2532  0.1919  0.1909
 8024SOL    HW135534   3.280   0.857   3.731  0.4837  0.1764 -0.7890
 8024SOL    HW235535   3.374   0.858   3.846 -0.6147  0.6767  0.1024
 8025SOL     OW35536   2.421   3.186  12.930  0.9056 -0.5954  0.0567
 8025SOL    HW135537   2.396   3.143  13.012  0.0506 -0.8572 -0.3398
 8025SOL    HW235538   2.516   3.189  12.942  1.0510  0.8130 -1.3995
 8026SOL     OW35539   2.626   4.068   2.458  0.1843  0.4113  0.7275
 8026SOL    HW135540   2.720   4.073   2.474  0.6136 -1.8499 -1.0447
 8026SOL    HW235541   2.587   4.150   2.487 -1.8058  0.4261 -1.9737
 8027SOL     OW35542   2.249   0.943   3.357  1.0568  0.2324 -0.0713
 8027SOL    HW135543   2.306   0.866   3.356  1.5504  0.6204 -1.5203
 8027SOL    HW235544   2.206   0.947   3.442 -2.7906  2.0076 -2.1142
 8028SOL     OW35545   1.652   0.612   3.750 -0.0015  0.6642  0.2600
 8028SOL    HW135546   1.589   0.632   3.820 -0.7527  0.7006 -0.4251
 8028SOL    HW235547   1.595   0.576   3.683  0.4334  0.6741 -0.1093
 8029SOL     OW35548   2.112   3.968   4.176 -0.3547 -0.0464  0.4601
 8029SOL    HW135549   2.033   3.996   4.131  0.2095 -0.2984 -0.6683
 8029SOL    HW235550   2.113   3.879   4.141  2.0072  0.8094 -1.6646
 8030SOL     OW35551   3.577   2.017  12.423  0.3286  0.6026 -0.5473
 8030SOL    HW135552   3.611   2.081  12.485  2.4129 -0.7824 -0.2629
 8030SOL    HW235553   3.642   1.948  12.429  1.0796  1.3334 -0.3509
 8031SOL     OW35554   0.638   1.218   6.763  0.1158 -0.5500  0.4394
 8031SOL    HW135555   0.570   1.272   6.723  0.4713 -1.6384 -1.6101
 8031SOL    HW235556   0.626   1.135   6.718  2.8544 -0.3069 -0.7333
 8032SOL     OW35557   4.411   3.613   4.978  0.2364 -0.2585 -1.0150
 8032SOL    HW135558   4.350   3.638   4.909 -0.1013  1.0270 -0.2569
 8032SOL    HW235559   4.390   3.520   4.973 -0.4715  0.0444 -3.4593
 8033SOL     OW35560   1.470   0.130   3.846 -0.3546 -0.2197  0.1817
 8033SOL    HW135561   1.499   0.197   3.907 -0.4689  0.9925 -1.0977
 8033SOL    HW235562   1.493   0.172   3.763  2.5150 -2.3987 -0.1344
 8034SOL     OW35563   4.344   3.991   7.180 -0.2543 -0.1051 -0.4091
 8034SOL    HW135564   4.439   3.993   7.173 -0.1203 -1.0474  1.0298
 8034SOL    HW235565   4.325   3.912   7.129 -2.6201  0.1995 -0.0057
 8035SOL     OW35566   2.272   1.217   6.468  0.1022 -0.8366  0.0428
 8035SOL    HW135567   2.328   1.294   6.482  0.3335 -1.0391  0.2407
 8035SOL    HW235568   2.258   1.216   6.373  0.8852 -3.4635 -0.0467
 8036SOL     OW35569   2.243   4.423  16.598  0.1514 -0.9544 -0.1328
 8036SOL    HW135570   2.266   4.450  16.509  0.3317 -0.7550 -0.0246
 8036SOL    HW235571   2.263   4.330  16.606  2.5169 -0.3336  1.0535
 8037SOL     OW35572   3.012   1.651   2.498  0.0597  0.4646 -0.2219
 8037SOL    HW135573   3.022   1.635   2.405  0.0892 -3.2150  0.4129
 8037SOL    HW235574   3.046   1.567   2.529 -2.0848  0.1238  1.2183
 8038SOL     OW35575   0.635   0.938   7.111  0.2793  0.3354  0.0627
 8038SOL    HW135576   0.547   0.960   7.141 -0.4146 -2.8749  0.4012
 8038SOL    HW235577   0.683   1.021   7.121 -0.1029  0.6919 -1.0643
 8039SOL     OW35578   4.404   4.365   7.083 -0.4856  0.8381  0.5642
 8039SOL    HW135579   4.403   4.460   7.094 -0.4942  0.5980  2.5992
 8039SOL    HW235580   4.416   4.317   7.165  1.2863  1.9110  0.9241
 8040SOL     OW35581   2.119   3.874   2.658 -0.0628  0.0957  0.0193
 8040SOL    HW135582   2.157   3.858   2.744  0.4465 -4.1792 -0.9797
 8040SOL    HW235583   2.194   3.904   2.608 -1.2494  0.6841 -1.4194
 8041SOL     OW35584   2.583   4.106   4.152  0.2422 -0.1156  0.0937
 8041SOL    HW135585   2.613   4.164   4.222 -1.8671  3.2069 -1.7812
 8041SOL    HW235586   2.575   4.177   4.089 -1.9963 -1.2255 -0.8659
 8042SOL     OW35587   2.828   0.562   2.280  0.4349 -0.2464 -0.5236
 8042SOL    HW135588   2.800   0.589   2.367  0.1301 -0.5026 -0.5460
 8042SOL    HW235589   2.899   0.623   2.257  0.6541 -0.6050 -0.8004
 8043SOL     OW35590   2.036   1.321   9.957  0.1228 -0.4853 -0.0926
 8043SOL    HW135591   2.073   1.233   9.953  1.2083 -0.0392  0.3144
 8043SOL    HW235592   1.941   1.305   9.952 -0.1069  0.3502  1.7575
 8044SOL     OW35593   3.450   3.244   7.337 -0.1699 -0.5298  0.5972
 8044SOL    HW135594   3.356   3.254   7.354  0.2178  1.8065  1.4461
 8044SOL    HW235595   3.446   3.149   7.329  1.0757 -0.4997 -0.2681
 8045SOL     OW35596   4.384   2.499  11.601 -0.1325 -0.6482  0.0643
 8045SOL    HW135597   4.474   2.486  11.571 -0.3098  0.4694 -0.9801
 8045SOL    HW235598   4.388   2.485  11.695 -0.2439 -2.1816 -0.1730
 8046SOL     OW35599   0.357   3.805  10.942  0.2858 -0.0953  0.3613
 8046SOL    HW135600   0.441   3.765  10.966  2.1274  2.2709 -2.2267
 8046SOL    HW235601   0.328   3.840  11.027 -2.3500 -0.7241 -0.2993
 8047SOL     OW35602   3.503   1.906  16.481  0.0989 -0.2340  0.0709
 8047SOL    HW135603   3.530   1.825  16.437  1.5292  0.8684 -1.0643
 8047SOL    HW235604   3.584   1.919  16.531 -0.7964  0.1093  1.4469
 8048SOL     OW35605   2.744   2.737   5.777 -0.3183  0.3607  0.2616
 8048SOL    HW135606   2.652   2.753   5.755 -0.4264  2.1449  1.9585
 8048SOL    HW235607   2.778   2.814   5.822  1.3400 -0.0030 -0.3588
 8049SOL     OW35608   0.637   2.889   9.214  0.3088 -0.2067 -0.2230
 8049SOL    HW135609   0.648   2.963   9.153  1.2665  0.0928  0.3219
 8049SOL    HW235610   0.617   2.933   9.297  2.4354  1.5366 -0.6212
 8050SOL     OW35611   0.309   1.654   8.616 -0.1955 -0.2239  0.6415
 8050SOL    HW135612   0.284   1.562   8.624 -0.4430 -0.2252 -0.2007
 8050SOL    HW235613   0.294   1.682   8.707 -0.0267 -0.3581  0.7104
 8051SOL     OW35614   0.316   1.696   8.934  0.1781  0.3199 -0.1037
 8051SOL    HW135615   0.252   1.625   8.939 -0.6556  1.0686 -0.0740
 8051SOL    HW235616   0.303   1.738   9.019 -0.2435 -0.6499  0.3159
 8052SOL     OW35617   1.575   3.036   6.420 -0.1048  0.4874  0.2354
 8052SOL    HW135618   1.503   3.061   6.478 -0.3015 -2.0028  1.0648
 8052SOL    HW235619   1.645   3.082   6.467 -0.7538 -1.1394  2.7249
 8053SOL     OW35620   2.798   1.572   8.624  0.1152  0.1758  0.4862
 8053SOL    HW135621   2.833   1.660   8.641  0.7276  0.2889 -1.3969
 8053SOL    HW235622   2.857   1.525   8.683 -0.2499  0.1353  0.8232
 8054SOL     OW35623   0.601   1.461   2.999 -0.3448 -0.8610 -0.1812
 8054SOL    HW135624   0.532   1.411   3.042 -0.8861  0.6814  0.7252
 8054SOL    HW235625   0.597   1.548   3.038  0.8538 -0.9423  0.1109
 8055SOL     OW35626   3.137   2.799  11.450  0.8871  0.0299  0.0404
 8055SOL    HW135627   3.171   2.806  11.361  1.6816 -0.7297  0.2792
 8055SOL    HW235628   3.138   2.890  11.480 -0.5168 -0.2023  0.7814
 8056SOL     OW35629   3.509   3.241  15.735 -0.2053 -0.0149  0.6272
 8056SOL    HW135630   3.496   3.148  15.753 -0.8064 -0.0759 -0.1620
 8056SOL    HW235631   3.557   3.239  15.652 -0.1786 -1.4304  0.6684
 8057SOL     OW35632   1.550   1.654   8.324  0.0180 -0.3730  0.4958
 8057SOL    HW135633   1.603   1.697   8.391  2.4086 -3.4949  0.6199
 8057SOL    HW235634   1.600   1.573   8.318  1.6232  0.7543 -1.2411
 8058SOL     OW35635   1.043   3.717   3.683  0.3682  0.4565 -0.5235
 8058SOL    HW135636   1.035   3.641   3.741 -2.5090 -1.5588 -3.6158
 8058SOL    HW235637   1.113   3.769   3.723  0.4337 -1.2044  1.5654
 8059SOL     OW35638   0.053   3.646  12.345  0.5916 -0.3323  0.0753
 8059SOL    HW135639   4.681   3.656  12.364  0.7397 -0.0749  0.6682
 8059SOL    HW235640   0.090   3.620  12.429  0.0450  3.0329  1.3765
 8060SOL     OW35641   1.820   0.073   3.798 -0.2997  0.5327  0.3286
 8060SOL    HW135642   1.829   0.112   3.711  0.0106  0.0498  0.1418
 8060SOL    HW235643   1.842   0.154   3.844  0.5729 -1.5143  3.5466
 8061SOL     OW35644   1.084   3.704  16.709  0.0796 -0.3747  0.2869
 8061SOL    HW135645   1.114   3.794  16.697 -1.7691  0.2389  0.1955
 8061SOL    HW235646   1.030   3.712  16.788  1.1239  2.0907  0.7357
 8062SOL     OW35647   4.044   3.095   9.465  0.2316  0.0297  0.6057
 8062SOL    HW135648   4.053   3.050   9.549  2.8496  1.4343  1.0849
 8062SOL    HW235649   4.006   3.174   9.503 -0.8220  0.2654 -0.9258
 8063SOL     OW35650   2.704   1.413   6.969 -0.5045 -0.2034 -0.4034
 8063SOL    HW135651   2.781   1.466   6.989 -0.0218 -1.0760  0.0588
 8063SOL    HW235652   2.675   1.396   7.058 -2.7220  0.9131 -0.9277
 8064SOL     OW35653   0.451   2.457   9.521  0.0863  0.0711 -0.6995
 8064SOL    HW135654   0.539   2.471   9.486  0.5228 -0.9376 -0.0190
 8064SOL    HW235655   0.428   2.536   9.569  1.8465 -0.8069  1.5942
 8065SOL     OW35656   3.762   0.368   2.023  0.5579 -0.0310 -0.2147
 8065SOL    HW135657   3.769   0.281   1.984  0.3001  0.1321 -0.6245
 8065SOL    HW235658   3.672   0.387   1.998  1.1605  0.5892 -1.9315
 8066SOL     OW35659   3.430   0.034   3.097  0.2227 -0.0178 -0.0286
 8066SOL    HW135660   3.391   0.113   3.059  0.4175 -0.6993 -1.6318
 8066SOL    HW235661   3.395   0.043   3.185 -2.0586 -1.6679 -0.7992
 8067SOL     OW35662   1.141   2.470   5.260 -0.4244 -0.5017  0.1027
 8067SOL    HW135663   1.090   2.457   5.180 -0.2373  4.2292 -0.7760
 8067SOL    HW235664   1.086   2.447   5.335  1.3341 -0.3372  1.4365
 8068SOL     OW35665   1.782   3.499   0.710 -0.1719  0.6320 -0.1329
 8068SOL    HW135666   1.776   3.557   0.786  0.4632  0.9311 -0.3102
 8068SOL    HW235667   1.841   3.427   0.731 -1.6229 -0.9438 -1.5323
 8069SOL     OW35668   1.154   1.033   3.731  0.3778  0.2519  0.3043
 8069SOL    HW135669   1.070   1.018   3.687  0.6005 -1.9149  0.5991
 8069SOL    HW235670   1.130   1.055   3.821 -0.5670  0.2248  0.0550
 8070SOL     OW35671   3.469   3.702   8.329  0.5422  0.1848  0.3089
 8070SOL    HW135672   3.522   3.778   8.353  1.4767 -0.2939 -0.2263
 8070SOL    HW235673   3.535   3.633   8.339  1.4099  0.9054 -0.4942
 8071SOL     OW35674   4.487   1.790   2.330  0.4075  0.0417  0.8768
 8071SOL    HW135675   4.514   1.850   2.260 -0.6306 -0.1557  0.2902
 8071SOL    HW235676   4.447   1.715   2.286  1.0419 -0.3335  0.9481
 8072SOL     OW35677   4.344   0.854  11.377  0.3804  0.1131  0.2013
 8072SOL    HW135678   4.401   0.929  11.360 -0.3713  1.3518  3.2093
 8072SOL    HW235679   4.313   0.837  11.288 -1.9678 -2.4153  1.4994
 8073SOL     OW35680   0.833   3.058   8.324 -0.6026 -0.2271 -0.0555
 8073SOL    HW135681   0.785   3.114   8.263 -1.6811 -1.1228 -0.0267
 8073SOL    HW235682   0.784   2.976   8.317 -0.0096 -0.4796 -1.1904
 8074SOL     OW35683   0.170   4.184   6.142 -0.3339 -0.3355 -0.2393
 8074SOL    HW135684   0.160   4.253   6.077 -1.0188  0.2711  0.5172
 8074SOL    HW235685   0.231   4.223   6.205 -1.1596  1.5313 -0.6009
 8075SOL     OW35686   1.113   0.993   3.993 -0.2843  0.3512 -0.1261
 8075SOL    HW135687   1.166   1.046   4.053  0.6460  2.6166 -2.9573
 8075SOL    HW235688   1.133   0.901   4.011 -0.4364  0.7311  2.0562
 8076SOL     OW35689   0.167   4.185   0.846  0.1417  0.8570  0.0136
 8076SOL    HW135690   0.182   4.092   0.861 -1.7354  0.5049 -0.2316
 8076SOL    HW235691   0.071   4.187   0.856 -0.0982  0.6774 -2.2368
 8077SOL     OW35692   2.759   4.109   5.998 -0.0448  0.0872 -0.1184
 8077SOL    HW135693   2.673   4.138   5.965 -0.8472 -2.6380 -0.4181
 8077SOL    HW235694   2.809   4.189   5.981 -2.1149  1.3404 -0.2701
 8078SOL     OW35695   3.063   3.270  11.676  0.0024  0.0861  0.2510
 8078SOL    HW135696   3.016   3.222  11.744  1.4681 -1.9525 -0.1592
 8078SOL    HW235697   3.022   3.354  11.692 -0.0562  0.3081 -1.0730
 8079SOL     OW35698   2.379   2.781   6.448  0.3020  0.0876 -0.2056
 8079SOL    HW135699   2.329   2.807   6.371  2.9021 -0.6093 -2.1320
 8079SOL    HW235700   2.397   2.870   6.476  4.4667 -0.8430  0.1177
 8080SOL     OW35701   2.192   3.548   1.203  0.0183 -0.5327 -0.1806
 8080SOL    HW135702   2.265   3.528   1.261  0.7312 -0.9297 -1.2264
 8080SOL    HW235703   2.180   3.641   1.224 -1.2686 -1.3108  2.6382
 8081SOL     OW35704   4.609   1.325   3.617 -0.4978 -0.5692  0.3991
 8081SOL    HW135705   4.526   1.301   3.658 -0.2944  0.3079  1.3078
 8081SOL    HW235706   4.584   1.378   3.541  2.8035  0.0240 -0.2791
 8082SOL     OW35707   3.022   2.919   2.971 -0.0624  0.5850  0.6918
 8082SOL    HW135708   2.987   2.830   2.980  0.8860 -0.1313 -2.5957
 8082SOL    HW235709   2.958   2.974   3.015  0.4656  1.0512  0.8765
 8083SOL     OW35710   2.178   1.097   8.097  0.0226 -0.1947  0.4732
 8083SOL    HW135711   2.147   1.038   8.028 -0.8855  0.6323  0.1589
 8083SOL    HW235712   2.183   1.053   8.182  0.8377  0.0701  0.5567
 8084SOL     OW35713   3.873   3.914  16.411 -0.1330  0.2355 -0.3787
 8084SOL    HW135714   3.827   3.980  16.462  1.1895 -0.6531  1.9370
 8084SOL    HW235715   3.855   3.944  16.321  0.6936 -0.7666 -0.8782
 8085SOL     OW35716   0.338   3.237   1.824 -0.3167 -0.4710 -1.0861
 8085SOL    HW135717   0.251   3.198   1.820  0.1972 -1.6980 -0.2745
 8085SOL    HW235718   0.320   3.308   1.885  1.1752 -1.8879  0.9784
 8086SOL     OW35719   0.510   4.619   8.270  0.2594 -0.3607 -0.5046
 8086SOL    HW135720   0.418   4.642   8.260 -0.2367 -2.4589 -0.9011
 8086SOL    HW235721   0.513   4.538   8.219  0.2189 -1.0229  0.5267
 8087SOL     OW35722   1.682   4.620  17.185 -0.0471 -0.3605 -0.4288
 8087SOL    HW135723   1.665   4.530  17.214 -0.7414 -1.2393 -3.5670
 8087SOL    HW235724   1.638   4.627  17.101  0.5238 -0.4082 -0.7267
 8088SOL     OW35725   1.366   1.346   7.047 -0.2237  0.0927 -0.6920
 8088SOL    HW135726   1.344   1.274   7.106 -3.1898  2.6371  1.3209
 8088SOL    HW235727   1.421   1.300   6.984  1.5908  0.1807  0.8364
 8089SOL     OW35728   2.012   2.056   0.387 -0.3630 -0.6957 -0.2798
 8089SOL    HW135729   2.060   1.990   0.437  1.9375  1.6579  0.5749
 8089SOL    HW235730   1.956   2.089   0.457  0.2542  1.7518 -0.9679
 8090SOL     OW35731   2.168   3.534  16.654  0.0909  0.4651  0.5660
 8090SOL    HW135732   2.131   3.557  16.739 -0.9547  1.1966 -0.0820
 8090SOL    HW235733   2.259   3.562  16.650 -0.9164  3.5184 -0.6705
 8091SOL     OW35734   4.415   1.814   7.272 -0.0116 -0.0843  0.1713
 8091SOL    HW135735   4.377   1.731   7.302 -1.7155  0.1247 -1.3496
 8091SOL    HW235736   4.336   1.869   7.273 -0.0041 -0.1203  1.8425
 8092SOL     OW35737   1.816   4.308   6.040 -0.2082 -0.4233  0.0771
 8092SOL    HW135738   1.740   4.250   6.047  0.8320 -1.8499 -0.4413
 8092SOL    HW235739   1.773   4.375   5.986 -0.3925 -0.4849  0.1441
 8093SOL     OW35740   3.939   0.428  11.694 -0.3208  0.2732  0.7519
 8093SOL    HW135741   3.934   0.517  11.730  1.3222  1.2718 -1.4510
 8093SOL    HW235742   3.959   0.444  11.602 -0.5143  0.9354  0.8222
 8094SOL     OW35743   2.072   2.282   7.051 -0.1677 -0.3109  0.6481
 8094SOL    HW135744   2.127   2.234   7.113 -0.1171 -0.0592  0.7944
 8094SOL    HW235745   2.037   2.355   7.102  1.4105  0.7034  0.2361
 8095SOL     OW35746   1.142   1.893   6.357 -0.1607 -0.2623 -0.0102
 8095SOL    HW135747   1.148   1.820   6.419  1.2266 -0.5881 -0.5398
 8095SOL    HW235748   1.074   1.944   6.401 -1.1470 -2.0019  0.4967
 8096SOL     OW35749   4.447   4.466   2.491  0.3599 -0.3423 -0.0571
 8096SOL    HW135750   4.434   4.439   2.582  0.9990  1.3239  0.5320
 8096SOL    HW235751   4.492   4.394   2.447  2.5844  0.7228  0.4830
 8097SOL     OW35752   3.306   2.728   2.680 -0.4239  0.2262  0.1170
 8097SOL    HW135753   3.383   2.716   2.625  0.9286 -1.0622  2.2641
 8097SOL    HW235754   3.260   2.646   2.661  0.4785 -0.4442  0.7999
 8098SOL     OW35755   0.007   1.675   4.396 -0.2443  0.0123  0.0101
 8098SOL    HW135756   0.098   1.693   4.373 -0.4964  1.0679 -0.1726
 8098SOL    HW235757   4.691   1.714   4.317  0.9061  3.7411  1.3193
 8099SOL     OW35758   1.126   3.591   7.452  0.2633  0.2921  0.4088
 8099SOL    HW135759   1.125   3.577   7.547 -1.5840  0.2925  0.3776
 8099SOL    HW235760   1.038   3.624   7.434 -0.0886 -0.9537 -0.1765
 8100SOL     OW35761   4.113   1.062   9.132 -0.1979  0.0736  0.1496
 8100SOL    HW135762   4.177   1.019   9.189 -1.5295 -0.3893  1.2769
 8100SOL    HW235763   4.140   1.036   9.043  2.2798 -0.3627  1.0324
 8101SOL     OW35764   1.290   3.349  10.498  0.3855 -0.1308 -0.0245
 8101SOL    HW135765   1.200   3.382  10.499  0.5226  0.1573  2.5385
 8101SOL    HW235766   1.332   3.416  10.550 -1.1922 -0.4777  1.6911
 8102SOL     OW35767   3.999   3.688   8.064  0.0661 -0.0801  0.4372
 8102SOL    HW135768   3.991   3.593   8.070 -0.3150 -0.0961 -0.4129
 8102SOL    HW235769   4.083   3.698   8.108 -0.7359 -1.4076  2.2910
 8103SOL     OW35770   1.775   1.871   3.240 -0.0410  0.3437  0.5174
 8103SOL    HW135771   1.770   1.776   3.252 -0.4116  0.3908  0.7368
 8103SOL    HW235772   1.729   1.889   3.322 -0.2436  1.2125  0.2150
 8104SOL     OW35773   4.261   0.339  17.222 -0.4266  0.0127  0.3134
 8104SOL    HW135774   4.237   0.429  17.198 -0.4041 -0.9952 -3.4072
 8104SOL    HW235775   4.355   0.350  17.236 -0.5309  1.9984 -0.5256
 8105SOL     OW35776   2.163   3.549   0.084  0.6038 -0.3136  0.6457
 8105SOL    HW135777   2.156   3.641   0.111  0.0708 -0.1187 -0.1747
 8105SOL    HW235778   2.166   3.496   0.164  1.4963 -1.3560 -0.0785
 8106SOL     OW35779   2.359   4.013   3.957 -0.0522  0.6239 -0.4719
 8106SOL    HW135780   2.434   4.073   3.958  0.7145 -0.3696  0.3031
 8106SOL    HW235781   2.344   4.021   4.051 -1.2470 -0.0539 -0.6078
 8107SOL     OW35782   0.845   0.566   4.646  0.6029 -0.2396 -0.6905
 8107SOL    HW135783   0.773   0.567   4.582  0.8397  1.3076 -0.9303
 8107SOL    HW235784   0.838   0.659   4.664 -1.5969 -0.1300 -1.9419
 8108SOL     OW35785   1.982   1.594   8.575 -0.2024  0.6141 -0.0165
 8108SOL    HW135786   2.063   1.581   8.526 -0.0292  1.0840  0.1444
 8108SOL    HW235787   1.916   1.562   8.512 -0.7217  0.7553  0.4570
 8109SOL     OW35788   3.041   1.090   5.738  0.0524 -0.3268 -0.1095
 8109SOL    HW135789   3.018   1.003   5.773  1.2269  0.1834  1.9292
 8109SOL    HW235790   3.019   1.135   5.820 -0.3483 -0.7592  0.0236
 8110SOL     OW35791   3.138   4.679   5.863  0.3239  0.1197 -0.0728
 8110SOL    HW135792   3.230   4.701   5.874  0.5598 -0.0563 -1.7551
 8110SOL    HW235793   3.162   4.591   5.834 -0.7103 -0.7417  1.6916
 8111SOL     OW35794   1.193   2.600  16.642  0.3054  0.6416  0.5067
 8111SOL    HW135795   1.145   2.681  16.624 -1.0568 -0.2280  0.2472
 8111SOL    HW235796   1.124   2.536  16.624  1.5670 -0.3799 -0.6026
 8112SOL     OW35797   1.088   2.528   0.658 -0.3684  0.0096 -0.2787
 8112SOL    HW135798   1.046   2.560   0.737 -1.2522 -1.8991  0.0384
 8112SOL    HW235799   1.033   2.452   0.637  0.3137 -0.1043 -1.6451
 8113SOL     OW35800   0.280   4.067  15.613 -0.4274  0.0311 -0.0899
 8113SOL    HW135801   0.353   4.125  15.636 -1.3933  2.6045 -3.5719
 8113SOL    HW235802   0.205   4.102  15.662 -1.1339 -0.4097 -0.8521
 8114SOL     OW35803   4.119   0.540   2.329 -0.3876 -0.4587  0.6163
 8114SOL    HW135804   4.079   0.618   2.292 -1.6080 -0.2226  2.4407
 8114SOL    HW235805   4.065   0.473   2.287  0.6699 -1.8713  1.4890
 8115SOL     OW35806   0.147   3.241   7.287 -0.3280 -0.3833  0.2743
 8115SOL    HW135807   0.201   3.316   7.313 -1.0397 -0.0328  0.7380
 8115SOL    HW235808   0.087   3.232   7.361 -2.6475 -1.0399 -1.6909
 8116SOL     OW35809   1.809   3.161   1.135  0.3790  0.0210  0.1133
 8116SOL    HW135810   1.880   3.139   1.074  0.7176  0.8266  0.2174
 8116SOL    HW235811   1.859   3.163   1.216 -1.0470  1.1937  0.9694
 8117SOL     OW35812   2.469   0.948   4.632 -0.3520 -0.5122 -0.4107
 8117SOL    HW135813   2.528   0.937   4.557  0.8574  0.9098  0.3432
 8117SOL    HW235814   2.513   0.881   4.685 -0.1835  1.9801  2.5630
 8118SOL     OW35815   4.093   0.623   3.028  0.0215 -0.1006  0.3239
 8118SOL    HW135816   3.998   0.631   3.035 -0.1532 -0.0452 -1.9410
 8118SOL    HW235817   4.100   0.541   2.980 -2.5918 -1.1525  1.7630
 8119SOL     OW35818   2.708   3.081  14.602  0.1996 -0.4685 -0.3753
 8119SOL    HW135819   2.736   3.019  14.534 -2.6539 -0.9344 -1.0960
 8119SOL    HW235820   2.679   3.029  14.676  0.1602 -1.9458 -1.4202
 8120SOL     OW35821   0.959   1.378   3.818 -0.2787  0.0373  0.3997
 8120SOL    HW135822   0.923   1.319   3.751 -1.5269  0.7072  0.4746
 8120SOL    HW235823   0.939   1.315   3.888  1.7354 -2.0692 -0.9310
 8121SOL     OW35824   3.618   2.793  13.395  0.2419  0.4809 -0.3270
 8121SOL    HW135825   3.699   2.744  13.383 -1.5812 -2.4552 -0.6148
 8121SOL    HW235826   3.570   2.768  13.316 -2.3323 -0.9512  1.6765
 8122SOL     OW35827   1.159   4.055   4.857 -0.7772  0.1081 -0.4518
 8122SOL    HW135828   1.187   4.035   4.947 -1.7325 -1.0557 -0.4082
 8122SOL    HW235829   1.200   4.141   4.845  0.8263 -0.6796 -0.7271
 8123SOL     OW35830   3.608   4.577  17.468 -0.8606 -0.8027  0.4941
 8123SOL    HW135831   3.519   4.560  17.498 -1.2925  2.1865  0.9069
 8123SOL    HW235832   3.636   4.503  17.413 -2.7090 -1.4555  0.4232
 8124SOL     OW35833   1.640   1.738   6.432 -0.3097  0.1026 -0.0884
 8124SOL    HW135834   1.717   1.701   6.475 -1.2320 -2.3700 -0.5279
 8124SOL    HW235835   1.578   1.665   6.428 -0.1249 -0.0180 -0.7768
 8125SOL     OW35836   0.358   1.953  14.718 -0.1287  0.3556  0.1142
 8125SOL    HW135837   0.429   2.003  14.758 -1.0742  1.7756  0.0147
 8125SOL    HW235838   0.407   1.920  14.643 -1.8676  1.5709 -1.5560
 8126SOL     OW35839   0.491   0.238   3.450 -0.3372  0.2526 -0.3967
 8126SOL    HW135840   0.546   0.244   3.372 -1.4629 -0.8210 -1.2532
 8126SOL    HW235841   0.559   0.198   3.505 -0.1929 -1.6727 -1.9955
 8127SOL     OW35842   2.544   1.864  10.870  0.4071  0.0224  0.9283
 8127SOL    HW135843   2.449   1.860  10.882  0.2901 -0.8872 -0.3936
 8127SOL    HW235844   2.564   1.956  10.891  1.0418  0.3344 -1.0997
 8128SOL     OW35845   2.634   4.360   3.341 -0.0595 -0.3586  0.4002
 8128SOL    HW135846   2.604   4.420   3.273 -1.2625 -1.3713  0.0329
 8128SOL    HW235847   2.552   4.345   3.389 -0.3082 -2.3375 -0.6443
 8129SOL     OW35848   2.644   2.153   6.403  0.3355 -0.2213 -0.6614
 8129SOL    HW135849   2.601   2.237   6.418 -0.4374 -0.7559  0.1441
 8129SOL    HW235850   2.708   2.181   6.338  3.0355 -0.9476  1.6902
 8130SOL     OW35851   2.324   3.040   1.098  0.1264  0.0687 -0.0878
 8130SOL    HW135852   2.296   2.998   1.179  1.1408 -0.3232  0.0552
 8130SOL    HW235853   2.358   2.966   1.047 -2.7085 -0.9380 -0.5328
 8131SOL     OW35854   1.985   1.119   5.526  0.0844 -0.5688  0.0804
 8131SOL    HW135855   2.042   1.184   5.484  0.1609 -1.0249 -0.5127
 8131SOL    HW235856   1.994   1.036   5.481  3.1739 -0.2265  0.0517
 8132SOL     OW35857   0.289   2.700   3.973 -0.9213 -0.1537 -0.5283
 8132SOL    HW135858   0.246   2.706   3.888  0.1965 -2.5648 -1.2777
 8132SOL    HW235859   0.220   2.677   4.035  1.6359  0.2828  2.5072
 8133SOL     OW35860   3.780   1.029   7.305 -0.5427 -0.4948  0.3438
 8133SOL    HW135861   3.724   0.956   7.279 -1.5518  0.9875 -1.6012
 8133SOL    HW235862   3.821   1.000   7.387  2.0256  0.3742 -0.6160
 8134SOL     OW35863   1.525   3.844  10.276 -0.3678  0.2911  0.4486
 8134SOL    HW135864   1.543   3.895  10.197  1.7095  1.1255  1.4449
 8134SOL    HW235865   1.583   3.894  10.333 -1.6124  3.3449 -0.9488
 8135SOL     OW35866   0.772   4.556   4.694  0.7084  0.1775  0.5780
 8135SOL    HW135867   0.746   4.556   4.602  0.2646 -1.4165  0.6940
 8135SOL    HW235868   0.827   4.478   4.707 -1.2551 -1.2824  0.1924
 8136SOL     OW35869   1.853   0.816  12.099  0.4035  0.2836  0.0428
 8136SOL    HW135870   1.771   0.805  12.051  0.2857  3.0453 -0.4239
 8136SOL    HW235871   1.829   0.795  12.189  1.6503 -1.9458 -0.1452
 8137SOL     OW35872   4.465   1.082   2.406  0.1689  0.2565 -0.1860
 8137SOL    HW135873   4.378   1.102   2.372 -0.1414  1.4622  1.2869
 8137SOL    HW235874   4.515   1.044   2.334 -0.2207 -2.1468  0.8082
 8138SOL     OW35875   3.530   0.779   0.538  0.3798  0.3812  0.2800
 8138SOL    HW135876   3.556   0.867   0.511 -1.6575  1.1029  0.6447
 8138SOL    HW235877   3.457   0.765   0.477  1.8662 -2.1932 -0.8952
 8139SOL     OW35878   3.942   2.305  14.893  0.2048 -0.2534  0.5121
 8139SOL    HW135879   3.872   2.279  14.952  0.7923 -0.0616  1.2863
 8139SOL    HW235880   3.960   2.219  14.855  1.2150 -0.2122  0.9005
 8140SOL     OW35881   0.440   3.277   2.933 -0.0886  0.0185  0.1308
 8140SOL    HW135882   0.390   3.287   3.014 -2.9359  0.4022 -1.6883
 8140SOL    HW235883   0.433   3.190   2.894 -0.4051  0.4573 -0.7963
 8141SOL     OW35884   3.487   3.609   5.193 -0.4962  0.3922 -0.0703
 8141SOL    HW135885   3.504   3.646   5.106  0.7126 -1.7133 -0.7313
 8141SOL    HW235886   3.392   3.613   5.194 -0.4327  2.3906 -1.1144
 8142SOL     OW35887   3.503   0.292   9.435  0.8288 -0.2477  0.2160
 8142SOL    HW135888   3.580   0.263   9.387  0.6378 -0.4993  0.0632
 8142SOL    HW235889   3.440   0.228   9.403 -1.3360  1.0623  1.8481
 8143SOL     OW35890   4.021   0.226  10.479 -0.2156  0.5167 -0.5616
 8143SOL    HW135891   4.108   0.246  10.514  0.0978 -0.0905 -1.0052
 8143SOL    HW235892   4.043   0.188  10.394 -1.0549 -1.3556  0.0849
 8144SOL     OW35893   2.119   4.311   7.139  0.3120 -0.1800  0.7579
 8144SOL    HW135894   2.214   4.328   7.143  0.4963 -1.1937  0.8482
 8144SOL    HW235895   2.112   4.339   7.048 -0.8348 -0.7963  0.6646
 8145SOL     OW35896   1.652   0.209   8.062 -0.4926  0.1315 -0.1745
 8145SOL    HW135897   1.738   0.220   8.101 -0.8972 -1.6116  1.2281
 8145SOL    HW235898   1.670   0.165   7.978  0.5574 -1.8094  1.0667
 8146SOL     OW35899   2.207   4.187  12.867 -0.2184 -0.3837  0.6065
 8146SOL    HW135900   2.233   4.142  12.948  1.1615  1.1742  1.0256
 8146SOL    HW235901   2.164   4.116  12.818 -1.0603  1.1408 -0.8577
 8147SOL     OW35902   3.846   0.768   2.494 -0.0701 -0.0913 -0.3776
 8147SOL    HW135903   3.848   0.818   2.413  0.6837 -0.6597 -0.7059
 8147SOL    HW235904   3.812   0.683   2.467 -1.0702  0.3062 -0.3688
 8148SOL     OW35905   3.511   3.751   5.406  0.8190 -0.8346  0.6680
 8148SOL    HW135906   3.419   3.778   5.401  0.7073 -1.7355 -2.5625
 8148SOL    HW235907   3.511   3.680   5.342 -2.7993 -0.0043 -0.3037
 8149SOL     OW35908   2.332   3.989  13.653 -0.1567  0.3465 -0.2215
 8149SOL    HW135909   2.403   3.925  13.661  3.0131  4.0034  0.8288
 8149SOL    HW235910   2.377   4.070  13.676  1.7184 -0.5370 -0.7998
 8150SOL     OW35911   2.368   2.277   8.729  0.3431 -0.4789  0.3516
 8150SOL    HW135912   2.342   2.207   8.670  1.7668 -0.3676 -0.3920
 8150SOL    HW235913   2.428   2.227   8.784  2.8089  0.3218 -1.6357
 8151SOL     OW35914   1.704   2.409  15.003 -0.3894 -0.3481  0.2983
 8151SOL    HW135915   1.738   2.498  14.995 -1.9672  0.3399  1.2178
 8151SOL    HW235916   1.777   2.351  15.026 -1.8857 -0.6754  4.2649
 8152SOL     OW35917   2.199   0.772   5.363 -0.3388  0.3327 -0.2664
 8152SOL    HW135918   2.291   0.776   5.336 -0.0482  0.2830  0.7270
 8152SOL    HW235919   2.211   0.728   5.447  1.6193  0.2103 -0.6065
 8153SOL     OW35920   3.330   2.779   1.215 -0.0608 -0.0359  0.1151
 8153SOL    HW135921   3.421   2.799   1.195  0.2255 -0.7097  0.7438
 8153SOL    HW235922   3.296   2.746   1.131 -2.3416  1.0835  0.5750
 8154SOL     OW35923   2.931   0.271   7.972 -0.0135  0.0075  0.3631
 8154SOL    HW135924   2.943   0.354   8.017 -0.2299  1.2826 -1.9878
 8154SOL    HW235925   2.982   0.219   8.035 -1.3336 -1.9695 -0.1803
 8155SOL     OW35926   0.737   3.186   3.468 -0.4001  0.6270 -0.2485
 8155SOL    HW135927   0.799   3.201   3.397  0.2983 -1.7603 -0.1482
 8155SOL    HW235928   0.672   3.252   3.446  0.1708  2.0742  2.4544
 8156SOL     OW35929   4.028   1.744   6.114  0.4529  0.7250 -0.4999
 8156SOL    HW135930   3.941   1.711   6.138  0.8481  0.0853  0.0395
 8156SOL    HW235931   3.998   1.835   6.103 -1.1302  0.2382 -0.2918
 8157SOL     OW35932   2.661   2.357   5.655 -0.3476 -0.5515  0.0295
 8157SOL    HW135933   2.688   2.398   5.737  3.5434 -1.1393 -0.9627
 8157SOL    HW235934   2.637   2.426   5.593  0.7516 -1.5722 -1.5296
 8158SOL     OW35935   0.137   1.731   7.924 -0.0786 -0.1003  0.1613
 8158SOL    HW135936   0.168   1.680   7.999  0.9393 -0.0860 -0.2404
 8158SOL    HW235937   0.200   1.803   7.927 -1.1270  0.8112  0.2642
 8159SOL     OW35938   4.286   2.458   7.586 -0.6830 -0.1042 -0.8271
 8159SOL    HW135939   4.283   2.541   7.634 -0.5243 -0.9907  0.7179
 8159SOL    HW235940   4.193   2.433   7.581 -0.2789 -1.6799 -0.6005
 8160SOL     OW35941   1.952   4.556  15.140  0.0122 -0.2322 -0.6446
 8160SOL    HW135942   1.974   4.469  15.106  2.0459  0.0961 -0.1647
 8160SOL    HW235943   1.895   4.582  15.068 -3.3521 -2.3062  1.2987
 8161SOL     OW35944   0.983   1.737  15.595  0.0408  0.7276 -0.3980
 8161SOL    HW135945   0.964   1.806  15.659  2.0795 -1.1528  2.2197
 8161SOL    HW235946   0.922   1.752  15.522 -1.2465 -2.5766 -0.0108
 8162SOL     OW35947   0.707   2.287   4.674  0.0509  0.4718 -0.2135
 8162SOL    HW135948   0.736   2.240   4.752 -0.6190  0.8239  0.2414
 8162SOL    HW235949   0.705   2.212   4.614 -0.6811  1.5153 -1.5017
 8163SOL     OW35950   0.044   0.981   3.553  0.0076 -0.7234  0.6491
 8163SOL    HW135951   0.039   1.022   3.467 -1.1166  0.3149  1.2163
 8163SOL    HW235952   4.679   0.941   3.548  0.6712 -1.8310 -1.8062
 8164SOL     OW35953   2.448   2.892   3.444 -0.3655  0.5287 -0.0159
 8164SOL    HW135954   2.470   2.947   3.520  0.0769 -0.2486  0.4326
 8164SOL    HW235955   2.391   2.831   3.491  0.5004 -0.4578 -0.2232
 8165SOL     OW35956   2.891   2.576   3.253  0.0466 -0.4142 -0.9324
 8165SOL    HW135957   2.945   2.620   3.318  0.0439 -0.2578 -1.0340
 8165SOL    HW235958   2.818   2.638   3.261  2.0209  1.5795  1.7229
 8166SOL     OW35959   1.311   4.213   6.200  0.1728 -0.3946  0.2288
 8166SOL    HW135960   1.255   4.237   6.274  1.3057  0.9412  0.6638
 8166SOL    HW235961   1.249   4.219   6.127 -2.1247 -2.1030  2.0532
 8167SOL     OW35962   2.061   4.289  13.702 -0.6251  0.6382  0.3700
 8167SOL    HW135963   2.009   4.321  13.775 -0.5252  1.7130 -0.0387
 8167SOL    HW235964   2.075   4.200  13.734  0.0017  0.0756 -1.4348
 8168SOL     OW35965   1.660   0.650  15.442 -0.2794  0.2682  0.4140
 8168SOL    HW135966   1.691   0.683  15.526 -0.9863  1.3147  0.2555
 8168SOL    HW235967   1.584   0.707  15.437 -1.2084 -0.9584  0.6319
 8169SOL     OW35968   0.903   3.523   6.981  0.5279 -0.9056 -0.9339
 8169SOL    HW135969   0.928   3.546   6.892  1.6741  0.8700 -0.1363
 8169SOL    HW235970   0.808   3.530   6.972  0.3053 -2.4825  0.1026
 8170SOL     OW35971   0.893   2.052  13.696  0.1592  0.0977 -0.1580
 8170SOL    HW135972   0.970   2.109  13.698 -0.3573  0.7295  2.3964
 8170SOL    HW235973   0.930   1.965  13.710 -1.9972 -0.7165  0.4974
 8171SOL     OW35974   3.555   4.443   6.012 -0.2107 -0.4988 -0.5650
 8171SOL    HW135975   3.479   4.404   6.054  0.6929 -0.2895  1.2691
 8171SOL    HW235976   3.536   4.436   5.918  1.1845  2.3509 -1.0544
 8172SOL     OW35977   1.502   3.932   4.082  0.1563 -0.4011  0.5673
 8172SOL    HW135978   1.485   3.974   3.998  2.3988  0.9808  0.7917
 8172SOL    HW235979   1.483   4.002   4.144 -0.7041 -1.4366  1.4817
 8173SOL     OW35980   1.256   2.362   7.840 -0.3971 -0.0995 -0.2489
 8173SOL    HW135981   1.170   2.343   7.877 -0.9702  1.1635 -0.9265
 8173SOL    HW235982   1.245   2.330   7.750 -1.6968 -1.2159  0.3015
 8174SOL     OW35983   4.462   1.508   1.061  0.0603 -0.0333 -0.5499
 8174SOL    HW135984   4.541   1.481   1.108  0.4163 -0.0546 -1.1645
 8174SOL    HW235985   4.464   1.604   1.060 -1.9514  0.0181  0.6535
 8175SOL     OW35986   1.922   2.195  14.354 -0.4257  0.7974 -0.1182
 8175SOL    HW135987   1.990   2.161  14.412  0.2419  0.4514 -1.1064
 8175SOL    HW235988   1.897   2.277  14.396  0.7580  1.3074 -0.4430
 8176SOL     OW35989   3.561   2.597   7.860  0.4102 -0.1951 -0.5212
 8176SOL    HW135990   3.609   2.676   7.836 -1.7840  1.8273  1.8309
 8176SOL    HW235991   3.632   2.533   7.850  0.8288  0.0696  0.7782
 8177SOL     OW35992   3.194   1.578   7.292 -0.0273 -0.3913 -0.4607
 8177SOL    HW135993   3.219   1.589   7.384  2.6683  4.6540 -1.8280
 8177SOL    HW235994   3.265   1.622   7.247 -1.0264  1.5388 -0.1423
 8178SOL     OW35995   3.835   0.593   5.469  0.4906  1.0605 -0.8123
 8178SOL    HW135996   3.819   0.589   5.563  0.0284 -2.7771 -1.0578
 8178SOL    HW235997   3.905   0.659   5.461 -0.3287  2.2883  2.1401
 8179SOL     OW35998   1.366   2.665   6.917 -0.0103  0.1902  0.2163
 8179SOL    HW135999   1.338   2.754   6.900  0.0664  0.1470 -0.1466
 8179SOL    HW236000   1.451   2.695   6.950  0.8440 -0.1477 -1.6349
 8180SOL     OW36001   2.238   2.129   7.223  0.0201  0.0087 -0.3309
 8180SOL    HW136002   2.313   2.130   7.163  0.5502 -1.4241  0.3214
 8180SOL    HW236003   2.225   2.035   7.232  1.1440  0.0233  1.4616
 8181SOL     OW36004   2.572   4.002   2.201  0.5921  0.2403  0.0063
 8181SOL    HW136005   2.587   4.089   2.165 -1.1489  0.9098  0.9130
 8181SOL    HW236006   2.570   4.027   2.293 -0.4099  0.9391 -0.2078
 8182SOL     OW36007   1.049   1.193   0.684  0.1203  0.0473 -0.0042
 8182SOL    HW136008   1.135   1.198   0.726 -0.4783  0.2801  1.1909
 8182SOL    HW236009   1.004   1.133   0.743 -1.0315 -0.7615 -1.7036
 8183SOL     OW36010   2.354   1.745  16.849  1.4285 -0.1953 -0.6446
 8183SOL    HW136011   2.339   1.651  16.847 -1.9949  0.3658 -0.6242
 8183SOL    HW236012   2.421   1.742  16.917  0.9905  0.5533 -0.1846
 8184SOL     OW36013   2.693   4.151   6.745  0.4367  0.1748 -0.2885
 8184SOL    HW136014   2.637   4.212   6.793  0.9938  0.0948  0.4631
 8184SOL    HW236015   2.722   4.211   6.677  3.8534 -1.0636  0.0830
 8185SOL     OW36016   3.790   3.873   9.802  0.2264  0.1422  0.3198
 8185SOL    HW136017   3.704   3.856   9.763  0.6365 -0.3222 -0.3937
 8185SOL    HW236018   3.788   3.963   9.833  4.0498  0.1519  0.5331
 8186SOL     OW36019   4.263   0.210  10.626  0.1663 -0.5589 -0.1612
 8186SOL    HW136020   4.328   0.141  10.639  0.8166  0.0756 -0.0162
 8186SOL    HW236021   4.301   0.263  10.556  1.5702 -2.2637 -0.6963
 8187SOL     OW36022   0.974   3.860   4.746  0.0830  0.5977  0.2778
 8187SOL    HW136023   1.048   3.918   4.764  1.2162 -0.9449  0.6266
 8187SOL    HW236024   1.011   3.814   4.670 -1.0560 -0.6114  0.4548
 8188SOL     OW36025   2.816   3.381  17.144  0.4358 -0.0053  0.0718
 8188SOL    HW136026   2.878   3.308  17.140  0.6383  0.1279  0.7264
 8188SOL    HW236027   2.780   3.385  17.056  1.3102 -2.2509 -0.3908
 8189SOL     OW36028   2.612   0.719   3.601 -0.1114 -0.1987 -0.3659
 8189SOL    HW136029   2.586   0.705   3.510 -0.2983 -0.1258 -0.3244
 8189SOL    HW236030   2.621   0.815   3.599  1.3927 -0.3003  2.6309
 8190SOL     OW36031   3.154   4.488  16.008  0.1997 -0.5479 -0.4294
 8190SOL    HW136032   3.249   4.489  16.021  0.3063  1.6000 -1.2370
 8190SOL    HW236033   3.153   4.446  15.922 -1.3510  2.4541 -1.8947
 8191SOL     OW36034   2.544   2.150   2.138  0.1829 -0.2709 -0.3316
 8191SOL    HW136035   2.619   2.090   2.130 -0.7849 -1.7164  1.4111
 8191SOL    HW236036   2.517   2.138   2.047 -2.4306  2.4687  0.0978
 8192SOL     OW36037   2.928   4.590  12.388  0.1488  0.2175  0.3881
 8192SOL    HW136038   3.023   4.599  12.395  0.3083 -0.3199 -1.0429
 8192SOL    HW236039   2.910   4.632  12.304 -0.7883  0.1314  0.5439
 8193SOL     OW36040   4.043   3.128   4.935  0.1160  0.2973 -0.1727
 8193SOL    HW136041   4.025   3.035   4.930  3.1230 -0.3037 -0.2533
 8193SOL    HW236042   4.114   3.133   5.000  2.0040 -0.5372 -2.1602
 8194SOL     OW36043   0.526   1.831  16.805  0.8071 -0.1600 -0.0317
 8194SOL    HW136044   0.517   1.858  16.714 -2.6830  0.6796  0.5706
 8194SOL    HW236045   0.444   1.782  16.811  0.6405 -0.1552 -2.4561
 8195SOL     OW36046   3.197   2.144  15.717  0.0637  0.4294  0.2832
 8195SOL    HW136047   3.120   2.175  15.669 -0.3246  0.4045  0.8881
 8195SOL    HW236048   3.262   2.124  15.650 -2.0219  0.6916 -1.8419
 8196SOL     OW36049   2.491   3.504   1.961 -0.5202 -0.1630  0.4447
 8196SOL    HW136050   2.491   3.570   2.030 -1.6293 -1.0263  1.2753
 8196SOL    HW236051   2.404   3.464   1.969  0.1499 -1.9706 -1.3083
 8197SOL     OW36052   1.710   2.209   5.139 -0.1467 -0.2075 -0.5841
 8197SOL    HW136053   1.656   2.141   5.098 -0.7360 -0.2846  0.3182
 8197SOL    HW236054   1.676   2.283   5.089 -2.0455  0.3488  1.5140
 8198SOL     OW36055   2.368   1.471   1.750 -0.3721  0.8109 -0.1368
 8198SOL    HW136056   2.335   1.423   1.674  2.2203 -0.8405 -0.2018
 8198SOL    HW236057   2.299   1.460   1.815  0.4337 -0.1241  0.5610
 8199SOL     OW36058   4.049   2.090  12.536 -0.1191 -0.5362 -0.1766
 8199SOL    HW136059   4.109   2.162  12.554  0.7129 -0.9451 -1.2980
 8199SOL    HW236060   4.023   2.110  12.446 -0.7846  0.3592  0.2138
 8200SOL     OW36061   0.264   3.660   1.128 -0.3584 -0.3972  0.7203
 8200SOL    HW136062   0.251   3.583   1.184 -1.3419  0.6668  1.9428
 8200SOL    HW236063   0.174   3.673   1.097 -0.0674 -0.8613 -0.2951
 8201SOL     OW36064   0.098   1.596   5.907 -0.4977 -0.0348 -0.2276
 8201SOL    HW136065   0.106   1.501   5.911  0.7858 -0.0012 -1.8342
 8201SOL    HW236066   0.168   1.625   5.966 -0.9094  0.3476  0.0742
 8202SOL     OW36067   3.962   0.223   2.984  0.2749  0.3291 -0.1490
 8202SOL    HW136068   3.971   0.142   2.934 -2.5192 -1.0327  1.5813
 8202SOL    HW236069   3.994   0.282   2.915  1.9497 -0.6044 -0.1697
 8203SOL     OW36070   1.421   1.163  10.224 -0.3230  0.7581  0.1321
 8203SOL    HW136071   1.370   1.170  10.143 -0.1459 -0.1481 -0.0565
 8203SOL    HW236072   1.496   1.112  10.193 -0.8430  0.1033 -0.0511
 8204SOL     OW36073   2.704   4.033   8.283 -0.1071 -0.5262 -0.1312
 8204SOL    HW136074   2.646   3.963   8.253 -1.2305 -0.8344  2.8148
 8204SOL    HW236075   2.732   4.006   8.370 -1.1183  1.4835  0.8286
 8205SOL     OW36076   1.332   1.760  15.014 -0.4394  0.0336  0.3738
 8205SOL    HW136077   1.396   1.830  15.021  1.5010 -1.8311  1.1961
 8205SOL    HW236078   1.387   1.683  15.032 -1.2371 -0.5471  0.3429
 8206SOL     OW36079   3.480   3.307   0.642  0.3951  0.4475 -0.3526
 8206SOL    HW136080   3.566   3.348   0.647 -0.7438  2.5910  1.5209
 8206SOL    HW236081   3.452   3.353   0.563 -1.0182 -2.8711 -1.8140
 8207SOL     OW36082   1.658   3.033   5.899 -0.5037 -0.0722  0.3293
 8207SOL    HW136083   1.675   3.049   5.992 -2.4578 -1.5925  0.9448
 8207SOL    HW236084   1.729   2.970   5.886 -1.8232 -1.7173  1.1959
 8208SOL     OW36085   0.515   3.062   2.565 -0.5800 -0.5411  0.1609
 8208SOL    HW136086   0.506   3.129   2.498 -0.0530 -0.5898  0.0389
 8208SOL    HW236087   0.440   3.073   2.624 -1.3979 -1.4377 -0.7032
 8209SOL     OW36088   0.939   3.153   2.425 -0.7971 -0.0142  0.3335
 8209SOL    HW136089   1.020   3.149   2.373 -0.6899 -1.6075  0.6243
 8209SOL    HW236090   0.910   3.063   2.418 -0.9585  0.1112 -0.5484
 8210SOL     OW36091   3.713   3.808  16.038  0.3641 -0.2789  0.4856
 8210SOL    HW136092   3.765   3.888  16.037  1.2068 -0.8865 -3.7673
 8210SOL    HW236093   3.768   3.745  16.084 -1.2020 -1.1300  1.2028
 8211SOL     OW36094   2.684   4.463   7.551 -0.0644 -0.6125 -0.3277
 8211SOL    HW136095   2.719   4.548   7.576  2.3647 -1.2095 -1.7051
 8211SOL    HW236096   2.631   4.444   7.629 -1.7351  1.0910 -1.0557
 8212SOL     OW36097   1.153   3.060  15.906 -0.2845  0.1092  0.0422
 8212SOL    HW136098   1.119   3.070  15.817  1.7464 -0.6785 -0.8378
 8212SOL    HW236099   1.066   3.056  15.945 -0.6954 -0.2988 -0.9372
 8213SOL     OW36100   0.883   3.845   7.095  0.3140 -0.2828  0.0884
 8213SOL    HW136101   0.840   3.789   7.159  4.2996 -1.3772  1.7871
 8213SOL    HW236102   0.945   3.785   7.053  1.0502  1.0853 -0.8077
 8214SOL     OW36103   3.158   0.327  17.406 -0.4148  0.0663  0.5247
 8214SOL    HW136104   3.159   0.414  17.366  0.1314  0.1841  0.7885
 8214SOL    HW236105   3.223   0.321  17.476  0.6861  2.6490 -0.2523
 8215SOL     OW36106   1.000   3.337   6.334  0.1723  0.5152  0.2969
 8215SOL    HW136107   0.983   3.396   6.261  1.2210  1.4549  0.8193
 8215SOL    HW236108   1.080   3.296   6.301 -0.8105 -0.4385 -0.8976
 8216SOL     OW36109   0.358   4.082  15.314 -0.1024  0.3248  0.0909
 8216SOL    HW136110   0.331   4.050  15.401  1.5754 -0.1142  0.4516
 8216SOL    HW236111   0.275   4.080  15.266 -0.2465 -2.2547  0.4160
 8217SOL     OW36112   4.579   2.236   8.474 -0.2012 -0.3859 -0.1203
 8217SOL    HW136113   4.668   2.272   8.476 -0.4692  0.2546  0.5207
 8217SOL    HW236114   4.532   2.293   8.413  1.9144  0.3380 -1.0785
 8218SOL     OW36115   2.344   2.148   3.680 -0.2351 -0.1980 -0.7586
 8218SOL    HW136116   2.355   2.081   3.612  1.2115 -1.5140  0.7528
 8218SOL    HW236117   2.333   2.223   3.622  0.6668 -0.0553 -0.7465
 8219SOL     OW36118   0.400   1.156   9.013 -0.2602  0.2834 -0.0009
 8219SOL    HW136119   0.474   1.185   8.960  1.6620  0.9568  2.9990
 8219SOL    HW236120   0.441   1.148   9.099 -0.4210  0.5133  0.0961
 8220SOL     OW36121   1.230   2.434   6.396 -0.1130 -0.3962 -0.0521
 8220SOL    HW136122   1.269   2.496   6.458  1.3107  0.8864 -2.2152
 8220SOL    HW236123   1.256   2.353   6.439  0.2040 -0.4743 -0.3848
 8221SOL     OW36124   0.171   1.289   6.920 -0.2219  0.0140 -0.2601
 8221SOL    HW136125   0.221   1.337   6.986 -0.3422 -1.8812  1.2124
 8221SOL    HW236126   0.092   1.343   6.915  0.6289  1.3730  0.9526
 8222SOL     OW36127   1.483   4.099   3.856  0.1834 -0.2737 -0.2525
 8222SOL    HW136128   1.451   4.188   3.874  0.9392 -0.4345  1.9634
 8222SOL    HW236129   1.569   4.108   3.816  0.3157  1.3134  0.3627
 8223SOL     OW36130   4.449   1.986   8.241  0.2537  0.4439  0.4257
 8223SOL    HW136131   4.434   2.079   8.256 -0.3307  0.4968 -0.5022
 8223SOL    HW236132   4.488   1.967   8.326  2.8028 -1.6207 -1.2123
 8224SOL     OW36133   0.168   2.668   6.967  0.1551  0.1665 -0.0071
 8224SOL    HW136134   0.191   2.597   7.027  0.5182  0.5209  0.2719
 8224SOL    HW236135   0.096   2.710   7.013  0.7304  1.2077 -0.0602
 8225SOL     OW36136   1.949   2.459  17.353 -0.0837  0.6467  0.5030
 8225SOL    HW136137   1.874   2.508  17.387  0.4853  0.5682  1.8758
 8225SOL    HW236138   1.938   2.374  17.395 -0.6334 -0.3348 -1.6559
 8226SOL     OW36139   3.567   3.619   2.993 -1.0237  0.3958 -0.2878
 8226SOL    HW136140   3.602   3.571   3.068  0.8937 -0.6923 -1.8898
 8226SOL    HW236141   3.620   3.698   2.987 -0.7394  0.4207  2.4232
 8227SOL     OW36142   4.696   4.214  16.389 -0.4289  0.7231  0.0418
 8227SOL    HW136143   0.022   4.169  16.459 -1.3067  1.2019  0.9375
 8227SOL    HW236144   0.024   4.170  16.320 -0.1734  1.2584 -0.1186
 8228SOL     OW36145   4.004   3.474   9.220 -0.2175  0.7081  0.3853
 8228SOL    HW136146   3.985   3.457   9.127  0.3445 -1.0313  0.5792
 8228SOL    HW236147   3.917   3.495   9.253  0.1990 -0.2408  2.0768
 8229SOL     OW36148   3.348   4.107   1.814 -0.1804  0.2821 -0.4447
 8229SOL    HW136149   3.327   4.200   1.816 -0.5278  0.2282 -1.5151
 8229SOL    HW236150   3.426   4.115   1.869 -0.9616 -2.2929  1.0328
 8230SOL     OW36151   3.288   3.342   4.971 -0.6258 -0.3962 -0.0428
 8230SOL    HW136152   3.299   3.247   4.968 -1.1761 -0.3839 -2.7852
 8230SOL    HW236153   3.346   3.362   4.897 -1.2792 -1.3353 -0.8202
 8231SOL     OW36154   1.499   0.585   6.209  0.2193  0.2614  0.4770
 8231SOL    HW136155   1.562   0.521   6.176 -0.5514  1.0401 -2.5061
 8231SOL    HW236156   1.514   0.592   6.303 -1.5730  1.4782  0.6695
 8232SOL     OW36157   1.677   3.481   1.305 -0.5740 -0.1177  0.0821
 8232SOL    HW136158   1.675   3.436   1.390 -3.1207  2.6100  1.4766
 8232SOL    HW236159   1.610   3.550   1.310 -0.6360  0.0365 -2.7572
 8233SOL     OW36160   1.833   2.103   8.050  0.4640  0.0615 -0.0348
 8233SOL    HW136161   1.774   2.068   7.983 -1.8484 -0.1142  2.0938
 8233SOL    HW236162   1.824   2.029   8.110 -0.0905  0.3649  0.2475
 8234SOL     OW36163   2.731   0.130   4.645  0.0214 -0.0305  0.3112
 8234SOL    HW136164   2.757   0.203   4.589 -1.1237  2.5818  3.1852
 8234SOL    HW236165   2.658   0.089   4.599 -0.6289 -0.5569  1.7977
 8235SOL     OW36166   3.517   0.779   2.444 -0.6194 -0.2213 -0.6238
 8235SOL    HW136167   3.535   0.836   2.519  0.3490 -2.1320  0.5860
 8235SOL    HW236168   3.446   0.726   2.479  1.8769 -1.9650  1.7777
 8236SOL     OW36169   2.225   1.168   7.769 -0.4193  0.2370 -0.7512
 8236SOL    HW136170   2.272   1.092   7.735  0.2658 -0.2327  1.2510
 8236SOL    HW236171   2.193   1.122   7.846 -0.5863 -1.2582 -1.7025
 8237SOL     OW36172   0.372   1.084   3.245 -0.6522  0.4470 -0.6279
 8237SOL    HW136173   0.357   0.990   3.250 -0.7565  0.5742  1.4911
 8237SOL    HW236174   0.401   1.104   3.334  0.0969  0.4895 -0.8852
 8238SOL     OW36175   4.562   3.752   3.164 -0.7644  0.9715 -0.3981
 8238SOL    HW136176   4.640   3.807   3.160  0.3334 -0.4768  1.1434
 8238SOL    HW236177   4.530   3.746   3.074 -0.1081  0.3824 -0.5885
 8239SOL     OW36178   2.510   1.789  17.071  0.2584 -0.1556  0.3808
 8239SOL    HW136179   2.494   1.858  17.136 -0.7773  0.1551 -0.2021
 8239SOL    HW236180   2.604   1.804  17.071  0.0331  1.3311 -0.2224
 8240SOL     OW36181   4.095   4.040  13.667  0.1007  0.1308  0.3589
 8240SOL    HW136182   4.126   4.114  13.614 -0.6370  0.9852  1.1126
 8240SOL    HW236183   4.034   4.009  13.600  0.2929  0.2403  0.1358
 8241SOL     OW36184   4.336   3.708   7.564 -0.9902  0.0505 -0.2665
 8241SOL    HW136185   4.249   3.679   7.536 -1.1453 -1.2640  1.6134
 8241SOL    HW236186   4.393   3.655   7.508 -3.9746 -1.7610 -1.5854
 8242SOL     OW36187   2.216   4.131   1.471  0.4483 -0.4849 -0.2187
 8242SOL    HW136188   2.255   4.207   1.429  0.0120 -1.2730 -2.0608
 8242SOL    HW236189   2.143   4.112   1.411  1.2727 -1.4629 -0.9094
 8243SOL     OW36190   2.675   3.648   6.718  0.0015 -0.0714 -1.0455
 8243SOL    HW136191   2.741   3.619   6.781 -0.5022 -1.2732 -1.0760
 8243SOL    HW236192   2.604   3.589   6.745  0.4892 -0.6014 -0.9140
 8244SOL     OW36193   3.432   3.076   6.164  0.2115  0.1330 -0.2498
 8244SOL    HW136194   3.493   3.042   6.230  0.6505  2.8244  0.7648
 8244SOL    HW236195   3.353   3.069   6.217  0.3784 -0.9163 -0.1385
 8245SOL     OW36196   0.841   0.314   1.956  0.0970 -0.3820 -0.4723
 8245SOL    HW136197   0.827   0.360   1.873  1.5453  0.3717 -0.2979
 8245SOL    HW236198   0.865   0.390   2.010  1.2876 -1.2443  0.2187
 8246SOL     OW36199   3.822   1.369   3.529 -0.3097  0.5482  0.2963
 8246SOL    HW136200   3.798   1.442   3.472 -0.3521 -0.0054 -0.4009
 8246SOL    HW236201   3.791   1.389   3.617 -0.0587  1.7520  0.1039
 8247SOL     OW36202   3.156   0.724   6.071 -0.2279 -0.3106  0.3209
 8247SOL    HW136203   3.166   0.815   6.043  1.1432 -0.3049  0.8600
 8247SOL    HW236204   3.221   0.676   6.021 -0.0422 -0.3014  0.5525
 8248SOL     OW36205   0.040   4.606   2.804  0.4210 -0.3851 -0.0123
 8248SOL    HW136206   0.004   4.681   2.852  2.0970 -0.3618  1.1804
 8248SOL    HW236207   0.133   4.627   2.801  1.0079 -3.0194 -0.1807
 8249SOL     OW36208   0.556   0.924   5.616 -0.4759  0.4485 -0.6254
 8249SOL    HW136209   0.515   0.998   5.572 -0.6751  0.7745  0.0993
 8249SOL    HW236210   0.481   0.898   5.670  0.0878 -0.1823 -0.1357
 8250SOL     OW36211   2.550   1.267   6.718  0.0943  0.0469 -0.1174
 8250SOL    HW136212   2.461   1.252   6.748  0.3208  0.7277  0.8970
 8250SOL    HW236213   2.603   1.232   6.789 -0.3827  1.5494  0.9824
 8251SOL     OW36214   4.486   0.586   5.955 -0.1604 -0.2100  0.1567
 8251SOL    HW136215   4.447   0.578   6.042  0.3022  2.2036  0.5895
 8251SOL    HW236216   4.426   0.534   5.901  0.5842 -2.2487  1.2544
 8252SOL     OW36217   0.381   0.031   5.592  0.3199  0.0042  0.1845
 8252SOL    HW136218   0.371   4.657   5.602  0.7676 -0.2505 -1.6252
 8252SOL    HW236219   0.446   0.039   5.522  0.8425 -0.3616  0.6279
 8253SOL     OW36220   3.434   3.449  17.513  0.4262 -0.0330 -0.1044
 8253SOL    HW136221   3.347   3.418  17.541  1.5870 -2.7178  0.5468
 8253SOL    HW236222   3.445   3.536  17.551  1.9346 -0.4761  0.4400
 8254SOL     OW36223   2.322   4.130  13.138 -0.3366 -0.3013 -0.0764
 8254SOL    HW136224   2.330   4.063  13.205 -0.0521 -0.6925 -0.5106
 8254SOL    HW236225   2.412   4.125  13.106 -0.1044 -0.3161  0.5809
 8255SOL     OW36226   2.715   0.158  16.349 -0.5614 -0.1489 -0.1988
 8255SOL    HW136227   2.659   0.088  16.381 -0.0549 -0.2770  0.4037
 8255SOL    HW236228   2.761   0.125  16.272 -2.1759 -1.6958 -0.4854
 8256SOL     OW36229   1.056   1.451   9.218 -0.1054 -0.0388  0.1010
 8256SOL    HW136230   1.001   1.530   9.214 -0.9954 -0.6031  1.0724
 8256SOL    HW236231   1.111   1.478   9.291 -0.1750  0.0966  0.1050
 8257SOL     OW36232   3.745   4.659   4.040  0.2371  0.4867  0.7218
 8257SOL    HW136233   3.690   4.584   4.060  0.1459 -0.0433 -1.5536
 8257SOL    HW236234   3.690   4.704   3.976  0.7321  0.0978  0.0286
 8258SOL     OW36235   1.514   4.458  14.064 -0.0465 -0.1875 -0.0934
 8258SOL    HW136236   1.474   4.424  14.144  2.3052 -1.3950  0.5807
 8258SOL    HW236237   1.506   4.393  13.994 -0.3508  0.4121 -0.6155
 8259SOL     OW36238   2.545   2.743   7.169 -0.5290  0.4905 -0.3959
 8259SOL    HW136239   2.629   2.704   7.142 -0.1329  0.4104  0.9259
 8259SOL    HW236240   2.486   2.693   7.113 -0.6729 -0.5375  0.6709
 8260SOL     OW36241   1.669   1.544   0.969 -0.6694  0.0763  0.3155
 8260SOL    HW136242   1.762   1.562   0.964 -0.2907 -2.0108  0.0149
 8260SOL    HW236243   1.631   1.632   0.976 -1.4891 -0.1798 -0.8216
 8261SOL     OW36244   2.811   0.454   3.233  0.6911 -0.1758  0.0314
 8261SOL    HW136245   2.797   0.425   3.323 -0.1565 -6.1265 -2.0261
 8261SOL    HW236246   2.906   0.457   3.225  0.7300 -1.1499  0.1097
 8262SOL     OW36247   0.646   1.152   1.909  0.6074 -0.9422  0.2440
 8262SOL    HW136248   0.619   1.090   1.978  0.2557 -2.6093 -1.3824
 8262SOL    HW236249   0.741   1.145   1.910  0.5262 -1.6648  2.1746
 8263SOL     OW36250   2.806   2.294   6.192 -0.4698  0.0797 -0.0663
 8263SOL    HW136251   2.850   2.277   6.109  0.8632 -0.7611  0.8121
 8263SOL    HW236252   2.871   2.356   6.226 -1.3905  0.5715  0.7935
 8264SOL     OW36253   0.238   0.671   4.614  0.4065 -0.1729  0.2512
 8264SOL    HW136254   0.200   0.692   4.699 -1.3562 -1.5178 -0.2016
 8264SOL    HW236255   0.176   0.607   4.581  0.3813 -0.8723  1.6710
 8265SOL     OW36256   3.914   4.398  14.832 -0.1843  0.4336 -0.1232
 8265SOL    HW136257   3.939   4.324  14.777 -0.7593 -0.2640  0.5492
 8265SOL    HW236258   3.925   4.357  14.917  1.8818 -0.3207 -0.7667
 8266SOL     OW36259   2.123   4.338  13.140  0.1956 -0.4163  0.3939
 8266SOL    HW136260   2.171   4.256  13.151  0.5048 -0.1142  1.2579
 8266SOL    HW236261   2.149   4.401  13.207 -2.3205  1.0282  0.0254
 8267SOL     OW36262   1.528   3.687   2.537  0.3214 -0.1533  0.1259
 8267SOL    HW136263   1.621   3.682   2.518 -0.1347 -4.5523 -1.0028
 8267SOL    HW236264   1.511   3.714   2.628  2.2405  0.7909  0.1862
 8268SOL     OW36265   0.917   3.949   2.419 -0.6917 -0.2210  0.3780
 8268SOL    HW136266   0.871   3.917   2.341 -0.3537 -0.7889  0.4100
 8268SOL    HW236267   0.866   3.909   2.489  0.7474  1.1183  2.1924
 8269SOL     OW36268   3.110   2.624  12.135 -0.2478  0.0907 -0.3718
 8269SOL    HW136269   3.154   2.704  12.110 -0.0904  0.0158 -0.3317
 8269SOL    HW236270   3.175   2.580  12.190 -0.7452 -0.4320 -0.1978
 8270SOL     OW36271   3.831   4.137   5.909  0.0543 -0.3469  0.3265
 8270SOL    HW136272   3.922   4.157   5.887  0.0987 -1.5756 -0.6546
 8270SOL    HW236273   3.830   4.044   5.887 -1.6758 -0.6149  1.5215
 8271SOL     OW36274   0.540   1.808   2.501 -0.0186  0.2520  0.8684
 8271SOL    HW136275   0.529   1.777   2.590 -0.5360  1.0837  1.0956
 8271SOL    HW236276   0.632   1.834   2.504 -0.3463  1.8326 -2.3761
 8272SOL     OW36277   0.136   0.287   7.093 -0.1530 -0.2466 -0.1503
 8272SOL    HW136278   0.139   0.236   7.012 -1.6099  1.0690 -1.0088
 8272SOL    HW236279   0.222   0.329   7.089 -0.6041  0.8154  1.1363
 8273SOL     OW36280   2.867   0.843   6.903 -0.5790 -0.3452  0.0214
 8273SOL    HW136281   2.941   0.783   6.897  1.3062  1.9215  0.7780
 8273SOL    HW236282   2.809   0.793   6.961 -1.2650 -0.0499 -0.4042
 8274SOL     OW36283   1.548   4.123   3.263 -0.2635  0.3912  0.1663
 8274SOL    HW136284   1.455   4.101   3.267  0.3588 -2.5726 -1.9837
 8274SOL    HW236285   1.551   4.211   3.224 -1.4835 -0.4735 -1.8630
 8275SOL     OW36286   1.703   4.487   4.971 -0.3650  0.4777  0.1678
 8275SOL    HW136287   1.614   4.511   4.944 -0.3758  1.3114  0.9149
 8275SOL    HW236288   1.699   4.392   4.974  0.0427  0.4269 -0.8731
 8276SOL     OW36289   0.208   3.514   1.588 -0.2065  0.2207 -0.9788
 8276SOL    HW136290   0.261   3.455   1.535  0.0411  1.3874 -2.0407
 8276SOL    HW236291   0.142   3.456   1.626 -0.3308  0.2247 -1.1880
 8277SOL     OW36292   2.912   0.384   4.646  0.5052  0.3676  0.6996
 8277SOL    HW136293   2.950   0.367   4.560  0.7049  0.6852  0.7269
 8277SOL    HW236294   2.980   0.438   4.685 -1.3960  2.2393  1.4334
 8278SOL     OW36295   4.696   2.515   8.889  0.3086  0.2413 -0.0299
 8278SOL    HW136296   0.053   2.470   8.856 -0.1427 -0.4639 -0.1509
 8278SOL    HW236297   4.672   2.455   8.959 -0.8706  0.5348 -0.1717
 8279SOL     OW36298   4.169   1.146   5.236 -0.0222 -0.0925  0.5067
 8279SOL    HW136299   4.141   1.232   5.204  2.0428 -0.2602 -1.7245
 8279SOL    HW236300   4.261   1.143   5.208  0.1164  0.0498  0.9336
 8280SOL     OW36301   4.379   2.787   0.325 -0.2442  0.0282  0.3232
 8280SOL    HW136302   4.454   2.782   0.385  1.5504  0.5771 -1.8814
 8280SOL    HW236303   4.367   2.881   0.338  1.4898  0.3745 -0.6062
 8281SOL     OW36304   3.157   4.239  17.524  0.1198  0.0795 -0.3392
 8281SOL    HW136305   3.103   4.190  17.462 -0.5711  0.1243  0.2251
 8281SOL    HW236306   3.223   4.273  17.464 -0.4083  1.0510 -0.3838
 8282SOL     OW36307   1.805   2.741   1.046  0.3357  0.2895  0.5983
 8282SOL    HW136308   1.870   2.676   1.018  0.4941  0.7266 -0.0554
 8282SOL    HW236309   1.834   2.769   1.133  0.7360  1.7768  0.0021
 8283SOL     OW36310   2.884   2.017   3.698  0.3072 -0.0003 -0.1766
 8283SOL    HW136311   2.957   2.075   3.679 -0.3272 -0.0356 -2.7016
 8283SOL    HW236312   2.893   1.971   3.614  1.0945 -0.9790  0.4467
 8284SOL     OW36313   2.442   3.404   5.835 -0.1835 -0.1473  0.1113
 8284SOL    HW136314   2.391   3.339   5.883  0.5552 -0.9492 -0.1891
 8284SOL    HW236315   2.526   3.359   5.837 -0.2412 -0.2892 -0.5266
 8285SOL     OW36316   1.215   1.568   7.134  0.2183  0.9882  0.4929
 8285SOL    HW136317   1.126   1.569   7.169 -0.2110 -0.0644 -0.5186
 8285SOL    HW236318   1.241   1.476   7.139 -2.7405  0.1771  1.1081
 8286SOL     OW36319   1.626   2.876   4.786 -0.1765 -0.1764  0.3272
 8286SOL    HW136320   1.716   2.908   4.776 -0.8788  1.0893 -1.9151
 8286SOL    HW236321   1.640   2.835   4.872  4.0739 -0.8097 -0.6722
 8287SOL     OW36322   3.324   0.072   6.365  0.0463 -0.5012  0.2097
 8287SOL    HW136323   3.278   0.006   6.417 -0.4230  0.7304  1.3306
 8287SOL    HW236324   3.416   0.050   6.380  0.3223  0.2030 -0.4178
 8288SOL     OW36325   0.854   3.675   6.442 -0.0274 -0.2147  0.0283
 8288SOL    HW136326   0.776   3.652   6.391  0.9659 -1.0303 -1.1443
 8288SOL    HW236327   0.842   3.770   6.444 -0.3003 -0.2497  0.0625
 8289SOL     OW36328   0.624   4.710   6.821 -0.3407 -0.0505 -0.1018
 8289SOL    HW136329   0.631   4.701   6.726  1.2023  4.6972 -0.4163
 8289SOL    HW236330   0.571   0.069   6.822  0.4842  0.4909 -0.0537
 8290SOL     OW36331   4.459   0.840  11.649 -0.6218 -0.6663 -0.2164
 8290SOL    HW136332   4.543   0.827  11.607  0.7769  1.3416  1.9631
 8290SOL    HW236333   4.411   0.852  11.567 -1.8142  0.5869  0.6539
 8291SOL     OW36334   3.559   2.322  15.189 -0.1727  0.5306  0.5183
 8291SOL    HW136335   3.518   2.405  15.164  1.5987  0.8427 -1.3383
 8291SOL    HW236336   3.482   2.266  15.194  0.6448 -0.4292  2.2763
 8292SOL     OW36337   1.670   3.630   4.939  0.4628 -0.1449  0.3932
 8292SOL    HW136338   1.606   3.636   4.868  0.9057 -0.9113 -0.0675
 8292SOL    HW236339   1.715   3.712   4.917  0.0530 -0.2974 -0.9818
 8293SOL     OW36340   3.893   1.926   4.086 -0.7520 -0.2200  0.2384
 8293SOL    HW136341   3.864   1.951   4.173 -1.5039  1.7245 -0.5616
 8293SOL    HW236342   3.983   1.958   4.088 -0.2727 -1.5160 -0.5247
 8294SOL     OW36343   3.443   1.417   1.040 -0.3530  0.0429 -0.4958
 8294SOL    HW136344   3.393   1.346   1.081  0.4725  0.7885  1.7701
 8294SOL    HW236345   3.483   1.461   1.115 -0.0379 -2.0529  0.5526
 8295SOL     OW36346   1.007   1.146   7.392  0.3265  0.4955  0.1027
 8295SOL    HW136347   0.928   1.154   7.339 -1.0108  1.8981  2.3193
 8295SOL    HW236348   1.018   1.052   7.378 -0.6420  0.4236 -0.1415
 8296SOL     OW36349   0.180   1.317   5.249  0.3911 -0.5508 -0.1949
 8296SOL    HW136350   0.107   1.277   5.296  0.2865 -0.0059  0.1078
 8296SOL    HW236351   0.188   1.259   5.174 -3.4391  3.3214 -3.5514
 8297SOL     OW36352   0.665   4.483  15.706 -0.6279 -0.7353  0.2019
 8297SOL    HW136353   0.581   4.510  15.743 -1.4617 -1.3160 -1.2771
 8297SOL    HW236354   0.683   4.562  15.655 -0.3142 -0.8805  0.0852
 8298SOL     OW36355   1.093   1.133   8.872 -0.0997 -0.1283 -0.6751
 8298SOL    HW136356   1.017   1.118   8.815 -0.8910  0.3439  0.2629
 8298SOL    HW236357   1.048   1.180   8.942 -0.7352  0.4039 -1.4354
 8299SOL     OW36358   3.400   4.124   4.505  0.1457 -0.9174 -0.2047
 8299SOL    HW136359   3.381   4.123   4.412 -0.4639  0.7856 -0.1128
 8299SOL    HW236360   3.352   4.205   4.526  0.1779 -0.4390 -2.0390
 8300SOL     OW36361   2.004   2.633  14.497  0.1058 -0.4248  0.1025
 8300SOL    HW136362   1.948   2.557  14.507 -0.1492 -0.2506 -0.0272
 8300SOL    HW236363   2.091   2.592  14.499 -0.2805 -1.2418  0.2405
 8301SOL     OW36364   3.948   3.781   6.924 -0.3672  0.0440  0.0813
 8301SOL    HW136365   4.015   3.712   6.919 -1.7599 -1.3356  0.3618
 8301SOL    HW236366   3.878   3.734   6.968 -0.4031  0.7310  0.7543
 8302SOL     OW36367   1.110   4.089   5.791 -0.3525  0.4526 -0.3563
 8302SOL    HW136368   1.196   4.065   5.757  0.2702  0.2271  1.3747
 8302SOL    HW236369   1.128   4.168   5.842 -0.5007  0.7903 -0.8294
 8303SOL     OW36370   2.204   1.009  10.126  0.0678 -0.0004 -0.2323
 8303SOL    HW136371   2.138   0.946  10.097  0.4925 -0.2240 -0.7229
 8303SOL    HW236372   2.265   0.941  10.154  0.5456  0.6909  0.4153
 8304SOL     OW36373   2.404   0.894   5.796  0.0482  0.0501 -0.1314
 8304SOL    HW136374   2.480   0.929   5.842 -0.0770 -0.5263  0.5091
 8304SOL    HW236375   2.433   0.913   5.706 -1.0444  2.3125 -0.0162
 8305SOL     OW36376   2.727   0.247   2.492 -0.3448  0.1729 -0.2646
 8305SOL    HW136377   2.708   0.198   2.412 -0.6574 -4.9823  2.9674
 8305SOL    HW236378   2.653   0.306   2.505  1.1424  1.9541  0.2002
 8306SOL     OW36379   3.384   2.607   6.887 -0.0269  0.1524  0.2421
 8306SOL    HW136380   3.439   2.546   6.838  1.3973  2.2181 -0.7058
 8306SOL    HW236381   3.439   2.685   6.896  0.6892 -0.4466  1.0442
 8307SOL     OW36382   2.381   4.217   9.388 -0.1151 -0.1271 -0.5584
 8307SOL    HW136383   2.474   4.205   9.409  0.2108  1.5257 -1.0425
 8307SOL    HW236384   2.395   4.223   9.293  0.3604  0.2710 -0.4649
 8308SOL     OW36385   3.337   0.578   5.473 -0.2029 -0.3805 -0.5204
 8308SOL    HW136386   3.285   0.498   5.479 -0.7154  0.0524  0.8238
 8308SOL    HW236387   3.270   0.646   5.470  3.1619  2.9538 -0.1061
 8309SOL     OW36388   4.209   3.713   4.819  0.3016 -0.2017  0.4281
 8309SOL    HW136389   4.227   3.676   4.733  3.9353 -0.2780  1.2194
 8309SOL    HW236390   4.234   3.805   4.809 -1.2004  0.0977 -0.6470
 8310SOL     OW36391   2.880   0.198   3.728  0.0225 -0.0335 -0.0939
 8310SOL    HW136392   2.935   0.252   3.786 -2.0408  0.1786  1.6643
 8310SOL    HW236393   2.793   0.228   3.755  0.5230 -0.7297  2.2668
 8311SOL     OW36394   1.755   4.401   3.906 -0.7094 -0.5360 -0.3759
 8311SOL    HW136395   1.840   4.445   3.912 -0.0153 -2.0916  1.0060
 8311SOL    HW236396   1.703   4.471   3.867 -0.7361  0.3653  1.2552
 8312SOL     OW36397   0.848   3.565   3.467  0.4851  0.2189 -0.2140
 8312SOL    HW136398   0.874   3.616   3.391  0.3749  2.0564  0.9972
 8312SOL    HW236399   0.904   3.488   3.457 -3.1739 -2.5111  0.1529
 8313SOL     OW36400   1.907   3.628   6.852  0.0146  0.1442  0.1712
 8313SOL    HW136401   1.953   3.625   6.768 -0.2433  0.8613  0.0022
 8313SOL    HW236402   1.903   3.534   6.869 -2.1278  0.6922  2.8042
 8314SOL     OW36403   3.032   2.693  10.753  0.4391 -0.0419 -0.4890
 8314SOL    HW136404   3.124   2.669  10.762  0.5348 -0.3577 -2.3132
 8314SOL    HW236405   2.989   2.632  10.693 -0.6715 -0.2053  0.4694
 8315SOL     OW36406   1.402   0.033   9.771 -0.3463 -0.3312  0.4962
 8315SOL    HW136407   1.415   0.115   9.819  0.7911  1.0401 -2.1293
 8315SOL    HW236408   1.321   0.055   9.726 -0.2799  0.4920  0.7725
 8316SOL     OW36409   4.471   3.744   3.405  0.7351  0.3646  0.0059
 8316SOL    HW136410   4.506   3.727   3.318 -1.7816  1.4058 -1.2224
 8316SOL    HW236411   4.413   3.669   3.417 -2.3680  3.2321  3.2409
 8317SOL     OW36412   1.481   0.397   4.012 -0.8327 -0.0173  0.5409
 8317SOL    HW136413   1.488   0.474   4.069  2.3504  0.5965 -0.6572
 8317SOL    HW236414   1.468   0.426   3.922 -0.6976  1.0487  0.8630
 8318SOL     OW36415   0.248   3.131   5.647 -0.6193 -0.0286 -0.3154
 8318SOL    HW136416   0.185   3.095   5.585 -0.3962  0.1715 -0.6575
 8318SOL    HW236417   0.285   3.046   5.672 -0.7302 -0.4015 -1.4354
 8319SOL     OW36418   0.286   2.258   9.054  0.0907  0.2889  0.1891
 8319SOL    HW136419   0.354   2.200   9.089  0.6670  0.7891 -0.1189
 8319SOL    HW236420   0.275   2.326   9.120  2.4647  0.7710  0.0615
 8320SOL     OW36421   3.099   4.191   1.773  0.2178  0.1635  0.0150
 8320SOL    HW136422   3.084   4.199   1.867  0.6127  3.5874 -0.2329
 8320SOL    HW236423   3.141   4.106   1.760 -0.0137 -0.1892  1.5793
 8321SOL     OW36424   1.584   2.687   3.606 -0.1454 -0.2381  0.7683
 8321SOL    HW136425   1.544   2.747   3.668  0.4931  0.1079  0.8469
 8321SOL    HW236426   1.508   2.636   3.579  0.0363  0.1340 -0.4203
 8322SOL     OW36427   1.458   2.796   8.704 -0.0511  0.8042 -0.0905
 8322SOL    HW136428   1.550   2.773   8.694 -0.3540  0.4847 -2.3010
 8322SOL    HW236429   1.457   2.829   8.793  1.6406 -0.9134  0.5558
 8323SOL     OW36430   0.984   1.798  16.860 -0.0372 -0.1026 -0.3350
 8323SOL    HW136431   1.024   1.771  16.942 -1.8530 -3.1568 -0.4322
 8323SOL    HW236432   0.895   1.795  16.895 -0.2817 -0.3917 -0.9740
 8324SOL     OW36433   4.108   3.642   1.660  0.0799  0.1748  0.2512
 8324SOL    HW136434   4.039   3.627   1.597  0.3965 -0.6817  0.1120
 8324SOL    HW236435   4.127   3.554   1.692 -2.3839  0.0646  1.4088
 8325SOL     OW36436   3.601   1.232  15.384 -0.1477 -0.1903 -0.0634
 8325SOL    HW136437   3.670   1.271  15.438  0.5175 -2.4714  0.7384
 8325SOL    HW236438   3.626   1.140  15.391 -1.5459 -0.6943 -1.6570
 8326SOL     OW36439   1.751   1.200   2.755  0.4313  0.0996 -0.3345
 8326SOL    HW136440   1.802   1.241   2.685  2.0308 -0.0368  0.7256
 8326SOL    HW236441   1.816   1.151   2.805 -0.3284 -0.7073 -0.1434
 8327SOL     OW36442   4.435   3.049  10.978 -0.2495  0.2039 -0.4945
 8327SOL    HW136443   4.456   3.142  10.966  2.2574 -0.1158  1.2159
 8327SOL    HW236444   4.364   3.031  10.917 -0.4558 -1.2049  0.1591
 8328SOL     OW36445   3.450   0.853  11.907 -0.6855 -0.2789  0.1208
 8328SOL    HW136446   3.498   0.771  11.898  0.9212  0.5988  0.7254
 8328SOL    HW236447   3.420   0.846  11.998 -0.1472  0.2758  0.3357
 8329SOL     OW36448   3.748   3.955   7.181  0.4357  0.4012 -0.1278
 8329SOL    HW136449   3.726   4.041   7.216 -2.5939 -1.1738  1.8334
 8329SOL    HW236450   3.824   3.980   7.128  0.7871  1.6467  0.9642
 8330SOL     OW36451   1.446   4.405  13.598 -0.0587  0.2606  0.2898
 8330SOL    HW136452   1.440   4.343  13.525 -0.6064 -2.0808  2.3481
 8330SOL    HW236453   1.453   4.344  13.671  1.3284  1.6537  1.3253
 8331SOL     OW36454   3.376   1.538   5.828 -0.1439 -0.5188  0.0146
 8331SOL    HW136455   3.301   1.597   5.819 -0.2615 -0.7791 -0.6495
 8331SOL    HW236456   3.407   1.537   5.738 -0.0164 -1.3627  0.0695
 8332SOL     OW36457   3.302   0.257  16.419  0.5070 -0.5667  0.1469
 8332SOL    HW136458   3.245   0.259  16.496 -0.6146 -0.3195 -0.6899
 8332SOL    HW236459   3.297   0.343  16.380  1.3216 -1.6414 -2.3181
 8333SOL     OW36460   2.289   1.407   3.159 -0.1252  0.1014 -0.5908
 8333SOL    HW136461   2.274   1.481   3.100  2.6410  0.2737 -1.0866
 8333SOL    HW236462   2.296   1.445   3.246 -2.2740  3.5223 -1.9240
 8334SOL     OW36463   2.679   0.808   8.932 -0.0461 -0.9611  0.3100
 8334SOL    HW136464   2.587   0.780   8.935 -0.3295 -0.0439  0.2214
 8334SOL    HW236465   2.735   0.730   8.926  0.2105 -0.8113  0.8314
 8335SOL     OW36466   2.605   3.825   5.925 -0.5115  0.0066  0.0503
 8335SOL    HW136467   2.516   3.859   5.917 -0.9964 -1.5815 -1.4286
 8335SOL    HW236468   2.603   3.804   6.018 -1.0668  1.1354  0.3006
 8336SOL     OW36469   0.001   1.857  14.517  0.5363 -0.1452  0.3764
 8336SOL    HW136470   4.709   1.814  14.601 -0.2014  0.5750  0.6221
 8336SOL    HW236471   4.701   1.946  14.543  1.2885 -0.1295  0.9306
 8337SOL     OW36472   3.779   1.725   6.834  0.1491 -0.4016 -0.1700
 8337SOL    HW136473   3.704   1.683   6.792  0.3108 -1.0352  0.1780
 8337SOL    HW236474   3.860   1.696   6.792  0.1085  0.7690 -1.0376
 8338SOL     OW36475   3.635   2.974   6.305 -0.0218 -0.7166  0.3737
 8338SOL    HW136476   3.642   2.886   6.267 -0.1654 -0.4336 -0.3106
 8338SOL    HW236477   3.702   2.947   6.367 -0.5945  1.3597  1.9106
 8339SOL     OW36478   2.783   1.990   2.156  0.0075 -0.4086 -0.3604
 8339SOL    HW136479   2.871   1.968   2.189  0.3938  0.1828 -0.9952
 8339SOL    HW236480   2.802   2.034   2.074  1.7011  0.6973  0.6295
 8340SOL     OW36481   0.369   2.792  10.852  0.1945  0.2116  0.0521
 8340SOL    HW136482   0.372   2.743  10.934 -1.8503 -0.3724 -0.2243
 8340SOL    HW236483   0.462   2.784  10.830 -0.0936 -1.3705 -0.6272
 8341SOL     OW36484   3.002   1.973   2.536 -0.3876 -0.5320  0.0104
 8341SOL    HW136485   3.081   2.020   2.512  0.7425 -1.2252  2.4034
 8341SOL    HW236486   3.007   1.901   2.473  0.9229 -1.8378  1.6033
 8342SOL     OW36487   2.706   0.591   5.347 -0.4066 -0.4150  0.0097
 8342SOL    HW136488   2.627   0.580   5.401 -1.5789  2.7398 -1.0558
 8342SOL    HW236489   2.687   0.677   5.311  1.6398  0.4783  1.1046
 8343SOL     OW36490   4.098   1.384   5.112  0.2247 -0.6527  0.1589
 8343SOL    HW136491   4.023   1.365   5.056  0.5898 -0.2656 -0.4711
 8343SOL    HW236492   4.126   1.470   5.082 -0.8432 -0.1210  0.7235
 8344SOL     OW36493   4.717   0.456  13.293  0.7622  0.1890  0.8980
 8344SOL    HW136494   0.040   0.455  13.378  0.2287  0.2919  1.1720
 8344SOL    HW236495   4.661   0.384  13.319  0.1143  0.5433  0.4727
 8345SOL     OW36496   3.495   4.318   0.442  0.2281 -0.0665  0.4183
 8345SOL    HW136497   3.422   4.379   0.457  0.0727  0.0480 -0.8411
 8345SOL    HW236498   3.494   4.316   0.346  0.2118  1.6116  0.3893
 8346SOL     OW36499   1.113   0.359  17.544  0.5418 -0.0643  0.3889
 8346SOL    HW136500   1.052   0.361  17.470  0.7279  1.0661  0.2556
 8346SOL    HW236501   1.072   0.305  17.612 -0.2599 -1.5296 -1.2737
 8347SOL     OW36502   3.392   0.470  16.245 -0.5498  0.0174 -0.7729
 8347SOL    HW136503   3.419   0.500  16.331  1.3761  0.5473 -1.5812
 8347SOL    HW236504   3.439   0.535  16.193  0.7972  0.1477  0.6297
 8348SOL     OW36505   0.600   0.375   2.722 -0.3074 -0.4949  0.4712
 8348SOL    HW136506   0.683   0.328   2.726 -0.0063 -0.0285 -0.3276
 8348SOL    HW236507   0.591   0.397   2.630 -0.4417  2.7383  1.2497
 8349SOL     OW36508   4.487   0.026   7.264 -0.0383  0.0918 -0.4596
 8349SOL    HW136509   4.484   0.071   7.180 -0.9219  0.9622  0.0439
 8349SOL    HW236510   4.459   0.096   7.324 -0.2441 -0.1606 -0.2587
 8350SOL     OW36511   4.509   3.595   8.426  0.0878  0.2386 -0.1684
 8350SOL    HW136512   4.554   3.510   8.429 -1.2735 -0.4786 -0.3383
 8350SOL    HW236513   4.544   3.625   8.341 -0.6116  0.4131 -0.3925
 8351SOL     OW36514   1.972   1.289  12.990 -0.3718 -0.4883  0.4393
 8351SOL    HW136515   2.022   1.337  13.056  0.8242 -1.3924  0.1964
 8351SOL    HW236516   2.012   1.313  12.906 -1.1859  1.0495  0.4900
 8352SOL     OW36517   0.085   0.838   9.031  0.3039 -0.1014  0.1595
 8352SOL    HW136518   0.161   0.853   9.088  1.7911 -3.6203 -0.9452
 8352SOL    HW236519   0.116   0.766   8.977  2.3541 -0.2556  1.5107
 8353SOL     OW36520   4.666   2.175   3.963 -0.3937  0.5651  0.2250
 8353SOL    HW136521   4.625   2.100   4.005 -2.0288  0.8395 -0.8788
 8353SOL    HW236522   4.606   2.249   3.971 -0.9179  0.4147 -2.4639
 8354SOL     OW36523   2.852   4.616   6.874 -0.0119  0.1978  0.5000
 8354SOL    HW136524   2.843   4.703   6.911  2.4096  0.0462  1.4581
 8354SOL    HW236525   2.947   4.608   6.873 -0.0692 -0.5313  0.1975
 8355SOL     OW36526   2.477   4.710   1.548  0.1472  0.5726 -0.1248
 8355SOL    HW136527   2.397   0.041   1.535 -1.9747 -2.5808  0.3273
 8355SOL    HW236528   2.448   4.630   1.591  1.2400 -0.1701 -0.7652
 8356SOL     OW36529   3.081   2.816   6.740  0.3536  0.0644  0.7429
 8356SOL    HW136530   3.019   2.745   6.721  1.1691 -0.5653  0.4138
 8356SOL    HW236531   3.097   2.802   6.833 -2.0810 -1.5051  0.9163
 8357SOL     OW36532   3.131   2.854   9.980  0.1337  0.7380 -0.0997
 8357SOL    HW136533   3.043   2.889   9.967  0.5097  1.6680 -0.1167
 8357SOL    HW236534   3.109   2.761   9.989  0.6188  0.6587  0.2951
 8358SOL     OW36535   0.692   0.879   1.748  0.4142  0.4270  0.0008
 8358SOL    HW136536   0.684   0.833   1.664  0.2459 -2.2425  1.4496
 8358SOL    HW236537   0.763   0.937   1.721  1.3489 -1.6261 -1.9627
 8359SOL     OW36538   1.292   4.528   2.719  0.0300  0.4272 -0.4435
 8359SOL    HW136539   1.383   4.543   2.694  0.2660  0.0104  0.1532
 8359SOL    HW236540   1.254   4.529   2.632 -2.0473 -1.1826  0.4514
 8360SOL     OW36541   1.184   4.305   7.328 -0.2800 -0.0910 -0.0183
 8360SOL    HW136542   1.121   4.375   7.346 -0.7187  0.0009 -1.8888
 8360SOL    HW236543   1.266   4.353   7.316 -0.3602 -0.2824 -1.3895
 8361SOL     OW36544   0.641   1.796  14.120  0.1301  0.2930 -0.8136
 8361SOL    HW136545   0.597   1.740  14.055  1.8965 -3.0881  0.9592
 8361SOL    HW236546   0.583   1.787  14.196  0.2569  3.0135 -0.3967
 8362SOL     OW36547   1.882   0.880  11.186  0.1556  0.5564  0.0120
 8362SOL    HW136548   1.793   0.883  11.151 -0.6866  1.4987  2.2437
 8362SOL    HW236549   1.885   0.787  11.205  0.0908  0.2788 -1.2867
 8363SOL     OW36550   4.359   1.842   4.320 -0.1376 -0.2593  0.0518
 8363SOL    HW136551   4.386   1.755   4.347 -0.3034 -0.4940 -0.5280
 8363SOL    HW236552   4.279   1.874   4.363 -0.3438  1.1981 -1.4023
 8364SOL     OW36553   1.575   2.435  16.241 -0.0703  0.9153 -0.0143
 8364SOL    HW136554   1.669   2.426  16.258 -0.1327  1.3665  0.5678
 8364SOL    HW236555   1.540   2.354  16.276  0.7690  0.8443  0.6629
 8365SOL     OW36556   1.839   2.142   4.775  0.0757 -0.0286  0.4151
 8365SOL    HW136557   1.810   2.155   4.865 -1.0188 -1.3282  0.2456
 8365SOL    HW236558   1.767   2.182   4.726 -0.0087 -0.2428  0.3666
 8366SOL     OW36559   2.539   1.108   7.496 -0.0524 -0.0560 -0.2407
 8366SOL    HW136560   2.523   1.122   7.403 -0.7313  0.1000 -0.0995
 8366SOL    HW236561   2.550   1.200   7.519  0.4496 -0.4775  1.1981
 8367SOL     OW36562   0.632   3.327  17.642  0.8925 -0.1431  0.7209
 8367SOL    HW136563   0.616   3.318   0.049  1.6169 -0.3374  0.8248
 8367SOL    HW236564   0.703   3.389  17.633  0.0621  0.4684 -1.6958
 8368SOL     OW36565   2.713   1.906   7.300  0.2234  0.3416 -0.0360
 8368SOL    HW136566   2.787   1.949   7.343  1.9519 -1.2403 -1.4109
 8368SOL    HW236567   2.749   1.845   7.236 -2.1736 -0.2984 -0.7681
 8369SOL     OW36568   0.153   1.311   2.247 -0.7387  0.0045  0.0976
 8369SOL    HW136569   0.081   1.368   2.218  1.1675  1.3843 -1.9542
 8369SOL    HW236570   0.189   1.377   2.306 -3.3028  2.3969 -0.9754
 8370SOL     OW36571   4.535   4.486   4.881  0.0139  0.7347 -0.0483
 8370SOL    HW136572   4.560   4.548   4.949  0.4647 -1.6502  1.9656
 8370SOL    HW236573   4.439   4.488   4.878  0.1258  2.1939 -2.4283
 8371SOL     OW36574   0.047   3.761  16.841  0.1879 -0.5993  0.3807
 8371SOL    HW136575   0.020   3.671  16.859 -0.0482 -0.4943  0.5556
 8371SOL    HW236576   4.712   3.779  16.765  3.3933  1.6214 -1.4519
 8372SOL     OW36577   3.842   0.925   7.586 -0.3497  0.1148 -0.2891
 8372SOL    HW136578   3.761   0.944   7.634 -0.9961 -0.5429 -1.1453
 8372SOL    HW236579   3.880   0.870   7.654 -0.8746 -2.1042 -1.7969
 8373SOL     OW36580   1.145   1.450   5.655  0.1887 -0.5817 -0.0542
 8373SOL    HW136581   1.101   1.367   5.667  1.7620 -1.3752  0.2439
 8373SOL    HW236582   1.225   1.428   5.702  0.6622 -1.4740 -1.2871
 8374SOL     OW36583   0.152   2.194   0.230  0.0654  0.2798  0.2261
 8374SOL    HW136584   0.141   2.100   0.236 -1.3364  0.4650  0.3712
 8374SOL    HW236585   0.060   2.218   0.222 -0.5336 -2.5969 -1.6315
 8375SOL     OW36586   4.647   1.127  10.665  0.0158  0.4977  0.5276
 8375SOL    HW136587   4.578   1.099  10.605  0.5371 -1.4140  0.8447
 8375SOL    HW236588   4.590   1.166  10.732 -0.3387 -3.7039  2.6562
 8376SOL     OW36589   1.408   2.363  11.962  0.2459  0.6223 -0.6609
 8376SOL    HW136590   1.470   2.292  11.945 -0.1106 -0.3286  2.1456
 8376SOL    HW236591   1.449   2.443  11.927 -0.2189  1.0872 -0.1466
 8377SOL     OW36592   2.323   1.061  13.128  0.0098 -0.5546  0.2080
 8377SOL    HW136593   2.416   1.050  13.150  0.6429  3.0763 -0.5950
 8377SOL    HW236594   2.323   1.080  13.035 -4.6410  0.4208  0.3904
 8378SOL     OW36595   1.370   0.071   4.484  0.1886  0.1241 -0.0521
 8378SOL    HW136596   1.308   0.024   4.539  1.6544 -0.2999  1.2393
 8378SOL    HW236597   1.428   0.093   4.557 -0.2159 -1.1886  0.6448
 8379SOL     OW36598   3.198   1.841   6.054 -0.5347  0.1611  0.4578
 8379SOL    HW136599   3.185   1.921   6.003  0.5423 -2.1351 -3.3527
 8379SOL    HW236600   3.240   1.886   6.128 -1.6012  1.6198  0.1824
 8380SOL     OW36601   3.923   1.410   3.820 -0.1944  0.0682  0.0964
 8380SOL    HW136602   3.969   1.472   3.764  0.2621 -0.6516 -0.3264
 8380SOL    HW236603   3.859   1.470   3.859 -0.4502  0.7202 -1.3147
 8381SOL     OW36604   0.082   4.684   5.619 -0.4293  0.2422 -0.2217
 8381SOL    HW136605   0.139   0.022   5.668 -0.2243  2.8184 -3.5870
 8381SOL    HW236606   0.147   4.618   5.596 -0.7369  0.4284 -1.6181
 8382SOL     OW36607   0.607   0.438   1.159 -0.0527  0.1618 -0.5449
 8382SOL    HW136608   0.542   0.375   1.129 -0.7867  0.8506 -0.3813
 8382SOL    HW236609   0.556   0.518   1.166  0.1660  0.2479  0.0740
 8383SOL     OW36610   1.872   4.070  15.251  0.0710 -0.5579 -0.1957
 8383SOL    HW136611   1.826   4.148  15.219  0.8011 -1.4654 -3.4741
 8383SOL    HW236612   1.946   4.076  15.190 -0.5606  0.0048 -0.8938
 8384SOL     OW36613   2.849   0.272   6.495 -0.3225  0.0371  0.7106
 8384SOL    HW136614   2.768   0.289   6.544 -0.5291 -2.8143  1.3536
 8384SOL    HW236615   2.914   0.327   6.540  0.3707 -0.2872  0.0937
 8385SOL     OW36616   0.470   3.928   8.468  0.1631  0.3139  0.3638
 8385SOL    HW136617   0.503   4.005   8.421 -1.1335  1.5436  1.4523
 8385SOL    HW236618   0.531   3.874   8.417  0.9097  0.0886  1.5008
 8386SOL     OW36619   0.889   0.502   2.611  0.4062  0.4575  0.1153
 8386SOL    HW136620   0.980   0.533   2.605  0.5636  0.2439  1.4202
 8386SOL    HW236621   0.867   0.488   2.519  0.3157 -1.4021  0.4244
 8387SOL     OW36622   3.714   2.074   5.403  0.4173 -0.2258  0.3621
 8387SOL    HW136623   3.719   1.982   5.429 -0.9441 -0.5191 -0.4651
 8387SOL    HW236624   3.726   2.119   5.487 -0.6110  2.5781 -1.0110
 8388SOL     OW36625   3.827   1.714   8.914 -0.2305  0.1882  0.3928
 8388SOL    HW136626   3.852   1.793   8.866  0.9075 -1.5342 -1.8446
 8388SOL    HW236627   3.762   1.747   8.976  1.3953  0.6477  1.8500
 8389SOL     OW36628   3.818   3.898  10.140  0.3167  0.1577  0.2266
 8389SOL    HW136629   3.857   3.950  10.210  1.0451  0.8787 -0.7060
 8389SOL    HW236630   3.898   3.847  10.125  0.1949 -0.7842  2.8383
 8390SOL     OW36631   2.938   3.558   1.038  0.1463  0.3376  0.1591
 8390SOL    HW136632   2.851   3.599   1.039  1.2697  2.7421  1.1005
 8390SOL    HW236633   2.956   3.534   0.947  2.0336 -0.5097  0.7517
 8391SOL     OW36634   1.466   1.907   6.226 -0.0548  0.0956 -0.5620
 8391SOL    HW136635   1.464   1.852   6.305 -4.2685  0.3044 -0.5369
 8391SOL    HW236636   1.531   1.869   6.167  0.8731  0.6489  0.0984
 8392SOL     OW36637   3.856   2.328   2.293 -0.4354 -0.3913 -0.2453
 8392SOL    HW136638   3.820   2.277   2.366 -0.6813 -1.9813 -1.4750
 8392SOL    HW236639   3.792   2.317   2.223 -0.8967 -1.9569  0.4244
 8393SOL     OW36640   0.044   1.635  12.860 -0.2384  0.6202 -0.3404
 8393SOL    HW136641   4.678   1.653  12.895 -0.1644  1.6094 -0.6716
 8393SOL    HW236642   0.020   1.631  12.768 -1.4663 -0.9986  0.0503
 8394SOL     OW36643   3.150   2.650   5.143  0.4702 -0.1924 -0.2291
 8394SOL    HW136644   3.102   2.727   5.112 -1.2970 -1.5827 -0.9113
 8394SOL    HW236645   3.177   2.608   5.062  0.8781 -0.7139  0.1753
 8395SOL     OW36646   4.548   2.088  13.796 -0.4536  0.4343  0.3318
 8395SOL    HW136647   4.494   2.017  13.830  0.6254 -0.2377  0.6395
 8395SOL    HW236648   4.507   2.159  13.844 -1.3760  0.2102 -0.1243
 8396SOL     OW36649   4.536   3.435   8.085 -0.1420 -0.6053 -0.3278
 8396SOL    HW136650   4.445   3.414   8.103 -0.1789 -0.5652 -0.4649
 8396SOL    HW236651   4.533   3.464   7.994  0.4717 -3.1176 -1.1576
 8397SOL     OW36652   2.231   3.607   5.826  0.4585 -0.0161 -0.4300
 8397SOL    HW136653   2.313   3.559   5.818  0.5317  0.0426 -0.0183
 8397SOL    HW236654   2.177   3.528   5.814  2.3203 -1.4507  0.6401
 8398SOL     OW36655   2.254   3.442   8.388 -0.5091  0.0852 -0.1252
 8398SOL    HW136656   2.186   3.509   8.384  1.6184  2.2999  0.9005
 8398SOL    HW236657   2.230   3.367   8.332 -0.4630  0.7271 -1.0041
 8399SOL     OW36658   0.601   4.139   9.134  0.1327  0.0634 -1.0053
 8399SOL    HW136659   0.627   4.228   9.111  1.6263  0.0541  0.6881
 8399SOL    HW236660   0.533   4.126   9.067  1.2795  0.4565 -2.2550
 8400SOL     OW36661   3.896   1.082  16.683  0.2261 -0.0437 -0.3288
 8400SOL    HW136662   3.981   1.125  16.693  0.4200 -0.0529 -1.8980
 8400SOL    HW236663   3.914   0.988  16.676 -0.6026 -0.1983 -0.4006
 8401SOL     OW36664   4.119   1.696  12.942  0.0484 -0.1761 -0.4107
 8401SOL    HW136665   4.104   1.705  12.848 -0.0864  0.4705 -0.3246
 8401SOL    HW236666   4.074   1.767  12.988  0.0153 -0.4104 -0.0794
 8402SOL     OW36667   2.134   0.662   7.759  0.0786 -0.0254  0.2609
 8402SOL    HW136668   2.075   0.600   7.717 -1.0180  0.8830  0.4639
 8402SOL    HW236669   2.164   0.606   7.830  2.3811 -0.5089 -1.0578
 8403SOL     OW36670   1.093   1.377   1.435 -0.3563 -0.4888 -0.4030
 8403SOL    HW136671   1.156   1.339   1.374  0.3205 -0.2222  0.1293
 8403SOL    HW236672   1.145   1.450   1.470 -0.5454 -0.1592 -0.8037
 8404SOL     OW36673   0.230   0.383   0.724  0.1043 -0.0258  0.0072
 8404SOL    HW136674   0.238   0.289   0.738  1.1091 -0.0136 -0.5244
 8404SOL    HW236675   0.319   0.405   0.696  0.0377 -0.2550 -0.3888
 8405SOL     OW36676   2.988   0.073   9.010 -0.1815  0.0751  0.7656
 8405SOL    HW136677   2.914   0.013   9.007  0.5646 -0.8877  1.7526
 8405SOL    HW236678   2.946   0.154   9.038  2.2535  2.0088 -1.1093
 8406SOL     OW36679   3.778   1.956  10.160 -0.3974  0.4363 -0.2769
 8406SOL    HW136680   3.861   1.973  10.116 -0.2348 -0.4798 -0.3277
 8406SOL    HW236681   3.770   1.861  10.158  3.0687  0.1181  0.6072
 8407SOL     OW36682   1.858   3.082   7.401  0.0443 -0.7014 -0.5929
 8407SOL    HW136683   1.953   3.094   7.409  0.1399 -0.2366 -2.4385
 8407SOL    HW236684   1.859   3.034   7.484 -1.2447  1.2154  0.5376
 8408SOL     OW36685   1.772   3.590  13.314 -0.2838  0.7391  0.1225
 8408SOL    HW136686   1.719   3.643  13.254 -2.0061  1.2576  2.1382
 8408SOL    HW236687   1.818   3.528  13.257 -0.5383  0.3865  0.3007
 8409SOL     OW36688   0.871   3.419   5.728 -0.4946 -0.2247  0.1805
 8409SOL    HW136689   0.964   3.400   5.745 -0.6469  0.5631  1.9133
 8409SOL    HW236690   0.827   3.359   5.788 -1.9040 -0.5928 -1.2204
 8410SOL     OW36691   3.144   3.948  14.545  0.2358  0.2483  0.1178
 8410SOL    HW136692   3.133   3.962  14.451 -0.6693 -0.1902  0.1575
 8410SOL    HW236693   3.190   3.864  14.546  1.4276  0.9146  1.9338
 8411SOL     OW36694   2.751   3.032   8.535 -0.6158  0.8203 -0.0225
 8411SOL    HW136695   2.671   3.030   8.482  0.7900 -0.7749 -2.0742
 8411SOL    HW236696   2.751   2.945   8.576 -1.3668 -0.2740 -2.2875
 8412SOL     OW36697   3.348   2.693   5.938 -0.0410 -0.0270  0.8643
 8412SOL    HW136698   3.421   2.667   5.882 -0.3182  1.2937 -0.1092
 8412SOL    HW236699   3.279   2.636   5.904  2.2811 -3.9005  2.6005
 8413SOL     OW36700   0.717   3.092   7.400 -0.1189 -0.2267  0.1966
 8413SOL    HW136701   0.698   3.138   7.482  1.1759  1.7423 -0.6331
 8413SOL    HW236702   0.811   3.103   7.387 -0.0951 -1.8874 -1.0042
 8414SOL     OW36703   0.185   2.985  11.030  0.3857 -0.4144  0.1587
 8414SOL    HW136704   0.247   3.055  11.010 -0.1238 -0.1625 -0.5164
 8414SOL    HW236705   0.238   2.945  11.099  0.7629  0.0476  0.1325
 8415SOL     OW36706   4.227   3.202   2.578  0.2190  0.2518 -0.0533
 8415SOL    HW136707   4.143   3.235   2.548  0.6130  1.0294 -0.3090
 8415SOL    HW236708   4.260   3.147   2.506 -1.3479 -1.0608  0.2475
 8416SOL     OW36709   0.458   3.465   0.124 -0.0836 -0.4987  0.1612
 8416SOL    HW136710   0.483   3.541   0.176  0.8672  0.6194 -1.9052
 8416SOL    HW236711   0.511   3.495   0.049  0.0301 -2.2549 -0.4458
 8417SOL     OW36712   2.242   0.731   3.641 -0.1517 -0.0138 -0.6144
 8417SOL    HW136713   2.320   0.728   3.586 -0.1325  0.5527 -0.6185
 8417SOL    HW236714   2.252   0.819   3.676 -1.0646 -0.8580  1.8082
 8418SOL     OW36715   4.241   2.898   3.345  0.5118  0.1604 -0.1193
 8418SOL    HW136716   4.153   2.914   3.312  0.1523 -1.3136  0.1258
 8418SOL    HW236717   4.290   2.895   3.263  0.3155 -1.3976 -0.1901
 8419SOL     OW36718   0.821   1.886   2.277 -0.5542  0.1589  0.0369
 8419SOL    HW136719   0.794   1.971   2.312 -1.7235 -0.6039  0.9762
 8419SOL    HW236720   0.894   1.869   2.336  1.5539 -0.3275 -2.7382
 8420SOL     OW36721   4.624   1.247   4.687  0.3657 -0.6465  0.2983
 8420SOL    HW136722   4.548   1.224   4.633  0.0668  2.0389 -0.4098
 8420SOL    HW236723   4.641   1.338   4.662 -0.3337 -0.7613 -0.6085
 8421SOL     OW36724   4.230   0.445   2.021 -0.0741 -0.6887 -0.0916
 8421SOL    HW136725   4.242   0.389   1.944  0.5759 -0.6894  0.0114
 8421SOL    HW236726   4.314   0.488   2.033 -1.1285  1.3830 -0.0279
 8422SOL     OW36727   1.388   1.753  12.843 -0.0645 -0.1809 -0.3702
 8422SOL    HW136728   1.374   1.839  12.882  1.8155 -0.1222  0.1803
 8422SOL    HW236729   1.412   1.781  12.755  1.4380 -0.1366  0.0560
 8423SOL     OW36730   1.030   0.775   1.273  0.3898  0.4243 -0.2465
 8423SOL    HW136731   1.040   0.865   1.241  0.9817  0.6218  0.5175
 8423SOL    HW236732   1.081   0.772   1.354  1.3919  1.2623 -0.8473
 8424SOL     OW36733   1.182   2.590   2.871  0.2636 -0.0414 -0.1630
 8424SOL    HW136734   1.163   2.602   2.964  0.0437  0.1340 -0.2281
 8424SOL    HW236735   1.199   2.682   2.847 -0.0647 -0.0345 -0.3682
 8425SOL     OW36736   1.303   1.185   0.412  0.4271  0.8170  1.0587
 8425SOL    HW136737   1.321   1.255   0.349 -2.6004  0.7979  0.1571
 8425SOL    HW236738   1.325   1.230   0.494  1.3922  1.7219  0.3086
 8426SOL     OW36739   3.844   2.271   3.955  0.5317 -0.7434 -0.5364
 8426SOL    HW136740   3.939   2.263   3.958  0.3654 -1.6971  2.7780
 8426SOL    HW236741   3.834   2.262   3.860  0.7363  3.1524 -0.9181
 8427SOL     OW36742   2.912   4.211   6.985 -0.0197  0.4525  0.1648
 8427SOL    HW136743   2.927   4.191   7.077  2.2237 -0.7726 -0.4768
 8427SOL    HW236744   3.003   4.209   6.954 -0.5244  0.5852 -1.3241
 8428SOL     OW36745   0.006   2.820   2.369  0.6459 -0.4039  0.2644
 8428SOL    HW136746   4.638   2.856   2.370  1.5233  1.7633  0.1846
 8428SOL    HW236747   4.718   2.755   2.439 -0.4536  0.0739  0.5615
 8429SOL     OW36748   1.000   0.949   9.608  0.5972  0.1166 -0.0518
 8429SOL    HW136749   1.012   0.973   9.516 -0.7491  0.6221 -0.0930
 8429SOL    HW236750   1.050   1.013   9.659 -1.5400  0.4502  1.6784
 8430SOL     OW36751   0.515   1.841   8.807  0.1439 -0.0564  0.2189
 8430SOL    HW136752   0.458   1.780   8.855 -1.0275  0.2535 -0.7765
 8430SOL    HW236753   0.465   1.842   8.725 -1.9731  1.0241  1.5269
 8431SOL     OW36754   0.908   1.693   5.624 -0.0800 -0.3190 -0.1247
 8431SOL    HW136755   0.950   1.633   5.685 -0.6356  0.0026  0.5678
 8431SOL    HW236756   0.848   1.751   5.672  0.4383  0.3205 -0.2471
 8432SOL     OW36757   1.436   3.761   6.867  0.0685 -0.1993  0.5991
 8432SOL    HW136758   1.422   3.810   6.786  0.2002  0.9073  1.2521
 8432SOL    HW236759   1.362   3.796   6.917  0.8525  0.7589  1.0857
 8433SOL     OW36760   3.287   0.511   1.225  0.3224 -0.1523  0.1118
 8433SOL    HW136761   3.301   0.455   1.301  0.8024  1.2602  1.0667
 8433SOL    HW236762   3.334   0.463   1.157 -2.9560 -0.3115 -2.0193
 8434SOL     OW36763   1.484   1.458   5.840 -0.7116  0.9113 -0.1421
 8434SOL    HW136764   1.481   1.380   5.896 -1.5531  0.4347 -0.8474
 8434SOL    HW236765   1.571   1.491   5.865 -0.0100  0.0832 -1.4345
 8435SOL     OW36766   2.324   1.558   4.587 -0.2010  0.0761  0.2999
 8435SOL    HW136767   2.283   1.589   4.667 -2.6647 -0.4339 -0.7648
 8435SOL    HW236768   2.241   1.555   4.539 -0.4140 -1.0004  0.7557
 8436SOL     OW36769   0.417   0.250   4.291  0.0802 -0.6509  0.5801
 8436SOL    HW136770   0.372   0.194   4.355 -1.3197  0.4102  0.5207
 8436SOL    HW236771   0.435   0.186   4.223 -1.6612 -1.1846  0.6251
 8437SOL     OW36772   4.284   3.634   4.578 -0.2807  0.1098 -0.1664
 8437SOL    HW136773   4.198   3.655   4.540 -0.3143  1.3900  0.6142
 8437SOL    HW236774   4.345   3.646   4.506 -0.7159 -1.1549 -0.7414
 8438SOL     OW36775   4.250   3.931   6.349 -0.5406 -0.2405 -0.0144
 8438SOL    HW136776   4.331   3.910   6.396  0.0530  1.9018 -0.0927
 8438SOL    HW236777   4.187   3.869   6.385  1.3305 -3.3426 -2.0541
 8439SOL     OW36778   3.931   2.130   7.779 -0.3702 -0.0880  0.1173
 8439SOL    HW136779   3.908   2.174   7.861  1.4712  0.0379  0.5715
 8439SOL    HW236780   4.015   2.169   7.753 -2.5237  3.4092 -1.5245
 8440SOL     OW36781   3.141   2.767   2.037  0.2415 -0.8428 -0.2090
 8440SOL    HW136782   3.232   2.782   2.010 -0.2488  0.9167 -0.9375
 8440SOL    HW236783   3.143   2.737   2.127  1.1427 -2.3629 -0.7323
 8441SOL     OW36784   2.336   1.079   9.220  0.5097 -0.2841  0.1415
 8441SOL    HW136785   2.355   0.985   9.214 -1.7409 -0.5703 -2.2917
 8441SOL    HW236786   2.265   1.092   9.157 -0.0249 -2.1474  0.3591
 8442SOL     OW36787   0.169   3.780   5.690  0.0651 -0.2440 -0.3937
 8442SOL    HW136788   0.110   3.818   5.755  0.7326 -2.0868  1.3052
 8442SOL    HW236789   0.104   3.735   5.634 -1.5214  0.1636  1.1110
 8443SOL     OW36790   3.335   1.657   2.589  0.1787 -0.6715 -0.1311
 8443SOL    HW136791   3.262   1.601   2.616  0.5427 -0.8866  0.4046
 8443SOL    HW236792   3.321   1.672   2.495  0.6278  1.6016  0.1645
 8444SOL     OW36793   1.870   2.365   4.374 -0.2360  0.2629  0.1934
 8444SOL    HW136794   1.797   2.392   4.431 -0.2030 -0.1327  0.4213
 8444SOL    HW236795   1.844   2.280   4.339 -0.9692  0.3902  0.4180
 8445SOL     OW36796   1.400   3.477  13.969 -0.8362  0.0543 -0.0922
 8445SOL    HW136797   1.446   3.470  13.885 -1.1106  1.3159 -0.3592
 8445SOL    HW236798   1.313   3.488  13.930 -0.7359 -1.3954 -0.7402
 8446SOL     OW36799   2.725   2.734   0.285  0.0061 -0.0883  0.0902
 8446SOL    HW136800   2.760   2.799   0.223  0.4016 -0.2380  0.1553
 8446SOL    HW236801   2.701   2.682   0.209  2.0696  0.6276 -1.0634
 8447SOL     OW36802   4.122   0.311   5.160 -0.2092  0.2859 -0.4163
 8447SOL    HW136803   4.156   0.301   5.071  1.8670  0.0829  0.4006
 8447SOL    HW236804   4.050   0.247   5.155 -0.2399  0.4511 -2.0490
 8448SOL     OW36805   4.576   1.596   6.814  0.3572 -0.4601 -0.3167
 8448SOL    HW136806   4.662   1.635   6.830  0.7254 -0.6955 -1.7721
 8448SOL    HW236807   4.595   1.508   6.782 -0.2064 -1.2831  1.5490
 8449SOL     OW36808   0.575   2.134   2.344 -0.0703  0.4050  0.2078
 8449SOL    HW136809   0.557   2.207   2.402 -1.8155 -1.1762  1.6119
 8449SOL    HW236810   0.667   2.133   2.316 -0.0714  0.8270  0.1951
 8450SOL     OW36811   3.406   1.076  15.551 -0.7234  0.4408  0.3696
 8450SOL    HW136812   3.411   1.152  15.493  0.9989 -1.3639 -1.8626
 8450SOL    HW236813   3.461   1.011  15.507 -0.2031  1.7349 -0.9065
 8451SOL     OW36814   3.798   4.057   2.181 -0.1658  0.3628 -0.3968
 8451SOL    HW136815   3.755   4.123   2.235 -0.5333  0.4611 -0.8072
 8451SOL    HW236816   3.823   4.104   2.101  1.1207  1.2648  0.5296
 8452SOL     OW36817   0.749   0.555   5.435  0.2706  0.1055  0.0181
 8452SOL    HW136818   0.839   0.568   5.405  0.6502  1.0960  1.5713
 8452SOL    HW236819   0.705   0.633   5.402 -0.2727  0.8484  2.5483
 8453SOL     OW36820   2.894   0.901  16.387  0.0329 -0.6186  0.8632
 8453SOL    HW136821   2.854   0.967  16.444  0.2888 -0.9898  1.4742
 8453SOL    HW236822   2.955   0.853  16.444  1.8603  1.9159  1.0312
 8454SOL     OW36823   0.778   0.867   3.823 -0.1898  0.3344 -0.2842
 8454SOL    HW136824   0.859   0.856   3.872 -0.2571  4.2002  0.7000
 8454SOL    HW236825   0.720   0.845   3.895 -1.0486  1.8238 -0.5352
 8455SOL     OW36826   0.840   3.358   5.456  1.0237 -0.0354 -0.0380
 8455SOL    HW136827   0.832   3.368   5.551 -0.1821 -0.5656 -0.0847
 8455SOL    HW236828   0.896   3.430   5.426  2.3422 -0.3584  1.6711
 8456SOL     OW36829   2.250   4.626   4.316 -0.0246 -0.0157 -0.3403
 8456SOL    HW136830   2.185   4.696   4.307  1.9923  1.7956 -0.8035
 8456SOL    HW236831   2.272   4.624   4.223 -0.3677  0.1894 -0.4264
 8457SOL     OW36832   3.778   1.188   3.976  0.3627  0.7762  0.1145
 8457SOL    HW136833   3.847   1.148   4.028  0.5723 -1.3999 -1.8508
 8457SOL    HW236834   3.822   1.207   3.893  1.3509  0.5630  0.5946
 8458SOL     OW36835   1.522   1.137   4.463 -0.6742  0.1238 -0.3399
 8458SOL    HW136836   1.474   1.213   4.497 -2.0571 -1.0209  0.2620
 8458SOL    HW236837   1.503   1.142   4.369 -2.0600 -0.8821 -0.1106
 8459SOL     OW36838   2.715   1.685   4.477  0.2099 -0.0998  0.6822
 8459SOL    HW136839   2.795   1.714   4.521 -0.4043  2.9328 -0.1722
 8459SOL    HW236840   2.719   1.590   4.467 -0.0290  0.0420 -0.7900
 8460SOL     OW36841   1.163   0.590  16.487  0.2434  0.3257 -0.3740
 8460SOL    HW136842   1.143   0.540  16.566 -3.2819 -0.6202 -1.8341
 8460SOL    HW236843   1.075   0.611  16.454  1.1316  3.1220 -0.9834
 8461SOL     OW36844   4.051   1.978  12.773 -0.4418 -0.1463  0.1010
 8461SOL    HW136845   4.053   1.888  12.741  1.1107  0.8231 -2.5707
 8461SOL    HW236846   4.061   2.018  12.686 -1.4096  0.1553  0.1275
 8462SOL     OW36847   1.226   0.446   5.827  0.5939 -0.1314  0.0336
 8462SOL    HW136848   1.164   0.514   5.799  0.5815  0.1496  0.7399
 8462SOL    HW236849   1.225   0.459   5.922 -1.0565  1.4065 -0.1821
 8463SOL     OW36850   1.768   0.439   5.253 -0.2904  0.3268 -0.1919
 8463SOL    HW136851   1.804   0.486   5.177  1.0636 -0.9074 -0.3088
 8463SOL    HW236852   1.815   0.356   5.258 -1.8904 -0.6716 -1.6197
 8464SOL     OW36853   1.505   0.646   6.465  0.1523 -0.0131 -1.0760
 8464SOL    HW136854   1.473   0.632   6.554 -0.5491 -0.7626 -1.4462
 8464SOL    HW236855   1.584   0.697   6.481 -0.3775  1.0595 -1.8878
 8465SOL     OW36856   1.659   0.414  11.357  0.4603  0.2018  0.2271
 8465SOL    HW136857   1.659   0.383  11.448 -1.4030 -0.3334  0.0568
 8465SOL    HW236858   1.591   0.356  11.322 -0.6840  1.2173  0.7616
 8466SOL     OW36859   3.322   3.496  12.448  0.0983  0.3425  0.3770
 8466SOL    HW136860   3.347   3.559  12.380 -1.5053  1.0620  0.4539
 8466SOL    HW236861   3.313   3.545  12.530  0.0959 -0.7115  1.0134
 8467SOL     OW36862   2.824   3.698   0.036  0.4883 -0.0850  0.1520
 8467SOL    HW136863   2.820   3.679   0.129  2.0373  2.0023  0.6699
 8467SOL    HW236864   2.917   3.683   0.020  0.8103  3.1692 -1.1929
 8468SOL     OW36865   2.707   0.506  10.088 -0.2156  0.1512  0.4020
 8468SOL    HW136866   2.661   0.441  10.140  1.5548 -1.3522  0.0794
 8468SOL    HW236867   2.632   0.551  10.049 -0.5713 -1.5482 -0.8494
 8469SOL     OW36868   0.151   0.273   7.393 -0.5882 -0.2621 -0.3425
 8469SOL    HW136869   0.141   0.260   7.299  0.9664 -1.4943 -0.3471
 8469SOL    HW236870   0.124   0.362   7.414 -0.5576 -0.0035 -1.3829
 8470SOL     OW36871   0.073   1.543  15.074  0.3762  0.7481  0.3811
 8470SOL    HW136872   4.701   1.547  15.049  0.3659 -1.4178  0.0778
 8470SOL    HW236873   0.078   1.507  15.162  3.2451 -4.1174 -1.7494
 8471SOL     OW36874   0.479   0.381   0.192 -0.0544 -0.2929  0.1324
 8471SOL    HW136875   0.539   0.437   0.243 -1.8867  0.6439  1.2436
 8471SOL    HW236876   0.396   0.419   0.220  1.2159  0.4597  2.9433
 8472SOL     OW36877   2.919   1.614  16.207  0.0464 -0.3983  1.0475
 8472SOL    HW136878   2.994   1.673  16.197  0.0521 -0.6781 -0.5464
 8472SOL    HW236879   2.858   1.670  16.255  0.9289  2.2145 -0.8765
 8473SOL     OW36880   4.704   1.080   8.973  0.4572  0.7681 -0.2193
 8473SOL    HW136881   0.010   0.988   8.968 -1.4227  0.2365 -0.6860
 8473SOL    HW236882   4.613   1.069   8.947  0.4100  1.3243 -0.2886
 8474SOL     OW36883   4.046   2.578  11.264 -0.0643 -0.0311  0.0100
 8474SOL    HW136884   4.138   2.553  11.276 -0.1781 -0.1741  0.5934
 8474SOL    HW236885   4.015   2.618  11.345 -0.3219  0.5390 -0.3707
 8475SOL     OW36886   1.382   4.022  15.085  0.1870  0.3262  0.1526
 8475SOL    HW136887   1.447   4.065  15.140  0.9360 -0.6098 -0.0227
 8475SOL    HW236888   1.372   3.938  15.129  1.0652 -0.9314 -2.0683
 8476SOL     OW36889   2.698   4.267   4.336 -0.0520 -0.0132 -0.4793
 8476SOL    HW136890   2.763   4.211   4.380 -1.4180 -1.7863 -0.7256
 8476SOL    HW236891   2.686   4.331   4.406 -0.5614 -0.5880 -0.0442
 8477SOL     OW36892   3.815   4.041   6.678  0.5767  0.2664 -0.4358
 8477SOL    HW136893   3.743   3.996   6.634  0.1644  0.6829 -0.1846
 8477SOL    HW236894   3.892   3.984   6.675  1.0871  0.8804  0.8959
 8478SOL     OW36895   2.735   0.877   5.247 -0.6640 -0.0391  0.1693
 8478SOL    HW136896   2.692   0.955   5.210  1.6087  0.7098 -0.9259
 8478SOL    HW236897   2.781   0.910   5.325  1.3896 -0.7552 -0.7323
 8479SOL     OW36898   2.079   0.673  13.923 -0.2956 -0.4128 -0.2371
 8479SOL    HW136899   1.989   0.702  13.915  0.0021  0.3304 -0.8728
 8479SOL    HW236900   2.080   0.622  14.004 -1.7770  2.2104  1.4310
 8480SOL     OW36901   1.054   4.076   4.005  0.0801 -0.0138  0.1984
 8480SOL    HW136902   0.990   4.042   3.943 -1.2444  2.4848  0.1959
 8480SOL    HW236903   1.109   3.997   4.004 -0.2432 -0.2802  2.4778
 8481SOL     OW36904   3.434   2.122   1.990  0.3970  0.9822  0.0658
 8481SOL    HW136905   3.428   2.104   2.084 -1.7921 -0.4211 -0.3331
 8481SOL    HW236906   3.474   2.041   1.957 -0.5408 -0.1735  1.7118
 8482SOL     OW36907   3.613   4.614  17.084  0.1493 -0.2179 -0.3771
 8482SOL    HW136908   3.538   4.554  17.083 -0.2893  0.3541 -1.8198
 8482SOL    HW236909   3.596   4.678  17.153 -1.8289  1.1380 -2.1218
 8483SOL     OW36910   4.387   0.711  11.874  0.1979 -0.3992 -0.5175
 8483SOL    HW136911   4.409   0.761  11.796  1.7852 -2.3862 -1.3441
 8483SOL    HW236912   4.414   0.624  11.843  0.9232  0.2904 -1.8316
 8484SOL     OW36913   3.704   2.182   0.739 -0.3289  0.0772  0.0678
 8484SOL    HW136914   3.649   2.111   0.705 -0.8118 -0.5132  2.0432
 8484SOL    HW236915   3.786   2.133   0.740 -0.3512  0.0127 -1.0538
 8485SOL     OW36916   4.260   3.111   5.093 -0.0934 -0.3207  0.1111
 8485SOL    HW136917   4.269   3.016   5.091 -1.8832 -0.4882  0.1476
 8485SOL    HW236918   4.310   3.135   5.171  0.7650  1.5563 -1.0013
 8486SOL     OW36919   3.738   4.687  16.839  0.2381  0.2094 -0.3183
 8486SOL    HW136920   3.699   4.656  16.921 -3.3153 -0.8473 -2.4130
 8486SOL    HW236921   3.692   0.049  16.827  1.5454  1.1923  1.3675
 8487SOL     OW36922   4.637   2.183   2.469 -0.3906 -0.0790 -0.2079
 8487SOL    HW136923   4.703   2.248   2.491 -0.5488 -0.0037  0.0516
 8487SOL    HW236924   4.550   2.209   2.500 -0.2488  0.9000 -0.6350
 8488SOL     OW36925   4.434   3.336   6.106  0.0322 -0.3486 -0.0059
 8488SOL    HW136926   4.521   3.333   6.146  0.0498 -1.0540 -0.0946
 8488SOL    HW236927   4.421   3.241   6.116 -1.1813 -0.1692  0.1787
 8489SOL     OW36928   1.587   1.825   2.830  0.2830  0.4697 -0.6581
 8489SOL    HW136929   1.663   1.860   2.784  0.3907 -0.0061 -0.8474
 8489SOL    HW236930   1.575   1.903   2.884 -0.7391 -0.6926  0.8172
 8490SOL     OW36931   4.645   1.151   4.134  0.3491 -0.5536  0.2298
 8490SOL    HW136932   4.631   1.072   4.082  1.3128  0.1724 -1.1500
 8490SOL    HW236933   4.678   1.209   4.065 -0.3946 -1.7223 -1.0871
 8491SOL     OW36934   2.652   1.418   2.777  0.2737  0.5098  0.0372
 8491SOL    HW136935   2.618   1.361   2.708 -0.7652 -0.1326  1.0891
 8491SOL    HW236936   2.626   1.502   2.738  1.0672  0.9138  0.3910
 8492SOL     OW36937   4.350   3.097   5.625  0.4915 -0.3852  0.0263
 8492SOL    HW136938   4.283   3.043   5.583  1.0847 -2.5598  1.8635
 8492SOL    HW236939   4.406   3.026   5.657  0.6903 -0.0263  0.4730
 8493SOL     OW36940   0.573   1.569   6.960 -0.6009 -0.6006  0.0850
 8493SOL    HW136941   0.575   1.561   6.864 -0.3634 -1.1275  0.1350
 8493SOL    HW236942   0.479   1.572   6.977 -0.7639 -1.4160 -0.6497
 8494SOL     OW36943   2.796   0.311  16.577 -0.6524  0.0376 -0.7617
 8494SOL    HW136944   2.737   0.261  16.634  1.4151 -0.1192  1.2418
 8494SOL    HW236945   2.754   0.277  16.499 -0.3955  1.8442 -1.6826
 8495SOL     OW36946   2.316   3.029   2.280  0.1140  0.2346 -0.0415
 8495SOL    HW136947   2.382   3.060   2.341 -0.3963  0.3377  0.4503
 8495SOL    HW236948   2.340   3.067   2.195  0.5836  1.4744  0.6480
 8496SOL     OW36949   4.402   2.410  10.523  0.0286  0.4648  0.0261
 8496SOL    HW136950   4.362   2.496  10.535 -1.2816  0.0025 -1.1323
 8496SOL    HW236951   4.465   2.411  10.596 -1.3877 -2.9897  1.2600
 8497SOL     OW36952   2.515   1.086   2.720  0.1445 -0.3430 -0.2007
 8497SOL    HW136953   2.448   1.117   2.780 -0.4309 -0.8175 -0.5998
 8497SOL    HW236954   2.518   1.156   2.655  0.9961 -0.6536 -0.4917
 8498SOL     OW36955   0.049   0.680   4.291  0.0470  0.0389  0.0620
 8498SOL    HW136956   0.111   0.611   4.315  0.8453  0.5998 -0.3906
 8498SOL    HW236957   0.002   0.687   4.374  0.1794 -3.5844  0.4154
 8499SOL     OW36958   1.524   4.073   4.476  0.3402  0.3146  0.2406
 8499SOL    HW136959   1.494   4.161   4.498 -1.2153 -0.6609  2.0548
 8499SOL    HW236960   1.492   4.070   4.386  0.3074 -0.3601  0.2743
 8500SOL     OW36961   2.688   2.469   0.963 -0.2624 -0.2808  0.2390
 8500SOL    HW136962   2.684   2.539   1.028 -0.6312  0.4242 -0.5307
 8500SOL    HW236963   2.596   2.459   0.938 -1.1453  4.2660  1.6620
 8501SOL     OW36964   0.482   4.102   3.963 -0.3227 -0.2996  0.4894
 8501SOL    HW136965   0.474   4.017   3.921  0.0978  0.6868 -1.6002
 8501SOL    HW236966   0.405   4.142   3.922  0.2143 -0.5762 -0.7803
 8502SOL     OW36967   2.119   0.949   2.553 -0.3943 -0.1793 -0.6749
 8502SOL    HW136968   2.057   0.929   2.483 -2.1881  0.1778  0.7965
 8502SOL    HW236969   2.166   0.865   2.557  2.3705  1.5165  2.7350
 8503SOL     OW36970   4.619   1.941   8.838  0.0203  0.1883 -0.0312
 8503SOL    HW136971   4.684   1.992   8.886 -0.8000 -0.1855  1.4846
 8503SOL    HW236972   4.552   2.008   8.822 -0.0471  0.4688  1.4522
 8504SOL     OW36973   3.152   1.698   5.702  0.3528  0.2008 -0.0305
 8504SOL    HW136974   3.191   1.785   5.704  1.1401 -0.1849  1.5295
 8504SOL    HW236975   3.133   1.686   5.609  1.0524  1.2897 -0.3079
 8505SOL     OW36976   4.241   0.208  12.254 -0.1605 -0.1017  0.4755
 8505SOL    HW136977   4.217   0.292  12.294 -0.3436 -0.3721  0.9457
 8505SOL    HW236978   4.248   0.222  12.160 -0.4191 -1.7952  0.2040
 8506SOL     OW36979   0.464   2.265   7.292  0.1167  0.0084 -0.3024
 8506SOL    HW136980   0.510   2.186   7.265  0.0140 -0.2073  0.1655
 8506SOL    HW236981   0.406   2.255   7.216 -0.2648  0.2968 -0.0441
 8507SOL     OW36982   2.043   0.007  14.147 -0.0326 -0.3135  0.0348
 8507SOL    HW136983   2.053   4.667  14.220  1.6081 -2.5286 -2.0317
 8507SOL    HW236984   2.000   0.076  14.197 -0.3211 -0.8664  0.5505
 8508SOL     OW36985   1.021   1.584   3.605 -0.2730 -0.4753 -0.0622
 8508SOL    HW136986   0.940   1.630   3.627 -1.0376 -1.0030 -1.7573
 8508SOL    HW236987   1.011   1.506   3.660 -0.1839 -0.7027 -0.3725
 8509SOL     OW36988   4.382   1.213   5.567  0.2204  0.3407 -0.4057
 8509SOL    HW136989   4.341   1.297   5.545  0.8079  0.7085 -0.0920
 8509SOL    HW236990   4.428   1.237   5.647  0.7745 -2.1470  0.0236
 8510SOL     OW36991   2.248   3.767  12.592 -0.9128 -0.5691 -0.6558
 8510SOL    HW136992   2.288   3.705  12.531 -0.0087  0.7905 -1.4631
 8510SOL    HW236993   2.154   3.751  12.585 -0.7322 -2.0836  0.4158
 8511SOL     OW36994   1.733   1.351   8.649 -0.3213  0.0949 -0.5326
 8511SOL    HW136995   1.737   1.393   8.563 -3.8803  3.0745  0.7332
 8511SOL    HW236996   1.692   1.419   8.703 -0.5325 -2.1033  2.0651
 8512SOL     OW36997   2.372   0.165   3.226  0.5475  0.3340 -0.4155
 8512SOL    HW136998   2.361   0.070   3.225  2.1375  0.1524 -0.5723
 8512SOL    HW236999   2.446   0.183   3.167  1.0516  1.2741  0.5123
 8513SOL     OW37000   3.725   2.022   6.879 -0.7683 -0.1621 -0.6463
 8513SOL    HW137001   3.794   1.997   6.941  0.2996  0.8687 -1.4066
 8513SOL    HW237002   3.659   1.953   6.874 -1.3135  0.3439 -0.4672
 8514SOL     OW37003   1.478   1.136   2.654 -0.1250 -0.0786  0.1612
 8514SOL    HW137004   1.543   1.185   2.705 -0.7381  0.3014  0.5790
 8514SOL    HW237005   1.413   1.112   2.720  0.7279 -0.3384  0.9174
 8515SOL     OW37006   4.088   0.491  14.866 -0.1070  0.7067 -0.3876
 8515SOL    HW137007   3.998   0.461  14.862  0.3697 -0.5530 -1.6006
 8515SOL    HW237008   4.071   0.581  14.837  0.9086  1.5192  1.5711
 8516SOL     OW37009   3.592   2.005  13.004  0.4788  0.2724  0.1388
 8516SOL    HW137010   3.553   1.989  12.918 -2.3581  3.4303  0.8399
 8516SOL    HW237011   3.659   1.937  12.992 -1.0827 -1.0503 -1.0737
 8517SOL     OW37012   3.098   0.327  10.383 -0.4097  0.3718  0.4068
 8517SOL    HW137013   3.063   0.274  10.454  1.3461  1.4581  2.0879
 8517SOL    HW237014   3.120   0.402  10.438  2.5566 -0.1430 -0.0618
 8518SOL     OW37015   0.767   0.797   8.634 -0.1668  0.5604  0.7255
 8518SOL    HW137016   0.820   0.858   8.583  0.3880 -0.1394  0.4614
 8518SOL    HW237017   0.822   0.719   8.641 -0.9356 -0.2478 -2.4610
 8519SOL     OW37018   3.026   3.804   1.920  0.4116  0.8425  0.4186
 8519SOL    HW137019   3.039   3.852   2.001  0.8708 -2.0802  2.0975
 8519SOL    HW237020   3.044   3.712   1.943  0.3353  0.2415 -1.9080
 8520SOL     OW37021   4.305   1.456   3.044 -0.3585 -0.0475  0.4662
 8520SOL    HW137022   4.340   1.538   3.078  1.7262 -0.9634  0.4870
 8520SOL    HW237023   4.234   1.503   3.001 -1.3206 -1.2147  0.7769
 8521SOL     OW37024   0.367   1.549   1.778 -0.1732  0.4628  0.1579
 8521SOL    HW137025   0.355   1.643   1.790  1.1791  0.9698 -2.3517
 8521SOL    HW237026   0.391   1.527   1.868 -1.1648 -2.4944 -0.2994
 8522SOL     OW37027   1.155   1.621   2.057  0.4350 -0.0407 -0.0645
 8522SOL    HW137028   1.170   1.536   2.017  0.1106 -1.0633  1.9497
 8522SOL    HW237029   1.083   1.652   2.002 -0.4841  0.0669  1.1874
 8523SOL     OW37030   0.101   2.404  17.440  0.2106  0.1900  0.1883
 8523SOL    HW137031   0.080   2.484  17.488  0.4042  0.2159  0.2316
 8523SOL    HW237032   0.128   2.356  17.518 -0.5709 -0.9158 -0.2222
 8524SOL     OW37033   0.962   0.774   1.674  0.1062 -0.7758 -0.2527
 8524SOL    HW137034   1.040   0.762   1.619  0.0502 -0.0247 -0.4948
 8524SOL    HW237035   0.922   0.858   1.654 -0.4483 -0.9068  0.2947
 8525SOL     OW37036   4.324   4.721   1.370  0.6913  0.1655 -0.1257
 8525SOL    HW137037   4.273   4.646   1.400  1.1269 -0.1548 -0.1915
 8525SOL    HW237038   4.273   0.076   1.397  1.4162  0.4827  0.3509
 8526SOL     OW37039   0.902   2.047   6.720  0.1540 -0.7180 -0.3004
 8526SOL    HW137040   0.807   2.041   6.719  0.0633  0.7798 -0.5709
 8526SOL    HW237041   0.926   1.956   6.704 -1.6236 -1.1122 -0.6947
 8527SOL     OW37042   4.513   1.610   5.896 -0.0973  0.0246 -0.3464
 8527SOL    HW137043   4.607   1.612   5.880 -0.2474 -2.2076 -1.4302
 8527SOL    HW237044   4.485   1.585   5.808 -2.1456  2.4638 -0.4116
 8528SOL     OW37045   0.783   1.224  13.195  0.5049  0.2222  0.0553
 8528SOL    HW137046   0.709   1.281  13.172 -0.7172 -0.9162  1.1430
 8528SOL    HW237047   0.819   1.214  13.107  0.1657 -2.1657  0.1877
 8529SOL     OW37048   2.792   2.441   9.430 -0.2596 -0.0124 -0.5859
 8529SOL    HW137049   2.866   2.486   9.471  1.7430 -1.5733 -2.5047
 8529SOL    HW237050   2.720   2.472   9.486  1.2737  1.4816  0.5371
 8530SOL     OW37051   0.430   4.683  16.623  0.4278 -0.2354 -0.0065
 8530SOL    HW137052   0.438   0.019  16.547 -1.2281 -1.6945 -1.2672
 8530SOL    HW237053   0.519   4.649  16.637  0.3096 -1.0905 -1.2957
 8531SOL     OW37054   0.688   0.277   5.378  0.0056 -0.0514 -0.0272
 8531SOL    HW137055   0.689   0.371   5.396 -1.7134  0.1578 -1.0959
 8531SOL    HW237056   0.702   0.269   5.284  0.3523 -2.1766  0.2044
 8532SOL     OW37057   1.550   0.766   2.283 -0.4593  0.6363 -0.3432
 8532SOL    HW137058   1.506   0.769   2.198  0.5812  3.1394 -0.7659
 8532SOL    HW237059   1.537   0.855   2.316  1.2546 -0.4500  3.1803
 8533SOL     OW37060   3.817   4.555   1.646  0.6380  0.3642 -0.7479
 8533SOL    HW137061   3.721   4.550   1.648  0.7386 -1.2931 -0.5978
 8533SOL    HW237062   3.841   4.469   1.612  0.5037  0.0944 -0.1620
 8534SOL     OW37063   0.749   0.806   5.027  0.1247 -0.6167  0.2321
 8534SOL    HW137064   0.700   0.786   5.107 -1.0000 -0.2212 -0.3733
 8534SOL    HW237065   0.724   0.895   5.004 -1.1221 -0.8376  0.7623
 8535SOL     OW37066   1.753   1.313  10.375 -0.4709 -0.4696  0.0798
 8535SOL    HW137067   1.699   1.312  10.454  0.6805  0.9819  0.8811
 8535SOL    HW237068   1.834   1.283  10.415 -0.5944  1.0023  1.4180
 8536SOL     OW37069   4.201   3.348   3.611  0.0030  0.2130 -0.2822
 8536SOL    HW137070   4.112   3.343   3.577 -1.0798  1.8624  2.3355
 8536SOL    HW237071   4.222   3.255   3.615 -1.3442  0.0377  2.2278
 8537SOL     OW37072   3.165   0.832  16.955 -0.0190  0.1120  0.3875
 8537SOL    HW137073   3.141   0.888  16.881 -0.7055 -0.7652 -0.0564
 8537SOL    HW237074   3.082   0.793  16.984  0.0993 -1.1251 -0.8946
 8538SOL     OW37075   2.007   3.840   3.798 -0.1124  0.0234 -0.3247
 8538SOL    HW137076   2.024   3.755   3.838  0.6261  0.5761  0.5377
 8538SOL    HW237077   1.927   3.871   3.839  1.9147  3.2676  1.1630
 8539SOL     OW37078   3.650   4.023   9.402  0.2381  0.0300  0.8697
 8539SOL    HW137079   3.651   3.970   9.323  1.2066  0.2018  0.7623
 8539SOL    HW237080   3.576   3.987   9.450 -2.1518  0.7563 -2.3190
 8540SOL     OW37081   0.085   2.076   8.974  0.3702  0.9269 -0.3005
 8540SOL    HW137082   0.129   2.161   8.984  1.6259  0.2134  0.1682
 8540SOL    HW237083   0.030   2.089   9.052 -0.5254 -1.4190 -0.5685
 8541SOL     OW37084   4.610   1.590  16.378  0.1239 -0.0323 -0.4339
 8541SOL    HW137085   4.619   1.514  16.436 -2.0349  0.7489  0.9331
 8541SOL    HW237086   4.694   1.635  16.386  0.8543 -1.6133  0.6995
 8542SOL     OW37087   2.862   1.481  13.522  0.1802 -0.1971 -0.3583
 8542SOL    HW137088   2.891   1.430  13.447  0.8380 -0.3095 -0.0305
 8542SOL    HW237089   2.877   1.423  13.597  2.1196 -0.9067 -1.3067
 8543SOL     OW37090   1.730   4.153  14.484 -0.1692 -0.6586  0.7614
 8543SOL    HW137091   1.647   4.125  14.522 -0.5832  2.1647  1.9036
 8543SOL    HW237092   1.717   4.248  14.487  1.0690 -0.3547 -3.5886
 8544SOL     OW37093   2.784   1.746   7.035 -0.5174 -0.4706 -0.0950
 8544SOL    HW137094   2.869   1.767   7.075 -1.0012 -1.2222  1.3094
 8544SOL    HW237095   2.820   1.688   6.968 -1.9722 -0.0954 -1.1958
 8545SOL     OW37096   1.606   2.310   5.952  0.1001 -0.3649 -0.1252
 8545SOL    HW137097   1.580   2.345   6.037 -1.5413 -0.5796 -0.5442
 8545SOL    HW237098   1.619   2.392   5.904  2.4987 -0.6438  0.0553
 8546SOL     OW37099   4.325   0.250   6.735  0.2596  0.2467  0.1940
 8546SOL    HW137100   4.286   0.243   6.822 -0.2941 -1.7447 -0.2072
 8546SOL    HW237101   4.287   0.170   6.699  1.5568 -0.1312 -0.3583
 8547SOL     OW37102   0.340   0.113   4.047 -0.6594 -0.2294 -0.0329
 8547SOL    HW137103   0.265   0.054   4.038 -1.3010  0.5738  0.0552
 8547SOL    HW237104   0.299   0.186   4.093 -0.7431 -0.4469  0.2407
 8548SOL     OW37105   3.567   2.059   0.174 -0.2417 -0.0033  0.1614
 8548SOL    HW137106   3.556   2.058   0.269  0.4551  0.9699  0.2530
 8548SOL    HW237107   3.628   1.986   0.182  0.0328  0.2359  0.2442
 8549SOL     OW37108   2.400   4.615   4.868 -0.2927  0.1535 -0.1621
 8549SOL    HW137109   2.489   4.639   4.894 -0.6082  1.1696 -0.0500
 8549SOL    HW237110   2.365   4.703   4.862 -1.2659 -0.1403  1.1613
 8550SOL     OW37111   1.570   1.861  15.659  0.2459 -0.0115  0.3117
 8550SOL    HW137112   1.647   1.901  15.618  0.9965 -0.6096  1.1255
 8550SOL    HW237113   1.553   1.789  15.599 -0.4433 -0.1956  0.7245
 8551SOL     OW37114   2.758   2.623  17.069 -0.1715 -0.2543  0.0359
 8551SOL    HW137115   2.730   2.539  17.105  1.9329  0.0543  2.3855
 8551SOL    HW237116   2.677   2.665  17.039 -0.2387 -0.8199 -0.5782
 8552SOL     OW37117   1.519   1.409   5.022 -0.1319  0.1673 -0.4073
 8552SOL    HW137118   1.445   1.428   5.080 -0.7384 -0.7303 -0.8872
 8552SOL    HW237119   1.513   1.313   5.024 -0.2475  0.1268 -2.3666
 8553SOL     OW37120   1.431   1.939   3.400 -0.2831 -0.4871  0.1144
 8553SOL    HW137121   1.425   2.024   3.356 -0.6059 -0.8016 -0.4546
 8553SOL    HW237122   1.338   1.916   3.400 -0.4907  0.3291  2.6788
 8554SOL     OW37123   3.468   1.514   5.572 -0.0736 -0.3407 -0.1302
 8554SOL    HW137124   3.500   1.495   5.483  2.2647 -0.7437  0.8133
 8554SOL    HW237125   3.450   1.608   5.570  3.7662  0.3942 -0.3355
 8555SOL     OW37126   0.477   1.965  17.643 -0.6500  0.3521 -0.5840
 8555SOL    HW137127   0.444   1.896   0.014 -0.1075  0.2840 -0.3608
 8555SOL    HW237128   0.475   2.042   0.013 -1.4430  0.4927 -0.7944
 8556SOL     OW37129   2.519   2.755   2.799  0.2657  0.1341 -0.2760
 8556SOL    HW137130   2.581   2.810   2.751  0.2512 -0.3591 -0.8497
 8556SOL    HW237131   2.568   2.673   2.797  2.8834  1.6509  0.9060
 8557SOL     OW37132   0.123   0.191   4.733 -0.1527  0.4003 -0.3215
 8557SOL    HW137133   0.078   0.203   4.816 -0.6970 -1.3627 -0.3640
 8557SOL    HW237134   0.215   0.187   4.758 -0.7358  0.6368  1.8079
 8558SOL     OW37135   0.905   2.697   2.082 -0.1506  0.8781 -0.0063
 8558SOL    HW137136   0.918   2.790   2.062 -0.0810  0.9287  0.2652
 8558SOL    HW237137   0.896   2.700   2.178  0.2761  0.6086  0.0438
 8559SOL     OW37138   4.127   0.358  12.496 -0.6980 -0.2722  0.1850
 8559SOL    HW137139   4.178   0.400  12.565 -0.2375  1.8001 -1.3949
 8559SOL    HW237140   4.076   0.295  12.547  0.6128 -1.5710 -0.1302
 8560SOL     OW37141   1.321   1.394   5.217 -0.0447 -0.1689  0.3460
 8560SOL    HW137142   1.236   1.367   5.252  0.3697 -2.3104 -0.3377
 8560SOL    HW237143   1.359   1.311   5.187  4.0096  0.7148  3.0351
 8561SOL     OW37144   3.753   1.313   9.986  0.7571 -0.1808  0.2500
 8561SOL    HW137145   3.804   1.232   9.978  2.4475  0.8628  0.5481
 8561SOL    HW237146   3.718   1.334   9.900 -1.5951 -2.8801  0.5447
 8562SOL     OW37147   1.226   3.468  16.671  0.1302  0.1480  0.0997
 8562SOL    HW137148   1.187   3.555  16.657 -0.6273  0.1572  2.3015
 8562SOL    HW237149   1.184   3.410  16.608  1.1232 -0.9643  0.4586
 8563SOL     OW37150   1.354   1.517   3.797  0.3019  0.2712 -0.3433
 8563SOL    HW137151   1.403   1.573   3.857  0.0319 -1.2232  1.2697
 8563SOL    HW237152   1.391   1.430   3.811  1.8889  0.7961 -1.3919
 8564SOL     OW37153   1.523   2.876  15.076 -0.1360 -0.0568  0.2686
 8564SOL    HW137154   1.615   2.860  15.096 -0.5986 -1.5445  1.1850
 8564SOL    HW237155   1.498   2.798  15.028  1.5203  0.4402 -1.4001
 8565SOL     OW37156   2.338   3.967  17.375 -0.6685  0.2794 -0.2503
 8565SOL    HW137157   2.359   4.057  17.401 -1.3224  0.1053  0.9027
 8565SOL    HW237158   2.293   3.931  17.452 -0.0392  1.4248  0.6454
 8566SOL     OW37159   1.875   2.136  17.147  0.0597 -0.5050 -0.6034
 8566SOL    HW137160   1.951   2.096  17.105  0.5632  0.3330 -0.4913
 8566SOL    HW237161   1.808   2.069  17.133  0.1900 -0.6650 -0.4631
 8567SOL     OW37162   2.601   1.864   0.234  0.3740 -0.0231  0.4439
 8567SOL    HW137163   2.508   1.859   0.213  0.1345 -0.8280  1.6908
 8567SOL    HW237164   2.596   1.841   0.326  1.3933  0.1189  0.5324
 8568SOL     OW37165   4.713   0.341   5.614 -0.4255 -0.2263  0.2003
 8568SOL    HW137166   4.718   0.392   5.695 -2.5146 -2.3425  1.6544
 8568SOL    HW237167   4.692   0.252   5.639 -2.1298 -0.1691 -0.9994
 8569SOL     OW37168   4.655   2.968   4.342  0.1930 -0.4469 -0.1870
 8569SOL    HW137169   4.690   2.909   4.275  0.9600 -1.0529  0.7415
 8569SOL    HW237170   4.560   2.957   4.331  0.2470 -0.5999 -0.4964
 8570SOL     OW37171   4.048   0.272  10.806  0.9664 -0.1981  0.1353
 8570SOL    HW137172   4.104   0.314  10.871 -0.1862  1.1279  0.2685
 8570SOL    HW237173   4.107   0.227  10.745  0.1181 -1.0226 -0.0791
 8571SOL     OW37174   0.876   1.020   1.620  0.1937  0.0281  0.1077
 8571SOL    HW137175   0.879   1.057   1.531  2.2676 -1.8593 -0.5996
 8571SOL    HW237176   0.939   1.076   1.666  0.3646  2.5150 -3.1485
 8572SOL     OW37177   0.437   1.179  10.463  0.6395 -0.9067  0.2674
 8572SOL    HW137178   0.414   1.100  10.413 -0.1164 -0.2263 -0.4679
 8572SOL    HW237179   0.399   1.243  10.403  1.6087  0.3556  1.0075
 8573SOL     OW37180   2.933   2.362  12.676 -0.7855  0.4432  0.5721
 8573SOL    HW137181   3.027   2.344  12.676 -0.9799 -0.5881  0.1368
 8573SOL    HW237182   2.916   2.347  12.769  0.2998  0.1666  0.7166
 8574SOL     OW37183   0.762   1.787   6.153  0.5613  0.3514  0.5475
 8574SOL    HW137184   0.729   1.872   6.182 -0.4709 -0.7258  2.5932
 8574SOL    HW237185   0.805   1.757   6.234  1.3435  0.2908  0.1106
 8575SOL     OW37186   1.376   2.729  15.300  0.1575  0.2458 -0.4324
 8575SOL    HW137187   1.415   2.649  15.265  2.4309  0.3677  1.7789
 8575SOL    HW237188   1.391   2.788  15.227 -0.0143  0.5899 -0.1882
 8576SOL     OW37189   1.214   1.959   2.894  0.3844  0.1678  0.3632
 8576SOL    HW137190   1.292   1.985   2.942 -1.0158  2.2697  1.4831
 8576SOL    HW237191   1.213   2.025   2.825 -0.6086  1.5442  1.6993
 8577SOL     OW37192   2.928   1.312  16.841  0.6687  0.3568 -0.0645
 8577SOL    HW137193   2.897   1.390  16.795  2.3595 -0.3069 -2.3647
 8577SOL    HW237194   2.866   1.303  16.913  1.3558  0.9716  0.6062
 8578SOL     OW37195   4.043   0.034   6.136  0.2298  0.0166  0.2635
 8578SOL    HW137196   4.138   0.046   6.126  0.2056 -0.1550 -0.1672
 8578SOL    HW237197   4.011   0.115   6.095 -0.5155  0.0303  0.8725
 8579SOL     OW37198   3.173   0.390   8.357 -0.4111 -0.0068 -0.1528
 8579SOL    HW137199   3.232   0.315   8.354  0.9004  0.9311  2.4299
 8579SOL    HW237200   3.178   0.409   8.263 -1.3321 -4.3170 -1.0893
 8580SOL     OW37201   0.769   1.179  10.787  0.2944  0.0448  0.8290
 8580SOL    HW137202   0.825   1.103  10.799  0.8193  0.2049 -0.6368
 8580SOL    HW237203   0.715   1.168  10.866 -1.5315  1.3868 -0.2413
 8581SOL     OW37204   2.685   1.141   3.246 -0.8075  0.3248 -0.3097
 8581SOL    HW137205   2.706   1.148   3.153 -1.1539  1.8071 -0.2874
 8581SOL    HW237206   2.589   1.145   3.240 -0.9366  0.0920  1.3974
 8582SOL     OW37207   4.380   3.589   9.306  0.3969  0.5267 -0.9110
 8582SOL    HW137208   4.369   3.663   9.245  0.3924  1.0085 -0.3259
 8582SOL    HW237209   4.458   3.612   9.357  0.2573  2.4022 -1.5456
 8583SOL     OW37210   2.047   0.162   6.406  0.3967 -0.2931 -0.3644
 8583SOL    HW137211   2.053   0.225   6.334  1.4791  1.0541  0.9031
 8583SOL    HW237212   1.972   0.105   6.389  0.4494 -0.6344  0.5515
 8584SOL     OW37213   3.785   2.023   4.313 -0.1586 -0.2837  0.1468
 8584SOL    HW137214   3.842   2.060   4.380  2.8649 -1.9405 -1.5080
 8584SOL    HW237215   3.726   2.096   4.291 -0.2661 -0.0132  1.3743
 8585SOL     OW37216   3.076   0.345  16.583 -0.2413  0.1369 -0.7405
 8585SOL    HW137217   2.983   0.344  16.604 -0.3233 -1.3421 -1.1539
 8585SOL    HW237218   3.102   0.418  16.638 -0.3000 -2.0783  2.2382
 8586SOL     OW37219   4.715   4.428   9.964  0.0903  0.2127 -0.7792
 8586SOL    HW137220   0.028   4.356  10.018  1.1732  0.8014 -0.6734
 8586SOL    HW237221   0.056   4.414   9.892  0.3953  1.7977 -0.8221
 8587SOL     OW37222   3.944   3.592   3.474  0.2566 -0.4040  0.1416
 8587SOL    HW137223   3.930   3.563   3.564 -0.7914  0.8167  0.3749
 8587SOL    HW237224   3.856   3.613   3.444  0.5108 -1.0382 -1.0405
 8588SOL     OW37225   3.273   3.410   4.286  0.6512  0.1293 -0.0266
 8588SOL    HW137226   3.255   3.439   4.375 -0.7617  2.8015 -1.1920
 8588SOL    HW237227   3.252   3.491   4.239 -2.6956 -0.2685  0.7368
 8589SOL     OW37228   0.443   2.077  16.342 -0.4102 -0.0200 -0.4346
 8589SOL    HW137229   0.462   2.013  16.273  1.1855 -1.2309  1.1393
 8589SOL    HW237230   0.451   2.009  16.409 -1.7233 -0.2670 -0.5275
 8590SOL     OW37231   2.194   3.743   9.872  0.3394  0.4469 -0.2840
 8590SOL    HW137232   2.122   3.805   9.885 -1.4049 -1.8161  1.0145
 8590SOL    HW237233   2.238   3.781   9.797  1.1130  1.4659  0.6959
 8591SOL     OW37234   1.943   3.338   0.245  0.6882 -0.1981  0.9675
 8591SOL    HW137235   1.894   3.388   0.311 -2.2936 -1.1923 -0.4613
 8591SOL    HW237236   1.907   3.363   0.160  0.6342  0.9282  1.3147
 8592SOL     OW37237   0.209   3.010   3.558  0.3720 -0.0497  0.1487
 8592SOL    HW137238   0.162   3.008   3.474  2.6932 -3.8875 -1.0731
 8592SOL    HW237239   0.302   2.999   3.540  0.7283 -0.5397  2.3120
 8593SOL     OW37240   4.610   3.993  14.585 -0.4873  0.1315  0.1626
 8593SOL    HW137241   4.578   4.053  14.653  0.7075  0.9207  0.0413
 8593SOL    HW237242   4.603   3.912  14.634  0.8590  0.6102  1.1392
 8594SOL     OW37243   4.125   2.062   8.507  0.4550  0.0373  0.4127
 8594SOL    HW137244   4.033   2.063   8.534  0.4957  1.0326  0.5280
 8594SOL    HW237245   4.121   1.983   8.453  0.3831 -0.6540  1.4375
 8595SOL     OW37246   3.084   3.813   1.664 -0.5567  0.4917 -0.2480
 8595SOL    HW137247   3.164   3.861   1.643 -0.3314 -0.4030 -1.4075
 8595SOL    HW237248   3.066   3.839   1.755  0.2293  0.3842 -0.0623
 8596SOL     OW37249   1.645   0.191   7.211  0.1872  0.3081  0.0846
 8596SOL    HW137250   1.707   0.245   7.162 -0.8629  1.2510 -0.1952
 8596SOL    HW237251   1.559   0.218   7.178 -0.8617 -0.5454  2.1055
 8597SOL     OW37252   3.600   3.152   7.637  0.1584 -0.4129 -0.3421
 8597SOL    HW137253   3.508   3.177   7.623  0.4867  0.8365 -0.2989
 8597SOL    HW237254   3.623   3.233   7.682 -0.6876  0.7158 -1.9381
 8598SOL     OW37255   3.708   3.052  13.438 -0.1031 -0.1578 -0.1978
 8598SOL    HW137256   3.712   3.111  13.363  2.4390  0.4594  0.4188
 8598SOL    HW237257   3.650   2.981  13.413  1.3414 -0.2135 -3.4023
 8599SOL     OW37258   0.961   0.518   9.236 -0.0451  0.2182  0.6010
 8599SOL    HW137259   0.933   0.441   9.188  0.9265 -0.3839  1.0110
 8599SOL    HW237260   0.938   0.581   9.168  3.3861  0.8655  0.0338
 8600SOL     OW37261   0.524   0.161  11.920  0.7761  0.4633 -0.8112
 8600SOL    HW137262   0.461   0.233  11.907  1.1575  0.8801 -0.3762
 8600SOL    HW237263   0.498   0.130  12.007 -2.1328  0.8527 -1.5434
 8601SOL     OW37264   3.861   2.886   8.326 -0.0297 -0.9687 -0.0528
 8601SOL    HW137265   3.930   2.950   8.345 -0.5275 -0.5791  0.4625
 8601SOL    HW237266   3.786   2.918   8.377  0.8719  2.4597 -0.8486
 8602SOL     OW37267   2.947   1.543   6.978 -0.0180  0.0840 -0.1711
 8602SOL    HW137268   2.973   1.494   7.056 -1.0948 -1.0758 -0.5448
 8602SOL    HW237269   3.022   1.601   6.966 -0.2344  0.3217 -0.3851
 8603SOL     OW37270   3.865   0.109  14.964 -0.2313  0.3426  0.2872
 8603SOL    HW137271   3.960   0.114  14.954 -0.4566  2.9074 -0.7151
 8603SOL    HW237272   3.832   0.153  14.885  1.6679  0.3025 -0.5131
 8604SOL     OW37273   4.344   0.704   9.306 -0.3384 -0.2588 -0.4248
 8604SOL    HW137274   4.424   0.748   9.333 -0.5779  0.5294 -1.0276
 8604SOL    HW237275   4.294   0.720   9.386 -0.6931  0.9902 -0.9054
 8605SOL     OW37276   3.597   4.292   9.451  0.1481 -0.6323  0.4307
 8605SOL    HW137277   3.555   4.295   9.537  3.5748  0.9708  2.0142
 8605SOL    HW237278   3.607   4.198   9.435 -0.7623 -1.1346  2.7424
 8606SOL     OW37279   2.068   2.219   8.464 -0.4727 -0.3490  0.0052
 8606SOL    HW137280   1.992   2.233   8.407 -1.3140 -0.3081  1.1295
 8606SOL    HW237281   2.038   2.146   8.518 -1.1758 -0.6805 -0.8218
 8607SOL     OW37282   3.264   1.319   7.084 -0.0599  0.1286  0.5125
 8607SOL    HW137283   3.209   1.247   7.050 -2.9101  2.3384  0.4365
 8607SOL    HW237284   3.203   1.354   7.149  1.7290  1.4932  1.4620
 8608SOL     OW37285   2.235   0.135   6.889  0.1134 -0.0357 -0.0813
 8608SOL    HW137286   2.244   0.055   6.940 -1.4665  0.0664  0.3477
 8608SOL    HW237287   2.183   0.188   6.949  0.7993 -0.3221  0.7772
 8609SOL     OW37288   2.999   2.114  15.285 -0.1968 -0.2269 -0.2845
 8609SOL    HW137289   2.978   2.056  15.212  0.7634 -0.7459 -0.1490
 8609SOL    HW237290   2.936   2.186  15.281  0.7001  0.5781 -0.0324
 8610SOL     OW37291   0.410   0.580   2.621  0.0691 -0.6536  0.1564
 8610SOL    HW137292   0.345   0.571   2.691  1.2395  2.7495  1.6856
 8610SOL    HW237293   0.468   0.642   2.665 -0.3243  0.2535 -0.5891
 8611SOL     OW37294   0.211   2.736   6.437  0.1183  0.5084  0.3553
 8611SOL    HW137295   0.228   2.645   6.414 -0.8259  0.6145 -0.7349
 8611SOL    HW237296   0.197   2.736   6.532  0.7164  0.9172  0.4479
 8612SOL     OW37297   4.086   2.523  10.668  0.1966 -0.2925  0.2891
 8612SOL    HW137298   4.114   2.534  10.577 -1.6283  1.3247 -0.0733
 8612SOL    HW237299   4.053   2.434  10.666 -0.3477 -0.0504 -1.1615
 8613SOL     OW37300   1.852   3.958   7.712 -0.8166 -0.1682  0.0084
 8613SOL    HW137301   1.918   3.920   7.770  1.3076  0.6863 -1.8775
 8613SOL    HW237302   1.888   3.927   7.629  1.5985 -0.5088  1.1775
 8614SOL     OW37303   1.286   2.158   7.259 -0.6605  0.4620  0.1472
 8614SOL    HW137304   1.198   2.188   7.236 -0.9757 -0.2529  0.4182
 8614SOL    HW237305   1.270   2.064   7.265 -0.4498  0.3556 -1.0822
 8615SOL     OW37306   0.221   2.298   3.656 -0.6781  0.2996  0.6391
 8615SOL    HW137307   0.275   2.226   3.622 -0.8206 -0.3703  1.8467
 8615SOL    HW237308   0.137   2.257   3.674  0.1607 -1.8951 -0.4971
 8616SOL     OW37309   3.460   1.490  10.103 -0.4273 -0.3668  0.9535
 8616SOL    HW137310   3.489   1.483  10.012 -4.4848 -1.3449 -0.2794
 8616SOL    HW237311   3.451   1.585  10.112 -1.8462 -0.3951 -0.0228
 8617SOL     OW37312   1.696   3.754   6.269  0.0009  0.5406 -0.7278
 8617SOL    HW137313   1.661   3.723   6.353  0.4725  1.7014 -0.0978
 8617SOL    HW237314   1.791   3.745   6.279  0.1929  0.6657 -2.5327
 8618SOL     OW37315   2.927   2.797  16.393  0.2073 -0.2222  0.9595
 8618SOL    HW137316   2.940   2.703  16.407  1.5765 -0.4829 -2.1262
 8618SOL    HW237317   2.992   2.809  16.323  0.5345 -2.8969  0.8175
 8619SOL     OW37318   3.504   3.822   0.584 -0.0400 -0.0427 -0.0465
 8619SOL    HW137319   3.410   3.835   0.573 -0.2253  0.2163  1.8177
 8619SOL    HW237320   3.520   3.808   0.491  1.4034  0.6368  0.1012
 8620SOL     OW37321   0.110   4.122   8.690  0.0717  0.1794 -0.2548
 8620SOL    HW137322   0.086   4.181   8.619 -2.4248 -1.2372 -0.5658
 8620SOL    HW237323   0.205   4.129   8.697 -0.0343  0.4941  0.8660
 8621SOL     OW37324   0.498   3.301   6.142  0.5370  0.1541  0.4749
 8621SOL    HW137325   0.472   3.262   6.059  0.3068 -1.4242  1.2764
 8621SOL    HW237326   0.487   3.395   6.126 -1.1683  0.0173  0.8941
 8622SOL     OW37327   2.491   4.256   2.980  0.1702  0.0101  0.0088
 8622SOL    HW137328   2.452   4.174   2.950 -0.0918  0.1475 -0.0213
 8622SOL    HW237329   2.584   4.243   2.959  0.3128  0.6056  0.2810
 8623SOL     OW37330   1.054   1.130   7.042 -0.6127  0.8118  0.5742
 8623SOL    HW137331   0.977   1.181   7.018 -0.9535  1.1253  2.3411
 8623SOL    HW237332   1.024   1.052   6.995  0.6755  0.5662  0.1539
 8624SOL     OW37333   2.290   0.596   4.426 -0.5229 -0.5599 -0.0163
 8624SOL    HW137334   2.353   0.645   4.373 -0.5436  1.2675  1.6259
 8624SOL    HW237335   2.226   0.666   4.437 -1.1164 -1.0966 -0.0534
 8625SOL     OW37336   2.009   2.097   1.860 -0.0311 -0.3453  0.1305
 8625SOL    HW137337   2.094   2.055   1.842  1.2901  0.9087  3.4424
 8625SOL    HW237338   1.990   2.059   1.945  0.4321 -0.1060  0.3428
 8626SOL     OW37339   0.919   2.444   8.690  0.5857 -0.0034 -0.2054
 8626SOL    HW137340   0.834   2.487   8.681  0.4784  0.5675  3.3541
 8626SOL    HW237341   0.944   2.482   8.775 -1.3063 -1.1696  0.8739
 8627SOL     OW37342   2.025   1.353   7.777 -0.8267 -0.6495  0.6309
 8627SOL    HW137343   2.002   1.367   7.869 -1.5853  0.0949  0.3279
 8627SOL    HW237344   2.087   1.280   7.776 -1.1517 -0.9639  2.2655
 8628SOL     OW37345   2.836   0.913   3.362 -0.7736  0.1677  0.1728
 8628SOL    HW137346   2.919   0.960   3.361 -1.2661  1.0254  0.1666
 8628SOL    HW237347   2.790   0.960   3.292 -0.4544  0.7289  0.3381
 8629SOL     OW37348   1.241   1.130   4.195 -0.0111  0.5849  0.6288
 8629SOL    HW137349   1.333   1.157   4.190  0.4718 -1.7637 -3.2479
 8629SOL    HW237350   1.198   1.213   4.217  1.6551  1.2683  1.2707
 8630SOL     OW37351   0.234   0.141   2.310  0.2986 -0.0144  0.5774
 8630SOL    HW137352   0.190   0.152   2.394 -1.8844  1.2362 -0.7486
 8630SOL    HW237353   0.323   0.173   2.325  0.1144  1.0158 -0.4952
 8631SOL     OW37354   4.163   3.138   9.868  0.3088  0.2150 -0.2499
 8631SOL    HW137355   4.153   3.232   9.851 -1.0132  0.0949 -0.1386
 8631SOL    HW237356   4.224   3.119   9.796  0.0292 -2.3261  0.1765
 8632SOL     OW37357   0.395   0.861   8.026 -0.0769 -0.6338 -0.4067
 8632SOL    HW137358   0.321   0.909   8.064  1.4194  0.9452  0.5141
 8632SOL    HW237359   0.439   0.848   8.110 -0.8690  0.0943  0.1203
 8633SOL     OW37360   0.075   2.968   1.586  0.2642  0.5282  0.4495
 8633SOL    HW137361   4.716   2.942   1.629  0.2816  0.6863  0.5763
 8633SOL    HW237362   0.041   3.038   1.530 -1.9524  0.5352  1.8266
 8634SOL     OW37363   0.009   3.007   5.530 -0.2491  0.1663 -0.1172
 8634SOL    HW137364   4.678   3.079   5.495 -0.6322 -0.5727 -1.0909
 8634SOL    HW237365   4.662   2.948   5.562  0.1789 -1.0040 -1.3562
 8635SOL     OW37366   3.027   0.457   6.631 -0.6967  0.1778  0.6143
 8635SOL    HW137367   3.049   0.501   6.713  1.0945  1.5729 -0.6174
 8635SOL    HW237368   3.110   0.458   6.584 -1.3666  0.2939 -0.5604
 8636SOL     OW37369   0.586   2.759   6.371 -0.0857 -0.0559  0.5693
 8636SOL    HW137370   0.668   2.740   6.326 -0.8113 -0.2946 -0.6417
 8636SOL    HW237371   0.521   2.750   6.302 -1.0595  0.1759  1.4570
 8637SOL     OW37372   4.536   1.910   1.693 -0.1411 -0.5848 -0.0491
 8637SOL    HW137373   4.596   1.974   1.731  0.2813  0.2002 -2.0609
 8637SOL    HW237374   4.445   1.929   1.717  0.3706  0.2599  1.1942
 8638SOL     OW37375   4.374   1.097   2.058 -0.4829 -0.0033  0.4379
 8638SOL    HW137376   4.316   1.173   2.052  1.8287  1.7669  0.3854
 8638SOL    HW237377   4.453   1.143   2.029 -1.1663 -0.0551 -1.5171
 8639SOL     OW37378   2.709   1.457   5.517  0.5261 -0.3949 -0.2631
 8639SOL    HW137379   2.621   1.440   5.484 -0.2752 -0.9989  2.2158
 8639SOL    HW237380   2.727   1.369   5.550  0.3781 -0.5795 -0.6706
 8640SOL     OW37381   3.310   2.099  16.487  0.5455 -0.2753 -0.0124
 8640SOL    HW137382   3.305   2.109  16.392 -2.8875 -0.0793  0.2109
 8640SOL    HW237383   3.386   2.041  16.496  1.4656  0.7917 -0.7992
 8641SOL     OW37384   2.718   1.907   5.439 -0.4486 -0.0263 -0.2105
 8641SOL    HW137385   2.788   1.965   5.410  0.2834 -1.6009 -1.6116
 8641SOL    HW237386   2.665   1.960   5.498  1.0548  0.3702  0.7825
 8642SOL     OW37387   3.438   0.391   6.104 -0.8375  0.3469 -0.0464
 8642SOL    HW137388   3.463   0.433   6.186  0.0872 -0.8062  0.2547
 8642SOL    HW237389   3.358   0.345   6.127 -0.4394 -1.3791 -2.0549
 8643SOL     OW37390   1.666   1.950   0.284 -0.3526  0.8342  0.2833
 8643SOL    HW137391   1.689   1.996   0.203  0.4917  1.0969  0.6686
 8643SOL    HW237392   1.593   1.900   0.249 -1.7480  1.2732  2.5660
 8644SOL     OW37393   0.094   0.122   1.980  0.0904  0.0442  0.0271
 8644SOL    HW137394   0.011   0.129   2.028 -0.2722  2.1410 -0.9141
 8644SOL    HW237395   0.126   0.212   1.979  2.2110 -0.7168 -0.0681
 8645SOL     OW37396   4.290   1.045  17.510 -0.9527  0.1470  0.4221
 8645SOL    HW137397   4.197   1.028  17.496 -0.3069 -3.6896  0.9496
 8645SOL    HW237398   4.324   0.974  17.456 -0.5381 -0.8329  1.9866
 8646SOL     OW37399   3.095   4.192   7.537  0.4440 -0.2940 -0.5131
 8646SOL    HW137400   3.010   4.158   7.564  0.5523  0.8378  1.2594
 8646SOL    HW237401   3.162   4.138   7.580  0.1975  0.8187  1.2838
 8647SOL     OW37402   3.524   4.128   7.490 -0.4785  0.3629 -0.4606
 8647SOL    HW137403   3.593   4.168   7.436  2.0674 -1.7151  1.2482
 8647SOL    HW237404   3.571   4.048   7.515 -0.5707 -0.6318 -3.4576
 8648SOL     OW37405   1.202   2.136   5.617  0.3702 -0.1503 -0.1425
 8648SOL    HW137406   1.181   2.144   5.710 -0.7448 -0.5573 -0.3598
 8648SOL    HW237407   1.146   2.060   5.600 -0.0287  0.0853  0.1421
 8649SOL     OW37408   0.669   0.472  17.682  0.6086 -0.6433  0.5360
 8649SOL    HW137409   0.728   0.398   0.009 -0.2380 -1.0788  1.7908
 8649SOL    HW237410   0.610   0.463   0.069 -1.4608  1.8757 -0.8073
 8650SOL     OW37411   3.992   0.142   4.503 -0.1354 -0.5249  0.2147
 8650SOL    HW137412   3.982   0.065   4.559  2.1884  0.4705  1.9686
 8650SOL    HW237413   3.965   0.206   4.570 -0.2428 -0.4824  0.1307
 8651SOL     OW37414   3.637   4.156  14.841  0.2569 -0.0591 -0.0982
 8651SOL    HW137415   3.691   4.178  14.918 -0.8526 -0.6372  0.8461
 8651SOL    HW237416   3.595   4.237  14.811 -1.6631 -1.3982 -0.9974
 8652SOL     OW37417   1.700   3.664   0.922  0.4029 -0.1334  0.1792
 8652SOL    HW137418   1.702   3.760   0.930  3.2650  0.2011 -4.4653
 8652SOL    HW237419   1.625   3.646   0.979  0.2364 -1.0742 -0.3475
 8653SOL     OW37420   3.169   0.055   3.824 -0.4665  0.1650  0.1272
 8653SOL    HW137421   3.263   0.070   3.821 -0.7320  1.5261 -1.4422
 8653SOL    HW237422   3.137   0.098   3.745  0.2734 -0.2307 -0.3824
 8654SOL     OW37423   0.189   4.681   7.995 -0.0375 -0.0966 -0.1017
 8654SOL    HW137424   0.217   4.687   8.086  2.3699  1.0975 -0.9057
 8654SOL    HW237425   0.265   4.635   7.958 -0.8238 -2.8786  1.7671
 8655SOL     OW37426   4.707   4.706   7.017 -0.2171 -0.3495  0.0812
 8655SOL    HW137427   4.716   4.613   7.036 -1.0568 -0.5743 -0.5831
 8655SOL    HW237428   0.060   4.708   6.956 -0.8810 -0.2534 -0.7270
 8656SOL     OW37429   1.412   1.827  15.881 -0.1340 -0.3929 -0.6637
 8656SOL    HW137430   1.475   1.826  15.809  2.7173 -2.3167  1.9040
 8656SOL    HW237431   1.386   1.919  15.870  0.1111 -0.0599  1.6487
 8657SOL     OW37432   1.735   4.446  11.027 -0.1373 -0.4574 -0.0811
 8657SOL    HW137433   1.681   4.369  11.011 -0.2230 -0.3179 -0.4570
 8657SOL    HW237434   1.664   4.509  11.017  0.5200  0.3253  0.1454
 8658SOL     OW37435   2.292   1.544   2.240  0.4107 -0.2401 -0.3953
 8658SOL    HW137436   2.348   1.562   2.164  0.8713 -0.9460 -0.2316
 8658SOL    HW237437   2.261   1.458   2.212  1.0735 -0.1728 -1.3276
 8659SOL     OW37438   2.793   2.876   0.071 -0.3993  0.0321  0.7058
 8659SOL    HW137439   2.735   2.908   0.002  0.0126 -2.8808 -0.9962
 8659SOL    HW237440   2.872   2.848   0.023 -1.0954  1.6269 -1.3669
 8660SOL     OW37441   2.428   0.440  16.520 -0.2551  0.7343 -0.4284
 8660SOL    HW137442   2.451   0.400  16.604 -3.4750 -2.8391 -1.2138
 8660SOL    HW237443   2.332   0.435  16.518 -0.1183 -1.5979 -1.1834
 8661SOL     OW37444   0.991   4.285   8.251  0.2237 -0.2160 -0.1171
 8661SOL    HW137445   0.949   4.345   8.190 -0.6319 -0.6589  0.0415
 8661SOL    HW237446   1.073   4.274   8.203 -0.1308  1.2525 -1.0353
 8662SOL     OW37447   0.846   0.267   2.736  0.5443  0.2305  0.3393
 8662SOL    HW137448   0.935   0.256   2.771  1.0798 -0.4593 -1.2558
 8662SOL    HW237449   0.865   0.328   2.665  0.0343  1.1577  1.0024
 8663SOL     OW37450   4.344   0.352   4.425 -0.4952 -0.0479  0.0054
 8663SOL    HW137451   4.280   0.383   4.490  0.6418 -1.6703  1.9093
 8663SOL    HW237452   4.344   0.259   4.447  0.7263 -0.2785 -1.0052
 8664SOL     OW37453   1.328   3.458   7.045  0.2929  0.1617  0.4536
 8664SOL    HW137454   1.377   3.455   7.127 -1.5999  0.5251  1.5872
 8664SOL    HW237455   1.367   3.391   6.988 -0.0329 -0.5094  1.0201
 8665SOL     OW37456   2.992   0.663   3.855 -0.0814 -0.6217  0.2988
 8665SOL    HW137457   2.903   0.656   3.820  1.1006 -0.4479 -2.7123
 8665SOL    HW237458   3.035   0.583   3.824 -1.5193 -1.0096 -0.6681
 8666SOL     OW37459   0.068   2.286   4.451 -0.2421 -0.8173  0.4567
 8666SOL    HW137460   0.062   2.213   4.389 -0.3491 -0.6928  0.3214
 8666SOL    HW237461   0.099   2.356   4.394 -0.0505 -1.2865 -0.0171
 8667SOL     OW37462   3.244   1.159   6.514  0.4134 -0.3162  0.4767
 8667SOL    HW137463   3.275   1.240   6.554  0.9605 -1.0934  1.6331
 8667SOL    HW237464   3.172   1.195   6.462  0.3487 -0.3994  0.5097
 8668SOL     OW37465   2.061   0.641   5.179  0.3993 -0.2853 -0.0082
 8668SOL    HW137466   2.131   0.577   5.163  1.2414  0.5394  0.4361
 8668SOL    HW237467   2.091   0.689   5.255  1.4593  0.1811 -0.7259
 8669SOL     OW37468   2.495   3.970  12.643  0.1648 -0.2465  0.4523
 8669SOL    HW137469   2.473   4.023  12.720 -0.3295 -0.9939  0.8314
 8669SOL    HW237470   2.414   3.920  12.637 -0.1558  0.2968  0.2936
 8670SOL     OW37471   2.072   0.136   8.323 -0.2398  0.3741 -0.0514
 8670SOL    HW137472   1.999   0.100   8.374  0.8955 -4.0837 -1.5207
 8670SOL    HW237473   2.136   0.157   8.391  1.4074 -0.2898 -1.3846
 8671SOL     OW37474   1.065   3.022   3.408 -0.0335 -0.2426  0.4441
 8671SOL    HW137475   1.057   3.054   3.498  2.0985 -0.7056  0.7882
 8671SOL    HW237476   1.018   3.087   3.356  0.8042 -0.0060 -0.0138
 8672SOL     OW37477   1.460   0.712   3.922 -0.2183 -0.2724 -0.3148
 8672SOL    HW137478   1.420   0.641   3.872 -1.0705 -0.5776  0.8265
 8672SOL    HW237479   1.392   0.739   3.983  1.0330 -0.5540  1.2014
 8673SOL     OW37480   1.761   0.954   3.328 -0.3190 -0.3151  0.1366
 8673SOL    HW137481   1.705   0.897   3.274 -1.3337 -0.2446  1.1169
 8673SOL    HW237482   1.847   0.928   3.296 -0.7688 -1.2308 -0.3287
 8674SOL     OW37483   4.072   0.468   6.138  0.0648 -0.0722  0.5673
 8674SOL    HW137484   4.022   0.436   6.213  0.8640  3.3156  2.5474
 8674SOL    HW237485   4.039   0.409   6.070 -2.0079  0.3367  1.1935
 8675SOL     OW37486   0.956   3.708  10.230 -0.3336 -0.2320 -0.2037
 8675SOL    HW137487   0.909   3.771  10.284 -0.1385 -2.0715  2.1312
 8675SOL    HW237488   1.039   3.753  10.213  0.9216 -2.2716  0.4904
 8676SOL     OW37489   1.495   4.607   8.766  0.1478 -0.6038 -0.5859
 8676SOL    HW137490   1.477   4.666   8.839  0.3000 -0.0194 -1.0294
 8676SOL    HW237491   1.522   4.667   8.698  0.4337 -0.4744 -0.3595
 8677SOL     OW37492   4.280   3.606   5.712  0.1784  0.1783 -0.4778
 8677SOL    HW137493   4.265   3.596   5.617  1.4343 -0.5598 -0.5877
 8677SOL    HW237494   4.272   3.514   5.735  1.2468  0.5225  1.2225
 8678SOL     OW37495   0.602   4.325   4.787 -0.2029  0.6076  0.2896
 8678SOL    HW137496   0.623   4.377   4.865  0.3646  1.5318 -0.4700
 8678SOL    HW237497   0.664   4.253   4.795 -1.5504 -0.7661 -1.7870
 8679SOL     OW37498   2.036   4.498   9.439 -0.0252  0.3793 -0.5103
 8679SOL    HW137499   1.997   4.540   9.363 -0.6888 -0.2582 -0.5250
 8679SOL    HW237500   2.056   4.415   9.396  0.4519 -0.4128  1.2332
 8680SOL     OW37501   4.515   3.346   0.276 -0.1092  0.7945 -0.1355
 8680SOL    HW137502   4.425   3.334   0.307 -0.9168 -1.0154 -3.1378
 8680SOL    HW237503   4.519   3.297   0.194  0.8082  1.4613 -0.4944
 8681SOL     OW37504   4.058   0.790   1.996  0.5710  0.3454  0.0836
 8681SOL    HW137505   3.967   0.762   1.987  0.4904  0.2898  1.1259
 8681SOL    HW237506   4.096   0.766   1.912  1.7193  0.9427  0.4346
 8682SOL     OW37507   3.579   0.701   5.318  0.1972 -0.3109  0.0280
 8682SOL    HW137508   3.664   0.699   5.361  0.5865 -1.3083 -0.7838
 8682SOL    HW237509   3.526   0.673   5.393 -1.3333  2.5747  0.0189
 8683SOL     OW37510   0.687   3.805   3.614 -0.4904 -0.1347  0.1514
 8683SOL    HW137511   0.618   3.750   3.575 -1.2777  2.5272 -2.2258
 8683SOL    HW237512   0.714   3.862   3.542 -0.8757 -2.3852 -1.7848
 8684SOL     OW37513   1.384   2.001   0.642 -0.4751  0.1732  0.1916
 8684SOL    HW137514   1.391   2.041   0.729 -1.5008 -1.5968  1.0716
 8684SOL    HW237515   1.474   2.009   0.610 -0.3618  1.2696  0.7869
 8685SOL     OW37516   2.428   0.738   8.883 -0.0200  0.0410 -0.1172
 8685SOL    HW137517   2.343   0.761   8.922 -1.4674 -0.8508 -2.7153
 8685SOL    HW237518   2.402   0.694   8.802  1.7809 -2.2493  0.5625
 8686SOL     OW37519   0.168   4.371   7.471 -0.8202  0.3639 -0.1218
 8686SOL    HW137520   0.246   4.421   7.497 -1.7880  2.0740 -0.5213
 8686SOL    HW237521   0.132   4.434   7.409  1.8605  2.8328  0.8379
 8687SOL     OW37522   4.616   3.727   9.393 -0.2516  0.2125 -0.0130
 8687SOL    HW137523   4.642   3.818   9.383 -1.5504  0.4023 -1.7562
 8687SOL    HW237524   4.589   3.723   9.484 -2.5418  2.0791 -0.6253
 8688SOL     OW37525   1.435   4.087   9.047 -0.0987  0.6609  0.0002
 8688SOL    HW137526   1.451   4.039   9.128 -1.2521  1.6406  0.8058
 8688SOL    HW237527   1.370   4.151   9.075 -0.8426 -0.0876 -0.0177
 8689SOL     OW37528   1.829   0.840   2.608  0.0684 -0.4483 -0.5005
 8689SOL    HW137529   1.744   0.869   2.640 -0.3277 -1.4327 -0.6634
 8689SOL    HW237530   1.846   0.894   2.530 -0.7135 -0.3633 -0.6085
 8690SOL     OW37531   3.221   0.222   4.958 -0.1655  0.5122 -0.4124
 8690SOL    HW137532   3.210   0.214   5.053 -0.1219 -0.6309 -0.4964
 8690SOL    HW237533   3.130   0.233   4.931 -1.0523 -1.8456  1.6427
 8691SOL     OW37534   3.973   0.813  16.742  0.2555 -0.6941 -0.0114
 8691SOL    HW137535   4.009   0.727  16.721  2.5907  0.2033  0.3635
 8691SOL    HW237536   3.975   0.817  16.838 -0.3194 -1.8968  0.0440
 8692SOL     OW37537   2.767   3.453   6.918 -0.6381  0.3947 -0.2571
 8692SOL    HW137538   2.780   3.433   6.826  1.0659 -1.5046  0.3847
 8692SOL    HW237539   2.855   3.451   6.957 -0.3551 -0.9255 -0.9430
 8693SOL     OW37540   2.477   0.567   7.630  0.6815  0.2823 -0.8464
 8693SOL    HW137541   2.523   0.585   7.712 -3.3665 -0.4269  1.6069
 8693SOL    HW237542   2.507   0.642   7.578 -1.7279 -0.1310 -2.7964
 8694SOL     OW37543   0.568   2.087  13.957 -0.0329  0.1775  0.2114
 8694SOL    HW137544   0.536   2.000  13.934  0.5337  0.5109 -1.8089
 8694SOL    HW237545   0.568   2.123  13.869 -1.1523  1.2896  0.6686
 8695SOL     OW37546   2.401   4.393   0.440 -0.6832  0.8342  0.2048
 8695SOL    HW137547   2.442   4.411   0.525  0.4746 -0.9839  0.0278
 8695SOL    HW237548   2.475   4.398   0.379 -0.8741  3.0485  0.1492
 8696SOL     OW37549   1.518   2.383   8.803  0.8197 -0.7840  0.4347
 8696SOL    HW137550   1.524   2.445   8.730 -1.2626 -0.1113  0.8392
 8696SOL    HW237551   1.475   2.442   8.866  0.6042 -0.7877  0.2896
 8697SOL     OW37552   1.616   0.712   4.324  0.3017  0.2508 -0.2540
 8697SOL    HW137553   1.547   0.645   4.321 -0.0093  0.4337  3.1685
 8697SOL    HW237554   1.676   0.667   4.383  0.9149 -0.1421 -1.1713
 8698SOL     OW37555   1.904   0.015  10.492  0.2450 -0.5250  0.3548
 8698SOL    HW137556   1.900   0.052  10.404  0.0917  0.2954  0.7101
 8698SOL    HW237557   1.997   4.715  10.493  0.9232  2.5180  0.2108
 8699SOL     OW37558   0.845   0.578   1.828 -0.5636  0.1463  0.2439
 8699SOL    HW137559   0.884   0.655   1.786 -0.0762 -0.2536 -0.0381
 8699SOL    HW237560   0.806   0.619   1.905  0.0279  0.9164  0.1291
 8700SOL     OW37561   3.122   0.737   3.240 -0.0462 -0.0546  0.2905
 8700SOL    HW137562   3.205   0.785   3.243  1.1544 -2.0935 -0.4141
 8700SOL    HW237563   3.070   0.794   3.297  0.7733 -0.7895  1.7768
 8701SOL     OW37564   0.103   2.765  11.907 -0.5454 -0.1177  0.2108
 8701SOL    HW137565   0.089   2.837  11.968  0.5921 -0.0136  0.3427
 8701SOL    HW237566   0.073   2.796  11.822  0.0635  1.4198  0.5710
 8702SOL     OW37567   2.418   4.135   7.262 -0.5446  0.0287  0.2437
 8702SOL    HW137568   2.505   4.164   7.237 -0.0538 -0.4875  1.3756
 8702SOL    HW237569   2.405   4.108   7.171 -2.0919  0.7205  0.2541
 8703SOL     OW37570   2.023   0.788   4.402 -0.4876 -0.1265  0.4390
 8703SOL    HW137571   2.006   0.789   4.308 -1.5412  0.4593  0.6399
 8703SOL    HW237572   1.953   0.733   4.436 -0.3063  0.5037  1.8318
 8704SOL     OW37573   2.441   1.719   1.703  0.3862  0.0530 -0.1623
 8704SOL    HW137574   2.424   1.626   1.717 -1.6191  0.4856  0.1467
 8704SOL    HW237575   2.514   1.720   1.640  1.3535 -3.4137  0.9278
 8705SOL     OW37576   2.992   3.118  13.504 -0.8414  0.2576  0.2762
 8705SOL    HW137577   2.922   3.053  13.506 -2.5547  2.1068  1.2598
 8705SOL    HW237578   2.982   3.169  13.585  1.4781 -0.5935  1.1088
 8706SOL     OW37579   2.447   2.993   3.745  0.0364 -0.1524  0.0987
 8706SOL    HW137580   2.410   3.080   3.764 -2.4095 -0.6754 -2.2051
 8706SOL    HW237581   2.403   2.938   3.810  1.3063 -1.5851 -0.2600
 8707SOL     OW37582   2.307   3.187   4.175  0.2098  0.2850  0.3897
 8707SOL    HW137583   2.233   3.160   4.120  0.0188  0.4711  0.5548
 8707SOL    HW237584   2.379   3.134   4.140 -1.0531 -0.2911 -1.3423
 8708SOL     OW37585   0.147   1.636  16.438 -0.4675  0.0689  0.0975
 8708SOL    HW137586   0.175   1.631  16.529 -0.6834 -0.0182  0.1590
 8708SOL    HW237587   0.211   1.582  16.391  1.1586  0.8557  1.4132
 8709SOL     OW37588   4.054   1.991   3.150  0.2772  0.4380  0.5791
 8709SOL    HW137589   4.008   2.024   3.073 -0.7571 -0.6035  0.7508
 8709SOL    HW237590   4.118   2.062   3.159  0.3816  0.3192  0.7681
 8710SOL     OW37591   1.483   1.434   1.149 -0.0784  0.4468 -0.0665
 8710SOL    HW137592   1.558   1.377   1.171 -1.1869 -0.1395  2.2261
 8710SOL    HW237593   1.528   1.478   1.076  1.5467 -2.5457 -0.8536
 8711SOL     OW37594   4.523   4.405  12.383 -0.1643 -0.2689 -0.6934
 8711SOL    HW137595   4.545   4.326  12.334 -0.1127 -0.3240 -0.5812
 8711SOL    HW237596   4.553   4.375  12.469  0.5913 -2.5572 -1.7776
 8712SOL     OW37597   3.260   2.622   3.547  0.0607 -0.4813  0.4609
 8712SOL    HW137598   3.266   2.570   3.628  0.2510  0.0206  0.7667
 8712SOL    HW237599   3.167   2.643   3.543  0.3712  0.7914 -0.2088
 8713SOL     OW37600   1.417   4.621  17.045 -0.4713 -0.2097 -0.0125
 8713SOL    HW137601   1.396   4.581  17.130 -0.5508  0.4691  0.2879
 8713SOL    HW237602   1.403   4.715  17.055 -2.3043 -0.5084  0.2530
 8714SOL     OW37603   4.048   2.154  12.998  0.4353  0.7500  0.5541
 8714SOL    HW137604   4.056   2.088  12.929 -1.9116  0.4154  0.6012
 8714SOL    HW237605   4.127   2.139  13.051  0.9118 -2.1414 -0.9470
 8715SOL     OW37606   1.809   1.675   4.612  0.3939 -0.0300  0.0706
 8715SOL    HW137607   1.853   1.648   4.693 -1.8275  1.1509  1.6802
 8715SOL    HW237608   1.804   1.771   4.619 -1.9922 -0.1981  0.8359
 8716SOL     OW37609   3.758   2.383   5.823  0.1342  0.0862  0.0047
 8716SOL    HW137610   3.711   2.466   5.821 -0.1065 -0.0320  0.6579
 8716SOL    HW237611   3.847   2.412   5.845  0.9537 -1.7508 -0.8309
 8717SOL     OW37612   3.039   3.294   8.315 -0.6979  0.5929  0.4651
 8717SOL    HW137613   3.078   3.359   8.374  0.7456 -1.1651  1.4396
 8717SOL    HW237614   2.945   3.310   8.328 -0.0607  1.2645  4.3204
 8718SOL     OW37615   2.359   1.631   5.108  0.4499 -0.0349  0.2917
 8718SOL    HW137616   2.407   1.670   5.181 -0.2037  0.6459  0.3548
 8718SOL    HW237617   2.433   1.611   5.051 -1.5174 -3.5727 -1.0130
 8719SOL     OW37618   2.339   3.311   1.526 -0.5717 -0.3769 -0.4625
 8719SOL    HW137619   2.411   3.305   1.463 -1.3688 -0.1042 -1.4063
 8719SOL    HW237620   2.346   3.406   1.538  0.6377 -0.4782 -0.3583
 8720SOL     OW37621   4.210   3.566   6.032  0.3088 -0.6222  0.0356
 8720SOL    HW137622   4.258   3.492   6.069  1.3144 -0.4995 -1.0122
 8720SOL    HW237623   4.254   3.576   5.948  1.3957  1.1490  0.8153
 8721SOL     OW37624   0.726   2.018   9.025  0.1022  0.2479 -0.3989
 8721SOL    HW137625   0.753   1.954   8.959 -1.6312 -0.2554 -0.6328
 8721SOL    HW237626   0.800   2.021   9.085  1.1531  2.5349 -1.7861
 8722SOL     OW37627   3.946   2.024  10.524  0.3454  0.5681 -0.1983
 8722SOL    HW137628   3.883   2.068  10.466  0.6067 -0.6870 -1.4083
 8722SOL    HW237629   3.991   1.958  10.472 -0.0653 -0.6303  0.9665
 8723SOL     OW37630   4.356   1.683   8.776  0.2984 -0.6750 -0.6478
 8723SOL    HW137631   4.281   1.705   8.831  1.5352  2.9609 -0.4217
 8723SOL    HW237632   4.349   1.766   8.729 -0.0216  0.2300  0.9820
 8724SOL     OW37633   1.373   2.107   4.579 -0.5082 -0.4337 -0.1516
 8724SOL    HW137634   1.370   2.106   4.483 -1.1708  1.6822 -0.1747
 8724SOL    HW237635   1.312   2.036   4.599  1.1008 -2.1321 -1.2620
 8725SOL     OW37636   0.466   0.931   2.236  0.6515 -0.0843  0.5034
 8725SOL    HW137637   0.519   1.011   2.233 -1.2673  1.1361 -0.7093
 8725SOL    HW237638   0.488   0.899   2.149  0.5026 -1.3649  0.9425
 8726SOL     OW37639   2.319   4.327   3.808  0.0463 -0.1057  0.2023
 8726SOL    HW137640   2.317   4.345   3.902 -0.6439 -0.0290  0.1709
 8726SOL    HW237641   2.285   4.237   3.804  0.5857 -0.2932 -0.1781
 8727SOL     OW37642   4.313   1.062   3.951 -0.2511  0.1541 -0.1174
 8727SOL    HW137643   4.408   1.061   3.960 -0.2619  0.8820  0.0560
 8727SOL    HW237644   4.278   1.017   4.029  1.9018  0.3725  0.9930
 8728SOL     OW37645   3.578   2.972   4.488 -0.0007 -0.2316 -0.3500
 8728SOL    HW137646   3.669   3.002   4.490  0.4297 -1.4004 -1.5118
 8728SOL    HW237647   3.591   2.879   4.506  3.0772  0.8211  2.8022
 8729SOL     OW37648   2.855   4.642   3.904  0.4736 -0.7889 -0.3338
 8729SOL    HW137649   2.919   4.707   3.873  0.1521 -0.4444 -0.2682
 8729SOL    HW237650   2.769   4.684   3.903  0.9052  0.0888  0.4393
 8730SOL     OW37651   1.676   4.605   7.539  0.4530 -0.1363 -0.4167
 8730SOL    HW137652   1.599   4.619   7.594 -1.0074  1.1765 -2.7944
 8730SOL    HW237653   1.742   4.664   7.574  1.5436 -1.7242  0.1870
 8731SOL     OW37654   3.300   2.422   2.691 -0.5350 -0.5130  0.2967
 8731SOL    HW137655   3.307   2.332   2.661 -3.8100  0.2196 -2.5714
 8731SOL    HW237656   3.392   2.444   2.710 -1.1886  2.5996 -0.0376
 8732SOL     OW37657   0.183   3.385  14.658  0.1218 -0.3150 -0.2131
 8732SOL    HW137658   0.124   3.310  14.654 -0.4299  0.1365 -0.7023
 8732SOL    HW237659   0.123   3.452  14.623 -0.9708 -0.0344  2.1708
 8733SOL     OW37660   0.777   1.078   6.379 -0.2536  0.0438 -0.3656
 8733SOL    HW137661   0.810   1.107   6.294 -1.4922 -0.2849 -0.9582
 8733SOL    HW237662   0.825   1.138   6.436 -0.9343 -1.6884  2.0304
 8734SOL     OW37663   4.488   2.279  17.642 -0.3376  0.1478  0.0790
 8734SOL    HW137664   4.467   2.193  17.606 -1.9752  0.6695 -0.2293
 8734SOL    HW237665   4.538   2.258   0.033  1.8637 -0.7170 -1.5500
 8735SOL     OW37666   1.684   3.276   7.391  0.2837  0.2683  0.2246
 8735SOL    HW137667   1.715   3.351   7.443  1.3715  0.8268 -1.2144
 8735SOL    HW237668   1.762   3.220   7.391  0.9532  1.1871 -0.0214
 8736SOL     OW37669   3.092   4.307  10.605 -0.6316  0.9512  0.0229
 8736SOL    HW137670   3.168   4.351  10.567 -0.5734  0.5053 -0.3730
 8736SOL    HW237671   3.052   4.374  10.661  0.1797 -0.0669  1.8504
 8737SOL     OW37672   3.652   4.193   2.380  0.2074  0.3380  0.0622
 8737SOL    HW137673   3.691   4.207   2.466  1.6482 -1.6893 -0.2423
 8737SOL    HW237674   3.615   4.280   2.369 -2.7944 -1.1345 -1.5430
 8738SOL     OW37675   1.644   1.431   7.133 -0.1290 -0.4588 -0.1241
 8738SOL    HW137676   1.662   1.345   7.170  0.8581 -0.7703 -1.3218
 8738SOL    HW237677   1.588   1.409   7.059 -1.1085 -2.9199  1.3604
 8739SOL     OW37678   3.020   2.292   5.829 -0.2138  0.1848 -0.2764
 8739SOL    HW137679   2.947   2.351   5.807 -1.2550 -1.2318 -0.6385
 8739SOL    HW237680   2.982   2.216   5.873  0.2305  0.5443  0.7249
 8740SOL     OW37681   2.750   3.713   4.488  0.6324 -0.4402  0.1806
 8740SOL    HW137682   2.733   3.755   4.572  0.3773  2.8434 -1.5379
 8740SOL    HW237683   2.685   3.759   4.435  0.6006  0.7053  1.2389
 8741SOL     OW37684   0.696   4.143   0.578 -0.2098 -0.5430 -0.1035
 8741SOL    HW137685   0.660   4.068   0.626  0.0654 -0.0114  0.9377
 8741SOL    HW237686   0.751   4.180   0.648  3.4025 -0.2874 -3.0944
 8742SOL     OW37687   3.392   3.384   2.198  0.2949  0.2128  0.1244
 8742SOL    HW137688   3.392   3.444   2.123 -2.7350 -0.3699 -0.3247
 8742SOL    HW237689   3.383   3.299   2.156  0.8035  0.9494 -1.4855
 8743SOL     OW37690   0.952   2.339   8.390  0.1619  0.7009 -0.1771
 8743SOL    HW137691   0.988   2.396   8.322  0.2995 -1.3378 -1.8521
 8743SOL    HW237692   0.857   2.348   8.379 -0.2001 -1.8523  0.8385
 8744SOL     OW37693   2.164   4.359   3.082  0.1843 -0.4665  0.8185
 8744SOL    HW137694   2.192   4.433   3.029 -0.4913 -0.2723  0.7318
 8744SOL    HW237695   2.180   4.282   3.027 -2.5292 -0.7601  0.4776
 8745SOL     OW37696   0.904   0.913   6.970  0.0046 -0.0417 -0.4624
 8745SOL    HW137697   0.908   0.822   6.942 -0.1681  0.0175 -0.6823
 8745SOL    HW237698   0.850   0.894   7.047  2.9284 -0.0854  1.5712
 8746SOL     OW37699   0.395   0.883   6.928  0.0914  0.1901  0.2919
 8746SOL    HW137700   0.405   0.919   7.016 -0.1894 -1.3925  0.9917
 8746SOL    HW237701   0.352   0.953   6.879 -1.0927 -0.4510  0.4088
 8747SOL     OW37702   2.386   4.541  12.622 -0.9493  0.4802 -0.1573
 8747SOL    HW137703   2.319   4.561  12.687 -0.1714  2.5364  0.0258
 8747SOL    HW237704   2.360   4.592  12.545 -1.4446 -1.0381 -0.9870
 8748SOL     OW37705   2.060   4.535   8.761  0.0018  0.3431 -0.0532
 8748SOL    HW137706   2.025   4.616   8.724 -1.6020 -0.2038  0.2766
 8748SOL    HW237707   2.007   4.466   8.720  1.6528 -0.6827 -0.4724
 8749SOL     OW37708   0.133   1.075  15.241 -0.2427 -0.5639  0.0437
 8749SOL    HW137709   0.065   1.012  15.264  1.0826 -2.2387 -0.6152
 8749SOL    HW237710   0.086   1.129  15.176  0.8158  0.1682 -0.1219
 8750SOL     OW37711   2.148   3.750   6.711  0.2095 -0.0745  0.1544
 8750SOL    HW137712   2.121   3.696   6.637 -2.5211  1.3857  0.0697
 8750SOL    HW237713   2.153   3.839   6.676  1.3149 -0.3302 -0.3284
 8751SOL     OW37714   2.026   4.328  16.122  0.9298  0.2272  0.3779
 8751SOL    HW137715   2.076   4.404  16.151  0.3342  0.6371  0.3415
 8751SOL    HW237716   2.077   4.302  16.045  0.1339  0.0621 -0.0929
 8752SOL     OW37717   2.199   3.654  13.882  0.3642  0.0436 -0.0276
 8752SOL    HW137718   2.284   3.644  13.925  0.1817 -0.2353  0.2679
 8752SOL    HW237719   2.153   3.571  13.895  1.7290 -0.8437 -0.7804
 8753SOL     OW37720   0.643   3.661   9.794 -0.4691 -0.0846  0.5421
 8753SOL    HW137721   0.730   3.685   9.824 -1.2761  0.6716  2.2880
 8753SOL    HW237722   0.659   3.607   9.716  1.7560 -0.4813  1.2755
 8754SOL     OW37723   3.784   4.307   6.126  0.5136  0.0533  0.2452
 8754SOL    HW137724   3.808   4.290   6.035 -1.2868  0.4124 -0.2991
 8754SOL    HW237725   3.703   4.355   6.111  0.2206 -0.6465 -0.3837
 8755SOL     OW37726   2.433   3.533   5.431  0.3801 -0.0917  0.2490
 8755SOL    HW137727   2.398   3.525   5.342 -0.7699  0.3370  0.6653
 8755SOL    HW237728   2.418   3.627   5.430 -4.1588 -0.8260 -0.4526
 8756SOL     OW37729   3.791   3.471   7.836  1.0834  0.2427 -0.5179
 8756SOL    HW137730   3.715   3.414   7.821  0.6367  1.3485 -2.5497
 8756SOL    HW237731   3.741   3.553   7.833 -0.8964 -0.9153  0.6972
 8757SOL     OW37732   3.120   0.040   7.266 -0.0349  0.1131 -0.4373
 8757SOL    HW137733   3.107   0.053   7.360  2.0499 -2.1958  0.1849
 8757SOL    HW237734   3.207   0.071   7.240 -0.7964  1.4417 -1.3675
 8758SOL     OW37735   4.660   4.301   7.218  0.2998 -0.4989  0.1745
 8758SOL    HW137736   4.699   4.384   7.243  1.5857 -1.2617  0.7377
 8758SOL    HW237737   4.679   4.308   7.124  1.8010  1.9693  0.6973
 8759SOL     OW37738   3.014   2.254   8.172  0.6016 -0.2570  0.1014
 8759SOL    HW137739   2.958   2.205   8.112  0.7208 -1.7529  1.2003
 8759SOL    HW237740   3.026   2.327   8.111  2.3137 -1.2318 -0.7242
 8760SOL     OW37741   3.806   1.575   9.968  0.3520 -0.1132 -0.0280
 8760SOL    HW137742   3.882   1.568   9.910  0.7237 -0.5120  0.5033
 8760SOL    HW237743   3.784   1.483   9.983 -2.4502  0.5521 -0.0962
 8761SOL     OW37744   0.622   3.573   6.310  0.5124 -0.1941  0.1863
 8761SOL    HW137745   0.607   3.481   6.331  0.9080 -0.2775  0.1094
 8761SOL    HW237746   0.532   3.599   6.291  1.0827  0.2443 -1.9411
 8762SOL     OW37747   0.353   1.293   7.696  0.1425  0.0382 -0.4307
 8762SOL    HW137748   0.322   1.259   7.780  0.8398 -1.7651 -0.9029
 8762SOL    HW237749   0.425   1.355   7.713 -0.7352  0.8631  0.2743
 8763SOL     OW37750   0.774   4.669   5.994 -0.1071  0.4303  0.8687
 8763SOL    HW137751   0.692   4.650   6.040 -0.5402 -1.2619 -0.5843
 8763SOL    HW237752   0.802   0.025   6.043 -0.3978  1.0964 -0.0377
 8764SOL     OW37753   0.285   3.368   7.055  0.5041 -0.9054 -0.1746
 8764SOL    HW137754   0.274   3.460   7.029  0.6530 -1.1674 -1.1603
 8764SOL    HW237755   0.317   3.392   7.142 -0.4583  1.2109 -0.4047
 8765SOL     OW37756   1.373   4.634   7.992 -0.1410 -0.7490 -0.1417
 8765SOL    HW137757   1.346   4.554   7.947 -0.4327 -0.5179 -0.3723
 8765SOL    HW237758   1.450   4.598   8.037  0.8854  1.7438  0.1039
 8766SOL     OW37759   3.262   0.075   4.305  0.6727 -0.2907  0.1985
 8766SOL    HW137760   3.172   0.058   4.335  0.0367  0.6384 -1.1953
 8766SOL    HW237761   3.285   4.714   4.262  2.7714  0.7534 -0.6540
 8767SOL     OW37762   3.456   1.284   5.911 -0.4797  0.1389  0.4328
 8767SOL    HW137763   3.396   1.255   5.843  0.3705 -1.3574  0.3251
 8767SOL    HW237764   3.442   1.379   5.905  0.0444  0.2480  0.9155
 8768SOL     OW37765   4.302   3.333   5.795 -0.1382  0.0875  0.5317
 8768SOL    HW137766   4.305   3.250   5.748  1.7330  0.0631  0.6760
 8768SOL    HW237767   4.313   3.290   5.880  1.6365 -0.9713 -0.2390
 8769SOL     OW37768   2.047   2.429   9.576 -0.3084  0.1278  0.1106
 8769SOL    HW137769   1.976   2.409   9.638 -2.8580 -0.5078 -3.0086
 8769SOL    HW237770   2.049   2.347   9.527  0.0237  1.2096 -1.6749
 8770SOL     OW37771   3.871   3.720   5.463 -0.0183 -0.4915 -0.7252
 8770SOL    HW137772   3.808   3.701   5.532  3.1525  0.7031  2.5076
 8770SOL    HW237773   3.909   3.804   5.489  3.2537 -2.4213  0.7204
 8771SOL     OW37774   3.445   2.198   9.881  0.0519 -0.8969 -0.1437
 8771SOL    HW137775   3.525   2.194   9.934 -0.1458  2.0406  0.4219
 8771SOL    HW237776   3.415   2.109   9.900  2.5811 -1.7107  0.0793
 8772SOL     OW37777   0.816   2.748   4.148  0.0063  0.3427  0.3213
 8772SOL    HW137778   0.905   2.768   4.178 -0.8840 -0.1928  3.3165
 8772SOL    HW237779   0.764   2.758   4.227  0.2271  0.2781  0.4756
 8773SOL     OW37780   0.770   1.024  11.632  0.1284 -0.1510 -0.1648
 8773SOL    HW137781   0.799   1.106  11.672  3.3099 -1.1982 -0.3535
 8773SOL    HW237782   0.780   0.959  11.701  0.8298  0.5985  0.4408
 8774SOL     OW37783   0.948   2.222   8.957 -0.2414 -0.5152  0.2948
 8774SOL    HW137784   0.983   2.307   8.982  1.0243 -1.1757  0.7595
 8774SOL    HW237785   0.934   2.171   9.037  2.3874 -1.1349  0.3402
 8775SOL     OW37786   2.132   2.765   6.700 -0.3260 -0.4533  0.0110
 8775SOL    HW137787   2.104   2.758   6.791  0.5253 -1.1989  0.2180
 8775SOL    HW237788   2.223   2.792   6.710 -0.2151 -1.6007  2.0568
 8776SOL     OW37789   1.170   0.792   1.496  0.4197 -0.2658  0.4494
 8776SOL    HW137790   1.233   0.729   1.529 -1.2860 -2.1782  0.0580
 8776SOL    HW237791   1.230   0.864   1.475 -0.2836  0.1200 -0.2830
 8777SOL     OW37792   1.906   0.163  14.328  0.1109 -0.2974 -0.5392
 8777SOL    HW137793   1.920   0.206  14.413  1.7382  1.5330 -1.7323
 8777SOL    HW237794   1.836   0.219  14.294  0.2434  1.3322  1.7749
 8778SOL     OW37795   3.386   3.197  17.039  0.2945 -0.3457 -0.1014
 8778SOL    HW137796   3.414   3.265  16.977  2.0446  0.4012  1.5148
 8778SOL    HW237797   3.450   3.196  17.110  1.1175  0.9623 -0.8355
 8779SOL     OW37798   4.667   1.292   2.533  0.7593  0.5957 -0.2003
 8779SOL    HW137799   4.625   1.378   2.523  1.4429  0.8303 -1.0438
 8779SOL    HW237800   4.602   1.245   2.480  0.8352 -1.1416  1.2650
 8780SOL     OW37801   2.571   4.275   0.177  0.1626 -0.0663 -0.1911
 8780SOL    HW137802   2.482   4.241   0.168 -0.2561  1.2058 -0.8390
 8780SOL    HW237803   2.593   4.214   0.248  2.7003 -1.1403 -1.8743
 8781SOL     OW37804   2.200   3.815   1.005 -0.0235  0.1782 -0.0690
 8781SOL    HW137805   2.121   3.868   1.002 -1.2788 -1.6563  0.4774
 8781SOL    HW237806   2.178   3.761   0.929  0.7774 -0.9848  0.5127
 8782SOL     OW37807   0.724   4.373   9.072  0.0034  0.1141 -0.2783
 8782SOL    HW137808   0.793   4.435   9.096  0.3107  0.8040 -2.8545
 8782SOL    HW237809   0.773   4.308   9.020 -2.3962 -0.7179 -1.5007
 8783SOL     OW37810   4.194   2.447   1.909  0.1333  0.4384  0.4234
 8783SOL    HW137811   4.184   2.387   1.835  3.7220 -0.3137  0.5804
 8783SOL    HW237812   4.202   2.388   1.984  0.5740 -0.4314 -0.3149
 8784SOL     OW37813   3.248   3.786   1.334 -0.2251 -0.0206 -0.1091
 8784SOL    HW137814   3.175   3.725   1.323 -1.3698  1.3364 -0.0237
 8784SOL    HW237815   3.208   3.863   1.293 -2.3463 -2.6373 -2.8666
 8785SOL     OW37816   1.989   4.641   0.910 -0.2856 -0.2882 -0.3878
 8785SOL    HW137817   1.903   4.678   0.929 -1.6537 -3.6923 -0.0937
 8785SOL    HW237818   2.025   0.000   0.872 -0.2579  0.3822  1.0398
 8786SOL     OW37819   0.985   1.105   8.259 -0.0598  0.0964 -0.3607
 8786SOL    HW137820   1.003   1.193   8.226  1.8421  0.3342  1.3511
 8786SOL    HW237821   0.990   1.052   8.179 -0.0494  0.1036 -0.3649
 8787SOL     OW37822   3.480   0.329   4.948  0.5907  0.5924  0.8294
 8787SOL    HW137823   3.541   0.280   5.004 -0.6684  0.5489  2.1688
 8787SOL    HW237824   3.395   0.288   4.963  1.0649 -0.7047 -0.0358
 8788SOL     OW37825   2.596   2.111  10.025  0.0601  0.0691 -0.4155
 8788SOL    HW137826   2.681   2.068  10.032  0.0527 -0.0942 -1.4059
 8788SOL    HW237827   2.575   2.102   9.932  2.4482  0.1435 -0.9590
 8789SOL     OW37828   3.556   1.516  11.735 -0.0729 -0.9669  0.1639
 8789SOL    HW137829   3.558   1.555  11.822 -1.2146  0.9845 -0.6732
 8789SOL    HW237830   3.648   1.533  11.717 -0.2384 -0.4654 -0.2071
 8790SOL     OW37831   3.429   2.552  14.775 -0.1966  0.6065 -0.1323
 8790SOL    HW137832   3.335   2.569  14.768 -0.1637  0.2683 -1.3089
 8790SOL    HW237833   3.423   2.468  14.821 -2.3684 -0.2342 -1.9432
 8791SOL     OW37834   0.573   4.712   9.079  0.3282 -0.8010 -0.0897
 8791SOL    HW137835   0.603   0.047   9.007 -0.9482 -0.5687 -0.4284
 8791SOL    HW237836   0.490   4.684   9.043 -1.9940  1.3558  3.5393
 8792SOL     OW37837   1.067   3.414  15.768  0.6159 -0.3231  0.1383
 8792SOL    HW137838   1.078   3.346  15.701 -2.0715 -1.8769  1.2695
 8792SOL    HW237839   1.149   3.461  15.752 -0.0876  0.2888 -1.7195
 8793SOL     OW37840   4.527   2.067   3.522 -0.4181 -0.0256  0.6872
 8793SOL    HW137841   4.506   2.149   3.477  0.3008 -1.3065 -1.9749
 8793SOL    HW237842   4.439   2.044   3.550 -0.3019 -0.7439  0.4624
 8794SOL     OW37843   0.164   4.125   4.001 -0.0873 -0.2664  0.3418
 8794SOL    HW137844   0.074   4.109   3.973  0.6035 -0.8564 -1.5349
 8794SOL    HW237845   0.198   4.176   3.927  0.5315  0.3834  1.0619
 8795SOL     OW37846   0.522   0.707   1.164  0.3281 -0.4182  0.3108
 8795SOL    HW137847   0.467   0.738   1.236  0.2936 -0.8853  0.4916
 8795SOL    HW237848   0.560   0.784   1.123  1.9576 -0.5794  1.5228
 8796SOL     OW37849   4.349   1.586   2.194 -0.4893  0.9862 -0.1859
 8796SOL    HW137850   4.255   1.601   2.204 -0.3287  1.3617  0.7651
 8796SOL    HW237851   4.365   1.570   2.101  0.9720 -1.0177  0.4040
 8797SOL     OW37852   2.626   4.030   7.792 -0.3009  0.3184 -0.0671
 8797SOL    HW137853   2.533   4.012   7.805  0.2979 -2.7002 -0.1085
 8797SOL    HW237854   2.646   4.058   7.882 -1.7456  1.5799 -0.1215
 8798SOL     OW37855   2.028   4.375   0.721 -0.4756 -0.2476  1.0564
 8798SOL    HW137856   2.064   4.374   0.632 -1.6041 -0.3846  0.5940
 8798SOL    HW237857   2.096   4.413   0.775 -1.5087  1.4269  1.1787
 8799SOL     OW37858   3.789   3.474   3.982 -0.2492 -0.6090  0.4656
 8799SOL    HW137859   3.738   3.514   3.911  1.2839  0.2737 -0.1208
 8799SOL    HW237860   3.761   3.383   3.969  1.1862 -0.9108 -0.4477
 8800SOL     OW37861   1.504   1.200  15.531  0.0548 -0.2135 -1.1030
 8800SOL    HW137862   1.560   1.227  15.459 -0.6132  3.1183 -0.3492
 8800SOL    HW237863   1.573   1.172  15.591 -1.0467 -1.5834 -0.4544
 8801SOL     OW37864   4.424   0.554   4.992 -0.9513  0.2301  0.1882
 8801SOL    HW137865   4.446   0.461   4.988 -0.5694  0.3386 -0.1984
 8801SOL    HW237866   4.478   0.575   5.068  1.5518 -1.6457 -1.0553
 8802SOL     OW37867   1.030   2.134   3.251 -0.2680  0.3177 -0.2159
 8802SOL    HW137868   0.943   2.172   3.253 -0.3188  0.1633  0.5228
 8802SOL    HW237869   1.016   2.054   3.200  1.5879  0.7306 -1.3870
 8803SOL     OW37870   3.922   1.230   7.663 -0.3157  0.1143  0.6902
 8803SOL    HW137871   3.857   1.160   7.658  1.5836 -1.6542  0.3097
 8803SOL    HW237872   3.866   1.307   7.652 -1.7474 -0.9964  0.2129
 8804SOL     OW37873   2.834   2.811   5.485 -0.1493  0.4135  0.1134
 8804SOL    HW137874   2.785   2.833   5.565  0.9660 -0.6473  1.0894
 8804SOL    HW237875   2.879   2.892   5.460  0.9871 -0.1868  0.2193
 8805SOL     OW37876   2.353   4.231  17.430 -0.2696  0.4297 -0.1268
 8805SOL    HW137877   2.380   4.313  17.388  2.4259 -0.5544 -0.2767
 8805SOL    HW237878   2.330   4.261  17.518  0.0447  0.7189 -0.1425
 8806SOL     OW37879   0.224   3.331   8.761  0.8071  0.2714  0.1740
 8806SOL    HW137880   0.249   3.394   8.829  0.9487  2.1286 -1.5866
 8806SOL    HW237881   0.237   3.371   8.675 -0.7237  3.5357  1.4234
 8807SOL     OW37882   2.143   3.009   5.949 -0.1875  0.0612 -0.5537
 8807SOL    HW137883   2.213   3.061   5.909 -0.3202  0.9386  0.3877
 8807SOL    HW237884   2.128   3.055   6.031  0.7031 -1.7385  0.6260
 8808SOL     OW37885   1.080   1.889  14.401 -0.2434 -0.3776 -0.8609
 8808SOL    HW137886   1.003   1.861  14.450  0.3757  0.4385  0.5835
 8808SOL    HW237887   1.136   1.919  14.472  0.1033 -1.9602 -0.4609
 8809SOL     OW37888   4.083   3.898  17.271  0.3554  0.2598 -0.2091
 8809SOL    HW137889   4.127   3.970  17.315  1.9811  1.0137 -3.0345
 8809SOL    HW237890   4.096   3.923  17.179  0.1150 -0.1780 -0.3672
 8810SOL     OW37891   2.160   2.511  12.526 -0.2311  0.0302  0.5961
 8810SOL    HW137892   2.247   2.484  12.496 -0.7683 -0.8846 -0.1548
 8810SOL    HW237893   2.189   2.600  12.546  3.0192 -0.7518 -0.6483
 8811SOL     OW37894   4.486   4.328   8.074 -0.0687  0.4875 -0.5137
 8811SOL    HW137895   4.481   4.237   8.103 -0.2764  1.2847  1.9383
 8811SOL    HW237896   4.557   4.357   8.131 -1.2651 -0.7219  1.5679
 8812SOL     OW37897   4.543   2.396  15.540  0.4459 -0.0325 -0.3057
 8812SOL    HW137898   4.522   2.352  15.457 -1.1107  1.5220 -0.7342
 8812SOL    HW237899   4.471   2.357  15.590  0.6394 -0.0973 -0.0763
 8813SOL     OW37900   3.605   0.589  11.782 -0.2968 -0.4510 -0.5170
 8813SOL    HW137901   3.632   0.497  11.776 -1.5746 -0.9139  0.7189
 8813SOL    HW237902   3.571   0.590  11.693 -0.0154 -1.7712 -0.6419
 8814SOL     OW37903   0.830   0.726   6.629 -0.0062 -0.5445 -0.1720
 8814SOL    HW137904   0.806   0.725   6.536 -2.8144 -2.2075  0.5900
 8814SOL    HW237905   0.748   0.763   6.661  2.5794  3.5940  1.6713
 8815SOL     OW37906   4.599   2.814  16.576  0.2178  0.2393  0.2000
 8815SOL    HW137907   4.684   2.844  16.543  0.0222 -1.3494 -1.7076
 8815SOL    HW237908   4.619   2.807  16.670  1.1478  0.6113  0.0293
 8816SOL     OW37909   2.491   1.910   3.902  0.3290 -0.0468  0.3845
 8816SOL    HW137910   2.455   1.854   3.833 -0.5780 -0.6994  1.3830
 8816SOL    HW237911   2.506   1.840   3.965  0.3808 -0.2273  0.1742
 8817SOL     OW37912   2.164   2.749  11.966  0.3960  0.7783  0.3321
 8817SOL    HW137913   2.178   2.659  11.995 -0.2410  0.7906  0.6986
 8817SOL    HW237914   2.081   2.780  12.003 -0.8398 -1.5258 -0.5331
 8818SOL     OW37915   3.692   3.179  13.837  0.4551 -0.0365  0.1924
 8818SOL    HW137916   3.738   3.258  13.866 -1.2231  0.7251  0.7560
 8818SOL    HW237917   3.612   3.185  13.890 -0.1879 -4.0715 -0.2835
 8819SOL     OW37918   2.920   4.692   4.204  0.1248 -0.0794  0.2425
 8819SOL    HW137919   2.906   4.637   4.127 -0.2521  0.9006 -0.3989
 8819SOL    HW237920   2.968   4.635   4.263  1.3583 -0.6887 -1.3421
 8820SOL     OW37921   3.815   2.827   4.846  0.0311  0.4498 -0.4613
 8820SOL    HW137922   3.757   2.895   4.881  1.3426  0.5321  1.5891
 8820SOL    HW237923   3.900   2.871   4.842 -0.1914  0.9264 -0.0514
 8821SOL     OW37924   0.554   3.568   8.146 -0.1491 -0.9020 -0.0718
 8821SOL    HW137925   0.544   3.649   8.196  0.0924  1.1011 -3.2909
 8821SOL    HW237926   0.565   3.596   8.055 -1.1075  1.0379  0.4141
 8822SOL     OW37927   3.877   1.791  14.974  0.4503 -0.3306  0.8157
 8822SOL    HW137928   3.819   1.848  15.023 -3.0018  0.4711 -4.2411
 8822SOL    HW237929   3.845   1.788  14.884 -3.1136 -1.2016  2.1096
 8823SOL     OW37930   3.346   0.510  15.019  0.8575 -0.4852  0.3052
 8823SOL    HW137931   3.291   0.545  15.088  0.0175 -1.3181  0.0708
 8823SOL    HW237932   3.389   0.434  15.059 -0.0388 -1.7608 -1.1382
 8824SOL     OW37933   1.700   1.828   6.115 -0.8218 -0.2373  0.4030
 8824SOL    HW137934   1.769   1.826   6.049 -0.3108 -1.2284  0.9670
 8824SOL    HW237935   1.732   1.761   6.175  2.9678  0.3758 -0.9513
 8825SOL     OW37936   2.846   2.261   4.321 -0.4033  0.3050 -0.1312
 8825SOL    HW137937   2.782   2.298   4.260  0.8277 -2.6950 -3.2722
 8825SOL    HW237938   2.926   2.256   4.268  0.4133  0.6540  1.0743
 8826SOL     OW37939   2.022   3.351  17.246 -0.4506 -0.1396 -0.4236
 8826SOL    HW137940   1.964   3.290  17.199 -1.6788 -1.8703  3.2976
 8826SOL    HW237941   2.059   3.290  17.310 -0.6163 -1.9006 -1.9919
 8827SOL     OW37942   2.935   0.793  14.273 -0.5570 -0.0786 -0.3758
 8827SOL    HW137943   2.909   0.709  14.310  0.8641 -0.2231  0.2979
 8827SOL    HW237944   2.877   0.859  14.312  1.3072 -0.2449  2.6747
 8828SOL     OW37945   2.071   3.482  13.326 -1.1063 -0.2440  0.1101
 8828SOL    HW137946   2.057   3.577  13.331 -0.3918 -0.0286 -1.9289
 8828SOL    HW237947   2.013   3.445  13.260 -0.0945  2.2818 -2.1922
 8829SOL     OW37948   1.233   1.866   7.325  0.1774 -0.2929  0.2360
 8829SOL    HW137949   1.271   1.783   7.353  0.3977 -0.0413  0.6874
 8829SOL    HW237950   1.158   1.838   7.272  0.6367  0.8205 -1.0227
 8830SOL     OW37951   2.164   2.680   1.490 -0.3025 -0.0445 -0.0498
 8830SOL    HW137952   2.132   2.687   1.580 -1.0195  0.1065 -0.3137
 8830SOL    HW237953   2.100   2.630   1.439  0.7428 -2.5789  1.1280
 8831SOL     OW37954   2.538   3.866   1.406  0.1087  0.0274  0.2182
 8831SOL    HW137955   2.526   3.949   1.452 -1.2357  1.0730 -2.0603
 8831SOL    HW237956   2.467   3.875   1.343  0.4584  0.7339 -0.0748
 8832SOL     OW37957   1.368   3.968   9.299 -0.0018  0.2891 -0.5240
 8832SOL    HW137958   1.332   4.024   9.368  1.0132  2.2893 -1.6144
 8832SOL    HW237959   1.460   3.986   9.317 -0.0337 -0.2120  0.1431
 8833SOL     OW37960   2.479   4.363  12.247 -0.5992 -0.1404  0.3166
 8833SOL    HW137961   2.537   4.430  12.283 -0.6530  1.8425 -3.3184
 8833SOL    HW237962   2.488   4.291  12.310 -0.9123 -1.9443 -1.6645
 8834SOL     OW37963   0.575   3.255   6.720 -0.0529  0.4365 -0.5105
 8834SOL    HW137964   0.629   3.334   6.714  1.4972 -0.6643 -1.0489
 8834SOL    HW237965   0.650   3.204   6.751  0.3648  1.4328  0.1362
 8835SOL     OW37966   4.006   2.968   9.700  0.0935 -0.4273 -0.0466
 8835SOL    HW137967   3.962   3.025   9.763  0.1154  0.5185 -0.8699
 8835SOL    HW237968   4.045   2.897   9.750 -0.6841  0.5229  1.9202
 8836SOL     OW37969   0.924   1.602   9.521  0.2292 -0.1425 -0.0506
 8836SOL    HW137970   1.019   1.603   9.507  0.4434 -1.6723  1.3186
 8836SOL    HW237971   0.913   1.686   9.564 -1.2764  0.4445 -1.5595
 8837SOL     OW37972   1.197   3.559   6.490  0.2863 -0.3373  0.1957
 8837SOL    HW137973   1.166   3.611   6.416  0.4206  1.4902  1.4159
 8837SOL    HW237974   1.127   3.493   6.491  0.8531 -0.9372  0.4150
 8838SOL     OW37975   2.984   1.024   4.867  0.3109 -0.4843 -0.1802
 8838SOL    HW137976   3.007   1.064   4.951  0.5059 -1.1873  0.1014
 8838SOL    HW237977   3.015   0.936   4.891 -0.9543 -0.8986 -0.0512
 8839SOL     OW37978   0.511   1.477   5.725 -0.3704  0.6580  0.3546
 8839SOL    HW137979   0.427   1.435   5.711  0.0299 -0.0864  0.1822
 8839SOL    HW237980   0.540   1.433   5.805 -3.0382 -0.6857  0.5546
 8840SOL     OW37981   0.813   3.077  12.625 -0.6142  0.6103 -0.0873
 8840SOL    HW137982   0.765   3.090  12.543  0.4242 -0.8887 -0.9346
 8840SOL    HW237983   0.867   3.156  12.623 -1.2833  1.0539 -0.5561
 8841SOL     OW37984   2.867   3.317   5.057 -0.1517 -0.5362 -0.6102
 8841SOL    HW137985   2.918   3.239   5.033  0.1638 -0.6769  0.5276
 8841SOL    HW237986   2.903   3.336   5.143 -1.6957 -0.1217 -0.0599
 8842SOL     OW37987   0.768   0.360   9.096  0.7260 -0.2726  0.1164
 8842SOL    HW137988   0.707   0.300   9.054  3.1623 -0.8403 -2.6042
 8842SOL    HW237989   0.733   0.448   9.080  2.7241  0.3490 -0.9441
 8843SOL     OW37990   2.910   3.094  11.264  0.2690 -0.6188 -0.1552
 8843SOL    HW137991   2.863   3.117  11.184  2.1577  1.4798 -0.6564
 8843SOL    HW237992   2.853   3.129  11.332  0.7447 -1.8139  0.8590
 8844SOL     OW37993   3.422   3.693   2.753 -0.1369  0.0757 -0.2772
 8844SOL    HW137994   3.472   3.672   2.832 -2.0563 -1.0066  0.6451
 8844SOL    HW237995   3.375   3.613   2.734 -0.4213  0.0005  0.7669
 8845SOL     OW37996   3.377   1.020   1.171  0.2981 -0.0609 -0.1018
 8845SOL    HW137997   3.363   0.947   1.233  0.8574  0.2013  0.3400
 8845SOL    HW237998   3.381   0.966   1.092  0.9890  0.3207 -0.3284
 8846SOL     OW37999   1.994   4.631   7.247  0.1163 -0.5455  0.3487
 8846SOL    HW138000   2.059   4.646   7.179  0.4265 -0.3013  0.7008
 8846SOL    HW238001   2.000   4.715   7.292  1.2985  0.4686 -1.7277
 8847SOL     OW38002   2.360   0.225   9.998 -0.1348 -0.2599  0.0099
 8847SOL    HW138003   2.361   0.131   9.981  0.7523 -0.1140 -0.7721
 8847SOL    HW238004   2.396   0.231  10.086 -0.0814 -1.0124  0.0405
 8848SOL     OW38005   4.219   1.641   4.526 -0.1401 -0.2634  0.7318
 8848SOL    HW138006   4.124   1.644   4.519  0.0573  0.7189 -1.7556
 8848SOL    HW238007   4.245   1.565   4.475 -0.6960 -0.1110  0.2201
 8849SOL     OW38008   3.628   4.669  14.987  0.1458  0.1051 -0.2987
 8849SOL    HW138009   3.702   0.009  14.986 -0.2285  0.5432 -1.7536
 8849SOL    HW238010   3.569   0.002  15.040  0.4795 -1.4540  1.6335
 8850SOL     OW38011   1.141   1.180   5.616  0.5143 -0.7306  0.3391
 8850SOL    HW138012   1.188   1.156   5.696  1.0711 -1.2682 -0.1563
 8850SOL    HW238013   1.201   1.149   5.547 -0.6699  0.9839 -1.4691
 8851SOL     OW38014   2.180   2.115   2.457 -0.1699  0.4023 -0.3324
 8851SOL    HW138015   2.206   2.175   2.388  0.3353 -0.1071 -0.5803
 8851SOL    HW238016   2.116   2.167   2.507  1.8559  1.0475  1.5767
 8852SOL     OW38017   1.177   4.365   2.932  0.1322 -0.1843  0.4516
 8852SOL    HW138018   1.246   4.304   2.957  0.8373  0.9271  1.2482
 8852SOL    HW238019   1.223   4.421   2.869 -0.6385  0.8354  0.7999
 8853SOL     OW38020   0.824   1.620   5.921  0.0085  0.0443 -0.1164
 8853SOL    HW138021   0.776   1.538   5.928 -0.7162  0.5026  0.3192
 8853SOL    HW238022   0.809   1.664   6.005  1.0593 -0.8368  0.5367
 8854SOL     OW38023   3.037   3.818  16.243  0.3145  0.0699 -0.3411
 8854SOL    HW138024   3.113   3.870  16.217 -0.1524  0.6241 -0.6106
 8854SOL    HW238025   3.055   3.783  16.331  0.8304 -1.0227 -0.8830
 8855SOL     OW38026   4.280   1.188  13.334 -0.7183  0.0784 -0.0137
 8855SOL    HW138027   4.298   1.277  13.304 -1.2015 -0.2162 -1.1966
 8855SOL    HW238028   4.275   1.140  13.251  2.2624 -2.4063  1.2813
 8856SOL     OW38029   0.286   1.358   4.303 -0.1208 -0.0566  0.2407
 8856SOL    HW138030   0.206   1.384   4.348  0.0911  0.9386  0.0499
 8856SOL    HW238031   0.300   1.274   4.346  1.3812  0.0147 -0.0979
 8857SOL     OW38032   0.265   2.837   2.570 -0.0055 -0.3262 -0.0907
 8857SOL    HW138033   0.335   2.819   2.632  0.8823  1.8081 -0.4479
 8857SOL    HW238034   0.219   2.906   2.619 -1.5643 -0.6344 -1.1334
 8858SOL     OW38035   3.358   4.331   6.213  0.2585  0.1918 -0.1450
 8858SOL    HW138036   3.336   4.423   6.196  0.3327  0.2338 -0.0094
 8858SOL    HW238037   3.427   4.348   6.278  0.5745 -1.8976  0.0540
 8859SOL     OW38038   3.961   3.982   7.399 -0.2716  0.9265  0.0215
 8859SOL    HW138039   3.866   3.980   7.406 -0.2327  1.7656  0.7596
 8859SOL    HW238040   3.978   4.047   7.331  1.3632 -2.1965 -2.5790
 8860SOL     OW38041   4.389   3.434  17.572  0.1164 -0.0533  0.3021
 8860SOL    HW138042   4.362   3.526  17.579 -1.9588 -0.6996  0.7555
 8860SOL    HW238043   4.342   3.391  17.642 -2.6583 -0.1697 -1.6528
 8861SOL     OW38044   1.180   3.507   3.981  0.6700 -0.1924  0.2721
 8861SOL    HW138045   1.140   3.445   4.042 -0.0057 -1.4405 -1.4292
 8861SOL    HW238046   1.145   3.590   4.014  0.5573  0.2908 -1.0595
 8862SOL     OW38047   4.679   0.069   6.514 -0.1919 -0.1346  0.3213
 8862SOL    HW138048   4.595   0.056   6.470  0.0172 -0.1153 -0.0744
 8862SOL    HW238049   4.667   0.159   6.544  2.5585 -0.3872  2.1697
 8863SOL     OW38050   0.408   2.132   8.652  0.4015  0.1018 -0.1091
 8863SOL    HW138051   0.348   2.078   8.703 -0.7475  0.4855 -1.0425
 8863SOL    HW238052   0.469   2.166   8.718  0.4143 -2.9904  1.4548
 8864SOL     OW38053   2.193   3.091   1.538 -0.0671  0.4452 -0.1017
 8864SOL    HW138054   2.131   3.146   1.587  2.2685  3.4930 -0.5966
 8864SOL    HW238055   2.248   3.166   1.515 -0.6297  0.9243  0.0990
 8865SOL     OW38056   3.490   4.068  16.939  0.3729 -0.1614 -0.1060
 8865SOL    HW138057   3.554   4.136  16.920 -0.2153  0.4937  0.2334
 8865SOL    HW238058   3.529   4.041  17.022  1.6092  2.5463  0.1765
 8866SOL     OW38059   4.153   2.028   9.193 -0.2448  0.7944  0.1344
 8866SOL    HW138060   4.114   2.008   9.277 -1.4155 -1.2647 -0.9011
 8866SOL    HW238061   4.190   2.114   9.212  2.6644 -0.7632  1.5854
 8867SOL     OW38062   2.070   0.298   7.095 -0.1259  0.3989  0.1342
 8867SOL    HW138063   1.985   0.279   7.055  0.9908 -0.0567 -2.0211
 8867SOL    HW238064   2.078   0.387   7.061 -1.3202 -0.2841 -1.9500
 8868SOL     OW38065   2.445   0.540   7.214  0.3527  0.1292 -0.5117
 8868SOL    HW138066   2.452   0.632   7.186 -2.0505  0.2794 -0.6961
 8868SOL    HW238067   2.457   0.491   7.133 -0.4425  1.6036 -1.5195
 8869SOL     OW38068   4.312   3.771   8.505 -0.1776  0.4215 -0.3722
 8869SOL    HW138069   4.348   3.689   8.472  1.8508  1.0944  0.1654
 8869SOL    HW238070   4.255   3.790   8.430  0.4090  0.6897 -0.7479
 8870SOL     OW38071   2.822   2.760   8.569 -0.0233  0.0257 -0.2573
 8870SOL    HW138072   2.917   2.769   8.577  0.2131 -1.0125 -1.9151
 8870SOL    HW238073   2.813   2.676   8.613  1.5752 -0.5821 -1.0979
 8871SOL     OW38074   4.091   2.877   4.886 -0.3387 -0.0705  0.0389
 8871SOL    HW138075   4.181   2.907   4.869 -0.5893 -0.6455 -2.1691
 8871SOL    HW238076   4.087   2.794   4.840 -3.2854  0.3833 -0.5136
 8872SOL     OW38077   2.538   1.993   1.708  0.2515  0.5324 -0.1749
 8872SOL    HW138078   2.492   2.033   1.635  1.5461  0.1205 -1.2191
 8872SOL    HW238079   2.511   1.902   1.719 -0.8400  0.5763 -2.6235
 8873SOL     OW38080   4.242   3.422   6.497  0.4781  1.1835 -0.1455
 8873SOL    HW138081   4.216   3.390   6.583  2.8443 -1.3470 -0.3707
 8873SOL    HW238082   4.296   3.353   6.458 -0.4454  0.8539 -0.8333
 8874SOL     OW38083   0.834   4.161  13.579 -0.9072  0.2445  0.7703
 8874SOL    HW138084   0.756   4.214  13.564 -1.2457 -0.8116 -1.1886
 8874SOL    HW238085   0.818   4.089  13.518  1.3300 -1.0493  1.6885
 8875SOL     OW38086   1.865   1.081   4.292  0.0600  0.1492 -0.3612
 8875SOL    HW138087   1.776   1.047   4.293 -0.5772  1.7841  0.8426
 8875SOL    HW238088   1.855   1.171   4.259 -0.4819  0.1022 -0.3178
 8876SOL     OW38089   3.298   3.343  11.816  0.0114  0.0366  0.8312
 8876SOL    HW138090   3.219   3.324  11.766  0.1980  1.1128  0.1300
 8876SOL    HW238091   3.258   3.381  11.894  0.1577 -0.6989  1.2592
 8877SOL     OW38092   0.471   0.354   8.471  0.1108  0.1485  0.9968
 8877SOL    HW138093   0.471   0.299   8.393 -0.3867  0.7324  0.5937
 8877SOL    HW238094   0.405   0.415   8.439  0.1603 -0.7945 -0.9068
 8878SOL     OW38095   1.050   0.205   1.123  0.0658 -0.0923  0.0496
 8878SOL    HW138096   1.058   0.292   1.163 -1.3061 -0.4822  1.1611
 8878SOL    HW238097   0.962   0.199   1.087 -0.0989 -1.2839  0.6667
 8879SOL     OW38098   2.768   3.934   7.366 -0.2152  0.0496  0.1733
 8879SOL    HW138099   2.778   3.942   7.271 -1.6916 -0.4818 -0.0163
 8879SOL    HW238100   2.746   4.024   7.391 -0.1210 -0.1677  1.0302
 8880SOL     OW38101   3.574   1.503   8.320 -0.9421  0.8284  0.6089
 8880SOL    HW138102   3.551   1.523   8.229 -0.6523  0.6685  0.4974
 8880SOL    HW238103   3.611   1.416   8.303 -1.7626  0.4525  0.7542
 8881SOL     OW38104   0.747   3.892   2.156 -0.6771 -0.4690  0.1321
 8881SOL    HW138105   0.810   3.830   2.120 -0.7599 -1.0320  0.9725
 8881SOL    HW238106   0.712   3.837   2.226  0.3368 -0.2340  0.8253
 8882SOL     OW38107   2.492   3.762   2.518 -0.5065 -0.1994 -0.0046
 8882SOL    HW138108   2.496   3.677   2.475  1.7814  1.3496 -2.8696
 8882SOL    HW238109   2.582   3.794   2.517 -0.1387 -1.2160  0.0429
 8883SOL     OW38110   0.868   1.752   1.017  0.4416  0.0533 -0.1691
 8883SOL    HW138111   0.783   1.797   1.015  0.3394 -0.0915  1.6690
 8883SOL    HW238112   0.896   1.776   0.928  0.9036 -0.7462 -0.2392
 8884SOL     OW38113   1.221   2.622   8.762  0.4612  0.0211  0.0806
 8884SOL    HW138114   1.224   2.643   8.855  0.8035 -0.7170  0.2396
 8884SOL    HW238115   1.217   2.526   8.758  0.4484 -0.0199  1.0632
 8885SOL     OW38116   3.986   0.547  16.682  0.0996 -0.8363  0.4564
 8885SOL    HW138117   3.936   0.472  16.651 -0.8651 -0.0803  0.1976
 8885SOL    HW238118   4.071   0.526  16.642  0.5065 -0.8035  1.3055
 8886SOL     OW38119   1.327   2.997   7.938 -0.2177  0.1208  0.6284
 8886SOL    HW138120   1.248   3.022   7.889 -1.1068 -0.0699  1.9658
 8886SOL    HW238121   1.296   3.023   8.025 -0.2339  0.0828  0.6338
 8887SOL     OW38122   3.944   4.670  10.603  0.1853  0.6959  0.1827
 8887SOL    HW138123   3.907   0.037  10.606  2.0689  1.5001 -0.0433
 8887SOL    HW238124   3.888   4.623  10.665  0.0524 -0.0255 -0.4832
 8888SOL     OW38125   1.747   1.100  15.335  0.4056 -0.5927 -0.1670
 8888SOL    HW138126   1.763   1.034  15.402  3.6021  1.3845  0.9853
 8888SOL    HW238127   1.830   1.099  15.287  1.2108 -2.7807  1.2628
 8889SOL     OW38128   1.112   0.632  17.586  0.0785 -0.4860 -0.4597
 8889SOL    HW138129   1.195   0.679  17.587 -1.8531  2.9697 -4.0583
 8889SOL    HW238130   1.143   0.542  17.578  0.3908 -0.2318 -2.0636
 8890SOL     OW38131   0.055   2.530  15.462  0.4319  0.2057 -0.4240
 8890SOL    HW138132   4.711   2.466  15.489  0.0222  0.7086 -0.2320
 8890SOL    HW238133   0.131   2.530  15.520  1.1071  0.2180 -1.2959
 8891SOL     OW38134   4.389   2.935  17.440  0.2765 -0.2909 -0.2551
 8891SOL    HW138135   4.458   2.909  17.501  1.2490  0.0789 -1.2027
 8891SOL    HW238136   4.317   2.909  17.497 -0.3492 -0.0838 -0.9551
 8892SOL     OW38137   1.646   1.944   7.410 -0.0644  0.2553 -0.2741
 8892SOL    HW138138   1.684   1.992   7.337 -1.1718 -0.7781 -1.5277
 8892SOL    HW238139   1.679   1.994   7.484  0.2201 -0.6145  0.1890
 8893SOL     OW38140   2.345   0.255  10.901 -0.2880  0.1150 -0.0870
 8893SOL    HW138141   2.424   0.297  10.934  0.7478 -1.0375 -1.0773
 8893SOL    HW238142   2.357   0.165  10.932  1.2448  0.7003  1.0040
 8894SOL     OW38143   3.008   1.526   8.375  0.5464  0.3020  0.1327
 8894SOL    HW138144   2.953   1.543   8.299  2.2557  1.0201 -0.9528
 8894SOL    HW238145   2.959   1.458   8.420 -1.5045 -0.4456 -3.1933
 8895SOL     OW38146   1.267   4.024   3.290  0.0274  0.3072  0.0975
 8895SOL    HW138147   1.187   4.064   3.255  0.1616 -0.0426 -0.6152
 8895SOL    HW238148   1.243   4.007   3.381  2.3718  1.2665  0.9143
 8896SOL     OW38149   2.136   2.323  15.592 -0.8439 -0.2826 -0.3961
 8896SOL    HW138150   2.116   2.236  15.627  1.3214 -0.5542  0.1759
 8896SOL    HW238151   2.081   2.324  15.514 -0.0579  0.7012 -0.9486
 8897SOL     OW38152   2.288   2.374   6.859 -0.4093 -0.3234 -0.5241
 8897SOL    HW138153   2.369   2.332   6.830 -0.9991 -0.9050 -1.3273
 8897SOL    HW238154   2.254   2.308   6.920  1.8811  0.3089  1.4154
 8898SOL     OW38155   1.879   3.240   3.339  0.0346 -0.1922 -0.1140
 8898SOL    HW138156   1.814   3.175   3.368 -1.0379  0.8301 -0.2073
 8898SOL    HW238157   1.867   3.303   3.410  0.1930 -0.8434  0.4837
 8899SOL     OW38158   3.894   1.549   9.631  0.0222  0.0884 -0.0827
 8899SOL    HW138159   3.947   1.581   9.704  2.1800 -3.8694  0.0763
 8899SOL    HW238160   3.916   1.616   9.566  0.8556  0.0653  0.1763
 8900SOL     OW38161   1.250   1.122   5.842 -0.6052 -0.1343 -0.2063
 8900SOL    HW138162   1.329   1.079   5.807 -0.1647  2.1083 -1.9386
 8900SOL    HW238163   1.232   1.063   5.915 -0.1671  1.1511  0.9318
 8901SOL     OW38164   3.982   1.679   8.160  0.2913  0.0822  0.1211
 8901SOL    HW138165   4.009   1.588   8.149 -1.2584 -0.1052 -2.0896
 8901SOL    HW238166   4.042   1.722   8.099  1.0867 -1.6801 -0.3462
 8902SOL     OW38167   1.197   4.308   5.951  0.2947  0.5444  0.0797
 8902SOL    HW138168   1.254   4.384   5.950  0.1596  0.6557  1.2965
 8902SOL    HW238169   1.110   4.346   5.961 -0.5068 -1.9892  2.8206
 8903SOL     OW38170   4.302   4.203   9.169  0.2952  0.3921 -0.0125
 8903SOL    HW138171   4.363   4.153   9.115 -1.5413  0.0632 -1.7953
 8903SOL    HW238172   4.314   4.168   9.257 -0.2706 -2.1298 -0.9625
 8904SOL     OW38173   4.698   4.140  15.491 -0.2849  0.7378 -0.2203
 8904SOL    HW138174   4.621   4.196  15.479 -0.8044  0.0376 -0.1017
 8904SOL    HW238175   0.006   4.161  15.579  1.8351  0.6921 -0.9041
 8905SOL     OW38176   1.866   1.579  13.285  0.1450 -0.2373 -0.2374
 8905SOL    HW138177   1.785   1.621  13.313  0.0296 -1.5511  1.3955
 8905SOL    HW238178   1.831   1.497  13.251  1.8789 -1.3615  0.7018
 8906SOL     OW38179   1.603   3.095   7.933  0.8219  0.2176 -0.5564
 8906SOL    HW138180   1.603   3.152   7.856 -0.8429  0.1919 -0.5666
 8906SOL    HW238181   1.511   3.085   7.957  1.0921  0.8017  0.7510
 8907SOL     OW38182   1.137   0.692   9.586 -0.1859 -0.1350  0.4137
 8907SOL    HW138183   1.226   0.726   9.586 -0.1171 -0.3216  0.6668
 8907SOL    HW238184   1.090   0.767   9.624 -1.6945 -0.1782 -1.3469
 8908SOL     OW38185   0.242   1.598   6.557  0.1927  0.2436 -0.1346
 8908SOL    HW138186   0.306   1.665   6.581  0.2640 -0.5842  1.9277
 8908SOL    HW238187   0.233   1.612   6.463  2.2048 -0.6600 -0.4527
 8909SOL     OW38188   3.097   4.242   5.609 -0.4777  0.1840  0.0617
 8909SOL    HW138189   3.002   4.252   5.613 -0.4128  1.3601 -1.3249
 8909SOL    HW238190   3.110   4.196   5.526  0.2519 -0.6920  0.6542
 8910SOL     OW38191   4.463   4.720  10.706  0.4095 -0.0268 -0.3889
 8910SOL    HW138192   4.524   4.714  10.779  0.3809 -0.1124 -0.3715
 8910SOL    HW238193   4.409   4.641  10.704 -0.9719  0.9450 -1.5367
 8911SOL     OW38194   3.051   1.000  10.183 -0.0448  0.0222  0.6060
 8911SOL    HW138195   3.044   1.095  10.197 -0.7513  0.2710 -1.4493
 8911SOL    HW238196   2.961   0.974  10.204  0.0351 -1.1599 -0.5330
 8912SOL     OW38197   4.711   1.831   3.806 -0.1739  0.0494  0.4185
 8912SOL    HW138198   0.077   1.796   3.823 -0.0781  2.0197  3.9890
 8912SOL    HW238199   4.721   1.847   3.712  0.9264 -2.1982  0.1626
 8913SOL     OW38200   2.640   2.568   1.730 -0.1052 -0.4626  0.0350
 8913SOL    HW138201   2.691   2.487   1.729 -0.0291 -0.4050 -0.8044
 8913SOL    HW238202   2.673   2.610   1.809  2.1295 -0.1198 -1.0768
 8914SOL     OW38203   1.290   2.675   1.500  0.3908 -0.4097  0.1504
 8914SOL    HW138204   1.265   2.626   1.578 -0.7969 -1.6694 -0.9986
 8914SOL    HW238205   1.382   2.689   1.524  0.4952  1.0043 -1.0814
 8915SOL     OW38206   1.447   4.310   4.550 -0.1026 -0.1543 -0.2223
 8915SOL    HW138207   1.515   4.378   4.548 -1.6269  1.3660 -0.2851
 8915SOL    HW238208   1.369   4.363   4.569  0.0900 -0.2609  0.8956
 8916SOL     OW38209   1.490   2.603  14.013  0.1381 -0.3663  0.6841
 8916SOL    HW138210   1.538   2.602  14.096  1.2551 -1.1116  0.0159
 8916SOL    HW238211   1.447   2.517  14.021  0.8778 -0.6193  1.8585
 8917SOL     OW38212   1.397   0.658   4.672  0.1715  0.4079 -0.2970
 8917SOL    HW138213   1.304   0.669   4.687 -0.0277 -0.2147 -1.1116
 8917SOL    HW238214   1.403   0.742   4.627  2.4655 -0.3063 -1.3415
 8918SOL     OW38215   1.974   0.490   2.341 -0.7008  0.2067 -0.0914
 8918SOL    HW138216   2.017   0.575   2.327  0.8617 -1.0018 -2.7658
 8918SOL    HW238217   1.887   0.529   2.349 -0.3802  1.2970 -1.9410
 8919SOL     OW38218   4.688   3.581  14.942 -0.4506  0.0922 -0.6071
 8919SOL    HW138219   0.042   3.525  14.962  0.3603  0.7173 -1.9233
 8919SOL    HW238220   4.619   3.517  14.962 -0.1981 -0.2592 -0.8677
 8920SOL     OW38221   0.894   4.538  16.659 -0.4316  0.1458 -0.4942
 8920SOL    HW138222   0.981   4.521  16.623 -0.5130 -1.5422  0.1131
 8920SOL    HW238223   0.864   4.447  16.659  1.6647 -0.5294 -1.6894
 8921SOL     OW38224   3.050   3.115  14.203 -0.5494 -0.2343  0.1877
 8921SOL    HW138225   3.122   3.160  14.160 -0.5237 -2.2950 -1.9824
 8921SOL    HW238226   3.099   3.034  14.218 -0.5801 -0.0146  1.4058
 8922SOL     OW38227   0.075   3.415   6.811  0.5348  0.6431 -0.1746
 8922SOL    HW138228   0.162   3.382   6.787  0.3159 -0.1184  0.0822
 8922SOL    HW238229   0.043   3.343   6.865  1.7104 -1.2838 -2.0306
 8923SOL     OW38230   0.068   3.826  15.914  0.6253  0.2754  0.1077
 8923SOL    HW138231   0.122   3.772  15.857  2.9479  1.4761  1.1924
 8923SOL    HW238232   4.701   3.787  15.913  0.4511  0.6451  1.6039
 8924SOL     OW38233   3.837   1.794  14.682 -0.6315 -0.3858 -0.0407
 8924SOL    HW138234   3.818   1.721  14.623 -0.2568 -0.6132  0.1233
 8924SOL    HW238235   3.917   1.823  14.639 -1.5486  1.9017 -0.2206
 8925SOL     OW38236   0.741   3.425   0.988  0.6461 -0.2261 -0.0608
 8925SOL    HW138237   0.686   3.503   0.988  2.3005  0.9175  0.3351
 8925SOL    HW238238   0.788   3.420   0.904  3.3096  1.9929  1.3052
 8926SOL     OW38239   0.272   1.386   8.661 -0.0546  0.0985 -0.5032
 8926SOL    HW138240   0.363   1.403   8.688 -0.0686 -1.0765  0.3021
 8926SOL    HW238241   0.254   1.330   8.737  2.1691  1.1274  0.8036
 8927SOL     OW38242   4.222   2.216  16.816  0.9370 -0.1013 -0.3974
 8927SOL    HW138243   4.271   2.154  16.761 -0.4966  0.6313 -2.4496
 8927SOL    HW238244   4.147   2.242  16.764 -0.5219 -0.5028  1.4947
 8928SOL     OW38245   2.844   2.381   5.072  0.0649  0.1752 -1.0660
 8928SOL    HW138246   2.848   2.451   5.007 -0.6422  1.6561  0.5068
 8928SOL    HW238247   2.912   2.317   5.051  1.3194  1.0148  0.5661
 8929SOL     OW38248   0.528   3.237  16.539  0.2923 -0.6183 -0.3656
 8929SOL    HW138249   0.496   3.176  16.472 -3.3991  2.8658 -1.7972
 8929SOL    HW238250   0.583   3.185  16.598  1.3242 -1.6845 -2.2804
 8930SOL     OW38251   2.575   1.525   7.881 -0.0812  0.1812 -0.2235
 8930SOL    HW138252   2.562   1.512   7.975  1.4018 -1.0656 -0.1973
 8930SOL    HW238253   2.484   1.532   7.850 -0.0751 -0.5027 -0.3981
 8931SOL     OW38254   1.716   1.129  10.150  0.3530  0.0113  0.7085
 8931SOL    HW138255   1.689   1.068  10.219 -0.5648  1.5429  1.6899
 8931SOL    HW238256   1.786   1.178  10.193 -0.4402  0.4104  1.5605
 8932SOL     OW38257   2.165   2.504   7.592  0.0811  0.4346  0.3344
 8932SOL    HW138258   2.230   2.573   7.579  1.4874 -0.8948  0.3175
 8932SOL    HW238259   2.207   2.426   7.554  2.1168  1.5684  0.2900
 8933SOL     OW38260   0.821   0.121   8.220  0.0121  0.5487  0.2360
 8933SOL    HW138261   0.811   0.124   8.315  0.2398 -0.6775  0.2979
 8933SOL    HW238262   0.807   0.215   8.210  1.0266  0.7298  0.5796
 8934SOL     OW38263   2.058   3.595   7.818 -0.0416 -0.8192 -0.2930
 8934SOL    HW138264   2.133   3.579   7.761  0.8641 -1.7253  1.1541
 8934SOL    HW238265   2.047   3.521   7.878 -0.3998 -0.1968  0.4123
 8935SOL     OW38266   3.576   1.473  12.561 -0.3874 -0.1989 -0.6476
 8935SOL    HW138267   3.508   1.533  12.592 -0.3763  0.6923 -2.3511
 8935SOL    HW238268   3.531   1.388  12.559  0.1804 -0.5197  0.2249
 8936SOL     OW38269   3.900   4.111   9.327  0.3671  0.3768  0.0520
 8936SOL    HW138270   3.822   4.067   9.362  1.7041 -1.1415  1.1182
 8936SOL    HW238271   3.969   4.073   9.381  1.3872 -1.0844 -2.2650
 8937SOL     OW38272   0.859   2.861   2.945 -0.6350 -0.0011  0.0125
 8937SOL    HW138273   0.767   2.869   2.971  0.5386  2.7076  3.3379
 8937SOL    HW238274   0.904   2.860   3.030  1.4433 -2.2498 -1.1373
 8938SOL     OW38275   1.249   4.008   5.134 -0.2034 -0.1270 -0.3779
 8938SOL    HW138276   1.235   3.955   5.212 -0.4824 -0.6324 -0.7745
 8938SOL    HW238277   1.244   4.093   5.178  0.5285 -0.4059  0.2390
 8939SOL     OW38278   4.097   1.840   8.384  0.0986 -0.2639  0.6292
 8939SOL    HW138279   4.023   1.787   8.353  0.4655  1.2467 -2.8711
 8939SOL    HW238280   4.167   1.798   8.332  0.6054  1.6155 -0.1877
 8940SOL     OW38281   1.774   0.975   7.817  0.0015 -0.6909 -0.4525
 8940SOL    HW138282   1.804   0.959   7.727 -1.1147  0.1972 -0.9702
 8940SOL    HW238283   1.737   1.062   7.804  0.9079 -0.3220 -0.5743
 8941SOL     OW38284   3.363   1.009   7.224  0.1607  0.8070  0.2211
 8941SOL    HW138285   3.297   1.079   7.224  0.0876  0.7300  1.7272
 8941SOL    HW238286   3.403   1.027   7.309 -0.6693 -0.3450  0.8487
 8942SOL     OW38287   4.353   2.230   5.273  0.0686 -0.7473 -0.2218
 8942SOL    HW138288   4.422   2.168   5.298  1.8383  1.0843 -0.5523
 8942SOL    HW238289   4.348   2.233   5.178 -1.0776 -2.3478 -0.2120
 8943SOL     OW38290   1.728   2.462   4.014  0.4485  0.2089 -0.1185
 8943SOL    HW138291   1.698   2.550   3.989 -0.1409  0.0565  0.0540
 8943SOL    HW238292   1.792   2.475   4.083 -1.0566  0.6053  1.2079
 8944SOL     OW38293   3.029   0.138   9.840  0.5229 -0.0352  0.2315
 8944SOL    HW138294   3.067   0.204   9.899  1.8718  2.0542 -3.0251
 8944SOL    HW238295   3.011   0.187   9.760 -0.6688 -2.5906 -1.0519
 8945SOL     OW38296   1.546   0.825   2.730  0.7585 -0.2803  0.3150
 8945SOL    HW138297   1.574   0.745   2.774 -0.9729 -1.1819 -0.1924
 8945SOL    HW238298   1.551   0.877   2.810  0.1004 -0.3226  0.3870
 8946SOL     OW38299   1.505   2.353  14.832  0.2073  0.2179 -0.0731
 8946SOL    HW138300   1.502   2.439  14.789  1.0499 -0.0337 -0.6299
 8946SOL    HW238301   1.566   2.382  14.899  1.7215 -0.8558 -0.9868
 8947SOL     OW38302   1.411   4.081   2.537 -0.0372 -0.4302 -0.3797
 8947SOL    HW138303   1.399   4.174   2.517 -0.2453 -0.0990  1.2826
 8947SOL    HW238304   1.494   4.082   2.585 -1.2667 -2.7597  1.7752
 8948SOL     OW38305   2.366   2.929   4.687  0.6927 -0.2145  0.4648
 8948SOL    HW138306   2.453   2.944   4.726  0.5938 -1.0478  1.0215
 8948SOL    HW238307   2.341   3.017   4.660  0.0997 -0.5477 -0.0613
 8949SOL     OW38308   1.275   4.150   1.234 -0.1201  0.1650 -0.8208
 8949SOL    HW138309   1.231   4.067   1.216  1.2264 -0.5467 -0.9023
 8949SOL    HW238310   1.243   4.208   1.165 -0.8529 -0.5594 -1.0860
 8950SOL     OW38311   4.373   1.418  13.206  0.0798 -0.3761  0.1142
 8950SOL    HW138312   4.448   1.399  13.150  1.4126  0.7048  1.5142
 8950SOL    HW238313   4.349   1.495  13.156 -0.6047 -1.6495 -1.5081
 8951SOL     OW38314   1.342   3.871  10.489 -0.4329 -0.0525  0.4625
 8951SOL    HW138315   1.257   3.843  10.456  1.2195 -1.9019 -2.2494
 8951SOL    HW238316   1.403   3.856  10.416 -1.9597  3.8130 -1.5765
 8952SOL     OW38317   4.434   2.407   0.834  0.5201 -0.1387 -0.2812
 8952SOL    HW138318   4.430   2.343   0.905 -1.3223 -0.1900 -0.4467
 8952SOL    HW238319   4.526   2.399   0.806  0.0751 -0.5225 -1.6372
 8953SOL     OW38320   1.723   2.526   5.618 -0.2433 -0.1578 -0.5585
 8953SOL    HW138321   1.746   2.578   5.541  2.7190 -0.1884  0.2879
 8953SOL    HW238322   1.667   2.465   5.570 -1.2733 -0.1310  0.6305
 8954SOL     OW38323   0.465   1.952   3.751 -0.3954  0.1603  0.2447
 8954SOL    HW138324   0.473   1.921   3.660  2.0103 -1.0924  0.8910
 8954SOL    HW238325   0.485   2.045   3.743  1.9811 -0.3279  0.6406
 8955SOL     OW38326   2.617   2.318   2.977 -0.1353 -0.2255  0.0789
 8955SOL    HW138327   2.662   2.335   3.060  1.4530 -0.3600 -0.7538
 8955SOL    HW238328   2.566   2.239   2.999  1.4289 -0.7300  1.8951
 8956SOL     OW38329   3.838   3.082  11.561  0.2530  0.1372 -0.0713
 8956SOL    HW138330   3.763   3.056  11.615 -0.3816  1.5087 -0.2878
 8956SOL    HW238331   3.897   3.017  11.598 -0.1991 -0.3081 -0.1255
 8957SOL     OW38332   4.030   3.719   4.522  0.1174  0.0022 -0.4892
 8957SOL    HW138333   4.004   3.713   4.430  1.4822 -1.9999 -0.7315
 8957SOL    HW238334   3.984   3.798   4.550  0.7640 -0.3615  1.5561
 8958SOL     OW38335   0.079   2.202  11.421 -0.0181  0.0639 -0.3370
 8958SOL    HW138336   0.056   2.109  11.420  0.6723 -0.0948 -2.0679
 8958SOL    HW238337   0.175   2.202  11.416 -0.0115  1.3656 -0.4168
 8959SOL     OW38338   1.659   3.027   8.981 -0.4006  0.2201 -0.0085
 8959SOL    HW138339   1.608   3.006   9.059 -1.0691  0.2702 -0.4356
 8959SOL    HW238340   1.722   3.086   9.022  2.0825 -1.1985 -1.7540
 8960SOL     OW38341   0.010   3.269   5.268  0.6222 -0.0125  0.4705
 8960SOL    HW138342   0.099   3.300   5.287  0.8809 -0.2097 -0.4009
 8960SOL    HW238343   4.679   3.303   5.341 -0.4183 -0.1092 -0.2222
 8961SOL     OW38344   2.530   1.407  16.245  0.4258 -0.1549  1.1444
 8961SOL    HW138345   2.480   1.436  16.321 -1.2357  0.7446 -0.2645
 8961SOL    HW238346   2.617   1.436  16.271  1.0379 -0.5826 -0.4316
 8962SOL     OW38347   1.163   2.648   7.902 -0.0293 -0.5818 -0.2224
 8962SOL    HW138348   1.195   2.721   7.849 -0.4419 -0.4273 -0.2569
 8962SOL    HW238349   1.190   2.568   7.857 -1.8323 -1.7279  0.7054
 8963SOL     OW38350   1.598   4.164   7.007 -0.1173 -0.1345 -0.2591
 8963SOL    HW138351   1.677   4.121   7.039  1.0691  2.5253  0.3575
 8963SOL    HW238352   1.628   4.249   6.975  0.1132  0.0360  0.4169
 8964SOL     OW38353   0.939   4.567   0.332  0.2266  0.2496  0.0048
 8964SOL    HW138354   0.878   4.639   0.315  1.7551  1.6770  0.5822
 8964SOL    HW238355   0.892   4.489   0.303  1.0686 -0.4282  0.4913
 8965SOL     OW38356   2.219   0.829   1.982  0.4280  0.3310  0.2816
 8965SOL    HW138357   2.274   0.869   2.050  0.8578 -0.3970  0.3526
 8965SOL    HW238358   2.131   0.835   2.019  0.8909  0.6579  1.3578
 8966SOL     OW38359   1.767   0.224   2.506  0.4313 -0.0316 -0.4115
 8966SOL    HW138360   1.710   0.265   2.441 -1.1485  0.6034  1.3493
 8966SOL    HW238361   1.800   0.301   2.553 -2.5183  1.5324 -0.8889
 8967SOL     OW38362   4.047   0.967  11.256  0.2437 -0.0327 -0.1220
 8967SOL    HW138363   4.081   0.930  11.338  0.5772 -0.9796 -0.6966
 8967SOL    HW238364   4.100   0.912  11.199  1.1365 -0.1559  0.8374
 8968SOL     OW38365   4.504   4.719   3.649  0.5000 -0.2575 -0.0868
 8968SOL    HW138366   4.444   4.687   3.716 -0.8390  0.9066 -0.7179
 8968SOL    HW238367   4.587   0.016   3.695 -0.8036 -0.4451  2.3360
 8969SOL     OW38368   2.898   1.333  13.282  0.0132  0.3113  0.4076
 8969SOL    HW138369   2.896   1.260  13.344  1.7435 -0.0887 -0.0067
 8969SOL    HW238370   2.853   1.297  13.206 -2.2659  1.2994  1.2794
 8970SOL     OW38371   0.456   0.422   6.714  0.2739  0.1814 -0.1602
 8970SOL    HW138372   0.454   0.486   6.643  1.7106  0.3037 -0.0786
 8970SOL    HW238373   0.427   0.486   6.779 -0.0443 -0.7215  0.5941
 8971SOL     OW38374   3.331   1.163   8.427 -0.0502  0.0162  0.4201
 8971SOL    HW138375   3.283   1.143   8.347  0.5330 -1.1191  0.3616
 8971SOL    HW238376   3.334   1.076   8.466 -2.4154 -0.0661  0.4217
 8972SOL     OW38377   3.575   0.594   7.355 -0.2653  0.4767 -0.2419
 8972SOL    HW138378   3.545   0.540   7.282  0.9570  0.4138 -0.6968
 8972SOL    HW238379   3.492   0.628   7.387 -0.7323  0.4598 -1.4449
 8973SOL     OW38380   3.822   4.293   6.518 -0.4720 -0.4057  0.0918
 8973SOL    HW138381   3.768   4.358   6.563 -1.0035 -0.7110 -0.1083
 8973SOL    HW238382   3.818   4.221   6.581 -3.1898  0.4775  0.9490
 8974SOL     OW38383   3.143   2.601   4.877  0.3445 -0.1584 -0.4144
 8974SOL    HW138384   3.072   2.571   4.820  1.6678  0.1092 -2.1820
 8974SOL    HW238385   3.188   2.672   4.831  1.0864  0.5016  1.3430
 8975SOL     OW38386   0.852   3.084  10.520  0.0675 -0.1126  0.1858
 8975SOL    HW138387   0.783   3.018  10.522  0.4012 -0.4962 -0.8245
 8975SOL    HW238388   0.885   3.066  10.432  0.6421  0.5895  0.2614
 8976SOL     OW38389   4.087   3.625   7.482  0.2054  0.3292  0.7102
 8976SOL    HW138390   4.037   3.546   7.464 -2.3278  2.5679 -2.0330
 8976SOL    HW238391   4.024   3.671   7.537 -2.2333 -1.7738 -0.3517
 8977SOL     OW38392   3.228   3.915   2.649  0.2121  0.1368 -0.7548
 8977SOL    HW138393   3.306   3.936   2.699 -0.9761  1.4095  0.5521
 8977SOL    HW238394   3.269   3.848   2.594  1.3595  1.1572 -1.1220
 8978SOL     OW38395   4.474   2.595  13.957 -0.0515  0.2966 -0.0747
 8978SOL    HW138396   4.489   2.502  13.939  0.4804  0.4194 -0.2624
 8978SOL    HW238397   4.540   2.623  14.020 -0.5530 -1.2857  1.1542
 8979SOL     OW38398   0.294   4.316   6.865  0.3303  0.1404  0.4017
 8979SOL    HW138399   0.359   4.293   6.799  0.1183  1.3583 -0.2308
 8979SOL    HW238400   0.212   4.294   6.822  1.6465 -1.3772 -1.3173
 8980SOL     OW38401   0.962   2.375   2.532 -0.2971 -0.4641  0.3169
 8980SOL    HW138402   1.045   2.397   2.574  0.1478  1.5019 -1.6453
 8980SOL    HW238403   0.895   2.363   2.600 -1.0375 -0.2343 -0.3759
 8981SOL     OW38404   0.082   0.410  13.575  0.4633 -0.2613  0.0403
 8981SOL    HW138405   0.038   0.329  13.550  2.2690 -1.0552 -0.5572
 8981SOL    HW238406   0.099   0.396  13.668  0.9120 -2.5076 -0.3685
 8982SOL     OW38407   0.084   0.685   5.821 -0.4274  0.4526 -0.6619
 8982SOL    HW138408   0.022   0.744   5.778 -0.3837 -0.2518 -1.6729
 8982SOL    HW238409   0.035   0.672   5.902  0.4819 -2.7330 -0.6289
 8983SOL     OW38410   1.681   3.971   2.909 -0.0879 -0.3224 -0.4507
 8983SOL    HW138411   1.750   4.017   2.957 -0.3754 -2.3397  1.8958
 8983SOL    HW238412   1.663   3.893   2.962  0.6694  0.2356  0.6352
 8984SOL     OW38413   0.736   3.809   7.866  0.1871 -0.0398 -0.0073
 8984SOL    HW138414   0.773   3.815   7.954 -2.0009 -1.4872  1.0023
 8984SOL    HW238415   0.802   3.859   7.817  2.3368 -0.2900  2.6204
 8985SOL     OW38416   0.934   1.185   6.142  0.1674  0.2075 -0.2595
 8985SOL    HW138417   1.013   1.239   6.146 -1.3183  2.3992 -0.4301
 8985SOL    HW238418   0.981   1.108   6.112  0.8222 -0.1877  1.7864
 8986SOL     OW38419   2.148   0.075  16.694 -0.2512  0.1916 -0.2327
 8986SOL    HW138420   2.061   0.112  16.710 -0.6611  0.1804 -2.4546
 8986SOL    HW238421   2.142   0.002  16.755 -0.1995  0.0608 -0.3854
 8987SOL     OW38422   3.284   0.407   9.566  0.1392  0.2475 -0.3471
 8987SOL    HW138423   3.278   0.499   9.541  1.2228  0.7838  1.4478
 8987SOL    HW238424   3.374   0.388   9.538 -0.7377 -1.0107 -2.3360
 8988SOL     OW38425   0.199   0.809   9.511  0.6008  0.6060  1.0548
 8988SOL    HW138426   0.193   0.889   9.460 -2.9394 -0.5622 -0.3480
 8988SOL    HW238427   0.146   0.826   9.588 -1.0612 -1.2000  0.2923
 8989SOL     OW38428   0.980   0.250  14.107  0.0886  0.0830  0.1802
 8989SOL    HW138429   1.028   0.306  14.046 -2.0133 -1.5006 -2.9817
 8989SOL    HW238430   1.046   0.221  14.169  0.4633 -1.1659 -0.7962
 8990SOL     OW38431   2.495   1.025   1.706  0.1234 -0.0433  0.6806
 8990SOL    HW138432   2.560   0.979   1.759 -0.6842 -0.9427  0.9135
 8990SOL    HW238433   2.538   1.034   1.621 -1.3502  1.8112  0.1379
 8991SOL     OW38434   4.020   0.624   1.488  0.3458  0.3434  0.8640
 8991SOL    HW138435   4.089   0.662   1.435 -0.8584 -0.0199 -0.9593
 8991SOL    HW238436   4.018   0.683   1.564  0.6213  0.9721  0.3843
 8992SOL     OW38437   1.428   1.306   6.151 -0.2337 -0.5101 -0.1193
 8992SOL    HW138438   1.463   1.276   6.067  0.1596  0.1888 -0.2052
 8992SOL    HW238439   1.507   1.336   6.197 -2.1150  1.7606  1.6297
 8993SOL     OW38440   4.269   1.759  16.119  0.1638  0.1899 -0.2891
 8993SOL    HW138441   4.201   1.824  16.135 -0.0196  0.1991 -1.1316
 8993SOL    HW238442   4.311   1.769  16.205  0.1738 -2.2184 -0.0165
 8994SOL     OW38443   0.213   3.347   5.433 -0.0704  0.2151 -0.7241
 8994SOL    HW138444   0.293   3.315   5.475 -0.6573 -1.8028 -1.1094
 8994SOL    HW238445   0.253   3.398   5.363 -1.2046 -0.2958 -1.7459
 8995SOL     OW38446   0.354   3.423   4.119  0.1249  0.4435  0.2494
 8995SOL    HW138447   0.305   3.431   4.200  0.1022 -1.1812  0.3924
 8995SOL    HW238448   0.327   3.338   4.084 -0.0911  0.9364 -0.7941
 8996SOL     OW38449   4.032   1.410   8.080  0.2539 -0.4630 -0.5558
 8996SOL    HW138450   4.061   1.363   8.002 -1.1967 -3.1356  0.5194
 8996SOL    HW238451   3.937   1.398   8.081  0.1650  0.2543 -0.9102
 8997SOL     OW38452   4.179   2.425   8.935 -0.0434 -0.5996  1.1267
 8997SOL    HW138453   4.271   2.448   8.919 -0.5512 -0.0778 -1.0798
 8997SOL    HW238454   4.168   2.355   8.871 -0.7236 -1.5997  2.3578
 8998SOL     OW38455   4.043   1.694   6.453  0.0370 -0.3087 -0.1019
 8998SOL    HW138456   4.112   1.637   6.489  0.6735  0.2446 -0.4324
 8998SOL    HW238457   3.990   1.638   6.397 -0.5273 -1.2692  1.3836
 8999SOL     OW38458   2.021   3.363   7.968 -0.4688  0.0935  0.3581
 8999SOL    HW138459   2.100   3.326   8.008  2.1823  1.8970 -3.1526
 8999SOL    HW238460   1.977   3.368   8.053 -1.1567 -2.1596  0.1332
 9000SOL     OW38461   2.703   2.395  12.326 -0.4300 -0.1442  0.1248
 9000SOL    HW138462   2.699   2.428  12.236  0.7594  0.9243  0.4689
 9000SOL    HW238463   2.608   2.382  12.333 -0.6601  1.4475  0.0840
 9001SOL     OW38464   3.264   2.129   7.745 -0.0635  0.2908 -0.0396
 9001SOL    HW138465   3.274   2.167   7.832 -1.0800  1.5660 -0.4880
 9001SOL    HW238466   3.188   2.077   7.771  0.4151 -0.1419  0.4992
 9002SOL     OW38467   0.740   4.212   6.747  0.1758  0.2591  0.1672
 9002SOL    HW138468   0.761   4.289   6.801  1.4162 -0.1597  0.2820
 9002SOL    HW238469   0.757   4.142   6.810  1.1305  0.4190  0.0903
 9003SOL     OW38470   3.587   4.283  16.209  0.4188 -0.4501  0.1570
 9003SOL    HW138471   3.622   4.322  16.288  2.0117  1.3798 -1.4687
 9003SOL    HW238472   3.534   4.212  16.247  0.9588 -0.9055  0.0515
 9004SOL     OW38473   4.200   2.589   3.896 -0.3094 -0.5420 -0.2926
 9004SOL    HW138474   4.153   2.611   3.977 -0.3856 -0.7827 -0.2729
 9004SOL    HW238475   4.139   2.544   3.839 -1.2763  0.1697  0.1745
 9005SOL     OW38476   1.604   0.580   7.736 -0.8340  0.9543 -0.4022
 9005SOL    HW138477   1.586   0.487   7.725 -0.6529  1.2134 -2.9189
 9005SOL    HW238478   1.510   0.602   7.730 -1.1951 -0.6494 -0.4836
 9006SOL     OW38479   1.417   4.396   6.862  0.1986 -0.2297 -0.7599
 9006SOL    HW138480   1.508   4.379   6.835  0.2773 -4.1389  1.9182
 9006SOL    HW238481   1.366   4.349   6.796 -0.0063  1.6367 -1.9378
 9007SOL     OW38482   3.557   4.356   7.829  0.6068 -0.4300  0.2386
 9007SOL    HW138483   3.562   4.264   7.854  1.2027 -0.2230  0.8994
 9007SOL    HW238484   3.645   4.369   7.794  0.0777  3.5340  0.3677
 9008SOL     OW38485   3.153   2.626  14.789 -0.8891  0.2282  0.6329
 9008SOL    HW138486   3.071   2.675  14.782 -1.8809 -1.4746  0.4194
 9008SOL    HW238487   3.182   2.691  14.854  1.2988  0.5434 -0.6890
 9009SOL     OW38488   1.685   3.236   4.233  0.0670 -0.1630  0.6689
 9009SOL    HW138489   1.627   3.264   4.163  0.9472 -0.9203 -0.3613
 9009SOL    HW238490   1.641   3.157   4.263  0.2826 -1.0438 -1.3192
 9010SOL     OW38491   2.919   2.543   6.258  0.3254  0.1414  0.4550
 9010SOL    HW138492   2.901   2.598   6.334 -0.4992  0.9218 -0.3083
 9010SOL    HW238493   2.945   2.608   6.194 -1.0982  0.6512  0.3757
 9011SOL     OW38494   0.125   4.682   9.157  0.4078 -0.7244  0.3278
 9011SOL    HW138495   0.127   0.053   9.130 -2.5164 -1.0923 -1.1092
 9011SOL    HW238496   0.040   4.687   9.199 -0.1886 -3.4241 -0.5868
 9012SOL     OW38497   1.612   3.737   4.201 -0.3734  0.0143  0.1113
 9012SOL    HW138498   1.587   3.815   4.151  1.1275 -0.4734 -1.4429
 9012SOL    HW238499   1.568   3.747   4.285 -1.4962 -0.3082 -0.4505
 9013SOL     OW38500   4.547   3.130  17.256  0.7349 -0.3308 -0.0130
 9013SOL    HW138501   4.520   3.078  17.181  1.3592 -0.5485 -0.0796
 9013SOL    HW238502   4.519   3.067  17.322 -3.3793 -0.7794 -2.1511
 9014SOL     OW38503   4.460   4.188  14.328 -0.1419 -0.0336  0.3878
 9014SOL    HW138504   4.397   4.228  14.268 -0.7413 -1.1322  0.2963
 9014SOL    HW238505   4.404   4.160  14.400 -0.4274  0.3397  0.3109
 9015SOL     OW38506   1.202   4.565  14.048  0.2318  0.3107  0.4387
 9015SOL    HW138507   1.125   4.621  14.042  0.5338  0.2960 -3.8852
 9015SOL    HW238508   1.272   4.620  14.080 -0.2452  1.0318  0.2377
 9016SOL     OW38509   3.819   2.539  16.229  0.1317  0.2940  0.4488
 9016SOL    HW138510   3.744   2.524  16.287 -0.8929 -1.7005 -1.3983
 9016SOL    HW238511   3.888   2.507  16.287 -0.8748  0.2771  1.6556
 9017SOL     OW38512   4.321   4.471   9.214  0.3313  0.2991  0.1938
 9017SOL    HW138513   4.326   4.377   9.197 -0.1069  0.6598 -1.8873
 9017SOL    HW238514   4.235   4.478   9.257 -0.8446 -0.8775 -1.9523
 9018SOL     OW38515   0.056   3.565   5.529 -0.1991  0.1715  0.5182
 9018SOL    HW138516   0.045   3.496   5.594  0.9807 -0.3858  0.1368
 9018SOL    HW238517   0.140   3.542   5.488 -0.5532 -0.4054  0.1234
 9019SOL     OW38518   2.985   2.674   3.483  0.3078  0.0825 -0.2415
 9019SOL    HW138519   2.970   2.598   3.540  1.0745 -1.1999 -1.7529
 9019SOL    HW238520   2.957   2.752   3.530 -1.7977 -0.6763 -0.2451
 9020SOL     OW38521   3.057   1.943  13.585 -0.0025  0.7782  0.0585
 9020SOL    HW138522   3.136   1.996  13.592  2.2981 -2.8749  1.2085
 9020SOL    HW238523   3.091   1.855  13.574 -0.1262  0.8318 -0.8102
 9021SOL     OW38524   2.188   0.511   4.015  0.3499  0.0959 -0.7455
 9021SOL    HW138525   2.099   0.531   3.986 -1.0572 -1.0316  2.7463
 9021SOL    HW238526   2.231   0.589   3.982 -0.9378  0.0553 -2.5048
 9022SOL     OW38527   4.236   0.235  11.983  0.5095 -0.4822 -0.7234
 9022SOL    HW138528   4.206   0.269  11.898 -0.4298  2.1490  0.6866
 9022SOL    HW238529   4.261   0.149  11.950  2.8361 -0.1372  0.1727
 9023SOL     OW38530   2.943   4.605   2.482  0.2518 -0.3514 -0.7568
 9023SOL    HW138531   2.862   4.638   2.521  0.6571 -0.4381  0.1538
 9023SOL    HW238532   2.982   4.574   2.564 -0.0118  1.2422 -0.0307
 9024SOL     OW38533   4.713   0.669  10.313 -0.0317  0.3868  0.0236
 9024SOL    HW138534   4.712   0.643  10.221  1.6418  0.1930  0.0436
 9024SOL    HW238535   4.679   0.590  10.356 -0.3515 -0.1706 -1.2527
 9025SOL     OW38536   0.453   3.124   7.822 -0.4582  0.2032  0.3660
 9025SOL    HW138537   0.497   3.041   7.842 -0.2856  0.5748  1.5752
 9025SOL    HW238538   0.411   3.136   7.907 -1.0675 -0.9165  0.2272
 9026SOL     OW38539   0.781   1.198   4.680  0.1130  0.2932 -0.3642
 9026SOL    HW138540   0.759   1.277   4.631 -0.4854  1.8126  2.3395
 9026SOL    HW238541   0.703   1.182   4.733 -1.1289  0.7683 -2.0536
 9027SOL     OW38542   4.186   3.077   3.621 -0.2246  0.5274  0.0933
 9027SOL    HW138543   4.206   3.046   3.709 -0.2059  1.1713  0.3187
 9027SOL    HW238544   4.171   2.997   3.570 -1.7329  1.3880 -0.8149
 9028SOL     OW38545   3.586   2.939   9.638  0.3181  0.0179 -0.4900
 9028SOL    HW138546   3.587   2.886   9.718 -2.1901  0.6654 -0.0346
 9028SOL    HW238547   3.496   2.928   9.608  0.0437 -1.3867  0.8177
 9029SOL     OW38548   4.499   3.686  13.779 -0.1091  0.0364  0.3980
 9029SOL    HW138549   4.514   3.753  13.711 -1.5444  0.2633  0.3047
 9029SOL    HW238550   4.584   3.643  13.785 -0.7869 -1.1689  1.3306
 9030SOL     OW38551   0.534   0.686   4.229  0.0832 -0.1597 -0.7775
 9030SOL    HW138552   0.545   0.748   4.301  0.5588 -1.1879  0.0397
 9030SOL    HW238553   0.621   0.660   4.198 -0.3788 -0.7522 -1.5595
 9031SOL     OW38554   1.887   3.998  11.509 -0.1183  0.0411  0.1780
 9031SOL    HW138555   1.934   3.965  11.586 -1.0833  0.0230  0.7543
 9031SOL    HW238556   1.870   3.914  11.465  1.1820 -0.8847  1.4422
 9032SOL     OW38557   2.629   4.144   5.212  0.5990  0.0828 -0.1790
 9032SOL    HW138558   2.555   4.137   5.152 -0.4952 -0.6637  1.2515
 9032SOL    HW238559   2.582   4.128   5.294 -1.1097  0.7313 -1.0347
 9033SOL     OW38560   3.637   4.279  16.844  0.1922 -0.6127  0.4782
 9033SOL    HW138561   3.727   4.311  16.850 -0.7180  2.1062 -0.4928
 9033SOL    HW238562   3.599   4.345  16.786 -2.8175 -2.8793 -0.1420
 9034SOL     OW38563   4.144   1.581   5.446 -0.3785 -0.0004  0.0602
 9034SOL    HW138564   4.086   1.534   5.385 -1.3236  1.0964  0.1159
 9034SOL    HW238565   4.138   1.528   5.525  1.9113 -1.1459 -0.5514
 9035SOL     OW38566   4.547   3.505   7.475 -0.2065  0.7942  0.1487
 9035SOL    HW138567   4.543   3.422   7.523  0.7111  0.1099 -0.9933
 9035SOL    HW238568   4.641   3.521   7.481  0.0266 -1.0660  1.7464
 9036SOL     OW38569   2.076   2.967   4.260 -0.1004  0.3952 -0.3694
 9036SOL    HW138570   2.068   3.003   4.172  3.3582 -0.4603 -1.0466
 9036SOL    HW238571   2.033   3.039   4.305  0.8234 -0.2428  1.5347
 9037SOL     OW38572   0.825   3.944   6.387 -0.1913  0.3204  0.0580
 9037SOL    HW138573   0.742   3.966   6.344  0.2071  0.7768 -0.4673
 9037SOL    HW238574   0.885   3.928   6.315  0.0507 -2.3006  0.8205
 9038SOL     OW38575   2.842   0.400  10.653  0.1845 -0.4259 -0.0438
 9038SOL    HW138576   2.805   0.406  10.740  1.8677  0.6234  0.5997
 9038SOL    HW238577   2.889   0.317  10.665 -1.6143 -1.8502 -2.6405
 9039SOL     OW38578   2.647   4.603  12.672  0.5784  0.5255 -0.4131
 9039SOL    HW138579   2.657   4.696  12.653 -0.3035  0.7333  0.1520
 9039SOL    HW238580   2.552   4.597  12.666  0.8853 -2.6814 -2.0678
 9040SOL     OW38581   1.485   4.146   8.626 -0.0150  0.4703 -0.0483
 9040SOL    HW138582   1.539   4.226   8.629 -1.3729  1.3822  0.1382
 9040SOL    HW238583   1.522   4.098   8.699 -1.3852  0.8875  0.9135
 9041SOL     OW38584   3.333   1.455   5.100 -0.1658  0.2093 -0.5297
 9041SOL    HW138585   3.247   1.431   5.133  0.8064 -2.2200  0.2635
 9041SOL    HW238586   3.380   1.374   5.119 -1.3702 -0.2250  0.5753
 9042SOL     OW38587   2.551   3.673   2.833  0.1693 -0.1819  0.2830
 9042SOL    HW138588   2.500   3.688   2.754 -1.5386  0.1434  1.4434
 9042SOL    HW238589   2.628   3.620   2.811 -0.2835 -0.6506 -0.1857
 9043SOL     OW38590   1.679   0.132  10.265 -0.5232  0.1549  0.1255
 9043SOL    HW138591   1.689   0.141  10.171  1.2089 -3.1312  0.0021
 9043SOL    HW238592   1.652   0.218  10.298 -0.9081 -0.8068  2.3269
 9044SOL     OW38593   1.961   4.499   4.984 -0.6988 -0.2776  0.2959
 9044SOL    HW138594   2.005   4.543   4.911 -1.9401 -0.4283 -0.5539
 9044SOL    HW238595   1.868   4.504   4.960 -0.5528  2.8678  0.3845
 9045SOL     OW38596   2.849   0.941   0.927 -0.8341  0.1662  0.4619
 9045SOL    HW138597   2.823   0.956   1.018 -0.3344 -1.4932  0.8688
 9045SOL    HW238598   2.944   0.951   0.929 -0.9248  0.9267  1.1426
 9046SOL     OW38599   0.224   0.477   5.698  0.1278 -0.1546 -0.2680
 9046SOL    HW138600   0.159   0.516   5.757  2.0255  0.7088  1.2439
 9046SOL    HW238601   0.265   0.421   5.764  1.0458 -0.9728 -1.5269
 9047SOL     OW38602   3.430   0.900   5.216 -0.4854 -0.6426 -0.0031
 9047SOL    HW138603   3.395   0.910   5.304 -1.5780  1.6075 -0.6831
 9047SOL    HW238604   3.478   0.820   5.237 -0.3950 -0.2034  1.4686
 9048SOL     OW38605   4.395   2.294   4.995  0.0409 -0.0208 -0.6572
 9048SOL    HW138606   4.383   2.351   4.919 -1.2714  1.2268  0.5036
 9048SOL    HW238607   4.477   2.328   5.030 -0.0508 -0.2968 -0.1744
 9049SOL     OW38608   3.384   3.565   5.691 -0.3917  0.2471 -0.1171
 9049SOL    HW138609   3.400   3.623   5.765 -2.7033 -1.2739  1.5959
 9049SOL    HW238610   3.466   3.517   5.684 -1.3932 -1.4072 -0.6779
 9050SOL     OW38611   0.375   0.176  12.176  0.3851  0.1458  0.1117
 9050SOL    HW138612   0.294   0.221  12.200 -0.6213 -0.9544 -1.2358
 9050SOL    HW238613   0.388   0.113  12.248 -0.6382 -1.3523 -1.0234
 9051SOL     OW38614   1.919   3.213  10.827  0.1274 -0.0409  0.3359
 9051SOL    HW138615   1.842   3.243  10.778 -0.0511 -1.2083 -0.0966
 9051SOL    HW238616   1.936   3.138  10.770  0.9002 -0.2455  0.8446
 9052SOL     OW38617   3.354   2.411   6.183 -0.0410 -0.3604 -0.4644
 9052SOL    HW138618   3.408   2.336   6.159  1.9647  1.9820 -3.1514
 9052SOL    HW238619   3.420   2.453   6.237 -1.1373  0.8360 -0.0415
 9053SOL     OW38620   1.903   1.873   7.218 -0.5571  0.9406  0.4316
 9053SOL    HW138621   1.826   1.816   7.205 -0.2251  0.7936 -0.9538
 9053SOL    HW238622   1.868   1.956   7.248 -2.0288  0.2735  0.5785
 9054SOL     OW38623   1.932   1.848   7.590 -0.2597 -0.2999  0.0117
 9054SOL    HW138624   1.926   1.789   7.666 -0.9353 -1.1284 -0.6864
 9054SOL    HW238625   1.972   1.787   7.528 -1.2800  0.6045 -1.5055
 9055SOL     OW38626   1.780   1.105   5.727 -0.1967  0.2408 -0.0943
 9055SOL    HW138627   1.795   1.016   5.757 -3.4531 -0.3453 -0.2214
 9055SOL    HW238628   1.798   1.103   5.633 -1.5767 -3.3608 -0.2868
 9056SOL     OW38629   1.921   0.612  11.540 -0.6052 -0.2425 -0.2779
 9056SOL    HW138630   1.891   0.594  11.629 -3.7734  0.4513 -1.2017
 9056SOL    HW238631   1.986   0.678  11.565  1.1081 -2.6273  1.4723
 9057SOL     OW38632   1.376   3.471   3.788 -0.6366 -0.0626 -0.0246
 9057SOL    HW138633   1.438   3.504   3.853 -0.0313 -0.3327 -0.4660
 9057SOL    HW238634   1.302   3.465   3.848 -0.4891  1.4239  0.3069
 9058SOL     OW38635   4.077   4.267  16.095 -0.0283  0.3702  0.1292
 9058SOL    HW138636   4.127   4.207  16.039 -0.7377 -2.3321  2.4009
 9058SOL    HW238637   4.135   4.343  16.094 -0.0662  0.4101  1.1257
 9059SOL     OW38638   3.232   3.272   4.051  0.0136 -0.3102 -0.2272
 9059SOL    HW138639   3.245   3.300   4.142 -0.0295  0.7061 -0.5309
 9059SOL    HW238640   3.193   3.185   4.061 -0.1066 -0.3776 -1.3605
 9060SOL     OW38641   1.404   1.439   2.513  0.3271  0.3135 -0.5496
 9060SOL    HW138642   1.424   1.517   2.565  1.8466 -1.0172  0.8872
 9060SOL    HW238643   1.447   1.366   2.557  1.1929  1.3720  0.3744
 9061SOL     OW38644   2.636   3.497   3.785  0.0422 -0.0929 -0.2603
 9061SOL    HW138645   2.602   3.483   3.696 -2.0304 -2.1217  0.8451
 9061SOL    HW238646   2.711   3.550   3.757  0.9231 -1.2052  0.0023
 9062SOL     OW38647   0.270   1.099   6.765 -0.1628  0.1767 -0.2706
 9062SOL    HW138648   0.261   1.170   6.828  0.3496  0.9735 -1.0916
 9062SOL    HW238649   0.179   1.073   6.756  0.0010 -0.7114  0.6215
 9063SOL     OW38650   2.966   4.380   3.942 -0.1012  0.2466  0.4083
 9063SOL    HW138651   2.939   4.468   3.915 -0.4884  0.8471  2.8001
 9063SOL    HW238652   2.893   4.329   3.905  0.3416  0.1303 -0.3001
 9064SOL     OW38653   4.095   3.922   5.097 -0.8409  0.2311  0.2765
 9064SOL    HW138654   4.158   3.910   5.026  0.2872  1.3934  1.0936
 9064SOL    HW238655   4.052   3.837   5.092  0.1170 -0.2942  1.1502
 9065SOL     OW38656   2.704   2.738   4.280 -0.0074  0.0359  0.0169
 9065SOL    HW138657   2.690   2.747   4.374  1.3406 -2.2432  0.4326
 9065SOL    HW238658   2.792   2.699   4.283 -0.5810 -1.2986 -0.7289
 9066SOL     OW38659   2.957   2.610   2.714 -0.3347  0.4290  0.6665
 9066SOL    HW138660   2.920   2.609   2.802 -3.8989 -0.8842 -0.8453
 9066SOL    HW238661   2.947   2.702   2.690 -1.8634 -0.2812 -1.4824
 9067SOL     OW38662   2.908   3.252   2.789 -0.3741  0.3558  0.0586
 9067SOL    HW138663   2.842   3.205   2.839 -0.3127 -0.3404 -0.5019
 9067SOL    HW238664   2.904   3.210   2.703 -1.7385  2.3511 -0.8399
 9068SOL     OW38665   2.478   0.390   1.895 -0.2490  0.2968  0.1859
 9068SOL    HW138666   2.535   0.421   1.966 -0.2247 -2.1712  1.2502
 9068SOL    HW238667   2.537   0.383   1.819  1.1426  0.5293  1.2389
 9069SOL     OW38668   1.433   4.496   2.196 -0.4893 -0.2377 -0.5581
 9069SOL    HW138669   1.416   4.461   2.109  1.8596 -0.5519 -0.8921
 9069SOL    HW238670   1.519   4.538   2.187 -0.3396 -0.3285  0.4362
 9070SOL     OW38671   1.074   0.538  10.410  0.5864  0.4209  0.9505
 9070SOL    HW138672   0.996   0.549  10.463 -0.1157 -0.4607  0.1082
 9070SOL    HW238673   1.057   0.593  10.333  0.5697  1.9001  2.0131
 9071SOL     OW38674   1.541   4.267  14.259 -0.1108  0.1446  0.1959
 9071SOL    HW138675   1.615   4.266  14.320 -1.0802 -1.0553  1.3498
 9071SOL    HW238676   1.479   4.220  14.315 -0.8070 -0.9861 -1.5252
 9072SOL     OW38677   0.355   2.642   1.464 -0.7322  0.6643  0.0280
 9072SOL    HW138678   0.441   2.671   1.436  0.0438 -0.9298  0.7448
 9072SOL    HW238679   0.335   2.701   1.536  1.9357  2.6041 -0.8261
 9073SOL     OW38680   4.099   1.324   1.334  0.0878  0.2264 -0.5769
 9073SOL    HW138681   4.173   1.272   1.366 -0.8498 -1.9701 -1.9487
 9073SOL    HW238682   4.035   1.254   1.322 -0.9325  0.9805  0.5135
 9074SOL     OW38683   3.103   3.885   0.366  0.1347  0.0658 -0.5331
 9074SOL    HW138684   3.127   3.910   0.277 -2.8218  1.0984 -1.0404
 9074SOL    HW238685   3.137   3.795   0.368 -0.0074 -0.0062 -1.6122
 9075SOL     OW38686   1.336   2.223   6.520 -0.0762  0.4097  0.0628
 9075SOL    HW138687   1.276   2.187   6.584 -2.4448  1.4057 -1.6050
 9075SOL    HW238688   1.410   2.250   6.575  1.6604 -1.8653 -1.1165
 9076SOL     OW38689   1.936   1.242   3.219 -0.2564  0.1151  0.3066
 9076SOL    HW138690   1.976   1.328   3.207 -1.0148  0.7626  2.3448
 9076SOL    HW238691   2.001   1.174   3.198  0.3711  0.2295  1.8695
 9077SOL     OW38692   2.530   2.684   0.481  0.0251  0.1213 -0.2757
 9077SOL    HW138693   2.601   2.716   0.426 -0.2481  1.1452 -0.0335
 9077SOL    HW238694   2.587   2.625   0.530 -0.5612  1.1775  1.6497
 9078SOL     OW38695   3.237   4.650  17.099  0.1481  0.0203  0.5004
 9078SOL    HW138696   3.265   4.595  17.172 -0.9023 -1.7188 -0.4019
 9078SOL    HW238697   3.290   4.602  17.036 -0.3051 -0.3974  0.4321
 9079SOL     OW38698   4.259   4.040   3.047 -0.1870 -0.6213 -0.0880
 9079SOL    HW138699   4.241   4.013   2.957 -0.3986 -1.4757  0.2076
 9079SOL    HW238700   4.283   3.957   3.088  0.0545 -0.4929  0.0280
 9080SOL     OW38701   3.456   3.846   1.472  0.8386 -0.5676  0.1004
 9080SOL    HW138702   3.492   3.765   1.437  1.1706 -1.1528  1.8207
 9080SOL    HW238703   3.366   3.832   1.441  1.3205  1.0764 -2.0393
 9081SOL     OW38704   0.847   2.581   7.239  0.3237 -0.5250 -0.8109
 9081SOL    HW138705   0.820   2.526   7.165 -0.0595 -1.8717  0.3203
 9081SOL    HW238706   0.762   2.565   7.279 -0.2230  0.4927 -1.5583
 9082SOL     OW38707   0.855   0.343   3.628  0.1748 -0.5275  0.5641
 9082SOL    HW138708   0.798   0.266   3.624 -1.0497  0.4165 -0.1868
 9082SOL    HW238709   0.807   0.413   3.585 -0.2314 -0.5218  1.0278
 9083SOL     OW38710   1.239   3.932  10.752  0.2165  0.3392  0.0866
 9083SOL    HW138711   1.179   3.860  10.771  0.0625  0.6343  0.6797
 9083SOL    HW238712   1.292   3.900  10.678  0.4736 -1.0411  0.8694
 9084SOL     OW38713   2.825   2.077  11.010  0.0895 -0.0119  0.1086
 9084SOL    HW138714   2.732   2.078  10.989 -0.0250  1.2401  0.6309
 9084SOL    HW238715   2.840   2.171  11.022  2.2593 -0.3687  0.1968
 9085SOL     OW38716   1.911   0.911  15.120 -0.0195  0.0397  0.0348
 9085SOL    HW138717   1.994   0.947  15.151  0.5137 -0.3341 -0.9831
 9085SOL    HW238718   1.896   0.840  15.183 -1.1142 -0.3261 -0.6293
 9086SOL     OW38719   0.775   4.400  10.227  0.6569 -0.2528 -0.2149
 9086SOL    HW138720   0.813   4.487  10.243 -0.1113  0.4246 -2.0203
 9086SOL    HW238721   0.821   4.370  10.149  2.1393  2.3684 -0.3515
 9087SOL     OW38722   0.879   4.304  16.494 -0.7622 -0.3254  0.1101
 9087SOL    HW138723   0.822   4.369  16.455  0.5766  1.2039  0.6951
 9087SOL    HW238724   0.860   4.223  16.446  1.5681  0.2549 -1.8115
 9088SOL     OW38725   3.167   4.183  10.287  0.5063  0.4053 -0.2997
 9088SOL    HW138726   3.133   4.262  10.245 -1.1994 -0.3723 -0.3966
 9088SOL    HW238727   3.228   4.222  10.350  0.2379 -0.1492  0.3061
 9089SOL     OW38728   4.196   4.029   7.938 -0.2469 -0.1280 -0.5782
 9089SOL    HW138729   4.176   3.974   7.862 -0.7327  0.7942 -1.1163
 9089SOL    HW238730   4.244   4.103   7.901  0.0643  0.8708  1.8092
 9090SOL     OW38731   1.224   2.350   4.609  0.0852 -0.0185 -0.2421
 9090SOL    HW138732   1.278   2.274   4.630 -0.5210 -0.7025 -1.1655
 9090SOL    HW238733   1.137   2.314   4.625  0.3646 -1.7389 -2.6886
 9091SOL     OW38734   3.235   4.667   8.185 -0.1542 -0.0521 -0.0258
 9091SOL    HW138735   3.281   4.701   8.108 -1.1699  0.0755 -0.5846
 9091SOL    HW238736   3.211   4.578   8.161  2.4486 -1.0192  1.0108
 9092SOL     OW38737   1.513   3.567  10.263  0.4659  0.4188 -0.2656
 9092SOL    HW138738   1.419   3.572  10.277  0.8167  1.4787  1.7078
 9092SOL    HW238739   1.543   3.658  10.265  3.1188 -0.4359 -0.9612
 9093SOL     OW38740   2.051   0.323   3.109  0.7483  0.1006  0.0192
 9093SOL    HW138741   2.144   0.309   3.091  0.4683 -1.0003 -0.5788
 9093SOL    HW238742   2.044   0.386   3.180  1.1771 -0.4936  0.5864
 9094SOL     OW38743   0.898   4.240   8.511  0.2322 -0.3717 -0.0009
 9094SOL    HW138744   0.932   4.298   8.443  2.0187  1.6083  2.5609
 9094SOL    HW238745   0.813   4.282   8.524 -0.4836 -1.5607 -0.9266
 9095SOL     OW38746   4.470   1.731   5.020  0.2227  0.4676 -0.1830
 9095SOL    HW138747   4.510   1.815   5.041  0.5150  0.5052 -0.8950
 9095SOL    HW238748   4.547   1.674   5.025  0.9457  1.3936 -0.6080
 9096SOL     OW38749   4.158   2.014   6.315  0.3796 -0.3535 -0.4268
 9096SOL    HW138750   4.145   1.935   6.368  1.2503  0.5690  1.1557
 9096SOL    HW238751   4.092   2.016   6.245  0.7445  1.1757 -0.7259
 9097SOL     OW38752   4.666   3.416   0.672 -0.6353  0.0213 -0.5054
 9097SOL    HW138753   4.574   3.390   0.662 -1.0723  1.4688 -0.2849
 9097SOL    HW238754   4.672   3.465   0.590  0.4794 -0.8923 -0.9617
 9098SOL     OW38755   3.486   3.888   7.302  0.6217 -0.5280  0.1674
 9098SOL    HW138756   3.502   3.850   7.216  1.5414 -1.0142  0.5516
 9098SOL    HW238757   3.517   3.818   7.360  0.5734  0.5597  1.5268
 9099SOL     OW38758   3.236   1.397   6.611 -1.1898 -0.2471  0.2326
 9099SOL    HW138759   3.311   1.412   6.668  0.9048  0.0932 -2.6381
 9099SOL    HW238760   3.189   1.481   6.617 -0.9112  0.0804 -2.5642
 9100SOL     OW38761   4.541   3.881   4.041 -0.4693  0.3777 -0.3032
 9100SOL    HW138762   4.551   3.971   4.070  2.0010 -0.0205  0.0597
 9100SOL    HW238763   4.489   3.893   3.962 -2.7238  1.6471  1.3596
 9101SOL     OW38764   2.388   0.149   3.644 -0.0732 -0.0628 -0.5349
 9101SOL    HW138765   2.342   0.070   3.673  2.1369 -0.6686  1.3532
 9101SOL    HW238766   2.394   0.198   3.726  1.8779  0.2424 -0.8662
 9102SOL     OW38767   2.790   0.349   5.902 -0.3070 -0.0503  0.0350
 9102SOL    HW138768   2.820   0.283   5.839 -0.4066 -0.8099  0.7803
 9102SOL    HW238769   2.763   0.282   5.965 -0.6328 -0.9288 -1.0376
 9103SOL     OW38770   0.019   0.127   7.623 -0.1042  0.1625  0.0872
 9103SOL    HW138771   4.651   0.126   7.589  0.7373  3.6175 -2.1914
 9103SOL    HW238772   0.055   0.194   7.566  1.4712 -2.3163 -1.8231
 9104SOL     OW38773   0.958   4.465   7.379  0.4604  0.6379 -0.1852
 9104SOL    HW138774   0.885   4.516   7.415  1.3769  0.2317  2.2438
 9104SOL    HW238775   0.922   4.377   7.389 -1.9951  1.6637  0.0796
 9105SOL     OW38776   4.656   4.020   6.145 -0.1495 -0.0970  0.2258
 9105SOL    HW138777   0.028   4.040   6.143 -0.3770  1.0363  1.1898
 9105SOL    HW238778   4.627   4.109   6.162 -0.3928  0.1592 -1.5181
 9106SOL     OW38779   1.582   1.811   1.081 -0.4710  0.2192  0.0737
 9106SOL    HW138780   1.598   1.874   1.152  1.0607 -1.3445  1.1067
 9106SOL    HW238781   1.577   1.867   1.004  2.1350  0.4981  0.1047
 9107SOL     OW38782   0.025   1.531   2.162  0.0577  0.0941  0.1081
 9107SOL    HW138783   4.696   1.611   2.176 -3.2763 -1.6932 -1.7839
 9107SOL    HW238784   0.066   1.552   2.078 -0.6779  3.7248  0.6681
 9108SOL     OW38785   1.706   2.130   6.323 -0.1120 -0.5753 -0.2484
 9108SOL    HW138786   1.647   2.078   6.269  1.2036 -0.2670 -1.9883
 9108SOL    HW238787   1.752   2.066   6.375  0.7276  1.1013  1.0665
 9109SOL     OW38788   1.842   0.042   2.712 -0.1192  0.2747 -0.3517
 9109SOL    HW138789   1.856   4.687   2.656 -2.6711  1.3160 -2.4036
 9109SOL    HW238790   1.813   0.102   2.643  0.6029 -0.4735 -1.3167
 9110SOL     OW38791   2.114   2.513  12.830 -0.2538  0.1982  1.0008
 9110SOL    HW138792   2.045   2.557  12.779 -1.2664 -1.6418  0.7859
 9110SOL    HW238793   2.106   2.423  12.798  0.2770 -0.6077  3.1635
 9111SOL     OW38794   0.156   1.243   8.165 -0.3527  0.0734 -0.4616
 9111SOL    HW138795   0.197   1.286   8.240 -0.8374  0.5166 -0.4514
 9111SOL    HW238796   0.070   1.283   8.153 -0.2986  0.3480  0.0507
 9112SOL     OW38797   1.068   0.720   6.012  0.0528  0.2478 -0.3577
 9112SOL    HW138798   1.113   0.652   6.063  0.0218  0.0177 -0.6360
 9112SOL    HW238799   0.996   0.672   5.971  0.5693 -2.2599  1.6164
 9113SOL     OW38800   0.098   1.973  13.826 -0.2335 -0.0168 -0.4263
 9113SOL    HW138801   0.039   2.004  13.757 -0.2486  2.8429  0.8825
 9113SOL    HW238802   0.041   1.958  13.901  0.8250 -2.4620 -0.1177
 9114SOL     OW38803   4.474   2.850   5.652 -0.3053  0.5389  0.0346
 9114SOL    HW138804   4.497   2.831   5.561 -3.1639  0.6927 -0.7072
 9114SOL    HW238805   4.481   2.766   5.697  2.6028  0.9242  0.3316
 9115SOL     OW38806   3.198   0.444   8.090  0.4427 -0.0224  0.1319
 9115SOL    HW138807   3.254   0.392   8.032  1.5731  0.5030  0.7447
 9115SOL    HW238808   3.173   0.506   8.022 -0.1006 -0.3513  0.0349
 9116SOL     OW38809   1.391   1.721   9.229  0.0171  0.0160 -0.9641
 9116SOL    HW138810   1.429   1.808   9.240 -1.7990  0.6307  0.4240
 9116SOL    HW238811   1.457   1.674   9.279 -0.4264 -0.2232 -0.6020
 9117SOL     OW38812   2.658   4.622   2.542  0.0908  0.3909  0.1198
 9117SOL    HW138813   2.619   4.709   2.546 -3.4896 -1.2314 -0.2513
 9117SOL    HW238814   2.650   4.590   2.632  2.5085  0.8589  0.5157
 9118SOL     OW38815   3.443   1.079   6.773 -0.2423 -0.1184  0.4174
 9118SOL    HW138816   3.465   1.048   6.860  0.3023  0.9729  0.6735
 9118SOL    HW238817   3.394   1.004   6.738 -0.5807 -0.3739  1.4521
 9119SOL     OW38818   0.397   3.072   7.025  0.0341 -0.2148  0.3609
 9119SOL    HW138819   0.357   3.159   7.025 -0.2671 -0.3516 -0.6854
 9119SOL    HW238820   0.475   3.096   7.076  1.9633 -1.2764 -2.0862
 9120SOL     OW38821   2.392   2.921  11.070  0.1653  0.1185 -0.2037
 9120SOL    HW138822   2.338   2.906  11.147  0.6593  1.7266  0.4417
 9120SOL    HW238823   2.323   2.931  11.005  0.5080  1.1569 -0.4038
 9121SOL     OW38824   0.828   1.279   6.958 -0.0290 -0.6489 -0.0129
 9121SOL    HW138825   0.783   1.274   6.874 -0.3763  2.5291 -0.0489
 9121SOL    HW238826   0.802   1.366   6.990  2.9334  0.9726 -1.9945
 9122SOL     OW38827   2.840   3.892   0.453  0.3043 -0.1543 -0.8084
 9122SOL    HW138828   2.813   3.800   0.459 -1.1902  0.2416 -1.2877
 9122SOL    HW238829   2.926   3.885   0.412  0.5463  0.7476 -0.4478
 9123SOL     OW38830   4.052   4.038   3.792  0.2938 -0.3203 -0.2171
 9123SOL    HW138831   4.115   4.023   3.722  2.9879 -2.9557  2.7248
 9123SOL    HW238832   4.071   4.125   3.826  2.1902 -1.1283  0.8050
 9124SOL     OW38833   2.973   1.726  15.914  0.3315 -0.1629 -0.7735
 9124SOL    HW138834   2.908   1.656  15.909 -1.0365  0.9626  1.2637
 9124SOL    HW238835   2.973   1.749  16.007 -0.3832 -0.7018 -0.6356
 9125SOL     OW38836   1.066   1.597   1.136  0.3630  1.0295  0.0731
 9125SOL    HW138837   1.096   1.562   1.053  0.3990  1.5169 -0.1196
 9125SOL    HW238838   0.994   1.645   1.095 -1.0475  0.3386  1.7464
 9126SOL     OW38839   0.346   2.104  11.409 -0.1077  0.5660  0.2994
 9126SOL    HW138840   0.402   2.053  11.351 -1.7056  0.3744 -1.1021
 9126SOL    HW238841   0.324   2.022  11.455 -0.2603  1.0135  1.0248
 9127SOL     OW38842   0.136   2.645   4.656  0.0814 -0.1278 -0.0632
 9127SOL    HW138843   0.189   2.717   4.691  3.1307 -2.2553 -0.2789
 9127SOL    HW238844   0.092   2.605   4.731  1.2159 -2.2148 -0.5052
 9128SOL     OW38845   0.608   1.277  12.788  0.8449  0.1605 -0.1989
 9128SOL    HW138846   0.627   1.186  12.810  1.0830  0.4142  0.6498
 9128SOL    HW238847   0.678   1.326  12.832  0.5528  0.1732  0.2465
 9129SOL     OW38848   1.135   0.097   4.907  0.9738 -0.1003 -0.1080
 9129SOL    HW138849   1.092   0.052   4.980  0.1143  1.7952  0.5403
 9129SOL    HW238850   1.062   0.146   4.870  1.6173  0.8398 -0.1524
 9130SOL     OW38851   4.167   3.552  12.112  0.2703  0.0873 -0.6166
 9130SOL    HW138852   4.229   3.508  12.053 -0.9220 -1.5947 -0.6242
 9130SOL    HW238853   4.205   3.545  12.199 -0.7414 -1.9258 -0.3438
 9131SOL     OW38854   2.862   1.363   7.567 -0.1142 -0.1251  0.4614
 9131SOL    HW138855   2.795   1.429   7.551 -1.1562 -0.8850  1.6508
 9131SOL    HW238856   2.814   1.304   7.626  1.3967  0.1198  1.9318
 9132SOL     OW38857   1.845   0.862   7.569 -0.4879 -0.3872 -0.2023
 9132SOL    HW138858   1.827   0.784   7.517  0.2017 -0.0269 -0.9823
 9132SOL    HW238859   1.936   0.880   7.544  0.6174 -2.1562  2.4995
 9133SOL     OW38860   0.503   2.108   6.346 -0.0986 -0.0545  0.3790
 9133SOL    HW138861   0.444   2.179   6.320  1.3874  1.2286  0.5277
 9133SOL    HW238862   0.468   2.030   6.303 -1.9175  1.4438 -0.8684
 9134SOL     OW38863   3.608   0.752   1.249  0.7077 -0.7973 -0.2016
 9134SOL    HW138864   3.674   0.691   1.283  1.7411 -0.0467 -0.8384
 9134SOL    HW238865   3.657   0.833   1.237 -0.2583 -0.0196  1.1728
 9135SOL     OW38866   1.046   4.032   7.943  0.2270  0.1956 -1.3889
 9135SOL    HW138867   1.073   3.964   8.004 -0.6176  1.5168  0.4423
 9135SOL    HW238868   1.089   4.107   7.984  2.3941 -1.4444 -0.6982
 9136SOL     OW38869   0.777   0.831   5.704  0.1845 -0.8044  0.4102
 9136SOL    HW138870   0.808   0.911   5.662  1.9027 -0.6651  1.9209
 9136SOL    HW238871   0.684   0.847   5.720 -0.7724 -3.4662 -2.5057
 9137SOL     OW38872   4.267   3.357   0.822 -0.5088 -0.1852 -0.1483
 9137SOL    HW138873   4.262   3.448   0.793 -0.3838 -0.2428 -0.3500
 9137SOL    HW238874   4.175   3.333   0.810  0.2484 -1.6546 -2.9069
 9138SOL     OW38875   0.813   3.545   1.548 -0.4084 -0.3603 -0.5315
 9138SOL    HW138876   0.884   3.539   1.485  2.2723  1.8938  2.2730
 9138SOL    HW238877   0.838   3.501   1.629 -0.0434 -0.4970 -0.7217
 9139SOL     OW38878   2.768   1.314   6.550 -0.2099  0.1267 -0.2262
 9139SOL    HW138879   2.705   1.281   6.614  0.3822  1.4523  1.0087
 9139SOL    HW238880   2.834   1.353   6.606 -0.5931 -0.0602  0.3519
 9140SOL     OW38881   0.667   0.228  13.868 -0.0132 -0.5966 -0.7779
 9140SOL    HW138882   0.746   0.275  13.896  1.7880 -3.4813 -1.0105
 9140SOL    HW238883   0.630   0.290  13.805 -3.3304  0.2592  2.0357
 9141SOL     OW38884   2.266   2.409   5.483  0.4074 -0.0106  0.6570
 9141SOL    HW138885   2.355   2.443   5.473  0.4999 -0.3043  0.4725
 9141SOL    HW238886   2.251   2.390   5.391 -0.2636  1.5436  0.4556
 9142SOL     OW38887   3.451   1.254  11.986  0.1083  0.0337 -0.6559
 9142SOL    HW138888   3.405   1.184  11.938  2.1200 -1.0179 -1.0336
 9142SOL    HW238889   3.425   1.326  11.928 -0.9148 -0.1463 -0.4315
 9143SOL     OW38890   1.609   3.796   3.092 -0.0050 -1.0863  0.3007
 9143SOL    HW138891   1.514   3.794   3.094 -0.0341  1.1264  0.7654
 9143SOL    HW238892   1.622   3.707   3.124 -1.2683 -0.7716  1.6844
 9144SOL     OW38893   3.541   0.177   8.168  0.6337 -0.5074  0.1159
 9144SOL    HW138894   3.610   0.150   8.228  0.5408  0.6489  0.7428
 9144SOL    HW238895   3.585   0.163   8.084  2.2487 -2.5801  1.3195
 9145SOL     OW38896   2.235   0.702   9.116  0.2992 -0.0009  0.0331
 9145SOL    HW138897   2.158   0.719   9.171 -0.6390 -2.5064 -0.5207
 9145SOL    HW238898   2.197   0.635   9.058  2.6755 -0.6958 -0.6948
 9146SOL     OW38899   2.750   1.072   3.814  0.6576 -0.3987  0.3997
 9146SOL    HW138900   2.724   1.014   3.885  0.5695 -1.8688 -0.8320
 9146SOL    HW238901   2.723   1.156   3.853 -0.7517 -0.2401 -0.8868
 9147SOL     OW38902   0.964   1.895   1.729 -0.1682  0.2746  0.6171
 9147SOL    HW138903   0.952   1.896   1.824  0.2267  0.4387  0.6627
 9147SOL    HW238904   1.013   1.977   1.722 -0.4420  0.3777 -0.1119
 9148SOL     OW38905   3.698   0.741   1.504  0.1796 -0.1396  0.3622
 9148SOL    HW138906   3.730   0.826   1.531 -1.4219  0.7218 -0.4283
 9148SOL    HW238907   3.754   0.689   1.562  1.0885  1.1992  0.6703
 9149SOL     OW38908   1.106   2.500  14.457 -0.0362  0.3252  0.1649
 9149SOL    HW138909   1.127   2.429  14.518 -1.4827 -0.3007 -0.0773
 9149SOL    HW238910   1.191   2.515  14.417 -0.3425  0.1837 -0.5265
 9150SOL     OW38911   1.241   1.652  15.585 -0.2288  0.6358  0.4470
 9150SOL    HW138912   1.238   1.623  15.676 -1.4770 -0.7851 -0.0663
 9150SOL    HW238913   1.152   1.682  15.568 -0.4601 -0.4381 -0.1982
 9151SOL     OW38914   3.798   2.086  12.663  0.1019 -0.0226  0.1244
 9151SOL    HW138915   3.880   2.101  12.616 -0.7577 -1.0516 -1.7071
 9151SOL    HW238916   3.780   1.998  12.630  1.3291 -1.1419  2.4244
 9152SOL     OW38917   3.511   2.181   0.433  0.1328  1.0110  0.4059
 9152SOL    HW138918   3.422   2.211   0.453 -0.8041 -2.6461  1.6746
 9152SOL    HW238919   3.519   2.120   0.506  0.7257  0.1171 -0.4042
 9153SOL     OW38920   3.844   2.217   3.675  0.1468 -0.6198 -0.4511
 9153SOL    HW138921   3.910   2.148   3.690 -0.9612 -1.4382  0.6674
 9153SOL    HW238922   3.770   2.169   3.638 -0.8607 -0.9344  1.9249
 9154SOL     OW38923   3.272   1.185   5.663  0.3118  0.2436  0.1412
 9154SOL    HW138924   3.192   1.146   5.697 -0.3189  2.2202  0.9183
 9154SOL    HW238925   3.233   1.228   5.587 -1.9389 -0.2926  0.9991
 9155SOL     OW38926   0.569   2.920   7.233 -0.2583 -0.0229 -0.0491
 9155SOL    HW138927   0.501   2.895   7.296 -1.3306 -0.6190 -1.4395
 9155SOL    HW238928   0.633   2.967   7.286 -2.0285  1.2356  0.9947
 9156SOL     OW38929   3.706   3.714   3.397  0.1343 -0.4827  0.2701
 9156SOL    HW138930   3.739   3.799   3.428  0.8627 -1.0645  1.0804
 9156SOL    HW238931   3.624   3.711   3.445  0.6053  0.9789  1.1583
 9157SOL     OW38932   2.690   2.576   4.778  0.6212 -0.3105  0.1678
 9157SOL    HW138933   2.642   2.577   4.861  3.2394 -2.2714  1.6834
 9157SOL    HW238934   2.663   2.486   4.757  0.7611 -0.5733  1.1011
 9158SOL     OW38935   3.568   2.833  15.034  0.1737  0.4040 -0.1418
 9158SOL    HW138936   3.580   2.925  15.010  0.5159  1.2529  3.2790
 9158SOL    HW238937   3.649   2.789  15.009  1.0096  1.8102  0.0783
 9159SOL     OW38938   2.600   4.687   0.712 -0.2647  0.1374  0.4485
 9159SOL    HW138939   2.599   4.595   0.685  2.0549  0.2094  0.1305
 9159SOL    HW238940   2.513   4.688   0.752 -0.3600 -1.1389  0.2439
 9160SOL     OW38941   4.663   3.730   2.635 -0.0633 -0.6845  0.6897
 9160SOL    HW138942   4.659   3.810   2.583 -1.7028 -0.4302  1.1959
 9160SOL    HW238943   0.029   3.734   2.674  0.7634 -1.6983 -1.0921
 9161SOL     OW38944   3.615   2.806  12.661 -0.5661  0.0589  0.0487
 9161SOL    HW138945   3.573   2.815  12.747  1.1128  0.3973  0.8269
 9161SOL    HW238946   3.694   2.860  12.668  0.0597 -1.1775  2.6341
 9162SOL     OW38947   1.426   0.868   9.884 -0.4016 -0.1687  0.6418
 9162SOL    HW138948   1.421   0.802   9.953 -0.6237 -3.7293 -2.8128
 9162SOL    HW238949   1.390   0.946   9.927 -2.8205 -1.6757  1.3985
 9163SOL     OW38950   2.707   3.901   5.679  0.1546 -0.4121  0.6202
 9163SOL    HW138951   2.660   3.866   5.755 -0.0119 -0.9311  0.2835
 9163SOL    HW238952   2.773   3.953   5.724 -0.8512  1.9879 -0.7088
 9164SOL     OW38953   4.297   3.358   8.206 -0.2325  0.0196 -0.0994
 9164SOL    HW138954   4.309   3.307   8.286 -0.3567  1.4482  0.8392
 9164SOL    HW238955   4.242   3.424   8.248 -0.9466  0.5098 -1.8094
 9165SOL     OW38956   0.571   4.278  15.964  0.2387  0.6841  0.2543
 9165SOL    HW138957   0.642   4.339  15.944 -0.5176  1.5036  0.0607
 9165SOL    HW238958   0.613   4.226  16.033  1.2875 -0.0800 -0.9652
 9166SOL     OW38959   2.658   2.418  14.353 -0.1403 -0.5630 -0.8308
 9166SOL    HW138960   2.646   2.324  14.339 -2.9896 -0.4201  0.6741
 9166SOL    HW238961   2.579   2.441  14.401  1.9166  0.3882  2.1129
 9167SOL     OW38962   2.942   3.893   2.799 -0.5968  0.1302 -0.4234
 9167SOL    HW138963   3.029   3.860   2.821 -2.1213 -3.1074  0.8257
 9167SOL    HW238964   2.940   3.896   2.704 -0.4113 -0.6855 -0.4580
 9168SOL     OW38965   2.439   0.234   7.084  0.0585 -0.2546 -0.4150
 9168SOL    HW138966   2.453   0.146   7.049  0.3565 -0.0069 -0.9160
 9168SOL    HW238967   2.366   0.224   7.145 -0.1745  0.5631 -0.5559
 9169SOL     OW38968   4.409   0.937  13.135  0.8042  0.7067  0.7029
 9169SOL    HW138969   4.497   0.973  13.148  2.1016 -1.8114 -0.9385
 9169SOL    HW238970   4.357   1.014  13.116  2.4378  1.3411 -1.1739
 9170SOL     OW38971   3.796   1.831  12.494 -0.6207  0.2617 -0.4828
 9170SOL    HW138972   3.866   1.772  12.466  0.8514  0.9289  1.8231
 9170SOL    HW238973   3.755   1.776  12.561 -1.7062  0.1668 -1.2256
 9171SOL     OW38974   0.584   2.744   4.949  0.1985 -0.2121  0.4744
 9171SOL    HW138975   0.574   2.736   5.044 -0.4298 -1.6273  0.2896
 9171SOL    HW238976   0.611   2.657   4.919 -0.1541 -0.2324  0.2243
 9172SOL     OW38977   2.063   2.791   7.847  0.8339  0.5748 -0.1535
 9172SOL    HW138978   2.158   2.775   7.854  0.7075  0.2417  0.7639
 9172SOL    HW238979   2.035   2.733   7.918 -0.5130  0.5995 -0.6810
 9173SOL     OW38980   2.068   0.157  10.749  0.6622 -0.3673 -0.0966
 9173SOL    HW138981   2.080   0.213  10.826 -0.0534 -1.1850  0.5977
 9173SOL    HW238982   2.111   0.211  10.682 -0.8348 -0.5320 -1.1970
 9174SOL     OW38983   3.044   3.072  14.486 -0.0389  0.2547 -0.7302
 9174SOL    HW138984   3.053   3.096  14.394 -0.8218  0.7479 -0.6818
 9174SOL    HW238985   2.951   3.048  14.481 -0.0949  0.0495  1.1578
 9175SOL     OW38986   2.726   2.689   1.953  0.0686  0.2693  0.8875
 9175SOL    HW138987   2.748   2.778   1.925  0.0136  0.5475  1.7125
 9175SOL    HW238988   2.805   2.656   1.997 -0.2013  0.1562  1.2862
 9176SOL     OW38989   0.778   1.328  17.591  0.2261  0.0972 -0.0935
 9176SOL    HW138990   0.814   1.332  17.679 -4.6163  1.6604  1.8133
 9176SOL    HW238991   0.843   1.268  17.554 -1.0613 -1.5962  0.3581
 9177SOL     OW38992   1.655   0.302   2.268  0.2334 -0.1409  0.0795
 9177SOL    HW138993   1.637   0.257   2.185 -0.4026 -0.2629  0.2841
 9177SOL    HW238994   1.700   0.380   2.236 -0.3837  0.7780  1.4511
 9178SOL     OW38995   4.375   1.063  16.779 -0.3761  0.0767 -0.1375
 9178SOL    HW138996   4.414   0.997  16.835 -1.5679 -0.9245 -0.4957
 9178SOL    HW238997   4.447   1.066  16.716 -0.8751 -0.6674 -0.7536
 9179SOL     OW38998   4.684   3.794   1.491 -0.4364 -0.4218  0.0207
 9179SOL    HW138999   4.604   3.843   1.507  0.1735  0.9260 -1.0906
 9179SOL    HW239000   4.642   3.709   1.478  1.1349 -0.9799 -1.3404
 9180SOL     OW39001   1.183   0.313   9.560  0.4129 -0.0458  0.1292
 9180SOL    HW139002   1.134   0.316   9.642  1.2313  0.9813  0.5832
 9180SOL    HW239003   1.271   0.337   9.591  0.9837 -0.5536 -1.1163
 9181SOL     OW39004   3.328   4.668   6.939  0.5116  0.0529 -1.0027
 9181SOL    HW139005   3.360   4.719   6.864  0.4207  1.1190 -0.3021
 9181SOL    HW239006   3.409   4.649   6.986 -0.9099 -1.5232  0.7770
 9182SOL     OW39007   3.206   0.286   6.245 -0.0819  0.4040  0.0469
 9182SOL    HW139008   3.234   0.214   6.300  0.1230  0.1914 -0.3339
 9182SOL    HW239009   3.118   0.254   6.224  0.9905 -0.9223 -2.4205
 9183SOL     OW39010   1.953   4.703   1.612 -0.0301  0.0607 -0.2028
 9183SOL    HW139011   1.942   4.614   1.579  0.2219 -0.0100 -0.1010
 9183SOL    HW239012   2.029   0.015   1.564 -0.2975  0.0545 -0.6256
 9184SOL     OW39013   2.538   2.680   3.103  0.5987 -0.2528 -0.5711
 9184SOL    HW139014   2.476   2.610   3.124 -0.0854  0.8309  1.0967
 9184SOL    HW239015   2.499   2.713   3.022 -2.2789  0.6506  1.1825
 9185SOL     OW39016   3.012   0.850   7.913  0.1686  0.3595 -0.6841
 9185SOL    HW139017   2.963   0.847   7.996 -0.3139  2.0719 -0.9042
 9185SOL    HW239018   3.101   0.860   7.946  0.3292 -1.3656 -0.5835
 9186SOL     OW39019   1.889   2.959   5.544  0.2546 -0.7663 -0.0540
 9186SOL    HW139020   1.923   3.043   5.513 -0.6637 -0.4948 -0.3200
 9186SOL    HW239021   1.819   2.953   5.478 -1.3604  0.5208  1.5386
 9187SOL     OW39022   3.855   3.665   7.615 -0.2461  0.7104  0.7029
 9187SOL    HW139023   3.863   3.590   7.673  0.4380  1.8072  2.0207
 9187SOL    HW239024   3.798   3.633   7.545 -0.2263 -0.1996  1.1051
 9188SOL     OW39025   0.769   0.842   7.949  0.4686 -0.6735  0.1025
 9188SOL    HW139026   0.759   0.793   8.030  1.0534 -1.0360 -0.0407
 9188SOL    HW239027   0.683   0.838   7.906  1.1311  0.4635 -1.3523
 9189SOL     OW39028   2.079   2.617   8.057 -0.3205  0.4987 -0.1254
 9189SOL    HW139029   2.015   2.665   8.109  1.1100  0.9433  1.2296
 9189SOL    HW239030   2.098   2.551   8.124  1.0202  0.6087 -0.3897
 9190SOL     OW39031   4.339   1.698  13.109 -0.6885  0.4482 -0.8200
 9190SOL    HW139032   4.263   1.714  13.053 -1.4156  0.3351  0.1307
 9190SOL    HW239033   4.315   1.737  13.193 -1.5064 -1.6198 -0.0838
 9191SOL     OW39034   3.735   0.077   4.369 -0.3253  0.0767 -0.2622
 9191SOL    HW139035   3.800   0.091   4.438  0.6117  0.1696 -1.1647
 9191SOL    HW239036   3.797   0.077   4.296 -0.9283  0.7221 -0.7655
 9192SOL     OW39037   3.879   1.530   6.294 -0.5562 -0.0521 -0.0381
 9192SOL    HW139038   3.794   1.486   6.287 -0.0468 -0.6452 -2.6000
 9192SOL    HW239039   3.919   1.451   6.257 -2.3399 -0.7652 -0.4402
 9193SOL     OW39040   3.152   1.401   2.584 -0.1431 -0.3933 -0.1783
 9193SOL    HW139041   3.098   1.362   2.653 -2.9486  0.9285 -1.6114
 9193SOL    HW239042   3.169   1.321   2.534  0.0032 -0.0155 -0.7347
 9194SOL     OW39043   0.163   0.974   8.140 -0.2498 -0.0412  0.2419
 9194SOL    HW139044   0.178   1.066   8.161  3.1695 -0.8441  1.3957
 9194SOL    HW239045   0.068   0.968   8.138 -0.1515 -1.9242  1.0414
 9195SOL     OW39046   2.940   3.729   2.559 -0.0086 -0.1323 -0.0238
 9195SOL    HW139047   2.900   3.775   2.485  0.1216 -0.2827 -0.1870
 9195SOL    HW239048   2.968   3.646   2.521  4.6712  0.9079  1.2163
 9196SOL     OW39049   3.037   1.587  14.617  0.3218  0.0927 -0.7593
 9196SOL    HW139050   3.117   1.569  14.568  0.2863 -0.0669 -0.7557
 9196SOL    HW239051   2.974   1.523  14.585 -1.1266  0.3406  1.5619
 9197SOL     OW39052   0.890   1.349   7.536 -0.1402  0.3178  0.0373
 9197SOL    HW139053   0.797   1.331   7.551 -0.5334  0.7698 -1.9180
 9197SOL    HW239054   0.914   1.273   7.482 -0.9854 -1.6282  2.3741
 9198SOL     OW39055   3.291   1.553  14.500 -0.7783 -0.1670 -0.2153
 9198SOL    HW139056   3.334   1.627  14.458  2.7845 -0.6353  2.4851
 9198SOL    HW239057   3.328   1.482  14.447 -0.3710  0.5553 -0.9026
 9199SOL     OW39058   3.365   3.015  10.091 -0.1615  0.3584 -0.0291
 9199SOL    HW139059   3.377   3.099  10.047 -2.5088  1.0526  0.6557
 9199SOL    HW239060   3.283   2.988  10.050 -0.4947  0.6056  0.4631
 9200SOL     OW39061   3.739   1.408   8.110  0.1281 -0.0939 -0.0035
 9200SOL    HW139062   3.654   1.446   8.086 -0.5050 -0.7565  1.2116
 9200SOL    HW239063   3.728   1.325   8.064 -0.8384  0.2332 -0.3775
 9201SOL     OW39064   4.231   3.120   2.892  0.8372  0.6760  0.0448
 9201SOL    HW139065   4.154   3.176   2.889  0.3439  0.0015  0.3466
 9201SOL    HW239066   4.297   3.162   2.837  1.5618 -1.1505 -0.4553
 9202SOL     OW39067   1.205   3.594   5.572 -0.0925  0.5365 -0.0018
 9202SOL    HW139068   1.298   3.579   5.558 -0.2107  0.6510 -0.9577
 9202SOL    HW239069   1.178   3.529   5.637  0.7360  0.6093  0.4116
 9203SOL     OW39070   3.692   3.652   6.019 -0.1909  0.1212  0.0407
 9203SOL    HW139071   3.689   3.563   6.054 -1.3923 -0.5499 -1.7788
 9203SOL    HW239072   3.786   3.657   6.005  0.1981 -1.7138  1.9865
 9204SOL     OW39073   0.822   3.953  10.022  0.0312 -0.1806  0.0525
 9204SOL    HW139074   0.852   3.880   9.968  1.0948  0.4446 -0.2162
 9204SOL    HW239075   0.753   3.995   9.970 -0.3061  0.1284  0.7556
 9205SOL     OW39076   4.361   0.141   2.299  0.3460 -0.2032 -0.7619
 9205SOL    HW139077   4.309   0.137   2.218  1.4283 -0.9231 -1.4269
 9205SOL    HW239078   4.386   0.232   2.288  0.5994 -0.3464 -1.4279
 9206SOL     OW39079   3.244   1.737   3.074 -0.2050  0.1720  0.2145
 9206SOL    HW139080   3.171   1.720   3.133  0.9765 -0.4004  1.5244
 9206SOL    HW239081   3.233   1.672   3.005  0.1756  1.5162 -1.1219
 9207SOL     OW39082   3.044   3.712   7.175  0.3259 -0.3639 -0.3919
 9207SOL    HW139083   3.038   3.748   7.086  2.7399  1.2890  0.1186
 9207SOL    HW239084   3.136   3.733   7.187  0.0332  0.0183  1.1928
 9208SOL     OW39085   2.735   2.280   7.059 -0.4588 -0.2990 -0.1690
 9208SOL    HW139086   2.729   2.281   7.155  2.0002  0.6228 -0.0355
 9208SOL    HW239087   2.770   2.195   7.033  1.0784 -0.1804  1.5099
 9209SOL     OW39088   2.530   4.353   7.995  0.2723  0.4723 -0.5995
 9209SOL    HW139089   2.566   4.265   8.007 -1.3515 -0.2460 -0.9607
 9209SOL    HW239090   2.499   4.369   8.085  0.2594  0.3691 -0.5854
 9210SOL     OW39091   3.813   4.156   0.128 -0.2374  0.6000  0.0150
 9210SOL    HW139092   3.882   4.192   0.072  0.1256  0.4548  0.3690
 9210SOL    HW239093   3.743   4.220   0.119  1.0650  2.0054 -0.2745
 9211SOL     OW39094   3.588   4.145  11.788  0.4099 -0.2259  0.1716
 9211SOL    HW139095   3.626   4.171  11.704  0.8746 -2.0065 -0.1645
 9211SOL    HW239096   3.514   4.205  11.794 -0.5152 -1.2731 -0.7326
 9212SOL     OW39097   3.878   3.843  16.849  0.0194  0.2206  0.7906
 9212SOL    HW139098   3.883   3.938  16.852  1.4676  0.1080  1.8771
 9212SOL    HW239099   3.972   3.829  16.836 -0.0823  0.7589 -0.5433
 9213SOL     OW39100   4.565   2.868   5.088  0.6096  0.1930 -0.1932
 9213SOL    HW139101   4.510   2.831   5.019 -0.3737  0.4524  0.4672
 9213SOL    HW239102   4.650   2.834   5.059  0.9908  1.3377 -0.3944
 9214SOL     OW39103   2.029   2.874   7.572  0.5616 -0.6390 -0.3408
 9214SOL    HW139104   2.115   2.896   7.536 -0.1412 -0.7053 -2.1045
 9214SOL    HW239105   2.046   2.895   7.663  2.8699  0.7499 -1.1053
 9215SOL     OW39106   1.300   1.590   3.078  0.4248 -0.4967  0.2971
 9215SOL    HW139107   1.274   1.499   3.066 -1.2063 -0.0750  0.7128
 9215SOL    HW239108   1.252   1.618   3.156 -1.8099 -1.0652 -0.8716
 9216SOL     OW39109   4.298   2.968   4.699 -0.2357 -0.0801 -0.1119
 9216SOL    HW139110   4.307   2.968   4.604  1.1256 -1.8071  0.0186
 9216SOL    HW239111   4.384   2.953   4.739 -0.5853  0.9652  1.0301
 9217SOL     OW39112   0.115   4.278   5.484 -0.3741 -0.6088 -0.1126
 9217SOL    HW139113   0.071   4.266   5.568  0.2630  0.0275  0.3151
 9217SOL    HW239114   0.199   4.241   5.513 -1.3079 -0.1259  3.2134
 9218SOL     OW39115   0.077   3.998   4.242 -0.0816 -0.6044  0.0714
 9218SOL    HW139116   0.109   4.054   4.172 -0.8511 -0.3728 -0.0989
 9218SOL    HW239117   0.012   4.052   4.287 -0.4874 -0.7713 -0.3058
 9219SOL     OW39118   0.004   0.973   6.714 -0.6969  0.4931 -0.3403
 9219SOL    HW139119   4.699   0.881   6.713  1.1604 -0.0315  0.8198
 9219SOL    HW239120   4.669   1.002   6.786 -0.8001  1.0027 -0.6259
 9220SOL     OW39121   4.625   2.299  15.254  0.4398  0.4959 -0.6771
 9220SOL    HW139122   4.691   2.298  15.184  0.8004  1.6390 -0.3592
 9220SOL    HW239123   4.668   2.344  15.327  0.7369  2.4691 -2.0725
 9221SOL     OW39124   4.408   4.488   4.201 -0.2784  0.4831 -0.2110
 9221SOL    HW139125   4.351   4.447   4.266  1.4079  0.1732  1.0742
 9221SOL    HW239126   4.403   4.576   4.238 -1.4613  0.3270  0.0286
 9222SOL     OW39127   4.210   0.374  11.020 -0.1349  0.0973  0.2017
 9222SOL    HW139128   4.237   0.444  10.961  0.0277 -1.4384 -1.5447
 9222SOL    HW239129   4.297   0.341  11.041  1.0656  3.1598 -0.0703
 9223SOL     OW39130   1.903   3.764   0.597  0.4122  0.2108 -0.4578
 9223SOL    HW139131   1.821   3.729   0.561 -0.0662  0.2869  0.5727
 9223SOL    HW239132   1.904   3.854   0.566  1.7222  0.2300 -0.3378
 9224SOL     OW39133   1.795   0.256   8.600 -0.4463 -0.4501  0.1902
 9224SOL    HW139134   1.849   0.258   8.679 -1.0702 -1.6525  0.6377
 9224SOL    HW239135   1.750   0.338   8.619  1.8749  0.5219  1.4738
 9225SOL     OW39136   2.039   1.816  14.351 -0.4184 -0.0324  0.2102
 9225SOL    HW139137   2.086   1.788  14.272  1.3143  2.7263  0.2813
 9225SOL    HW239138   1.948   1.802  14.324 -1.3609  0.5748  3.0548
 9226SOL     OW39139   0.244   3.459  14.920 -0.3809 -0.5179  0.3508
 9226SOL    HW139140   0.325   3.407  14.918 -0.0635  0.0575 -2.3380
 9226SOL    HW239141   0.220   3.451  14.828  1.0793 -0.0162 -0.0861
 9227SOL     OW39142   2.733   1.885   6.249 -0.1796  0.1925  0.4461
 9227SOL    HW139143   2.696   1.954   6.194  2.6606 -0.4467 -2.2147
 9227SOL    HW239144   2.664   1.896   6.315 -1.3169 -0.4924 -0.6428
 9228SOL     OW39145   3.150   4.202   6.004  0.7359  0.2513 -0.4505
 9228SOL    HW139146   3.198   4.279   6.032 -1.0262  1.0319  0.3787
 9228SOL    HW239147   3.065   4.240   5.986  0.1509 -0.7390  0.2209
 9229SOL     OW39148   1.674   2.863   8.076  0.2280  0.6488  0.2606
 9229SOL    HW139149   1.634   2.947   8.052 -0.9589  0.5895  1.9822
 9229SOL    HW239150   1.607   2.800   8.048 -0.0741  1.1413 -0.1262
 9230SOL     OW39151   0.253   3.844   7.326 -0.2474 -0.1650  0.2010
 9230SOL    HW139152   0.231   3.928   7.366  1.6071  0.2242  0.4400
 9230SOL    HW239153   0.174   3.804   7.290 -0.5771 -0.3011  1.0724
 9231SOL     OW39154   2.189   4.080   0.607  0.4943 -0.0881 -0.1688
 9231SOL    HW139155   2.185   4.158   0.552 -2.6414 -0.4797 -0.5383
 9231SOL    HW239156   2.127   4.100   0.677  0.5319 -1.8786  0.3801
 9232SOL     OW39157   2.194   1.402   5.019 -0.1607  0.7001 -0.4708
 9232SOL    HW139158   2.216   1.321   5.064  0.1379  0.1344 -1.6418
 9232SOL    HW239159   2.257   1.464   5.057  1.1906 -1.1829  0.3824
 9233SOL     OW39160   3.622   0.247   7.062  0.2535  0.5477  0.4463
 9233SOL    HW139161   3.635   0.286   6.976  0.1203  3.2241  1.6621
 9233SOL    HW239162   3.708   0.209   7.084  0.3366 -0.1915 -1.0946
 9234SOL     OW39163   3.917   4.164   3.406  0.0312  0.4824 -0.0623
 9234SOL    HW139164   3.965   4.217   3.341  0.3254  0.5904  0.2435
 9234SOL    HW239165   3.923   4.224   3.480  3.0769  1.6947 -1.2833
 9235SOL     OW39166   3.814   0.425   8.396  0.1194 -0.0168  0.7689
 9235SOL    HW139167   3.886   0.366   8.421  0.4105  0.2972  0.6645
 9235SOL    HW239168   3.760   0.375   8.335  0.0667 -1.1781  1.7694
 9236SOL     OW39169   0.942   2.759  10.720 -0.1120 -0.1864 -0.2660
 9236SOL    HW139170   1.009   2.743  10.654 -3.6108 -1.9496 -3.4240
 9236SOL    HW239171   0.920   2.666  10.732 -1.5222 -0.1193 -2.3848
 9237SOL     OW39172   0.284   4.490   9.183 -0.1104  0.1349 -0.4875
 9237SOL    HW139173   0.232   4.565   9.152 -1.4356  0.0079  1.4701
 9237SOL    HW239174   0.334   4.529   9.254  1.2064 -0.8566 -0.8758
 9238SOL     OW39175   3.420   0.792  14.494 -0.5193  0.0265 -0.2527
 9238SOL    HW139176   3.425   0.738  14.573 -0.5646 -0.0608 -0.3096
 9238SOL    HW239177   3.331   0.767  14.472 -0.9539 -0.7242  2.3090
 9239SOL     OW39178   1.228   2.855  13.364  0.1530 -0.4093  0.3673
 9239SOL    HW139179   1.180   2.909  13.427  0.7657  0.2563  0.2681
 9239SOL    HW239180   1.316   2.858  13.402 -0.5889  0.2858  2.0128
 9240SOL     OW39181   2.488   1.847   8.406  0.3122  0.2694  0.2476
 9240SOL    HW139182   2.452   1.921   8.454 -1.8684  0.9917 -2.5069
 9240SOL    HW239183   2.471   1.778   8.471 -0.9037 -0.7788 -1.1735
 9241SOL     OW39184   3.539   1.603   6.760  0.2480 -0.1223 -0.1328
 9241SOL    HW139185   3.526   1.564   6.674  0.0340 -0.1723 -0.0801
 9241SOL    HW239186   3.494   1.535   6.812  2.6204 -0.2678  1.7254
 9242SOL     OW39187   0.932   0.364   7.657  0.5025 -0.2478  0.5136
 9242SOL    HW139188   0.946   0.456   7.637 -0.5956 -0.6916 -2.3176
 9242SOL    HW239189   1.014   0.321   7.631  0.6346  0.0799  0.3879
 9243SOL     OW39190   2.662   1.266   7.739 -0.0491  0.3622  0.5678
 9243SOL    HW139191   2.645   1.179   7.775 -0.7887 -0.3157 -1.4761
 9243SOL    HW239192   2.573   1.299   7.730  0.1786  1.3204  1.8253
 9244SOL     OW39193   2.498   2.778   5.632  0.1386  0.4005  0.6376
 9244SOL    HW139194   2.403   2.772   5.648  0.0819  0.7607  0.4301
 9244SOL    HW239195   2.509   2.872   5.621 -0.9248  0.5101  0.4418
 9245SOL     OW39196   4.349   3.387  13.656  0.4301  0.0851 -0.2224
 9245SOL    HW139197   4.440   3.382  13.626  0.4889 -0.0553 -0.0128
 9245SOL    HW239198   4.315   3.332  13.585  2.6379 -1.5335 -0.0458
 9246SOL     OW39199   1.984   3.746   6.318  0.0044 -0.1201 -0.3144
 9246SOL    HW139200   2.038   3.825   6.313 -0.5441  0.1645 -1.8381
 9246SOL    HW239201   2.051   3.697   6.270 -1.1316  0.0522 -2.0547
 9247SOL     OW39202   0.920   4.082  10.240 -0.0400  0.1304  0.0081
 9247SOL    HW139203   0.901   4.046  10.153 -1.2486 -1.7193  1.0313
 9247SOL    HW239204   0.891   4.008  10.293  0.2342  0.4460  0.5954
 9248SOL     OW39205   3.410   3.807   4.195  0.9446 -0.0298 -0.1163
 9248SOL    HW139206   3.410   3.753   4.274 -1.1729  1.3597  0.8431
 9248SOL    HW239207   3.372   3.753   4.126 -0.1233  0.1540  0.3366
 9249SOL     OW39208   4.547   1.974   8.508 -0.6836 -0.0124 -0.2439
 9249SOL    HW139209   4.542   2.069   8.519  0.4536  0.0101  0.1488
 9249SOL    HW239210   4.492   1.940   8.579 -0.8797 -0.3249 -0.5521
 9250SOL     OW39211   0.569   2.147   1.575 -0.0787 -0.5825  0.4063
 9250SOL    HW139212   0.618   2.085   1.521  1.7118 -0.9057  2.4195
 9250SOL    HW239213   0.591   2.114   1.662 -1.2181  0.3838  1.0561
 9251SOL     OW39214   3.345   4.623   4.973 -0.3868 -0.5214  0.7812
 9251SOL    HW139215   3.274   4.622   4.909  0.6620  1.6390 -0.4362
 9251SOL    HW239216   3.325   4.706   5.017 -0.4206  0.3047 -0.8094
 9252SOL     OW39217   0.891   0.816   2.883  0.3225  0.0821  0.1498
 9252SOL    HW139218   0.826   0.758   2.846 -3.1526  1.4010  4.1769
 9252SOL    HW239219   0.882   0.799   2.977 -0.1678 -1.8575 -0.2565
 9253SOL     OW39220   3.729   2.734   2.550  0.2383 -0.0645 -0.1107
 9253SOL    HW139221   3.802   2.791   2.526  0.8862 -0.6259  0.4914
 9253SOL    HW239222   3.760   2.644   2.561  4.2389  1.1164 -1.4555
 9254SOL     OW39223   1.814   2.978   7.777  0.3491 -0.0057  0.2848
 9254SOL    HW139224   1.865   3.058   7.774  0.9659 -0.4797 -1.6782
 9254SOL    HW239225   1.733   3.003   7.822  0.6761  3.9965 -1.3996
 9255SOL     OW39226   0.391   2.964  16.697 -0.1769  0.0923  0.0445
 9255SOL    HW139227   0.440   2.934  16.774 -1.7874  0.2410  1.1136
 9255SOL    HW239228   0.326   3.023  16.734 -1.4116 -0.6151 -0.9847
 9256SOL     OW39229   2.803   1.903   3.178  0.2025  0.0940 -0.0303
 9256SOL    HW139230   2.726   1.865   3.136 -0.3145  0.5530  0.4936
 9256SOL    HW239231   2.814   1.979   3.120 -1.3360  0.1956 -0.1946
 9257SOL     OW39232   1.485   1.714   1.527 -0.6122 -1.1509  0.4068
 9257SOL    HW139233   1.451   1.652   1.592  0.4291 -1.4484  0.6768
 9257SOL    HW239234   1.432   1.687   1.451 -1.9756 -0.5038  1.1343
 9258SOL     OW39235   4.247   0.671   3.764 -0.1434  0.3566 -0.2289
 9258SOL    HW139236   4.177   0.736   3.751 -0.8027 -0.2227  0.3990
 9258SOL    HW239237   4.305   0.704   3.696 -1.6653  1.5860 -0.9153
 9259SOL     OW39238   0.730   3.999  15.697 -0.2053  0.5624  0.1930
 9259SOL    HW139239   0.708   3.944  15.621 -0.0509  0.6437  0.0908
 9259SOL    HW239240   0.724   4.085  15.655 -0.3441  2.1155  3.3720
 9260SOL     OW39241   3.335   1.618   9.007 -0.3683 -0.3326  0.4707
 9260SOL    HW139242   3.361   1.632   8.916 -1.0633  3.0499  0.7786
 9260SOL    HW239243   3.302   1.528   9.009 -1.2821 -0.0149 -0.0032
 9261SOL     OW39244   1.083   3.070   7.771  0.1810 -0.0238 -0.3512
 9261SOL    HW139245   1.100   2.984   7.734  2.3066  0.9877 -1.6581
 9261SOL    HW239246   1.039   3.109   7.696  0.2930 -0.3419 -0.5823
 9262SOL     OW39247   3.463   2.670   3.937 -0.0916  0.2903 -0.1791
 9262SOL    HW139248   3.501   2.662   4.025 -0.9718  0.2239  0.1918
 9262SOL    HW239249   3.528   2.644   3.872  0.9502  1.8771  0.2389
 9263SOL     OW39250   4.149   2.572   7.812 -0.3845  0.1063  0.1824
 9263SOL    HW139251   4.131   2.664   7.795 -0.3679 -0.0552 -0.7292
 9263SOL    HW239252   4.151   2.567   7.907  1.9098 -1.5687  0.0469
 9264SOL     OW39253   1.315   0.279   5.494 -0.1336 -0.4713  0.5247
 9264SOL    HW139254   1.266   0.203   5.464  0.7788 -0.5372 -0.8227
 9264SOL    HW239255   1.303   0.337   5.419 -0.1930  1.3450  1.9354
 9265SOL     OW39256   2.675   0.361   3.775 -0.2997  0.6978 -0.4528
 9265SOL    HW139257   2.715   0.431   3.826 -0.6619 -0.4082  1.3372
 9265SOL    HW239258   2.595   0.345   3.826  1.7804  1.0560  2.8752
 9266SOL     OW39259   2.282   3.905   9.655  0.5423 -0.1256  0.0527
 9266SOL    HW139260   2.363   3.921   9.606 -0.0880 -0.7047 -1.1712
 9266SOL    HW239261   2.268   3.996   9.682 -2.0070  0.3460 -2.9601
 9267SOL     OW39262   3.762   2.958   3.648  0.5317 -0.3274  0.1931
 9267SOL    HW139263   3.776   2.998   3.562 -5.1182  0.7819 -0.2111
 9267SOL    HW239264   3.759   2.867   3.618  0.0881 -0.7407  1.5201
 9268SOL     OW39265   3.584   2.556   6.314  0.5310  0.0620  0.0980
 9268SOL    HW139266   3.648   2.487   6.333 -0.1208  0.0010  2.1062
 9268SOL    HW239267   3.625   2.613   6.249 -0.8638  1.1703  0.1956
 9269SOL     OW39268   0.071   2.450   5.557  0.1002 -0.0370 -0.2781
 9269SOL    HW139269   4.711   2.499   5.567  0.2944  0.2628 -0.1622
 9269SOL    HW239270   0.036   2.371   5.515 -1.4041  0.9979 -0.9384
 9270SOL     OW39271   2.571   3.062   2.379  0.6223 -0.4615 -0.2803
 9270SOL    HW139272   2.587   3.149   2.342 -1.2503 -0.0228 -0.0260
 9270SOL    HW239273   2.645   3.016   2.338  2.1831  1.1060  0.7583
 9271SOL     OW39274   4.361   2.187   7.588 -0.0577 -0.5624  0.0007
 9271SOL    HW139275   4.344   2.281   7.583  1.5108 -0.1364  2.7524
 9271SOL    HW239276   4.283   2.151   7.630 -0.0585 -0.7717 -0.1846
 9272SOL     OW39277   3.030   0.291   9.571  0.0317 -0.3613 -0.4388
 9272SOL    HW139278   3.014   0.243   9.489 -1.2782  1.3001 -1.1507
 9272SOL    HW239279   3.115   0.335   9.562 -0.5001  0.5812 -0.9087
 9273SOL     OW39280   3.406   1.878   4.888 -0.4906  0.0948  0.4952
 9273SOL    HW139281   3.383   1.865   4.796 -2.4057  4.5008  0.3135
 9273SOL    HW239282   3.435   1.791   4.913  0.8440  0.7624  1.2565
 9274SOL     OW39283   2.113   4.271   9.314 -0.1265 -0.6738 -0.1225
 9274SOL    HW139284   2.136   4.206   9.248  0.1123  0.5107 -1.2103
 9274SOL    HW239285   2.197   4.265   9.360 -0.0811  1.0397  0.0517
 9275SOL     OW39286   2.818   0.041  13.230  0.3215  0.1466 -0.1293
 9275SOL    HW139287   2.785   0.071  13.145 -1.7380  2.2475  1.3983
 9275SOL    HW239288   2.822   4.669  13.208 -1.5530  0.1800 -0.6893
 9276SOL     OW39289   2.205   0.313  12.405 -0.4210 -0.5782  0.2142
 9276SOL    HW139290   2.271   0.331  12.471  1.2793 -1.9792 -1.1117
 9276SOL    HW239291   2.155   0.245  12.450  1.1091 -1.2732  0.8716
 9277SOL     OW39292   1.935   0.684  15.337 -0.2670  0.0110 -0.5888
 9277SOL    HW139293   1.960   0.701  15.428  1.0272 -0.7939 -0.7914
 9277SOL    HW239294   1.844   0.660  15.351 -0.0005 -1.1324 -0.8601
 9278SOL     OW39295   1.324   3.851   8.851 -0.3592 -0.2424 -0.4615
 9278SOL    HW139296   1.294   3.897   8.929  0.4490 -0.2341 -0.1542
 9278SOL    HW239297   1.405   3.897   8.832  0.1316  0.2504  2.8041
 9279SOL     OW39298   4.056   3.325   2.923 -0.6723  0.1505  0.0677
 9279SOL    HW139299   4.033   3.355   2.835 -1.4168  0.6113  0.4186
 9279SOL    HW239300   4.059   3.412   2.962 -0.1781  0.9947 -1.8673
 9280SOL     OW39301   0.791   2.202   5.877 -0.1186  0.0947  0.2818
 9280SOL    HW139302   0.847   2.149   5.821 -0.1181  0.3979 -0.0055
 9280SOL    HW239303   0.844   2.281   5.868  0.8403 -0.5049  0.6524
 9281SOL     OW39304   2.029   1.229   1.582 -0.0637 -0.8915 -0.3162
 9281SOL    HW139305   1.981   1.163   1.531  0.5485 -0.9151 -0.8632
 9281SOL    HW239306   1.967   1.238   1.654 -0.5548  1.6491 -1.0707
 9282SOL     OW39307   3.304   0.100   3.360  0.0524  0.1744  0.0036
 9282SOL    HW139308   3.241   0.112   3.289 -0.2249  2.6023  0.6803
 9282SOL    HW239309   3.244   0.089   3.434 -1.4352  0.9612 -1.0673
 9283SOL     OW39310   3.129   2.666   8.173  0.1898  0.1581 -0.0333
 9283SOL    HW139311   3.088   2.635   8.092 -3.0744 -0.1112  1.7096
 9283SOL    HW239312   3.215   2.669   8.130 -0.0537  1.6985 -0.4144
 9284SOL     OW39313   0.493   3.685   6.889  0.6209  0.6910 -0.5188
 9284SOL    HW139314   0.567   3.741   6.866  1.6925 -0.8468 -0.8742
 9284SOL    HW239315   0.459   3.665   6.802  0.7965  0.5488 -0.5548
 9285SOL     OW39316   4.620   3.715   5.849 -0.2312 -0.2587 -0.2202
 9285SOL    HW139317   4.545   3.758   5.891  1.9509  1.2791  2.1407
 9285SOL    HW239318   4.570   3.638   5.820 -1.5742 -0.6114  2.9769
 9286SOL     OW39319   1.213   1.799   6.082  0.2089 -0.2554 -0.2457
 9286SOL    HW139320   1.157   1.788   6.005  0.6574 -2.3166 -0.2766
 9286SOL    HW239321   1.159   1.754   6.147  1.5574  0.5237  1.4244
 9287SOL     OW39322   2.943   2.067   7.417  0.5041  0.2637 -0.1630
 9287SOL    HW139323   2.988   2.115   7.347  0.8911 -2.7465 -1.9936
 9287SOL    HW239324   2.999   1.992   7.433  0.7971  0.2321 -1.3261
 9288SOL     OW39325   0.558   0.665   0.829 -0.7475  0.4808 -0.1090
 9288SOL    HW139326   0.605   0.714   0.896  0.4426  0.1440 -0.7057
 9288SOL    HW239327   0.476   0.652   0.877 -0.4992  0.0284  0.1956
 9289SOL     OW39328   1.877   3.639  15.920  0.4387  0.3357 -0.4347
 9289SOL    HW139329   1.913   3.684  15.844  0.0453  0.4469 -0.5540
 9289SOL    HW239330   1.803   3.695  15.943  1.8779  1.6940  0.8394
 9290SOL     OW39331   2.471   1.438   5.416 -0.0296 -0.0218  0.2748
 9290SOL    HW139332   2.505   1.514   5.368  1.0082 -0.5228  0.2222
 9290SOL    HW239333   2.399   1.475   5.468  0.7537  0.6179  0.8913
 9291SOL     OW39334   0.264   3.143  10.778 -0.0367  0.5435 -0.8508
 9291SOL    HW139335   0.252   3.221  10.832  1.6114 -0.5853  1.1341
 9291SOL    HW239336   0.242   3.168  10.688 -2.1562 -0.0730 -0.5170
 9292SOL     OW39337   0.792   3.412  13.314 -0.1523 -0.1097  0.3748
 9292SOL    HW139338   0.862   3.348  13.300 -1.2385 -1.1593 -0.2939
 9292SOL    HW239339   0.809   3.455  13.398  0.1346  1.1516 -0.3251
 9293SOL     OW39340   4.620   3.952   2.892 -0.0586  0.5646  0.0872
 9293SOL    HW139341   4.620   3.987   2.981 -0.9385 -0.4665  0.4934
 9293SOL    HW239342   4.707   3.913   2.891 -0.8067 -1.1000  0.0541
 9294SOL     OW39343   0.924   3.091  10.261  0.2512 -0.3157  0.1617
 9294SOL    HW139344   0.836   3.090  10.222 -0.2879 -0.6885  1.3546
 9294SOL    HW239345   0.960   3.168  10.217 -0.1696 -0.6741 -0.8076
 9295SOL     OW39346   1.763   1.810   6.780 -0.1570  0.1382 -0.3831
 9295SOL    HW139347   1.718   1.879   6.732  2.4145  1.7221 -0.5251
 9295SOL    HW239348   1.780   1.748   6.709 -2.0569 -0.9241  0.0927
 9296SOL     OW39349   2.524   3.447   8.655  0.3668  0.3156 -0.4367
 9296SOL    HW139350   2.466   3.480   8.586 -0.6852 -1.4104 -0.4060
 9296SOL    HW239351   2.474   3.379   8.701  0.2181  1.4751  1.1391
 9297SOL     OW39352   3.971   3.911   1.433  0.3805 -0.2340 -0.1475
 9297SOL    HW139353   3.980   3.826   1.476  0.5087 -1.4051 -2.5208
 9297SOL    HW239354   3.960   3.972   1.506 -3.0569  0.2712 -1.1143
 9298SOL     OW39355   0.642   1.033  12.891  0.2271  0.6363 -0.2365
 9298SOL    HW139356   0.614   0.959  12.945 -2.5626 -0.1812 -2.7808
 9298SOL    HW239357   0.722   1.060  12.936  0.0588 -0.2217  0.5715
 9299SOL     OW39358   3.690   2.032   1.862 -0.0304  0.2712 -0.2622
 9299SOL    HW139359   3.758   2.040   1.795  1.2175 -0.5731  0.9131
 9299SOL    HW239360   3.640   1.961   1.823  1.4514 -0.7483 -0.3043
 9300SOL     OW39361   1.893   4.070   3.566 -0.0505  0.1899 -0.0713
 9300SOL    HW139362   1.823   4.090   3.627 -1.2591  2.1924 -2.1139
 9300SOL    HW239363   1.838   4.059   3.488 -0.4910 -1.3659  0.4751
 9301SOL     OW39364   2.107   2.375   8.222 -0.1276 -0.1416  0.2761
 9301SOL    HW139365   2.022   2.373   8.266 -1.5100  2.2215 -2.2930
 9301SOL    HW239366   2.124   2.280   8.220  1.2424  0.0862  0.5742
 9302SOL     OW39367   2.501   4.470   3.142 -0.0599 -1.0221 -0.3317
 9302SOL    HW139368   2.484   4.542   3.082 -0.7783 -0.2584  0.7975
 9302SOL    HW239369   2.487   4.391   3.088 -0.1867 -0.6374 -0.8626
 9303SOL     OW39370   3.550   3.265   7.058  0.3294  0.1685 -0.5199
 9303SOL    HW139371   3.636   3.234   7.085 -0.1308  0.1628  0.9095
 9303SOL    HW239372   3.503   3.276   7.141  2.0062  0.3775  0.3867
 9304SOL     OW39373   3.740   2.711   3.507 -0.1439  0.0688  0.5080
 9304SOL    HW139374   3.663   2.689   3.456  0.4618  2.9882 -1.6071
 9304SOL    HW239375   3.804   2.718   3.437  0.4381 -1.3031  0.9014
 9305SOL     OW39376   0.518   3.807   0.521  0.4009  0.4856 -0.2068
 9305SOL    HW139377   0.537   3.820   0.614 -0.4379  1.9770 -0.2404
 9305SOL    HW239378   0.429   3.776   0.541 -0.2489  2.1944 -0.4346
 9306SOL     OW39379   1.516   3.170   2.455  0.0323 -0.3281  0.2468
 9306SOL    HW139380   1.595   3.184   2.507 -0.9421 -0.2045  1.6746
 9306SOL    HW239381   1.522   3.253   2.407 -1.5788  0.9618  2.2691
 9307SOL     OW39382   4.683   0.081   0.706  0.1273 -0.1065  0.2915
 9307SOL    HW139383   0.046   0.083   0.751 -0.0895 -2.6036  0.7975
 9307SOL    HW239384   4.708   0.145   0.639  0.3119 -0.7820 -0.2947
 9308SOL     OW39385   0.429   4.000   8.728  0.4047 -0.2295 -0.8738
 9308SOL    HW139386   0.441   4.010   8.634  1.5163 -0.4130 -0.7526
 9308SOL    HW239387   0.417   3.905   8.726  0.7006 -0.3238  1.1286
 9309SOL     OW39388   3.405   1.111   7.835  0.4292 -0.2020 -0.3375
 9309SOL    HW139389   3.314   1.139   7.837  0.4346 -0.1325 -0.8370
 9309SOL    HW239390   3.409   1.044   7.903  1.2483 -0.0597 -0.2393
 9310SOL     OW39391   2.513   1.151  12.801 -0.5800  0.5361  0.6660
 9310SOL    HW139392   2.507   1.068  12.848  1.1995 -0.4153 -0.7818
 9310SOL    HW239393   2.420   1.166  12.786  0.4114  5.4567 -0.5589
 9311SOL     OW39394   1.785   2.514   2.760  0.0851  0.0406  0.2917
 9311SOL    HW139395   1.819   2.589   2.810  1.7950  0.9248 -2.1835
 9311SOL    HW239396   1.696   2.545   2.744 -0.5820 -1.2818  1.4361
 9312SOL     OW39397   3.293   2.342   2.185 -0.7428  0.2683 -0.5538
 9312SOL    HW139398   3.305   2.436   2.199  0.6483 -0.1694  1.2347
 9312SOL    HW239399   3.203   2.334   2.154 -0.4584 -0.2505 -1.2665
 9313SOL     OW39400   3.860   0.120   6.685 -0.1353  0.5519 -0.3306
 9313SOL    HW139401   3.901   0.110   6.599 -1.3100 -1.0301 -0.6919
 9313SOL    HW239402   3.915   0.060   6.736 -0.8330 -0.6992 -1.0741
 9314SOL     OW39403   2.519   1.719   8.641 -0.0216  0.2630 -0.2115
 9314SOL    HW139404   2.478   1.724   8.728 -0.6589 -0.5692 -0.4636
 9314SOL    HW239405   2.570   1.639   8.654 -2.4933 -1.0731  1.3891
 9315SOL     OW39406   0.923   4.109   5.130  0.0560  0.1332 -0.4064
 9315SOL    HW139407   1.009   4.099   5.171 -1.2937 -0.4817  2.3096
 9315SOL    HW239408   0.908   4.026   5.087 -0.3212  1.8122 -3.4906
 9316SOL     OW39409   3.062   2.373  14.841 -0.0161 -0.4702  0.6467
 9316SOL    HW139410   2.986   2.370  14.899  2.0105  1.6766  3.3676
 9316SOL    HW239411   3.090   2.464  14.837  0.5668 -0.6367  0.9519
 9317SOL     OW39412   3.802   1.191   7.982 -0.2214 -0.1701 -0.1237
 9317SOL    HW139413   3.807   1.096   7.972 -0.6988 -0.2193  0.1256
 9317SOL    HW239414   3.859   1.219   7.910 -0.1996  0.3512  0.0929
 9318SOL     OW39415   1.428   4.599   6.512 -0.4469 -0.8091 -0.2066
 9318SOL    HW139416   1.412   4.525   6.453 -0.9057  0.1025 -1.2289
 9318SOL    HW239417   1.524   4.601   6.512 -0.4304 -0.7726 -2.3730
 9319SOL     OW39418   1.750   3.530   8.015  0.7821  0.2054  0.0821
 9319SOL    HW139419   1.786   3.497   8.097  0.0931 -2.8471 -0.8245
 9319SOL    HW239420   1.698   3.606   8.040 -0.8399 -0.8027 -0.2114
 9320SOL     OW39421   2.962   0.424   7.498 -0.2923 -0.0574 -0.0703
 9320SOL    HW139422   3.035   0.479   7.528  1.2715 -2.6391  0.8894
 9320SOL    HW239423   2.908   0.409   7.575 -0.1123  0.3985  0.1443
 9321SOL     OW39424   0.589   0.956   4.749  0.2648  0.2479  0.3144
 9321SOL    HW139425   0.533   0.924   4.819  0.8141  1.3702  1.2631
 9321SOL    HW239426   0.583   1.048   4.776  0.9689  0.2187  0.5746
 9322SOL     OW39427   3.813   0.683  10.295 -0.1099 -0.1724  0.1684
 9322SOL    HW139428   3.892   0.629  10.291  0.1511  0.2374 -0.1363
 9322SOL    HW239429   3.744   0.628  10.334 -1.4041  0.3934 -1.3174
 9323SOL     OW39430   1.251   4.477   9.830 -0.2965 -0.1347 -0.2267
 9323SOL    HW139431   1.191   4.540   9.871 -1.9479 -1.3037 -0.8211
 9323SOL    HW239432   1.335   4.511   9.861 -0.3437  1.4729 -1.8710
 9324SOL     OW39433   4.610   4.094   5.221  0.1047  0.1541  0.1536
 9324SOL    HW139434   4.529   4.138   5.195  0.3231 -0.3757 -1.4128
 9324SOL    HW239435   4.589   4.002   5.210 -0.2881  0.2987 -0.2657
 9325SOL     OW39436   2.356   4.337  14.288 -0.4546  0.4121 -0.5066
 9325SOL    HW139437   2.418   4.285  14.238  1.1215  0.1990  1.6833
 9325SOL    HW239438   2.407   4.356  14.367 -0.6271  0.8296 -0.4891
 9326SOL     OW39439   1.188   2.076   9.078  0.4959 -0.0685 -0.3297
 9326SOL    HW139440   1.229   2.161   9.090  0.7349  0.0027 -1.6251
 9326SOL    HW239441   1.219   2.052   8.990 -2.0507 -1.4123 -0.8732
 9327SOL     OW39442   0.435   0.746   8.307  0.1613  0.2245  0.1491
 9327SOL    HW139443   0.381   0.812   8.351  1.7677  3.2889 -2.5646
 9327SOL    HW239444   0.393   0.665   8.338 -1.6937  0.9357 -0.4841
 9328SOL     OW39445   0.469   4.599   3.055  0.3273 -0.0778  0.6130
 9328SOL    HW139446   0.561   4.620   3.069  0.1051  1.0270  0.3980
 9328SOL    HW239447   0.476   4.518   3.004  0.4357  0.7067 -0.6224
 9329SOL     OW39448   1.248   0.772  13.801 -0.0823 -0.1389 -0.1212
 9329SOL    HW139449   1.175   0.755  13.860  0.8193 -1.5210  0.6195
 9329SOL    HW239450   1.214   0.783  13.712  2.1450 -2.4271 -1.2947
 9330SOL     OW39451   3.907   0.741   6.438  0.0908 -0.2469  0.4567
 9330SOL    HW139452   3.949   0.823   6.462  1.0446 -0.1625 -1.4704
 9330SOL    HW239453   3.880   0.767   6.350  0.0325 -0.5741  0.3785
 9331SOL     OW39454   0.924   4.433   4.023 -0.2617 -0.5320 -0.1877
 9331SOL    HW139455   0.846   4.464   3.977  0.1686 -1.1275 -1.3100
 9331SOL    HW239456   0.919   4.473   4.110  0.4074 -0.5401 -0.1457
 9332SOL     OW39457   2.189   3.569  17.470  0.1519 -0.7024  0.1175
 9332SOL    HW139458   2.189   3.533  17.559  2.1468 -1.7405 -0.3122
 9332SOL    HW239459   2.198   3.663  17.484 -1.6657 -0.6244  0.7599
 9333SOL     OW39460   4.187   2.351   3.526 -0.0063  0.2752  0.2807
 9333SOL    HW139461   4.247   2.403   3.580 -1.6638  0.3753  2.0286
 9333SOL    HW239462   4.253   2.320   3.464  2.0335  1.1746  1.9748
 9334SOL     OW39463   4.621   2.475  11.514  0.7940  0.0358 -0.2042
 9334SOL    HW139464   4.669   2.394  11.496  1.6367 -0.0906  2.5989
 9334SOL    HW239465   4.666   2.546  11.467 -1.3287  1.2104 -0.4685
 9335SOL     OW39466   0.352   0.633   2.026 -0.7012  0.3008  0.1028
 9335SOL    HW139467   0.419   0.696   2.000  0.0402  0.4407  2.4231
 9335SOL    HW239468   0.346   0.593   1.939  0.7465 -0.0058  0.1435
 9336SOL     OW39469   4.557   4.154  13.517 -0.4946  0.5857  0.2228
 9336SOL    HW139470   4.491   4.188  13.578 -1.0973 -0.0939 -0.0355
 9336SOL    HW239471   4.523   4.167  13.428  0.1890 -1.6577 -0.3618
 9337SOL     OW39472   4.255   2.277  10.339  0.1793  0.4681 -0.2919
 9337SOL    HW139473   4.300   2.321  10.411  1.8082 -2.3658  0.4444
 9337SOL    HW239474   4.332   2.242  10.294  0.7306  0.1439  0.8970
 9338SOL     OW39475   4.303   1.274   2.626  0.0392 -0.0165 -0.0795
 9338SOL    HW139476   4.257   1.341   2.676  0.4160  1.2327 -1.3898
 9338SOL    HW239477   4.355   1.331   2.569  0.3466  0.6720  0.8822
 9339SOL     OW39478   4.451   0.222   3.366  0.4993 -0.2466  0.0855
 9339SOL    HW139479   4.514   0.174   3.420  0.3002 -0.4933  0.0950
 9339SOL    HW239480   4.474   0.177   3.285 -1.2573  0.7051 -0.9317
 9340SOL     OW39481   2.849   2.709  12.210 -0.0780  0.0083 -0.0173
 9340SOL    HW139482   2.808   2.630  12.173  2.7658 -0.7484 -1.5092
 9340SOL    HW239483   2.932   2.672  12.241  1.1559  2.1770 -0.7796
 9341SOL     OW39484   4.053   4.033   0.727  0.0804 -0.4021  0.5054
 9341SOL    HW139485   3.970   4.059   0.767 -0.8878  0.1055 -1.8156
 9341SOL    HW239486   4.061   4.094   0.654 -1.1108  0.9029  1.4771
 9342SOL     OW39487   3.533   1.197   1.317  0.1996  0.5805 -0.0968
 9342SOL    HW139488   3.597   1.219   1.249  0.5262 -0.5273 -0.1410
 9342SOL    HW239489   3.471   1.148   1.264 -0.6779  1.3186  0.2388
 9343SOL     OW39490   3.456   4.456   2.970  0.1503  0.3812 -0.2300
 9343SOL    HW139491   3.424   4.541   2.939  1.1049  0.7785 -0.1320
 9343SOL    HW239492   3.413   4.459   3.056 -3.3143 -2.7307 -1.8547
 9344SOL     OW39493   2.835   2.879   9.857 -0.5556 -0.1120 -0.2693
 9344SOL    HW139494   2.828   2.952   9.918 -2.8435  0.4762 -1.2203
 9344SOL    HW239495   2.794   2.907   9.775  1.3345 -0.0136 -1.1786
 9345SOL     OW39496   0.423   1.216   8.373  0.4255  0.3237  0.4553
 9345SOL    HW139497   0.467   1.253   8.449  0.4345 -0.4171  0.8049
 9345SOL    HW239498   0.375   1.139   8.402 -0.3837  0.5744 -0.1935
 9346SOL     OW39499   3.983   2.809   3.870 -0.5823  0.8017 -0.1273
 9346SOL    HW139500   3.924   2.743   3.908  1.1971 -1.0763 -0.6306
 9346SOL    HW239501   3.927   2.886   3.859 -0.9082  0.2076 -2.5633
 9347SOL     OW39502   4.443   2.768   3.947  0.2806  0.0642  0.0499
 9347SOL    HW139503   4.411   2.832   3.884 -1.4321  1.2062  2.0809
 9347SOL    HW239504   4.389   2.693   3.922  1.4174 -0.5800 -0.4509
 9348SOL     OW39505   1.210   0.220   4.148  0.2809  0.0401 -0.3758
 9348SOL    HW139506   1.267   0.144   4.152 -0.8772 -0.8612 -0.8890
 9348SOL    HW239507   1.226   0.268   4.230  1.0622 -0.3122 -0.3211
 9349SOL     OW39508   2.491   3.305   6.459 -0.1108 -0.1690  0.4788
 9349SOL    HW139509   2.478   3.241   6.389 -1.7365 -1.1000  1.6125
 9349SOL    HW239510   2.585   3.300   6.470 -0.1621  0.4643  1.2253
 9350SOL     OW39511   2.938   2.817   3.961  0.1713  0.4492 -0.1916
 9350SOL    HW139512   3.030   2.844   3.964 -0.3713  2.2039  0.5265
 9350SOL    HW239513   2.954   2.727   3.990  0.5589  0.0856 -1.5570
 9351SOL     OW39514   1.829   1.440   8.400 -0.0073  0.0934 -0.0245
 9351SOL    HW139515   1.753   1.420   8.346 -0.5550  2.2594 -0.0264
 9351SOL    HW239516   1.881   1.362   8.379  0.5031  0.0549  1.4057
 9352SOL     OW39517   0.338   0.298   2.791  0.1587  0.0718  0.0668
 9352SOL    HW139518   0.293   0.300   2.876 -1.4338  1.1398 -0.7924
 9352SOL    HW239519   0.403   0.368   2.800  0.0544  0.0151  1.1960
 9353SOL     OW39520   2.090   0.722   2.304  0.0376 -1.0373  0.1046
 9353SOL    HW139521   2.184   0.735   2.291  0.2430 -1.5254  1.0673
 9353SOL    HW239522   2.054   0.761   2.224 -0.1759 -1.7313 -0.1321
 9354SOL     OW39523   3.238   1.671   8.391 -0.0371  0.1671  0.3487
 9354SOL    HW139524   3.299   1.605   8.426  0.0668 -0.4262 -0.9550
 9354SOL    HW239525   3.162   1.614   8.384 -0.9972  1.3992  0.8002
 9355SOL     OW39526   3.210   3.835   5.125 -0.2742 -0.2078  0.5990
 9355SOL    HW139527   3.142   3.869   5.183  1.6830  1.4838  1.9008
 9355SOL    HW239528   3.177   3.745   5.121 -2.8747  0.6160  3.2586
 9356SOL     OW39529   2.428   2.186   3.226  0.4675  0.0577 -0.6093
 9356SOL    HW139530   2.444   2.119   3.160  2.8851  1.2403 -1.2016
 9356SOL    HW239531   2.432   2.139   3.309  2.2141  1.8780  0.3456
 9357SOL     OW39532   2.946   4.333   1.154 -0.0830 -0.5195 -0.4990
 9357SOL    HW139533   2.976   4.341   1.064 -1.1016 -1.2327 -0.8923
 9357SOL    HW239534   3.035   4.333   1.190  0.9636  1.9621 -3.0385
 9358SOL     OW39535   1.133   3.042   1.953  0.3752 -0.2063  0.0201
 9358SOL    HW139536   1.134   2.988   1.874  1.2760 -0.7978  0.4356
 9358SOL    HW239537   1.038   3.043   1.959  0.4955 -1.2679  2.1735
 9359SOL     OW39538   4.098   0.573   5.140  0.7564  0.0949 -0.2311
 9359SOL    HW139539   4.004   0.574   5.159  1.0637  2.7550  1.2167
 9359SOL    HW239540   4.113   0.480   5.156 -0.7636 -0.4059 -1.7200
 9360SOL     OW39541   0.365   3.005   2.842 -0.3821 -0.9521 -0.8956
 9360SOL    HW139542   0.274   3.009   2.812 -1.0477  2.0518  1.6012
 9360SOL    HW239543   0.362   2.947   2.918 -1.1838 -0.8868 -0.8776
 9361SOL     OW39544   4.038   1.587   1.846  0.4880 -0.1184  0.2157
 9361SOL    HW139545   4.000   1.506   1.812  0.9351 -1.2930  2.4641
 9361SOL    HW239546   4.080   1.617   1.766 -0.2251 -1.3346 -0.6110
 9362SOL     OW39547   2.911   4.248   0.399  0.5118 -0.7100  0.2508
 9362SOL    HW139548   2.969   4.183   0.440 -1.2494 -1.5894  1.3722
 9362SOL    HW239549   2.835   4.194   0.376  0.3501 -0.1972 -0.3986
 9363SOL     OW39550   1.202   3.363   5.762 -0.0972  0.0212  0.2941
 9363SOL    HW139551   1.245   3.321   5.687  0.6554 -0.4416  0.9867
 9363SOL    HW239552   1.282   3.388   5.809 -0.1702 -0.1472  0.5053
 9364SOL     OW39553   0.568   3.457   5.305 -0.6980  0.3892 -0.7656
 9364SOL    HW139554   0.643   3.486   5.254 -0.3212 -0.0227 -0.4444
 9364SOL    HW239555   0.495   3.504   5.265  1.5108  2.8374 -1.8582
 9365SOL     OW39556   0.293   0.286  15.351  0.0367  0.6779  0.1339
 9365SOL    HW139557   0.374   0.264  15.398 -0.8664 -0.2586  1.2299
 9365SOL    HW239558   0.286   0.216  15.286  0.5277  0.4393  0.3345
 9366SOL     OW39559   0.917   0.024   6.859  0.6119  0.1542 -0.0203
 9366SOL    HW139560   0.919   4.688   6.935 -2.4216  1.4429  1.0084
 9366SOL    HW239561   0.824   0.045   6.856  0.2711 -1.3295  0.0800
 9367SOL     OW39562   1.364   2.616   5.930 -0.1968 -0.0397 -0.6076
 9367SOL    HW139563   1.449   2.603   5.888 -0.5923 -2.0141 -0.7752
 9367SOL    HW239564   1.346   2.542   5.988 -0.7671  0.2054 -0.4709
 9368SOL     OW39565   3.327   3.563   6.202  0.3984  0.7682  0.4143
 9368SOL    HW139566   3.274   3.630   6.160 -0.4681  1.0859  2.0108
 9368SOL    HW239567   3.282   3.492   6.158  3.9903 -1.1635 -0.1623
 9369SOL     OW39568   4.275   0.978   6.677 -0.0821 -0.1502  0.0227
 9369SOL    HW139569   4.241   0.944   6.760  1.7179 -0.6493  0.5765
 9369SOL    HW239570   4.308   0.897   6.637  3.0477  1.1589 -0.0616
 9370SOL     OW39571   3.041   3.888   4.223  0.1289  0.3510 -0.6486
 9370SOL    HW139572   2.966   3.934   4.185  0.2423  0.9899 -0.1073
 9370SOL    HW239573   3.092   3.884   4.142  0.5206  2.1323 -0.4997
 9371SOL     OW39574   4.705   3.511   4.752  0.0427 -0.4128  0.2898
 9371SOL    HW139575   4.672   3.537   4.666 -0.2947 -0.2522  0.4654
 9371SOL    HW239576   4.707   3.415   4.746 -1.1386 -0.3520 -1.2800
 9372SOL     OW39577   2.717   3.628   7.492  0.3381 -0.2287  0.3708
 9372SOL    HW139578   2.753   3.620   7.404  1.4132  2.5711  0.5386
 9372SOL    HW239579   2.779   3.690   7.531  0.3681 -0.1320  0.1667
 9373SOL     OW39580   0.005   2.907   7.835  0.6274 -0.0901  0.3935
 9373SOL    HW139581   0.089   2.903   7.881  1.1732  1.4818 -0.4560
 9373SOL    HW239582   0.031   2.873   7.749 -0.1048 -0.2610  0.2375
 9374SOL     OW39583   3.874   3.745  17.340  0.2637 -0.5516 -0.0328
 9374SOL    HW139584   3.937   3.676  17.361 -1.7282 -2.5182 -0.5081
 9374SOL    HW239585   3.931   3.811  17.302 -0.0689  0.0552  0.5167
 9375SOL     OW39586   4.107   4.329  17.097 -0.5754  0.5586 -0.1291
 9375SOL    HW139587   4.102   4.312  17.003  0.5682 -2.7978  0.4175
 9375SOL    HW239588   4.126   4.423  17.105  0.7793  0.2864 -0.2275
 9376SOL     OW39589   3.996   0.367   2.160 -0.4373  0.1010  0.2264
 9376SOL    HW139590   3.919   0.386   2.107 -0.6392 -0.6611  0.2549
 9376SOL    HW239591   4.058   0.422   2.111  0.3785 -0.4354  0.6662
 9377SOL     OW39592   4.101   1.893   5.036  0.0416 -0.2428  0.0623
 9377SOL    HW139593   4.084   1.898   5.130 -0.8912  0.3327 -0.1406
 9377SOL    HW239594   4.151   1.811   5.030 -0.6151 -0.5378 -1.3719
 9378SOL     OW39595   2.400   1.865   6.114 -0.0071 -0.1382 -0.1682
 9378SOL    HW139596   2.386   1.873   6.020 -0.0108  0.5119 -0.1142
 9378SOL    HW239597   2.479   1.918   6.124  1.5496 -2.7952  1.7230
 9379SOL     OW39598   0.804   4.268  14.988  0.5590 -0.2527 -0.3501
 9379SOL    HW139599   0.870   4.199  14.979  1.1337  0.7816 -4.0838
 9379SOL    HW239600   0.859   4.346  14.990 -1.1134  0.9377 -1.0056
 9380SOL     OW39601   3.905   0.892   8.785  0.4434 -0.3735  0.2232
 9380SOL    HW139602   3.900   0.982   8.752  0.7044  0.2282  1.8212
 9380SOL    HW239603   3.823   0.853   8.754  1.0728 -0.0299 -1.9118
 9381SOL     OW39604   3.863   3.788  12.113 -0.9025 -0.0765 -0.0333
 9381SOL    HW139605   3.906   3.740  12.042  0.6966 -0.8109  1.4219
 9381SOL    HW239606   3.932   3.804  12.177  1.0925  0.0039 -2.2049
 9382SOL     OW39607   2.848   0.247  11.825 -0.0088  0.1969 -0.1255
 9382SOL    HW139608   2.872   0.182  11.891  1.2351  2.5003  1.6709
 9382SOL    HW239609   2.920   0.233  11.763  0.4792  2.5860 -0.0795
 9383SOL     OW39610   4.413   0.956   1.826 -0.6663  0.0546 -0.1850
 9383SOL    HW139611   4.479   0.898   1.864 -1.9791  0.4380  2.7184
 9383SOL    HW239612   4.405   1.025   1.892 -2.4086 -0.1089 -0.2287
 9384SOL     OW39613   0.633   0.835   6.803 -0.1776  0.1850  0.2088
 9384SOL    HW139614   0.560   0.837   6.865 -0.5707 -0.5164 -0.2317
 9384SOL    HW239615   0.699   0.889   6.847  1.2131 -0.2837 -1.2981
 9385SOL     OW39616   0.043   3.190   0.315 -0.1102 -0.3078  0.2475
 9385SOL    HW139617   4.701   3.259   0.333  0.5630 -0.1965  2.1949
 9385SOL    HW239618   0.124   3.241   0.317  0.4629 -1.1139 -2.9549
 9386SOL     OW39619   4.599   3.058   2.599  0.1770  0.6515  0.2683
 9386SOL    HW139620   4.530   3.125   2.592 -0.6866 -0.2294  0.4387
 9386SOL    HW239621   4.577   2.995   2.530 -0.2816  1.2196 -0.1074
 9387SOL     OW39622   0.391   3.056   5.319 -0.1001 -0.2580 -0.0585
 9387SOL    HW139623   0.446   3.064   5.241 -0.4572 -0.2343 -0.3090
 9387SOL    HW239624   0.416   3.135   5.366 -1.3425 -0.2241  0.5509
 9388SOL     OW39625   2.166   3.637   3.164 -0.2248  0.4209  0.0356
 9388SOL    HW139626   2.073   3.620   3.149 -0.1296  0.3127 -0.4399
 9388SOL    HW239627   2.206   3.550   3.159 -0.8720 -0.0291  2.9893
 9389SOL     OW39628   0.735   1.948  13.226 -1.2914 -0.1581 -0.2994
 9389SOL    HW139629   0.746   2.042  13.242 -0.0064 -0.2098 -0.8767
 9389SOL    HW239630   0.745   1.907  13.312 -0.2476  0.1829 -0.2590
 9390SOL     OW39631   2.326   2.451  11.162  0.4049  0.9230 -0.1308
 9390SOL    HW139632   2.276   2.519  11.206 -1.0757 -0.4717  0.3531
 9390SOL    HW239633   2.412   2.492  11.158  1.0481 -0.4477 -0.6169
 9391SOL     OW39634   3.710   1.056   2.605  0.3025  0.7332 -0.3049
 9391SOL    HW139635   3.757   0.989   2.655  1.7755  0.4882 -2.0183
 9391SOL    HW239636   3.620   1.033   2.627  0.8350  0.5152  1.7355
 9392SOL     OW39637   4.327   2.426   7.263  0.4526  0.5510  0.5513
 9392SOL    HW139638   4.234   2.419   7.241  0.3768  0.0951  1.0184
 9392SOL    HW239639   4.325   2.434   7.359 -1.1287 -0.1626  0.5814
 9393SOL     OW39640   3.079   2.963   5.750 -0.1690  0.1279 -0.0305
 9393SOL    HW139641   3.078   2.867   5.753  0.7569  0.1045 -0.3673
 9393SOL    HW239642   3.175   2.963   5.757 -0.2304 -1.6123  0.9680
 9394SOL     OW39643   1.307   2.210   6.251 -0.1591 -0.1761 -0.1535
 9394SOL    HW139644   1.306   2.191   6.345 -1.8018 -2.5121 -0.6338
 9394SOL    HW239645   1.357   2.291   6.246 -0.4546 -0.1420 -2.5578
 9395SOL     OW39646   4.599   1.994   5.002  0.5221 -0.3613  0.2984
 9395SOL    HW139647   4.647   2.073   5.029  1.4506 -1.0088  0.5325
 9395SOL    HW239648   4.579   2.015   4.911  4.2762 -1.1278 -0.7091
 9396SOL     OW39649   2.368   1.918   6.664  0.2660 -0.1997 -0.1769
 9396SOL    HW139650   2.348   1.831   6.698 -2.9126  0.5751 -0.0294
 9396SOL    HW239651   2.278   1.953   6.664 -0.4599 -2.0481 -1.2045
 9397SOL     OW39652   3.682   3.497   1.993 -0.1875  0.3638 -0.0314
 9397SOL    HW139653   3.630   3.574   2.018 -0.4042 -0.4865  2.1008
 9397SOL    HW239654   3.610   3.434   1.999 -0.3981  0.4921 -1.2496
 9398SOL     OW39655   3.555   4.576   4.401 -0.2871  0.8202  0.0222
 9398SOL    HW139656   3.610   4.654   4.400  0.1912  0.4790 -0.1820
 9398SOL    HW239657   3.499   4.593   4.325  1.4498  1.6937 -1.0468
 9399SOL     OW39658   4.024   2.061   5.672  0.5512 -0.5441  0.2629
 9399SOL    HW139659   3.936   2.067   5.634  0.1548  4.0695  1.9163
 9399SOL    HW239660   4.047   2.143   5.629 -2.2435 -0.9964 -2.1028
 9400SOL     OW39661   1.115   0.165   7.612  0.4013  0.8440  0.3984
 9400SOL    HW139662   1.195   0.171   7.560 -0.2082 -1.0637 -0.7229
 9400SOL    HW239663   1.087   0.075   7.600  0.7137  0.7826  0.1345
 9401SOL     OW39664   2.257   0.084   8.539  0.3673  0.4423 -0.6677
 9401SOL    HW139665   2.184   0.083   8.601  0.0180  2.9528 -1.0494
 9401SOL    HW239666   2.308   0.012   8.576 -4.6796 -2.5474  0.5623
 9402SOL     OW39667   4.581   2.268   1.020 -0.6157  0.3844  1.1355
 9402SOL    HW139668   4.593   2.331   1.091  1.5652  1.9636 -0.6010
 9402SOL    HW239669   4.669   2.249   0.989 -0.4007  0.8491  1.4587
 9403SOL     OW39670   3.932   2.228   5.096 -0.6187 -0.5547  0.6899
 9403SOL    HW139671   3.867   2.162   5.076 -0.8303  0.0252 -0.5205
 9403SOL    HW239672   3.977   2.183   5.168  1.7123 -0.1781 -0.5395
 9404SOL     OW39673   1.793   2.357   7.958 -0.7269  0.3553  0.0687
 9404SOL    HW139674   1.821   2.277   8.001 -2.1757  0.5138  1.3126
 9404SOL    HW239675   1.702   2.345   7.985 -0.1707 -1.0878  1.3280
 9405SOL     OW39676   0.634   0.380   2.986 -0.2819 -0.0182  0.2285
 9405SOL    HW139677   0.542   0.360   2.999  0.2059 -1.8055  0.9439
 9405SOL    HW239678   0.638   0.385   2.890  0.7067  0.0386  0.2682
 9406SOL     OW39679   3.323   1.953   1.767  0.3219  0.4413 -0.4441
 9406SOL    HW139680   3.388   1.894   1.729 -0.2138 -1.8673  2.1389
 9406SOL    HW239681   3.292   1.895   1.837 -0.1659  1.0606 -0.1481
 9407SOL     OW39682   4.179   0.786  11.091 -0.1708 -0.1772  0.0063
 9407SOL    HW139683   4.241   0.718  11.066 -0.4499 -1.3550  2.5353
 9407SOL    HW239684   4.171   0.831  11.007  1.2189 -0.8228 -0.4811
 9408SOL     OW39685   2.574   0.263   5.634 -0.1588  0.4070 -0.3060
 9408SOL    HW139686   2.528   0.193   5.589  0.8168 -1.0492  0.9660
 9408SOL    HW239687   2.651   0.269   5.578  0.2540  1.1061  0.3184
 9409SOL     OW39688   3.583   2.904  10.224  0.1319  0.2282 -0.0958
 9409SOL    HW139689   3.565   2.833  10.286 -0.1401 -0.5146 -1.0260
 9409SOL    HW239690   3.494   2.922  10.196  0.2412 -1.5997 -1.6166
 9410SOL     OW39691   2.122   3.070   7.364 -0.4355 -0.3017 -0.0113
 9410SOL    HW139692   2.111   3.104   7.275 -0.6276 -1.1373 -0.3104
 9410SOL    HW239693   2.209   3.101   7.386 -0.2028 -0.4919 -0.6567
 9411SOL     OW39694   0.078   1.069   6.489 -0.3475  0.3353 -0.3959
 9411SOL    HW139695   0.039   1.038   6.570 -0.7744  1.8306 -0.0316
 9411SOL    HW239696   0.112   1.153   6.520 -0.0311 -0.1185  0.4931
 9412SOL     OW39697   1.164   3.397  12.042 -0.4169 -0.6936  0.3423
 9412SOL    HW139698   1.255   3.396  12.015 -0.3940 -0.1245  0.3992
 9412SOL    HW239699   1.124   3.468  11.992 -1.2642 -2.8688 -2.0337
 9413SOL     OW39700   3.035   4.414   2.761  0.1120  0.6713  0.2426
 9413SOL    HW139701   2.975   4.392   2.833 -0.1829  0.1778 -0.1571
 9413SOL    HW239702   3.052   4.328   2.724  0.5714  0.6326  0.5398
 9414SOL     OW39703   1.056   3.526   1.956  0.0837 -0.1135  0.1578
 9414SOL    HW139704   1.100   3.453   1.999  0.8552  0.2631 -0.0079
 9414SOL    HW239705   0.996   3.561   2.023 -0.6316  0.4784 -0.7934
 9415SOL     OW39706   3.300   1.773   2.255  0.0014 -0.5878  0.1129
 9415SOL    HW139707   3.321   1.775   2.161  0.6312 -0.0189  0.2665
 9415SOL    HW239708   3.374   1.723   2.290  1.2002  0.4510 -0.9075
 9416SOL     OW39709   1.621   2.105   8.992 -0.5594  0.1708  0.2945
 9416SOL    HW139710   1.667   2.165   8.933 -2.0116 -1.2155 -2.2341
 9416SOL    HW239711   1.700   2.064   9.027 -0.6930 -0.5679 -0.2685
 9417SOL     OW39712   2.617   0.150   3.109  0.0138  0.3872  0.0445
 9417SOL    HW139713   2.682   0.181   3.045  1.7574  0.4237  1.8560
 9417SOL    HW239714   2.677   0.162   3.182 -0.7339 -0.8211  0.8439
 9418SOL     OW39715   3.903   2.102   9.064  0.5151  0.4551  0.5191
 9418SOL    HW139716   3.974   2.038   9.068  1.9555  1.9392 -1.2715
 9418SOL    HW239717   3.853   2.073   9.140  0.0906  0.7998  0.3707
 9419SOL     OW39718   0.950   4.339  17.384 -0.3595  0.2324  0.6181
 9419SOL    HW139719   0.900   4.273  17.432 -2.6589  2.4885  1.3469
 9419SOL    HW239720   0.997   4.370  17.461  0.3356 -0.3364  0.4234
 9420SOL     OW39721   0.100   3.209   1.279  0.1317  0.5946 -0.1270
 9420SOL    HW139722   0.179   3.169   1.315 -0.3805  2.1304  2.7347
 9420SOL    HW239723   0.036   3.182   1.345  1.0994  2.0264  1.3946
 9421SOL     OW39724   1.902   4.623   9.213 -0.1537  0.0817 -0.8301
 9421SOL    HW139725   1.838   4.643   9.145 -0.9487  1.6026  0.3718
 9421SOL    HW239726   1.982   4.607   9.163  0.3210 -0.6066  0.1343
 9422SOL     OW39727   4.349   3.506   1.039 -0.3284  0.1750 -0.1030
 9422SOL    HW139728   4.271   3.562   1.045 -0.9469 -0.9594  2.7584
 9422SOL    HW239729   4.320   3.417   1.023  1.2279  0.1602 -2.7420
 9423SOL     OW39730   2.845   4.142   7.642 -0.9685  0.4887 -0.0627
 9423SOL    HW139731   2.774   4.154   7.580  0.7638 -1.4149 -2.4361
 9423SOL    HW239732   2.801   4.071   7.688  0.1290  0.7323  1.3853
 9424SOL     OW39733   3.998   0.823   5.652 -0.3939 -0.1303 -0.1596
 9424SOL    HW139734   4.078   0.876   5.654 -0.3567 -0.2515  1.4350
 9424SOL    HW239735   3.941   0.864   5.717  0.3246  1.6140 -0.6240
 9425SOL     OW39736   0.157   3.641   7.750 -0.1540 -0.3961 -0.1511
 9425SOL    HW139737   0.235   3.673   7.705 -0.7807  0.1609 -0.8418
 9425SOL    HW239738   0.091   3.690   7.701  0.4478 -0.3203 -0.8873
 9426SOL     OW39739   1.599   3.321   1.041 -0.2236 -0.3840 -0.5060
 9426SOL    HW139740   1.685   3.297   1.075 -0.9060 -2.1833 -0.0343
 9426SOL    HW239741   1.569   3.390   1.100  1.6576  1.8616 -2.2299
 9427SOL     OW39742   4.607   2.501  12.069 -0.2221 -0.2338  0.4799
 9427SOL    HW139743   4.627   2.433  12.133  2.9094 -0.3456 -0.6324
 9427SOL    HW239744   4.514   2.517  12.086 -0.0350  2.0305 -0.7023
 9428SOL     OW39745   4.639   4.381   4.144 -0.3034 -0.0811 -0.0477
 9428SOL    HW139746   4.549   4.411   4.158  0.0774  1.1798 -0.3741
 9428SOL    HW239747   4.648   4.326   4.221 -0.4511 -0.0802 -0.0290
 9429SOL     OW39748   3.830   1.111   8.363  0.3624  0.6072 -0.2245
 9429SOL    HW139749   3.893   1.061   8.311 -1.1769 -0.4385 -1.0960
 9429SOL    HW239750   3.881   1.185   8.396 -0.2952  1.1948 -0.5101
 9430SOL     OW39751   2.415   3.676  16.694  0.2563 -0.0487  0.0417
 9430SOL    HW139752   2.436   3.768  16.678 -2.0365  1.0005  2.8983
 9430SOL    HW239753   2.492   3.629  16.664  0.4891 -0.8676  1.9204
 9431SOL     OW39754   3.954   2.427   5.295  0.7227 -0.3734 -0.5990
 9431SOL    HW139755   3.963   2.353   5.355 -1.3078  0.1660  0.3774
 9431SOL    HW239756   3.937   2.385   5.211  0.8534 -1.1592 -0.2291
 9432SOL     OW39757   1.165   1.802   5.802  0.4063  0.8354  0.1246
 9432SOL    HW139758   1.242   1.791   5.746 -1.4290  1.3818 -2.5389
 9432SOL    HW239759   1.120   1.862   5.742 -0.7526 -1.0194 -0.8677
 9433SOL     OW39760   2.435   3.739   3.360  0.4487  0.4110  0.0062
 9433SOL    HW139761   2.366   3.734   3.293  0.9356  0.3121 -0.4928
 9433SOL    HW239762   2.515   3.766   3.314 -0.2393  3.2859  0.5226
 9434SOL     OW39763   1.685   4.430  14.495 -0.0165 -0.0225 -0.6882
 9434SOL    HW139764   1.751   4.480  14.448  0.0177 -0.0167 -0.6332
 9434SOL    HW239765   1.648   4.503  14.545 -0.2713 -0.7070  0.1303
 9435SOL     OW39766   3.154   4.298  11.937  0.2942  0.0775  0.4452
 9435SOL    HW139767   3.135   4.381  11.980 -0.5318 -0.8015  1.7571
 9435SOL    HW239768   3.073   4.248  11.936 -0.3902  1.1514  2.1303
 9436SOL     OW39769   2.841   2.170   9.459  0.2592  0.1408 -0.1517
 9436SOL    HW139770   2.754   2.129   9.460  0.7636 -0.9577 -1.1116
 9436SOL    HW239771   2.822   2.238   9.395 -0.3996 -1.9597 -2.2086
 9437SOL     OW39772   2.150   0.347   6.196  0.1705  0.2769  0.3585
 9437SOL    HW139773   2.111   0.433   6.184 -0.1031  0.2021  0.6960
 9437SOL    HW239774   2.220   0.362   6.260  0.9760 -1.0601 -0.2064
 9438SOL     OW39775   0.819   2.149   2.187 -0.0714 -0.0995  0.1103
 9438SOL    HW139776   0.790   2.200   2.111 -0.0481  0.8544  0.7412
 9438SOL    HW239777   0.913   2.167   2.180 -0.2308  0.8563  0.4342
 9439SOL     OW39778   2.257   4.640   7.070 -0.1956 -0.0657  0.6835
 9439SOL    HW139779   2.312   4.562   7.065  0.2449  0.3772 -1.5306
 9439SOL    HW239780   2.297   4.671   7.151 -1.0284 -0.3964  1.2235
 9440SOL     OW39781   1.135   0.333  16.693 -0.4990 -1.4461 -0.3084
 9440SOL    HW139782   1.201   0.280  16.739  1.0100  1.2160  0.6185
 9440SOL    HW239783   1.130   0.409  16.751 -1.1227 -1.7362  0.0098
 9441SOL     OW39784   3.463   2.209  12.754  0.8411  0.3909 -0.5759
 9441SOL    HW139785   3.402   2.259  12.809  1.6699 -0.7844  1.3979
 9441SOL    HW239786   3.537   2.268  12.737  0.3918  1.6602  1.7444
 9442SOL     OW39787   2.735   3.102   2.957  0.0323 -0.1635  0.1933
 9442SOL    HW139788   2.653   3.074   2.914 -0.1048  1.6677 -0.7579
 9442SOL    HW239789   2.717   3.116   3.050 -0.6834  1.3324 -0.1653
 9443SOL     OW39790   0.457   2.043   8.347 -0.0743  0.1807  0.2257
 9443SOL    HW139791   0.446   1.951   8.371 -2.1595  0.5228  0.6507
 9443SOL    HW239792   0.477   2.086   8.430 -0.7696  0.4656  0.2488
 9444SOL     OW39793   3.217   4.602   6.564  0.1511  0.2152  0.0309
 9444SOL    HW139794   3.246   4.669   6.626 -0.0334  0.6218 -0.3228
 9444SOL    HW239795   3.215   4.520   6.614  0.4882 -0.6700 -1.4011
 9445SOL     OW39796   1.681   0.924   4.521  0.4305 -0.2233  0.1931
 9445SOL    HW139797   1.656   0.881   4.440 -1.0123 -0.1756  0.6126
 9445SOL    HW239798   1.649   1.014   4.511  2.5901  0.5183 -0.0162
 9446SOL     OW39799   1.217   0.558  10.775 -0.3503  0.5033  0.5428
 9446SOL    HW139800   1.249   0.471  10.754 -0.1744  1.2155 -2.1382
 9446SOL    HW239801   1.297   0.595  10.812 -0.5766 -0.4831  1.9984
 9447SOL     OW39802   4.019   3.686   4.252  0.1771  0.8501 -0.1010
 9447SOL    HW139803   4.098   3.711   4.203 -0.9834  1.9612 -1.4192
 9447SOL    HW239804   3.950   3.730   4.202 -1.2677 -1.4323 -0.1092
 9448SOL     OW39805   1.392   0.586   2.431 -0.3564 -0.3509 -0.3405
 9448SOL    HW139806   1.457   0.651   2.404  0.1786 -0.4024  0.8341
 9448SOL    HW239807   1.331   0.654   2.461 -1.3542 -0.5649 -1.8617
 9449SOL     OW39808   1.953   0.799   0.746  0.8517 -0.2230  0.7097
 9449SOL    HW139809   2.010   0.871   0.719  0.7636 -0.7428 -0.8787
 9449SOL    HW239810   1.881   0.821   0.687  0.0453  0.1646  1.8417
 9450SOL     OW39811   0.330   3.711   5.360  0.5503  0.0405  0.2302
 9450SOL    HW139812   0.355   3.786   5.307 -0.9739 -0.9924 -1.9440
 9450SOL    HW239813   0.307   3.653   5.287 -0.8404 -1.0115  1.5043
 9451SOL     OW39814   0.569   2.770   4.024  0.5927 -0.1603 -0.1096
 9451SOL    HW139815   0.490   2.721   4.047  0.4991  1.0681  2.2150
 9451SOL    HW239816   0.640   2.707   4.040  1.4299  1.0978  1.1965
 9452SOL     OW39817   1.313   2.977  12.693 -0.4310  0.0111  0.2216
 9452SOL    HW139818   1.347   3.066  12.700  1.1950 -0.5531 -0.5061
 9452SOL    HW239819   1.302   2.983  12.598  0.6341 -3.2233 -0.1030
 9453SOL     OW39820   2.012   1.817   9.874  0.2323 -0.4526 -0.0041
 9453SOL    HW139821   1.966   1.736   9.893  1.3904 -0.9475  0.6894
 9453SOL    HW239822   2.052   1.836   9.958  1.9707 -2.2988 -0.4139
 9454SOL     OW39823   2.659   4.574   5.087  0.0822  0.2690  0.5200
 9454SOL    HW139824   2.734   4.519   5.066 -0.1136 -0.0600  0.6816
 9454SOL    HW239825   2.664   4.644   5.022  1.1485  0.9570  1.3373
 9455SOL     OW39826   0.168   0.104  14.218 -0.7350 -0.1610 -0.2648
 9455SOL    HW139827   0.232   0.157  14.170 -0.1612  0.9151  1.6915
 9455SOL    HW239828   0.223   0.038  14.259 -1.2059 -1.4783 -1.7806
 9456SOL     OW39829   3.614   1.538   7.066 -0.5478  0.3021 -0.1855
 9456SOL    HW139830   3.565   1.608   7.110 -1.2187 -0.2374 -0.0683
 9456SOL    HW239831   3.662   1.576   6.993 -3.0754 -0.7177 -2.3580
 9457SOL     OW39832   1.122   2.654   1.283 -0.0968  0.0928  0.2314
 9457SOL    HW139833   1.062   2.716   1.325 -1.6383 -0.3319 -1.3426
 9457SOL    HW239834   1.185   2.661   1.355  0.4363  2.0176 -0.4151
 9458SOL     OW39835   1.759   4.374   4.317  0.5268  0.6073  0.2075
 9458SOL    HW139836   1.667   4.397   4.328  0.7322  0.5458  1.9180
 9458SOL    HW239837   1.787   4.451   4.267  1.7670 -1.5973 -2.5118
 9459SOL     OW39838   4.615   3.768  14.729 -0.2078 -0.4312 -0.0636
 9459SOL    HW139839   4.675   3.703  14.693  0.3805  0.2229 -0.2673
 9459SOL    HW239840   4.620   3.732  14.817  2.1745 -2.7159 -1.1304
 9460SOL     OW39841   2.715   3.538   1.424  0.3474  0.0041 -0.7514
 9460SOL    HW139842   2.802   3.510   1.395  0.7030 -0.8170  1.0953
 9460SOL    HW239843   2.724   3.588   1.505  1.2457  0.1382 -0.9296
 9461SOL     OW39844   3.466   0.554   5.875 -0.2783  0.1566 -0.1351
 9461SOL    HW139845   3.395   0.512   5.826 -0.8838  0.2335  0.6752
 9461SOL    HW239846   3.474   0.488   5.944  0.1052 -1.2879 -1.5537
 9462SOL     OW39847   0.595   0.279   5.684 -0.6190 -0.1132  0.1808
 9462SOL    HW139848   0.571   0.235   5.603  0.6395 -0.6700  0.1028
 9462SOL    HW239849   0.673   0.229   5.711  0.2428  0.9258 -0.3980
 9463SOL     OW39850   2.689   3.124  12.952  0.6722 -0.1884  0.3826
 9463SOL    HW139851   2.693   3.033  12.921 -0.3064  0.3596 -1.3361
 9463SOL    HW239852   2.764   3.159  12.903  1.4464 -0.8444  1.0998
 9464SOL     OW39853   2.433   3.144   1.742 -0.6121 -0.0337  0.5044
 9464SOL    HW139854   2.408   3.187   1.661  2.4762 -1.1603 -1.0396
 9464SOL    HW239855   2.513   3.104   1.707 -0.4986 -0.0428  0.7709
 9465SOL     OW39856   2.164   2.016   3.062  0.0422 -0.2788  0.4115
 9465SOL    HW139857   2.234   2.082   3.056  0.8737 -1.1259  0.6901
 9465SOL    HW239858   2.200   1.942   3.014 -0.2009  0.0797 -0.3168
 9466SOL     OW39859   1.342   0.047   8.277 -0.1129  0.2799  0.4687
 9466SOL    HW139860   1.310   0.035   8.188  0.8035  0.1080  0.1587
 9466SOL    HW239861   1.293   0.128   8.293 -2.0840 -1.0872  1.3958
 9467SOL     OW39862   2.686   2.796  14.664  0.4911 -0.2206 -0.0383
 9467SOL    HW139863   2.662   2.789  14.572  0.6556  1.0803 -0.1672
 9467SOL    HW239864   2.636   2.722  14.699 -0.6099 -0.2090 -1.5667
 9468SOL     OW39865   1.827   1.613   5.193  0.0382  0.0018  0.8786
 9468SOL    HW139866   1.832   1.570   5.108  2.1208  0.3918  0.7957
 9468SOL    HW239867   1.744   1.657   5.175 -0.0469 -0.4571  0.1653
 9469SOL     OW39868   3.730   2.253   4.719  0.1074 -0.1057  0.1617
 9469SOL    HW139869   3.662   2.315   4.746  0.9789  0.7963  0.2667
 9469SOL    HW239870   3.676   2.173   4.716 -1.9893  1.4322 -2.8727
 9470SOL     OW39871   2.658   1.547   6.459  0.3216 -0.3880 -0.0898
 9470SOL    HW139872   2.699   1.469   6.497 -1.6871 -0.7355  1.3456
 9470SOL    HW239873   2.686   1.614   6.522 -0.6734 -1.5493  1.5924
 9471SOL     OW39874   1.265   1.545  15.854 -0.1100 -0.0432 -0.0246
 9471SOL    HW139875   1.275   1.622  15.910  1.1080 -1.5055  1.7679
 9471SOL    HW239876   1.358   1.533  15.836  0.1136  1.0042  0.4763
 9472SOL     OW39877   2.223   0.898  17.489 -0.0136 -0.1054  0.4552
 9472SOL    HW139878   2.186   0.849  17.416 -2.3207 -0.1209  1.6430
 9472SOL    HW239879   2.253   0.975  17.440 -0.5562 -0.5879 -0.6536
 9473SOL     OW39880   1.967   4.252   9.779 -0.5064 -0.6159  0.5816
 9473SOL    HW139881   1.929   4.188   9.839  0.5390 -1.3716  0.4355
 9473SOL    HW239882   1.980   4.207   9.696  0.5267  0.7859 -0.0334
 9474SOL     OW39883   1.924   0.835   4.152  0.4102  0.5129  0.7690
 9474SOL    HW139884   1.912   0.922   4.190 -1.1255  0.3962  0.5216
 9474SOL    HW239885   1.964   0.848   4.066  0.0872 -1.3116  0.3459
 9475SOL     OW39886   0.341   0.653   5.114  0.4460  0.3438 -0.5424
 9475SOL    HW139887   0.366   0.672   5.205  1.2742  0.7099 -0.8431
 9475SOL    HW239888   0.315   0.563   5.134 -0.4484  0.4275 -1.3149
 9476SOL     OW39889   4.212   2.266  12.625  0.2368 -0.4446  0.1723
 9476SOL    HW139890   4.300   2.268  12.664  2.2585  1.3988 -4.5270
 9476SOL    HW239891   4.174   2.343  12.667  3.1272 -0.1793  2.3089
 9477SOL     OW39892   0.059   1.656  13.678  0.2653  0.2127 -0.5384
 9477SOL    HW139893   0.064   1.748  13.706 -1.4280  0.1471 -0.0279
 9477SOL    HW239894   0.039   1.667  13.585  1.8763 -0.9467 -1.0260
 9478SOL     OW39895   1.577   1.257   6.891 -0.1906  0.6951  0.4429
 9478SOL    HW139896   1.653   1.304   6.856 -2.8077  1.6340 -3.9961
 9478SOL    HW239897   1.599   1.168   6.864 -2.0975  1.1167 -2.5001
 9479SOL     OW39898   4.135   3.605   9.436  0.2940  0.1712 -0.0784
 9479SOL    HW139899   4.220   3.622   9.395  0.3367 -0.4709 -0.2587
 9479SOL    HW239900   4.085   3.589   9.356  0.5476  0.2727 -0.2574
 9480SOL     OW39901   3.949   3.196   6.280  0.0712  0.4641  0.2554
 9480SOL    HW139902   3.853   3.199   6.283  0.0066 -1.3221 -0.0351
 9480SOL    HW239903   3.972   3.162   6.367  1.5733  1.9269  0.4303
 9481SOL     OW39904   0.982   2.769   7.070 -0.0267  0.2124  0.3461
 9481SOL    HW139905   0.908   2.829   7.058 -0.2885 -0.3141 -0.7038
 9481SOL    HW239906   0.932   2.701   7.117  1.8256  0.0157  2.0379
 9482SOL     OW39907   1.471   2.718   2.622  0.3135 -0.6158 -0.3754
 9482SOL    HW139908   1.552   2.767   2.604 -0.5958 -0.4520 -3.9655
 9482SOL    HW239909   1.496   2.667   2.699  0.3531  0.7258  0.4867
 9483SOL     OW39910   3.715   3.533   9.666  0.3505  0.1971 -0.2047
 9483SOL    HW139911   3.746   3.442   9.669 -1.3177 -0.3989 -1.3165
 9483SOL    HW239912   3.713   3.550   9.760  1.7799 -0.2595 -0.0851
 9484SOL     OW39913   1.429   0.052   2.395  0.2683 -0.0284 -0.1924
 9484SOL    HW139914   1.419   0.147   2.389 -0.3877 -0.1981 -1.9803
 9484SOL    HW239915   1.346   0.021   2.359  0.7184 -0.4259 -0.8987
 9485SOL     OW39916   1.231   1.887   4.716 -0.8104 -0.1516 -0.2965
 9485SOL    HW139917   1.302   1.893   4.779 -0.4559  1.0227 -0.8063
 9485SOL    HW239918   1.253   1.809   4.665  0.9351 -0.1817  0.5234
 9486SOL     OW39919   4.110   4.308  16.802 -0.0656 -0.6956  0.5966
 9486SOL    HW139920   4.108   4.336  16.711 -1.5809 -1.6668  0.3277
 9486SOL    HW239921   4.015   4.295  16.813  0.2847 -1.8730  2.2817
 9487SOL     OW39922   4.203   1.468   5.673  0.3040 -0.5131 -0.1600
 9487SOL    HW139923   4.160   1.506   5.750  1.3067  0.6598 -0.1759
 9487SOL    HW239924   4.294   1.493   5.689 -0.2178  1.4483 -0.1917
 9488SOL     OW39925   3.205   1.200   9.225 -0.3325  0.1019 -0.3937
 9488SOL    HW139926   3.289   1.182   9.267 -2.8266 -2.1591  3.5900
 9488SOL    HW239927   3.159   1.261   9.282 -1.3193 -0.6839 -0.3564
 9489SOL     OW39928   0.589   1.368   6.421  0.8383 -0.5267 -0.1500
 9489SOL    HW139929   0.536   1.338   6.494  1.9353  0.3229  0.9896
 9489SOL    HW239930   0.651   1.299   6.398  2.0374  0.5066 -0.0531
 9490SOL     OW39931   4.572   4.376   5.443 -0.2261 -0.4762  0.2332
 9490SOL    HW139932   4.642   4.313   5.457 -0.2971 -0.7060 -0.4416
 9490SOL    HW239933   4.493   4.323   5.428  1.4514 -2.9937  0.3774
 9491SOL     OW39934   1.898   0.189   5.231 -0.1246  0.1885 -0.3802
 9491SOL    HW139935   1.951   0.140   5.294  0.3362 -1.6151 -2.1728
 9491SOL    HW239936   1.846   0.113   5.204 -0.4643  0.3150 -0.0888
 9492SOL     OW39937   4.571   0.369   9.910  0.4967  0.7009  0.5850
 9492SOL    HW139938   4.580   0.427   9.834  1.1393  1.1950  1.0354
 9492SOL    HW239939   4.592   0.284   9.871  0.2216  1.0653 -0.3421
 9493SOL     OW39940   3.342   0.525   3.234  0.1816 -0.1690  0.7700
 9493SOL    HW139941   3.345   0.601   3.293 -0.5397  0.7294 -0.3508
 9493SOL    HW239942   3.418   0.474   3.262 -0.9568 -1.1862  1.9500
 9494SOL     OW39943   3.109   3.200   6.382  0.1471 -0.1480 -0.2019
 9494SOL    HW139944   3.144   3.115   6.354  0.0132 -0.4638  0.5628
 9494SOL    HW239945   3.071   3.183   6.469 -1.0754 -1.7181 -1.0424
 9495SOL     OW39946   1.534   3.881   2.352 -0.6381 -0.0917 -0.2415
 9495SOL    HW139947   1.528   3.972   2.382  1.9693  0.2049 -0.5697
 9495SOL    HW239948   1.484   3.828   2.413 -1.0323  1.5274  0.8292
 9496SOL     OW39949   2.526   0.321  10.193  0.5174  0.3807 -0.1350
 9496SOL    HW139950   2.561   0.312  10.282 -1.2557 -0.3106  0.4978
 9496SOL    HW239951   2.593   0.286  10.134 -0.6134 -1.8192 -0.1170
 9497SOL     OW39952   3.609   3.924   3.021  0.2709 -0.1601 -0.6515
 9497SOL    HW139953   3.644   4.010   3.046  1.1759 -0.4420 -0.9351
 9497SOL    HW239954   3.532   3.923   3.078  0.0301 -0.1159 -0.9802
 9498SOL     OW39955   3.307   0.015   8.818  1.0352  0.1250 -1.3343
 9498SOL    HW139956   3.356   0.021   8.900 -1.2088 -0.3610  0.0312
 9498SOL    HW239957   3.369   4.690   8.762  0.9384 -1.0862 -0.4597
 9499SOL     OW39958   2.349   4.438   4.059 -0.2347 -0.2041  0.3504
 9499SOL    HW139959   2.330   4.378   4.132  0.4344 -1.0467 -0.1555
 9499SOL    HW239960   2.431   4.485   4.073  0.5590 -0.9922 -1.6838
 9500SOL     OW39961   1.001   1.061   4.610  0.2872 -0.3920  0.1672
 9500SOL    HW139962   0.933   1.126   4.624  2.2503  1.3708  1.4122
 9500SOL    HW239963   0.968   0.983   4.655 -1.2198 -0.4676 -1.0955
 9501SOL     OW39964   4.224   3.393   4.674 -0.3439 -0.4224 -0.2636
 9501SOL    HW139965   4.246   3.467   4.618  0.6891  1.0166  2.0816
 9501SOL    HW239966   4.214   3.437   4.759 -3.1180 -4.4127  1.4906
 9502SOL     OW39967   0.358   1.646   3.019 -0.9760  0.0891  0.0073
 9502SOL    HW139968   0.315   1.596   3.088  0.1792  0.3112  0.8791
 9502SOL    HW239969   0.330   1.596   2.942  0.0104  0.4021 -0.5521
 9503SOL     OW39970   2.407   1.152   4.793  0.1273  0.0216  0.2685
 9503SOL    HW139971   2.316   1.163   4.764  0.3443  0.2281 -0.3388
 9503SOL    HW239972   2.445   1.107   4.718  2.5166  0.2318  1.3518
 9504SOL     OW39973   0.155   0.938   2.819  0.4072  0.2081 -0.2405
 9504SOL    HW139974   0.121   0.851   2.837 -0.8238  0.7705  0.2117
 9504SOL    HW239975   0.188   0.933   2.729 -0.7428 -0.7160 -0.6108
 9505SOL     OW39976   3.790   2.002   5.001 -0.2014 -0.5111  0.4927
 9505SOL    HW139977   3.711   2.050   4.979 -1.2587 -1.9269  1.1874
 9505SOL    HW239978   3.841   1.996   4.921 -1.0746  1.1961 -0.2072
 9506SOL     OW39979   4.247   4.575   2.244  0.5448 -0.4406 -0.2114
 9506SOL    HW139980   4.296   4.657   2.253  1.4127 -1.0618  0.7331
 9506SOL    HW239981   4.166   4.621   2.265  1.7011  1.8725 -0.6768
 9507SOL     OW39982   3.060   2.547   3.987  0.0144  0.1570 -0.0738
 9507SOL    HW139983   2.970   2.521   4.008  0.2018  0.2540  0.8473
 9507SOL    HW239984   3.107   2.541   4.070  0.7222  1.2512 -0.3891
 9508SOL     OW39985   4.271   3.839   1.315 -0.1752 -0.3410 -0.2992
 9508SOL    HW139986   4.272   3.833   1.410 -0.1251  0.5480 -0.2387
 9508SOL    HW239987   4.207   3.776   1.283 -2.9830  0.8316  3.0526
 9509SOL     OW39988   4.016   1.567   6.805  0.4469 -0.2332 -0.0534
 9509SOL    HW139989   4.103   1.536   6.780  0.9906  2.1658 -1.1905
 9509SOL    HW239990   3.958   1.506   6.760  1.2333  0.6992 -2.3623
 9510SOL     OW39991   2.126   0.204  13.305 -0.1981  0.0403 -0.3882
 9510SOL    HW139992   2.214   0.215  13.270 -0.2875  1.4281 -0.2042
 9510SOL    HW239993   2.093   0.294  13.295  0.8437  0.5181  0.4179
 9511SOL     OW39994   0.788   1.498  15.325  0.0546  0.2102  1.2748
 9511SOL    HW139995   0.834   1.499  15.241  1.5303 -0.2100  2.1003
 9511SOL    HW239996   0.851   1.440  15.367  0.5928  0.2122  0.4500
 9512SOL     OW39997   2.901   1.875   7.668  0.0048  0.2398 -0.7027
 9512SOL    HW139998   2.921   1.950   7.725  0.1314 -0.0802 -0.3258
 9512SOL    HW239999   2.867   1.812   7.731 -1.0194 -0.0946 -1.5948
 9513SOL     OW40000   4.644   2.357   0.675  0.1878 -0.0425  0.5173
 9513SOL    HW140001   4.695   2.291   0.627 -1.2705 -1.6926  1.2386
 9513SOL    HW240002   4.678   2.436   0.633  2.0932 -2.7665 -3.0607
 9514SOL     OW40003   2.571   3.405   7.567  0.1591 -0.2306 -0.6023
 9514SOL    HW140004   2.602   3.487   7.528 -0.5506 -0.8547 -2.4405
 9514SOL    HW240005   2.620   3.404   7.650 -1.8202  0.5057  0.5818
 9515SOL     OW40006   0.090   0.630   2.115 -0.2968 -0.5839 -0.4422
 9515SOL    HW140007   0.065   0.663   2.202 -0.6214  0.7554 -1.0376
 9515SOL    HW240008   0.182   0.654   2.122 -0.4274 -0.6879  1.7684
 9516SOL     OW40009   0.440   1.933  11.680  0.3082  0.0953 -0.0834
 9516SOL    HW140010   0.457   1.879  11.603  0.8343 -1.3443  1.0552
 9516SOL    HW240011   0.522   1.983  11.684  0.2671  0.0113  1.6358
 9517SOL     OW40012   3.384   1.092  11.757 -0.2916  0.5036 -0.0771
 9517SOL    HW140013   3.403   1.003  11.788 -2.1169 -0.4659 -1.7340
 9517SOL    HW240014   3.321   1.075  11.687 -0.6210 -0.8212  0.5457
 9518SOL     OW40015   0.085   1.125  11.342  0.5131 -0.0960  0.2211
 9518SOL    HW140016   0.133   1.044  11.324  0.4735  0.0684 -0.5903
 9518SOL    HW240017   0.090   1.119  11.438  3.8693 -1.9954 -0.0697
 9519SOL     OW40018   0.114   2.411   1.959  0.3059  0.0385 -0.6525
 9519SOL    HW140019   0.109   2.448   2.047  1.2534  0.5827 -0.8318
 9519SOL    HW240020   0.061   2.481   1.920  0.5222  0.6683  0.1739
 9520SOL     OW40021   0.381   3.147   7.404  0.4593  0.2522 -0.0967
 9520SOL    HW140022   0.311   3.135   7.340  0.9735  0.7831 -0.7716
 9520SOL    HW240023   0.407   3.058   7.425 -1.3077 -0.3994 -0.6317
 9521SOL     OW40024   3.127   3.909  12.869 -0.0498  0.8062  0.1674
 9521SOL    HW140025   3.200   3.965  12.840  0.0562 -0.1571 -1.4318
 9521SOL    HW240026   3.173   3.845  12.924  1.4166  1.4947 -0.2556
 9522SOL     OW40027   0.505   0.880   4.003  0.5034  0.6329 -0.1361
 9522SOL    HW140028   0.421   0.897   3.961 -0.3153 -1.0609  0.7998
 9522SOL    HW240029   0.495   0.792   4.040  2.2040  2.3589  4.4548
 9523SOL     OW40030   4.672   3.595   4.479 -0.1681 -0.3996  0.1102
 9523SOL    HW140031   0.004   3.649   4.421 -0.2648  1.4775  1.7560
 9523SOL    HW240032   4.580   3.610   4.456 -0.1394  0.7968  0.7586
 9524SOL     OW40033   2.753   3.351  16.888  0.1074  0.1788  0.2435
 9524SOL    HW140034   2.725   3.372  16.799  1.0209 -1.7425 -0.4804
 9524SOL    HW240035   2.682   3.288  16.899  1.4057 -1.4237 -0.6842
 9525SOL     OW40036   3.172   2.619  11.639 -0.2033 -0.0635 -0.2841
 9525SOL    HW140037   3.165   2.691  11.576 -0.3476 -0.4006 -0.6567
 9525SOL    HW240038   3.191   2.674  11.715 -0.7938  0.0656 -0.2302
 9526SOL     OW40039   0.200   0.068   8.706 -0.2326 -0.3556  0.2322
 9526SOL    HW140040   0.130   0.118   8.747  1.8466  1.6859  1.3209
 9526SOL    HW240041   0.214   0.108   8.621 -0.4745 -0.1937  0.2717
 9527SOL     OW40042   4.061   4.288   9.024  0.2780  0.2179  0.2425
 9527SOL    HW140043   4.001   4.344   9.073 -0.9408  0.4777 -1.4957
 9527SOL    HW240044   4.106   4.234   9.088 -0.9611 -1.5854 -0.3972
 9528SOL     OW40045   4.387   3.510   5.324 -0.4823  0.4567  0.0418
 9528SOL    HW140046   4.454   3.576   5.342  0.2020 -0.6210  1.5070
 9528SOL    HW240047   4.355   3.541   5.240  0.8306  0.2919 -0.5208
 9529SOL     OW40048   0.305   1.077   2.461 -0.0808 -1.0624 -0.0425
 9529SOL    HW140049   0.333   1.059   2.371 -1.3991 -2.5569 -0.1623
 9529SOL    HW240050   0.271   0.991   2.483 -1.3194  0.4915  4.0643
 9530SOL     OW40051   0.678   1.149   7.726 -0.4876  0.1666 -0.0783
 9530SOL    HW140052   0.633   1.065   7.721 -1.5165  0.6749  0.4865
 9530SOL    HW240053   0.768   1.119   7.739 -0.4532  0.3232  0.0409
 9531SOL     OW40054   3.376   0.528  14.363 -0.1567  0.7867  0.4054
 9531SOL    HW140055   3.450   0.584  14.385  1.3140 -1.1101  0.2708
 9531SOL    HW240056   3.342   0.580  14.290 -0.8086  0.4797  0.4845
 9532SOL     OW40057   0.045   4.559   6.384 -0.4245  0.0781  0.0143
 9532SOL    HW140058   0.018   4.627   6.445  1.9033  1.2584 -0.2569
 9532SOL    HW240059   0.000   4.592   6.307 -0.3897  0.6515  0.2424
 9533SOL     OW40060   0.308   3.245   6.810  0.0885 -0.0378  0.7111
 9533SOL    HW140061   0.307   3.302   6.887  0.0474  0.0183  0.6688
 9533SOL    HW240062   0.402   3.243   6.789 -0.2541  1.0307 -0.9674
 9534SOL     OW40063   0.486   4.234   7.921 -0.2568 -0.1151 -0.5577
 9534SOL    HW140064   0.460   4.164   7.860  0.7494 -0.5828 -0.4409
 9534SOL    HW240065   0.562   4.193   7.962 -2.0304 -1.2226  1.6918
 9535SOL     OW40066   1.925   3.154  17.092  0.3354  0.1204  0.1540
 9535SOL    HW140067   1.836   3.136  17.122  0.2492 -1.8782 -1.3334
 9535SOL    HW240068   1.908   3.195  17.007 -0.4069  0.5550  0.5170
 9536SOL     OW40069   4.091   2.968   5.793 -0.3733 -0.1270 -0.6419
 9536SOL    HW140070   4.028   2.962   5.865  1.5350 -2.1537  0.8396
 9536SOL    HW240071   4.174   2.964   5.839 -0.1390  1.1863 -0.9570
 9537SOL     OW40072   2.882   2.953   5.946  0.0640 -0.5433  0.0310
 9537SOL    HW140073   2.872   3.047   5.963 -1.3627 -0.7981  0.5701
 9537SOL    HW240074   2.953   2.954   5.882 -0.1090 -1.3144 -0.1614
 9538SOL     OW40075   2.833   3.917   4.907 -0.8660 -0.2869  0.3735
 9538SOL    HW140076   2.862   3.827   4.916  0.6681  0.2560  0.9364
 9538SOL    HW240077   2.738   3.905   4.906 -0.7253 -1.2833 -1.6735
 9539SOL     OW40078   3.619   2.245   2.703  0.1496  0.5002  0.0966
 9539SOL    HW140079   3.609   2.312   2.770  0.0357  0.3180  0.2637
 9539SOL    HW240080   3.603   2.163   2.751  1.8655  1.2968  2.0155
 9540SOL     OW40081   2.070   4.187   8.880 -0.7484 -0.0803  0.2327
 9540SOL    HW140082   2.024   4.221   8.803 -1.1506 -3.3830 -0.9902
 9540SOL    HW240083   2.163   4.194   8.860 -0.2985 -3.9748  0.8364
 9541SOL     OW40084   2.592   3.312   5.059 -0.1722 -0.9726  0.4607
 9541SOL    HW140085   2.603   3.391   5.006 -1.3219 -1.4520 -0.4797
 9541SOL    HW240086   2.678   3.314   5.101 -0.2120  0.0002  0.5066
 9542SOL     OW40087   2.667   0.961   8.344 -0.3364  0.4371  0.1431
 9542SOL    HW140088   2.759   0.981   8.359 -0.4320  1.0313 -0.0593
 9542SOL    HW240089   2.634   0.951   8.433 -2.3251 -3.0573 -0.9893
 9543SOL     OW40090   0.083   4.646   9.549  0.0563  0.4375 -0.0573
 9543SOL    HW140091   0.034   0.001   9.518  0.3067  0.2700 -0.8750
 9543SOL    HW240092   0.078   4.586   9.475 -0.9803 -1.0813  1.2244
 9544SOL     OW40093   1.683   4.505   6.526 -0.4952 -0.2699 -0.8867
 9544SOL    HW140094   1.757   4.445   6.520 -1.0823 -1.3614  2.7207
 9544SOL    HW240095   1.612   4.444   6.546 -2.0141  1.4099 -1.1899
 9545SOL     OW40096   0.384   4.510   7.530  0.6676  0.0685  0.2904
 9545SOL    HW140097   0.474   4.530   7.506  0.7461  1.7984  2.0197
 9545SOL    HW240098   0.348   4.599   7.524  1.9043  0.3556 -2.6682
 9546SOL     OW40099   4.059   2.670   6.161 -0.2658 -0.2354  0.0751
 9546SOL    HW140100   4.048   2.576   6.175 -0.0400 -0.2564  0.1170
 9546SOL    HW240101   4.053   2.700   6.252 -1.3951 -1.1537  0.2931
 9547SOL     OW40102   2.934   4.320   5.905 -0.3981  0.0661  0.2544
 9547SOL    HW140103   2.921   4.410   5.935  1.5766  0.2599  0.5097
 9547SOL    HW240104   2.910   4.327   5.812  0.0133  2.5980  0.3447
 9548SOL     OW40105   2.177   3.204   9.899  0.2836 -0.4720  0.3174
 9548SOL    HW140106   2.106   3.203   9.835  2.3960 -0.4125 -2.0398
 9548SOL    HW240107   2.147   3.132   9.954 -0.0681 -2.8504 -3.0129
 9549SOL     OW40108   0.229   2.769  15.502 -0.6618  0.5145 -0.9966
 9549SOL    HW140109   0.288   2.695  15.491 -3.1547 -1.6166 -0.0818
 9549SOL    HW240110   0.174   2.768  15.423  0.7113  0.2194 -1.9385
 9550SOL     OW40111   0.497   3.681   2.648 -0.1209 -0.4320  0.0695
 9550SOL    HW140112   0.546   3.747   2.697 -0.1122  0.7926 -1.5558
 9550SOL    HW240113   0.527   3.604   2.696 -3.5339 -0.4918  2.1158
 9551SOL     OW40114   3.695   4.268  12.468  0.0682 -0.0409 -0.4341
 9551SOL    HW140115   3.772   4.239  12.420  0.5777 -0.7492  0.8306
 9551SOL    HW240116   3.629   4.216  12.422 -0.5833  1.0036 -0.6949
 9552SOL     OW40117   0.632   4.270   1.999  0.1018  0.0711  0.2080
 9552SOL    HW140118   0.583   4.202   2.045 -1.3591  1.0564  0.0760
 9552SOL    HW240119   0.711   4.272   2.052  1.1289  1.2391 -1.3564
 9553SOL     OW40120   1.878   0.362   4.226  0.5764 -0.4698 -0.8629
 9553SOL    HW140121   1.849   0.329   4.311  0.9345  2.0894  0.2311
 9553SOL    HW240122   1.899   0.455   4.235  2.3265 -1.0300  0.7452
 9554SOL     OW40123   4.367   1.748  16.380 -0.2836  0.2764  0.4058
 9554SOL    HW140124   4.411   1.686  16.438  0.9972 -0.0773 -0.9631
 9554SOL    HW240125   4.441   1.803  16.356  1.6290 -2.4379  0.1664
 9555SOL     OW40126   4.328   2.765  14.840  0.3240  0.1310  0.0226
 9555SOL    HW140127   4.389   2.811  14.897 -1.0537  0.5682  1.1478
 9555SOL    HW240128   4.377   2.777  14.759 -1.4253 -0.1920 -1.0639
 9556SOL     OW40129   4.201   2.304   9.255 -0.4445 -0.4251 -0.1738
 9556SOL    HW140130   4.287   2.345   9.245  0.9069 -2.9715  0.7854
 9556SOL    HW240131   4.143   2.376   9.230  0.2201  0.5808  1.2119
 9557SOL     OW40132   3.092   0.781   6.601 -0.2139 -0.0029  0.0531
 9557SOL    HW140133   3.165   0.843   6.599 -0.4227  0.2700  0.9825
 9557SOL    HW240134   3.087   0.752   6.692  1.4751 -0.6943 -0.0848
 9558SOL     OW40135   0.193   1.366   9.367  0.0337 -0.2851  0.3688
 9558SOL    HW140136   0.162   1.456   9.374 -0.4997 -0.4710  0.3515
 9558SOL    HW240137   0.155   1.341   9.283 -1.2234 -0.7413  1.0850
 9559SOL     OW40138   1.644   0.469  11.056 -0.7942 -0.2699  0.3171
 9559SOL    HW140139   1.654   0.474  11.152  1.5030  0.8700  0.0360
 9559SOL    HW240140   1.728   0.504  11.026 -1.6965  2.3889  0.8595
 9560SOL     OW40141   2.654   0.513   5.754  0.0497  0.5225  0.2259
 9560SOL    HW140142   2.712   0.468   5.816 -0.9539 -0.9483  0.1065
 9560SOL    HW240143   2.641   0.452   5.681 -2.4752 -1.5112  2.3920
 9561SOL     OW40144   3.228   1.903   8.613  0.2196 -0.5475  0.1987
 9561SOL    HW140145   3.211   1.841   8.683 -0.8058  0.7017  1.0514
 9561SOL    HW240146   3.151   1.900   8.556  0.8252  1.6859 -0.7543
 9562SOL     OW40147   2.201   4.317  15.906  0.4624 -0.2472 -0.0105
 9562SOL    HW140148   2.203   4.310  15.810  1.9273 -1.4253  0.1100
 9562SOL    HW240149   2.281   4.369  15.913  0.2460 -0.2297  2.3694
 9563SOL     OW40150   3.228   2.754   6.184 -0.0326  0.2218 -0.3310
 9563SOL    HW140151   3.141   2.742   6.145  0.0158  2.3806 -1.0678
 9563SOL    HW240152   3.272   2.688   6.130  1.7421  0.7374  0.4752
 9564SOL     OW40153   0.609   4.452  11.872  0.4949 -0.9226  0.2601
 9564SOL    HW140154   0.699   4.419  11.869  0.6281 -0.7042  1.8790
 9564SOL    HW240155   0.565   4.400  11.940 -1.4488 -0.1087 -0.3545
 9565SOL     OW40156   4.374   1.845   6.770 -0.3847 -0.7786 -0.5767
 9565SOL    HW140157   4.469   1.858   6.773 -0.4792 -0.2662  0.1475
 9565SOL    HW240158   4.369   1.750   6.760 -0.8404 -0.6815 -1.2671
 9566SOL     OW40159   3.982   4.050   7.024 -0.4320  0.6068 -0.5953
 9566SOL    HW140160   3.983   4.111   6.951 -1.3283  1.2345 -0.0695
 9566SOL    HW240161   4.011   3.968   6.982  1.1478 -0.5269  2.6976
 9567SOL     OW40162   0.031   0.060   3.759 -0.4589 -0.4774  0.6843
 9567SOL    HW140163   0.094   4.717   3.793 -0.3121 -1.2035 -0.9489
 9567SOL    HW240164   0.032   0.130   3.823  1.4080  1.3812 -1.4007
 9568SOL     OW40165   0.855   3.726   5.993  0.1816 -0.3809  0.4340
 9568SOL    HW140166   0.907   3.752   5.917 -0.0933 -1.3923 -0.1109
 9568SOL    HW240167   0.764   3.731   5.963  0.7089  2.7568 -0.6255
   4.72120   4.72120  17.68718
